<event>
 7    1  0.6173324E-006  0.6078875E+02  0.7818608E-02  0.1496976E+00
          2   -1    0    0  502    0  0.00000000000E+00  0.00000000000E+00  0.11368410999E+03  0.11368410999E+03  0.00000000000E+00 0. -1.
          1   -1    0    0  501    0 -0.00000000000E+00 -0.00000000000E+00 -0.50743218122E+03  0.50743218122E+03  0.00000000000E+00 0. -1.
         25    2    1    2    0    0 -0.75864656374E+02 -0.14315587659E+02 -0.29173095638E+03  0.32663981507E+03  0.12500494286E+03 0.  0.
          2    1    1    2  501    0  0.57064664423E+02 -0.70050071514E+01 -0.19183644957E+03  0.20026649604E+03  0.00000000000E+00 0. -1.
          1    1    1    2  502    0  0.18799991950E+02  0.21320594811E+02  0.89819334728E+02  0.94209980105E+02  0.00000000000E+00 0. -1.
         22    1    3    3    0    0  0.14823956370E+02  0.35481506426E+02 -0.45608608439E+02  0.59655948106E+02  0.00000000000E+00 0. -1.
         22    1    3    3    0    0 -0.90688612743E+02 -0.49797094085E+02 -0.24612234794E+03  0.26698386696E+03  0.00000000000E+00 0. -1.
</event>
<event>
 7    1  0.6173324E-006  0.1680418E+03  0.7818608E-02  0.1316364E+00
          2   -1    0    0  502    0  0.00000000000E+00  0.00000000000E+00  0.13380487144E+04  0.13380487144E+04  0.00000000000E+00 0. -1.
          1   -1    0    0  501    0 -0.00000000000E+00 -0.00000000000E+00 -0.50755379787E+03  0.50755379787E+03  0.00000000000E+00 0. -1.
         25    2    1    2    0    0 -0.84926149111E+02 -0.12925154479E+03  0.23320420042E+01  0.19886990606E+03  0.12500155393E+03 0.  0.
          2    1    1    2  501    0 -0.39858863951E+02  0.15137869756E+02 -0.40237663505E+03  0.40462926311E+03  0.00000000000E+00 0. -1.
          1    1    1    2  502    0  0.12478501306E+03  0.11411367504E+03  0.12305395096E+04  0.12421033431E+04  0.00000000000E+00 0. -1.
         22    1    3    3    0    0 -0.86270617652E+02 -0.96337306311E+02 -0.48652986721E+02  0.13816877062E+03  0.00000000000E+00 0.  1.
         22    1    3    3    0    0  0.13444685411E+01 -0.32914238480E+02  0.50985028725E+02  0.60701135446E+02  0.00000000000E+00 0.  1.
</event>
<event>
 7    1  0.6173324E-006  0.1555847E+03  0.7818608E-02  0.1261182E+00
          2   -1    0    0  502    0  0.00000000000E+00  0.00000000000E+00  0.35024412071E+04  0.35024412071E+04  0.00000000000E+00 0. -1.
          1   -1    0    0  501    0 -0.00000000000E+00 -0.00000000000E+00 -0.86317156928E+03  0.86317156928E+03  0.00000000000E+00 0. -1.
         25    2    1    2    0    0  0.94874988807E+02  0.74709708521E+02  0.55208549952E+03  0.57879718674E+03  0.12499992219E+03 0.  0.
          2    1    1    2  501    0 -0.60580859310E+02 -0.14399229488E+03 -0.84212232062E+03  0.85648924359E+03  0.00000000000E+00 0. -1.
          1    1    1    2  502    0 -0.34294129498E+02  0.69282586355E+02  0.29293064589E+04  0.29303263460E+04  0.00000000000E+00 0. -1.
         22    1    3    3    0    0  0.10009985924E+03  0.14233663780E+02  0.43854264633E+03  0.45004692161E+03  0.00000000000E+00 0.  1.
         22    1    3    3    0    0 -0.52248704371E+01  0.60476044742E+02  0.11354285320E+03  0.12875026513E+03  0.00000000000E+00 0.  1.
</event>
<event>
 7    1  0.6173324E-006  0.8227330E+02  0.7818608E-02  0.1351453E+00
          2   -1    0    0  502    0  0.00000000000E+00  0.00000000000E+00  0.13750427879E+04  0.13750427879E+04  0.00000000000E+00 0. -1.
          1   -1    0    0  501    0 -0.00000000000E+00 -0.00000000000E+00 -0.57047332026E+03  0.57047332026E+03  0.00000000000E+00 0. -1.
         25    2    1    2    0    0 -0.19188910516E+02 -0.16298992324E+02  0.31052409215E+02  0.13123398351E+03  0.12499693945E+03 0.  0.
          2    1    1    2  501    0 -0.63912593534E+02  0.45193049612E+01 -0.51704192368E+03  0.52099673182E+03  0.00000000000E+00 0. -1.
          1    1    1    2  502    0  0.83101504050E+02  0.11779687363E+02  0.12905589821E+04  0.12932853928E+04  0.00000000000E+00 0. -1.
         22    1    3    3    0    0 -0.96140854667E+01 -0.54728083502E+02 -0.26348269870E+02  0.61496545337E+02  0.00000000000E+00 0.  1.
         22    1    3    3    0    0 -0.95748250490E+01  0.38429091179E+02  0.57400679084E+02  0.69737438173E+02  0.00000000000E+00 0.  1.
</event>
<event>
 7    1  0.6173324E-006  0.1561570E+03  0.7818608E-02  0.1257438E+00
          2   -1    0    0  502    0  0.00000000000E+00  0.00000000000E+00  0.86848810126E+02  0.86848810126E+02  0.00000000000E+00 0. -1.
          1   -1    0    0  501    0 -0.00000000000E+00 -0.00000000000E+00 -0.18485869424E+04  0.18485869424E+04  0.00000000000E+00 0. -1.
         25    2    1    2    0    0  0.19323923593E+03  0.47842195808E+02 -0.39772283419E+03  0.46199350179E+03  0.12499705937E+03 0.  0.
          2    1    1    2  501    0 -0.46035038894E+02 -0.65320571247E+02 -0.13148314788E+04  0.13172576890E+04  0.00000000000E+00 0. -1.
          1    1    1    2  502    0 -0.14720419704E+03  0.17478375439E+02 -0.49183819365E+02  0.15618456173E+03  0.00000000000E+00 0. -1.
         22    1    3    3    0    0  0.10411405971E+03 -0.32940780933E+02 -0.23965481025E+03  0.26336146368E+03  0.00000000000E+00 0. -1.
         22    1    3    3    0    0  0.89125176229E+02  0.80782976741E+02 -0.15806802394E+03  0.19863203810E+03  0.00000000000E+00 0. -1.
</event>
<event>
 7    1  0.6173324E-006  0.9750434E+02  0.7818608E-02  0.1354026E+00
          2   -1    0    0  502    0  0.00000000000E+00  0.00000000000E+00  0.42877288325E+04  0.42877288325E+04  0.00000000000E+00 0. -1.
          1   -1    0    0  501    0 -0.00000000000E+00 -0.00000000000E+00 -0.15547028683E+04  0.15547028683E+04  0.00000000000E+00 0. -1.
         25    2    1    2    0    0 -0.13355481563E+02  0.67067720894E+02  0.99155687152E+03  0.10017431208E+04  0.12501120972E+03 0.  0.
          2    1    1    2  501    0 -0.33486485426E+02 -0.91637884529E+02 -0.15478612154E+04  0.15509330058E+04  0.00000000000E+00 0. -1.
          1    1    1    2  502    0  0.46841966989E+02  0.24570163634E+02  0.32893303080E+04  0.32897555742E+04  0.00000000000E+00 0. -1.
         22    1    3    3    0    0 -0.28360311794E+02  0.94770036336E+02  0.88818723460E+03  0.89367904237E+03  0.00000000000E+00 0. -1.
         22    1    3    3    0    0  0.15004830231E+02 -0.27702315441E+02  0.10336963692E+03  0.10806407844E+03  0.00000000000E+00 0. -1.
</event>
<event>
 7    1  0.6173324E-006  0.9775699E+02  0.7818608E-02  0.1312920E+00
          2   -1    0    0  502    0  0.00000000000E+00  0.00000000000E+00  0.67296366026E+03  0.67296366026E+03  0.00000000000E+00 0. -1.
          1   -1    0    0  501    0 -0.00000000000E+00 -0.00000000000E+00 -0.95000490913E+02  0.95000490913E+02  0.00000000000E+00 0. -1.
         25    2    1    2    0    0  0.11062218812E+02  0.13138474721E+03  0.28904867217E+03  0.34140522712E+03  0.12499627891E+03 0.  0.
          2    1    1    2  501    0  0.47708407661E+02 -0.58646244620E+02 -0.39354120645E+02  0.85230399397E+02  0.00000000000E+00 0. -1.
          1    1    1    2  502    0 -0.58770626473E+02 -0.72738502587E+02  0.32826861783E+03  0.34132852466E+03  0.00000000000E+00 0. -1.
         22    1    3    3    0    0 -0.16781335073E+01 -0.19765479116E+01 -0.11797297801E+02  0.12078870358E+02  0.00000000000E+00 0. -1.
         22    1    3    3    0    0  0.12740352319E+02  0.13336129512E+03  0.30084596997E+03  0.32932635676E+03  0.00000000000E+00 0. -1.
</event>
<event>
 7    1  0.6173324E-006  0.9543810E+02  0.7818608E-02  0.1304400E+00
          2   -1    0    0  502    0  0.00000000000E+00  0.00000000000E+00  0.35100130233E+04  0.35100130233E+04  0.00000000000E+00 0. -1.
          1   -1    0    0  501    0 -0.00000000000E+00 -0.00000000000E+00 -0.64462374960E+02  0.64462374960E+02  0.00000000000E+00 0. -1.
         25    2    1    2    0    0 -0.53457962412E+02 -0.15039289022E+02  0.20544948397E+03  0.24681741390E+03  0.12500164553E+03 0.  0.
          2    1    1    2  501    0  0.55400115184E+02  0.98692266783E+02  0.30838298522E+02  0.11730446258E+03  0.00000000000E+00 0. -1.
          1    1    1    2  502    0 -0.19421527728E+01 -0.83652977761E+02  0.32092628659E+04  0.32103535218E+04  0.00000000000E+00 0. -1.
         22    1    3    3    0    0  0.39298592635E+02  0.10288378504E+02  0.59902363050E+02  0.72377643056E+02  0.00000000000E+00 0. -1.
         22    1    3    3    0    0 -0.92756555046E+02 -0.25327667526E+02  0.14554712092E+03  0.17443977085E+03  0.00000000000E+00 0. -1.
</event>
<event>
 7    1  0.6173324E-006  0.2776691E+03  0.7818608E-02  0.1179108E+00
          2   -1    0    0  502    0  0.00000000000E+00  0.00000000000E+00  0.84003990454E+03  0.84003990454E+03  0.00000000000E+00 0. -1.
          1   -1    0    0  501    0 -0.00000000000E+00 -0.00000000000E+00 -0.46677059672E+03  0.46677059672E+03  0.00000000000E+00 0. -1.
         25    2    1    2    0    0  0.49378661336E+02  0.34422477582E+03  0.19768539897E+03  0.41908647862E+03  0.12500004446E+03 0.  0.
          2    1    1    2  501    0 -0.91888751014E+02 -0.25083062268E+03 -0.29971003305E+03  0.40147932418E+03  0.00000000000E+00 0. -1.
          1    1    1    2  502    0  0.42510089677E+02 -0.93394153144E+02  0.47529394189E+03  0.48624469845E+03  0.00000000000E+00 0. -1.
         22    1    3    3    0    0  0.21675346857E+02  0.16690338542E+02  0.53624693086E+02  0.60199632645E+02  0.00000000000E+00 0.  1.
         22    1    3    3    0    0  0.27703314479E+02  0.32753443728E+03  0.14406070589E+03  0.35888684598E+03  0.00000000000E+00 0.  1.
</event>
<event>
 7    1  0.6173324E-006  0.7437786E+02  0.7818608E-02  0.1447029E+00
          2   -1    0    0  502    0  0.00000000000E+00  0.00000000000E+00  0.10027496604E+03  0.10027496604E+03  0.00000000000E+00 0. -1.
          1   -1    0    0  501    0 -0.00000000000E+00 -0.00000000000E+00 -0.27021879237E+03  0.27021879237E+03  0.00000000000E+00 0. -1.
         25    2    1    2    0    0  0.50783039738E+02  0.45945492466E+02 -0.41066097143E+02  0.14832947475E+03  0.12500121337E+03 0.  0.
          2    1    1    2  501    0 -0.28670412410E+02 -0.70702743171E+02 -0.15962274872E+03  0.17691888636E+03  0.00000000000E+00 0. -1.
          1    1    1    2  502    0 -0.22112627328E+02  0.24757250705E+02  0.30745019536E+02  0.45245397292E+02  0.00000000000E+00 0. -1.
         22    1    3    3    0    0  0.42958432142E+02 -0.38327562101E+02 -0.21556209981E+02  0.61474377569E+02  0.00000000000E+00 0.  1.
         22    1    3    3    0    0  0.78246075958E+01  0.84273054567E+02 -0.19509887162E+02  0.86855097186E+02  0.00000000000E+00 0.  1.
</event>
<event>
 7    1  0.6173324E-006  0.3645010E+03  0.7818608E-02  0.1305873E+00
          2   -1    0    0  502    0  0.00000000000E+00  0.00000000000E+00  0.47372091992E+03  0.47372091992E+03  0.00000000000E+00 0. -1.
          1   -1    0    0  501    0 -0.00000000000E+00 -0.00000000000E+00 -0.65581496546E+03  0.65581496546E+03  0.00000000000E+00 0. -1.
         25    2    1    2    0    0 -0.28511083140E+03  0.20380622831E+03 -0.66374667010E+02  0.37796308083E+03  0.12500131668E+03 0.  0.
          2    1    1    2  501    0  0.29992273040E+03 -0.21954963377E+03 -0.35341778032E+03  0.51289356922E+03  0.00000000000E+00 0. -1.
          1    1    1    2  502    0 -0.14811899004E+02  0.15743405453E+02  0.23769840178E+03  0.23867923533E+03  0.00000000000E+00 0. -1.
         22    1    3    3    0    0 -0.18961182731E+03  0.15444308118E+03  0.12123105934E+02  0.24485154702E+03  0.00000000000E+00 0.  1.
         22    1    3    3    0    0 -0.95499004090E+02  0.49363147136E+02 -0.78497772944E+02  0.13311153381E+03  0.00000000000E+00 0.  1.
</event>
<event>
 7    1  0.6173324E-006  0.6061125E+02  0.7818608E-02  0.1470091E+00
          2   -1    0    0  502    0  0.00000000000E+00  0.00000000000E+00  0.19030590057E+02  0.19030590057E+02  0.00000000000E+00 0. -1.
          1   -1    0    0  501    0 -0.00000000000E+00 -0.00000000000E+00 -0.30284651551E+04  0.30284651551E+04  0.00000000000E+00 0. -1.
         25    2    1    2    0    0 -0.84419369082E+02 -0.84910740955E+01 -0.11511111687E+04  0.11609823910E+04  0.12499784485E+03 0.  0.
          2    1    1    2  501    0  0.30326188433E+02 -0.16321427656E+02 -0.18086962239E+04  0.18090240731E+04  0.00000000000E+00 0. -1.
          1    1    1    2  502    0  0.54093180649E+02  0.24812501752E+02 -0.49627172387E+02  0.77489281033E+02  0.00000000000E+00 0. -1.
         22    1    3    3    0    0 -0.97951802589E+02 -0.46793115693E+02 -0.74922070532E+03  0.75704413120E+03  0.00000000000E+00 0. -1.
         22    1    3    3    0    0  0.13532433507E+02  0.38302041597E+02 -0.40189046338E+03  0.40393825976E+03  0.00000000000E+00 0. -1.
</event>
<event>
 7    1  0.8438017E-006  0.6234026E+02  0.7818608E-02  0.1395828E+00
          2   -1    0    0  502    0  0.00000000000E+00  0.00000000000E+00  0.10583221419E+04  0.10583221419E+04  0.00000000000E+00 0. -1.
          1   -1    0    0  501    0 -0.00000000000E+00 -0.00000000000E+00 -0.20557183863E+04  0.20557183863E+04  0.00000000000E+00 0. -1.
         25    2    1    2    0    0  0.34632609870E+02  0.52256939770E+02 -0.40946572570E+03  0.43268077701E+03  0.12498107395E+03 0.  0.
          2    1    1    2  501    0 -0.58423385424E+02  0.54301520814E+01 -0.16331878282E+04  0.16342414940E+04  0.00000000000E+00 0. -1.
          1    1    1    2  502    0  0.23790775554E+02 -0.57687091851E+02  0.10452573095E+04  0.10471182572E+04  0.00000000000E+00 0. -1.
         22    1    3    3    0    0 -0.30597039504E+02 -0.11950998923E+02 -0.21801600806E+03  0.22047672206E+03  0.00000000000E+00 0. -1.
         22    1    3    3    0    0  0.65229649374E+02  0.64207938692E+02 -0.19144971765E+03  0.21220405494E+03  0.00000000000E+00 0. -1.
</event>
<event>
 7    1  0.6173324E-006  0.9422373E+02  0.7818608E-02  0.1311837E+00
          2   -1    0    0  502    0  0.00000000000E+00  0.00000000000E+00  0.96684670023E+03  0.96684670023E+03  0.00000000000E+00 0. -1.
          1   -1    0    0  501    0 -0.00000000000E+00 -0.00000000000E+00 -0.88166557337E+03  0.88166557337E+03  0.00000000000E+00 0. -1.
         25    2    1    2    0    0  0.35168391227E+02 -0.95208574949E+02  0.22083249001E+03  0.27330100912E+03  0.12499985781E+03 0.  0.
          2    1    1    2  501    0 -0.87476515449E+02  0.35730017302E+02 -0.85062815758E+03  0.85586040763E+03  0.00000000000E+00 0. -1.
          1    1    1    2  502    0  0.52308124222E+02  0.59478557647E+02  0.71497679443E+03  0.71935085685E+03  0.00000000000E+00 0. -1.
         22    1    3    3    0    0  0.65613223428E+02 -0.18562270698E+02  0.53223605569E+02  0.86500896942E+02  0.00000000000E+00 0. -1.
         22    1    3    3    0    0 -0.30444832201E+02 -0.76646304251E+02  0.16760888445E+03  0.18680011217E+03  0.00000000000E+00 0. -1.
</event>
<event>
 7    1  0.6173324E-006  0.5287186E+02  0.7818608E-02  0.1540350E+00
          2   -1    0    0  502    0  0.00000000000E+00  0.00000000000E+00  0.25854044473E+04  0.25854044473E+04  0.00000000000E+00 0. -1.
          1   -1    0    0  501    0 -0.00000000000E+00 -0.00000000000E+00 -0.76976530641E+02  0.76976530641E+02  0.00000000000E+00 0. -1.
         25    2    1    2    0    0  0.43517685586E+02  0.79342068826E+01  0.12415718047E+04  0.12486321939E+04  0.12500027516E+03 0.  0.
          2    1    1    2  501    0  0.93677966699E+01 -0.22573046375E+02 -0.70835015550E+02  0.74932619499E+02  0.00000000000E+00 0. -1.
          1    1    1    2  502    0 -0.52885482256E+02  0.14638839492E+02  0.13376911275E+04  0.13388161646E+04  0.00000000000E+00 0. -1.
         22    1    3    3    0    0 -0.21443711042E+02 -0.44289355220E+02  0.47552589119E+03  0.47806511368E+03  0.00000000000E+00 0.  1.
         22    1    3    3    0    0  0.64961396628E+02  0.52223562102E+02  0.76604591348E+03  0.77056708018E+03  0.00000000000E+00 0.  1.
</event>
<event>
 7    1  0.6173324E-006  0.9641102E+02  0.7818608E-02  0.1302663E+00
          2   -1    0    0  502    0  0.00000000000E+00  0.00000000000E+00  0.84259512743E+03  0.84259512743E+03  0.00000000000E+00 0. -1.
          1   -1    0    0  501    0 -0.00000000000E+00 -0.00000000000E+00 -0.39865376819E+03  0.39865376819E+03  0.00000000000E+00 0. -1.
         25    2    1    2    0    0  0.91075739415E+02  0.53901107602E+01  0.34302095960E+03  0.37631416228E+03  0.12500050560E+03 0.  0.
          2    1    1    2  501    0 -0.16400517412E+02 -0.82547304609E+02 -0.37127005943E+03  0.38068949486E+03  0.00000000000E+00 0. -1.
          1    1    1    2  502    0 -0.74675222003E+02  0.77157193849E+02  0.47219045908E+03  0.48424523848E+03  0.00000000000E+00 0. -1.
         22    1    3    3    0    0 -0.10675039572E+02  0.12062263656E+02 -0.22833241829E+01  0.16268627591E+02  0.00000000000E+00 0. -1.
         22    1    3    3    0    0  0.10175077899E+03 -0.66721528959E+01  0.34530428379E+03  0.36004553469E+03  0.00000000000E+00 0. -1.
</event>
<event>
 7    1  0.6173324E-006  0.4498647E+02  0.7818608E-02  0.1496072E+00
          2   -1    0    0  502    0  0.00000000000E+00  0.00000000000E+00  0.10886693667E+04  0.10886693667E+04  0.00000000000E+00 0. -1.
          1   -1    0    0  501    0 -0.00000000000E+00 -0.00000000000E+00 -0.11274441859E+04  0.11274441859E+04  0.00000000000E+00 0. -1.
         25    2    1    2    0    0  0.55801591700E+00  0.38263744422E+02 -0.87033825071E+03  0.88010102259E+03  0.12499885519E+03 0.  0.
          2    1    1    2  501    0 -0.39190438648E+02 -0.37070533565E+02 -0.24899062429E+03  0.25476743498E+03  0.00000000000E+00 0. -1.
          1    1    1    2  502    0  0.38632422731E+02 -0.11932108575E+01  0.10805540558E+04  0.10812450950E+04  0.00000000000E+00 0. -1.
         22    1    3    3    0    0 -0.24610452167E+02 -0.25166043031E+02 -0.87801122614E+02  0.94594086549E+02  0.00000000000E+00 0.  1.
         22    1    3    3    0    0  0.25168468084E+02  0.63429787453E+02 -0.78253712810E+03  0.78550693605E+03  0.00000000000E+00 0.  1.
</event>
<event>
 7    1  0.6173324E-006  0.2169093E+03  0.7818608E-02  0.1160483E+00
          2   -1    0    0  502    0  0.00000000000E+00  0.00000000000E+00  0.28617420285E+04  0.28617420285E+04  0.00000000000E+00 0. -1.
          1   -1    0    0  501    0 -0.00000000000E+00 -0.00000000000E+00 -0.12616824717E+04  0.12616824717E+04  0.00000000000E+00 0. -1.
         25    2    1    2    0    0 -0.86171003849E+01 -0.24749016208E+03 -0.45902082819E+03  0.53633015131E+03  0.12499710298E+03 0.  0.
          2    1    1    2  501    0 -0.13743463263E+03  0.86807573356E+02 -0.75112456547E+03  0.76851281439E+03  0.00000000000E+00 0. -1.
          1    1    1    2  502    0  0.14605173301E+03  0.16068258872E+03  0.28102049504E+04  0.28185815345E+04  0.00000000000E+00 0. -1.
         22    1    3    3    0    0  0.40318306747E+02 -0.21142610948E+03 -0.33452270939E+03  0.39778387188E+03  0.00000000000E+00 0.  1.
         22    1    3    3    0    0 -0.48935407132E+02 -0.36064052599E+02 -0.12449811880E+03  0.13854627944E+03  0.00000000000E+00 0.  1.
</event>
<event>
 7    1  0.6173324E-006  0.9045841E+02  0.7818608E-02  0.1333232E+00
          2   -1    0    0  502    0  0.00000000000E+00  0.00000000000E+00  0.96065319623E+03  0.96065319623E+03  0.00000000000E+00 0. -1.
          1   -1    0    0  501    0 -0.00000000000E+00 -0.00000000000E+00 -0.48395359330E+03  0.48395359330E+03  0.00000000000E+00 0. -1.
         25    2    1    2    0    0 -0.58669365029E+02  0.13916095356E+03  0.38510097748E+03  0.43212941659E+03  0.12500081777E+03 0.  0.
          2    1    1    2  501    0  0.12472542500E+02 -0.88989412195E+02 -0.45391145897E+03  0.46272053378E+03  0.00000000000E+00 0. -1.
          1    1    1    2  502    0  0.46196822529E+02 -0.50171541370E+02  0.54551008443E+03  0.54975683915E+03  0.00000000000E+00 0. -1.
         22    1    3    3    0    0 -0.75610133085E+02  0.15332324967E+03  0.36106456382E+03  0.39949033825E+03  0.00000000000E+00 0.  1.
         22    1    3    3    0    0  0.16940768056E+02 -0.14162296105E+02  0.24036413658E+02  0.32639078340E+02  0.00000000000E+00 0.  1.
</event>
<event>
 7    1  0.6173324E-006  0.7700713E+02  0.7818608E-02  0.1446112E+00
          2   -1    0    0  502    0  0.00000000000E+00  0.00000000000E+00  0.13329211316E+04  0.13329211316E+04  0.00000000000E+00 0. -1.
          1   -1    0    0  501    0 -0.00000000000E+00 -0.00000000000E+00 -0.82087254095E+03  0.82087254095E+03  0.00000000000E+00 0. -1.
         25    2    1    2    0    0 -0.10443509088E+03  0.22164651614E+02 -0.11574759072E+03  0.20104891202E+03  0.12500080112E+03 0.  0.
          2    1    1    2  501    0  0.72155762750E+02 -0.22308575108E+02 -0.66011881969E+03  0.66442530260E+03  0.00000000000E+00 0. -1.
          1    1    1    2  502    0  0.32279328131E+02  0.14392349463E+00  0.12879150011E+04  0.12883194579E+04  0.00000000000E+00 0. -1.
         22    1    3    3    0    0 -0.12244625251E+03  0.14564701773E+02 -0.51044206258E+02  0.13345683304E+03  0.00000000000E+00 0. -1.
         22    1    3    3    0    0  0.18011161632E+02  0.75999498408E+01 -0.64703384461E+02  0.67592078986E+02  0.00000000000E+00 0. -1.
</event>
<event>
 7    1  0.6173324E-006  0.1556172E+03  0.7818608E-02  0.1404796E+00
          2   -1    0    0  502    0  0.00000000000E+00  0.00000000000E+00  0.43032851245E+02  0.43032851245E+02  0.00000000000E+00 0. -1.
          1   -1    0    0  501    0 -0.00000000000E+00 -0.00000000000E+00 -0.13967747521E+04  0.13967747521E+04  0.00000000000E+00 0. -1.
         25    2    1    2    0    0  0.10754056124E+03 -0.10077608669E+03 -0.31211731525E+03  0.36710092404E+03  0.12500031198E+03 0.  0.
          2    1    1    2  501    0  0.65688920889E+01 -0.20886299701E+02 -0.60360895613E+03  0.60400592694E+03  0.00000000000E+00 0. -1.
          1    1    1    2  502    0 -0.11410945333E+03  0.12166238639E+03 -0.43801562951E+03  0.46870075239E+03  0.00000000000E+00 0. -1.
         22    1    3    3    0    0  0.66617571449E+02  0.15562932971E+02 -0.13403656027E+03  0.15048556475E+03  0.00000000000E+00 0.  1.
         22    1    3    3    0    0  0.40922989789E+02 -0.11633901966E+03 -0.17808075498E+03  0.21661535929E+03  0.00000000000E+00 0.  1.
</event>
<event>
 7    1  0.6173324E-006  0.2474267E+03  0.7818608E-02  0.1249603E+00
          2   -1    0    0  502    0  0.00000000000E+00  0.00000000000E+00  0.83891181531E+03  0.83891181531E+03  0.00000000000E+00 0. -1.
          1   -1    0    0  501    0 -0.00000000000E+00 -0.00000000000E+00 -0.86189858308E+03  0.86189858308E+03  0.00000000000E+00 0. -1.
         25    2    1    2    0    0  0.14736214504E+03  0.25276322689E+03 -0.18576577856E+03  0.36842768095E+03  0.12500072378E+03 0.  0.
          2    1    1    2  501    0 -0.44779994988E+02 -0.31092316444E+02 -0.56349983544E+03  0.56613076637E+03  0.00000000000E+00 0. -1.
          1    1    1    2  502    0 -0.10258215006E+03 -0.22167091045E+03  0.72627884622E+03  0.76625195107E+03  0.00000000000E+00 0. -1.
         22    1    3    3    0    0  0.74150717645E+02  0.21821231201E+03 -0.16890972585E+03  0.28573665765E+03  0.00000000000E+00 0. -1.
         22    1    3    3    0    0  0.73211427400E+02  0.34550914886E+02 -0.16856052709E+02  0.82691023300E+02  0.00000000000E+00 0. -1.
</event>
<event>
 7    1  0.6173324E-006  0.4986077E+02  0.7818608E-02  0.1496457E+00
          2   -1    0    0  502    0  0.00000000000E+00  0.00000000000E+00  0.54017340961E+03  0.54017340961E+03  0.00000000000E+00 0. -1.
          1   -1    0    0  501    0 -0.00000000000E+00 -0.00000000000E+00 -0.97993132352E+03  0.97993132352E+03  0.00000000000E+00 0. -1.
         25    2    1    2    0    0  0.13173033796E+02  0.68106830365E+02  0.10273577535E+03  0.17604351771E+03  0.12499844570E+03 0.  0.
          2    1    1    2  501    0 -0.31523737553E+02 -0.38562333709E+02 -0.94186365202E+03  0.94317969582E+03  0.00000000000E+00 0. -1.
          1    1    1    2  502    0  0.18350703757E+02 -0.29544496656E+02  0.39936996276E+03  0.40088151961E+03  0.00000000000E+00 0. -1.
         22    1    3    3    0    0  0.73791024250E+01  0.75476178753E+01 -0.29042106833E+02  0.30900835870E+02  0.00000000000E+00 0. -1.
         22    1    3    3    0    0  0.57939313713E+01  0.60559212489E+02  0.13177788218E+03  0.14514268184E+03  0.00000000000E+00 0. -1.
</event>
<event>
 7    1  0.6173324E-006  0.6852423E+02  0.7818608E-02  0.1440651E+00
          2   -1    0    0  502    0  0.00000000000E+00  0.00000000000E+00  0.52984002074E+03  0.52984002074E+03  0.00000000000E+00 0. -1.
          1   -1    0    0  501    0 -0.00000000000E+00 -0.00000000000E+00 -0.34045364955E+03  0.34045364955E+03  0.00000000000E+00 0. -1.
         25    2    1    2    0    0 -0.76096562657E+01  0.98770695610E+02  0.34844014036E+02  0.16325756299E+03  0.12500147751E+03 0.  0.
          2    1    1    2  501    0 -0.14200829516E+02 -0.35008646371E+02 -0.27229928094E+03  0.27490756134E+03  0.00000000000E+00 0. -1.
          1    1    1    2  502    0  0.21810485782E+02 -0.63762049239E+02  0.42684163811E+03  0.43212854596E+03  0.00000000000E+00 0. -1.
         22    1    3    3    0    0 -0.53392421578E+02  0.10017627492E+03  0.28269809818E+02  0.11698384028E+03  0.00000000000E+00 0. -1.
         22    1    3    3    0    0  0.45782765312E+02 -0.14055793081E+01  0.65742042178E+01  0.46273722715E+02  0.00000000000E+00 0. -1.
</event>
<event>
 7    1  0.6173324E-006  0.6227232E+02  0.7818608E-02  0.1480702E+00
          2   -1    0    0  502    0  0.00000000000E+00  0.00000000000E+00  0.19036975716E+04  0.19036975716E+04  0.00000000000E+00 0. -1.
          1   -1    0    0  501    0 -0.00000000000E+00 -0.00000000000E+00 -0.60831226971E+03  0.60831226971E+03  0.00000000000E+00 0. -1.
         25    2    1    2    0    0 -0.43837357277E+02  0.24576543797E+02  0.15003533654E+04  0.15063900692E+04  0.12500039666E+03 0.  0.
          2    1    1    2  501    0  0.62290627530E+02  0.43845026909E+00 -0.60308379786E+03  0.60629232368E+03  0.00000000000E+00 0. -1.
          1    1    1    2  502    0 -0.18453270254E+02 -0.25014994066E+02  0.39811573436E+03  0.39932744842E+03  0.00000000000E+00 0. -1.
         22    1    3    3    0    0 -0.47324449240E+01 -0.13585430608E+02  0.12526180741E+04  0.12527006824E+04  0.00000000000E+00 0.  1.
         22    1    3    3    0    0 -0.39104912353E+02  0.38161974405E+02  0.24773529131E+03  0.25368938689E+03  0.00000000000E+00 0.  1.
</event>
<event>
 7    1  0.6401318E-006  0.5191058E+02  0.7818608E-02  0.1437298E+00
          2   -1    0    0  502    0  0.00000000000E+00  0.00000000000E+00  0.29535213884E+04  0.29535213884E+04  0.00000000000E+00 0. -1.
          1   -1    0    0  501    0 -0.00000000000E+00 -0.00000000000E+00 -0.10013332432E+04  0.10013332432E+04  0.00000000000E+00 0. -1.
         25    2    1    2    0    0  0.95239835649E+02 -0.16722682077E+02 -0.15304284844E+03  0.21999394254E+03  0.12499978763E+03 0.  0.
          2    1    1    2  501    0 -0.50307432451E+02 -0.91770006008E+01 -0.81378193097E+03  0.81538707757E+03  0.00000000000E+00 0. -1.
          1    1    1    2  502    0 -0.44932403198E+02  0.25899682678E+02  0.29190129245E+04  0.29194736115E+04  0.00000000000E+00 0. -1.
         22    1    3    3    0    0  0.15751470781E+02 -0.20721864441E+02  0.17792367239E+02  0.31528920528E+02  0.00000000000E+00 0. -1.
         22    1    3    3    0    0  0.79488364867E+02  0.39991823643E+01 -0.17083521567E+03  0.18846502202E+03  0.00000000000E+00 0. -1.
</event>
<event>
 7    1  0.6173324E-006  0.1100830E+03  0.7818608E-02  0.1371981E+00
          2   -1    0    0  502    0  0.00000000000E+00  0.00000000000E+00  0.16953575639E+03  0.16953575639E+03  0.00000000000E+00 0. -1.
          1   -1    0    0  501    0 -0.00000000000E+00 -0.00000000000E+00 -0.15032545012E+04  0.15032545012E+04  0.00000000000E+00 0. -1.
         25    2    1    2    0    0  0.43840831063E+01 -0.10117056819E+03  0.13873449707E+02  0.16147232075E+03  0.12500453475E+03 0.  0.
          2    1    1    2  501    0  0.35794186808E+02  0.10450512810E+03 -0.14222161190E+04  0.14264996441E+04  0.00000000000E+00 0. -1.
          1    1    1    2  502    0 -0.40178269914E+02 -0.33345599061E+01  0.74623924511E+02  0.84818292676E+02  0.00000000000E+00 0. -1.
         22    1    3    3    0    0  0.44162550813E+02 -0.87993693404E+02  0.45999890031E+02  0.10867019304E+03  0.00000000000E+00 0. -1.
         22    1    3    3    0    0 -0.39778467706E+02 -0.13176874790E+02 -0.32126440324E+02  0.52802127705E+02  0.00000000000E+00 0. -1.
</event>
<event>
 7    1  0.6173324E-006  0.5890615E+02  0.7818608E-02  0.1489427E+00
          2   -1    0    0  502    0  0.00000000000E+00  0.00000000000E+00  0.52527789225E+03  0.52527789225E+03  0.00000000000E+00 0. -1.
          1   -1    0    0  501    0 -0.00000000000E+00 -0.00000000000E+00 -0.54224988157E+02  0.54224988157E+02  0.00000000000E+00 0. -1.
         25    2    1    2    0    0  0.29588533532E+02 -0.32103081567E+02  0.19743030766E+03  0.23770994759E+03  0.12498481362E+03 0.  0.
          2    1    1    2  501    0 -0.13473528024E+02 -0.27819657940E+02 -0.23139873025E+02  0.38612472712E+02  0.00000000000E+00 0. -1.
          1    1    1    2  502    0 -0.16115005507E+02  0.59922739507E+02  0.29676246945E+03  0.30318046010E+03  0.00000000000E+00 0. -1.
         22    1    3    3    0    0  0.15817176853E+02 -0.25421059976E+02  0.21345782657E+03  0.21554734306E+03  0.00000000000E+00 0.  1.
         22    1    3    3    0    0  0.13771356679E+02 -0.66820215905E+01 -0.16027518909E+02  0.22162604533E+02  0.00000000000E+00 0.  1.
</event>
<event>
 7    1  0.6173324E-006  0.4529933E+02  0.7818608E-02  0.1489701E+00
          2   -1    0    0  502    0  0.00000000000E+00  0.00000000000E+00  0.11503246949E+04  0.11503246949E+04  0.00000000000E+00 0. -1.
          1   -1    0    0  501    0 -0.00000000000E+00 -0.00000000000E+00 -0.15186960232E+03  0.15186960232E+03  0.00000000000E+00 0. -1.
         25    2    1    2    0    0  0.53460123194E+02  0.62089025795E+02  0.48173869798E+01  0.14953313299E+03  0.12499567492E+03 0.  0.
          2    1    1    2  501    0 -0.23182264062E+02 -0.35768485497E+02 -0.73395178409E+02  0.84874343211E+02  0.00000000000E+00 0. -1.
          1    1    1    2  502    0 -0.30277859132E+02 -0.26320540298E+02  0.10670328840E+04  0.10677868210E+04  0.00000000000E+00 0. -1.
         22    1    3    3    0    0 -0.35657604309E+02  0.47004469409E+02 -0.35190523058E+00  0.59000073956E+02  0.00000000000E+00 0. -1.
         22    1    3    3    0    0  0.89117727504E+02  0.15084556386E+02  0.51692922104E+01  0.90533059038E+02  0.00000000000E+00 0. -1.
</event>
<event>
 7    1  0.6173324E-006  0.8573669E+02  0.7818608E-02  0.1361437E+00
          2   -1    0    0  502    0  0.00000000000E+00  0.00000000000E+00  0.89339101222E+03  0.89339101222E+03  0.00000000000E+00 0. -1.
          1   -1    0    0  501    0 -0.00000000000E+00 -0.00000000000E+00 -0.11296942479E+03  0.11296942479E+03  0.00000000000E+00 0. -1.
         25    2    1    2    0    0 -0.94290504602E+02 -0.88304461221E+02  0.15634031637E+03  0.23823547491E+03  0.12500187941E+03 0.  0.
          2    1    1    2  501    0  0.54483034954E+02  0.15001543617E+02 -0.57990650041E+02  0.80971370871E+02  0.00000000000E+00 0. -1.
          1    1    1    2  502    0  0.39807469648E+02  0.73302917605E+02  0.68207192111E+03  0.68715359123E+03  0.00000000000E+00 0. -1.
         22    1    3    3    0    0  0.40857381919E+01 -0.74431604717E+02  0.97631310534E+02  0.12283578401E+03  0.00000000000E+00 0. -1.
         22    1    3    3    0    0 -0.98376242794E+02 -0.13872856504E+02  0.58709005831E+02  0.11539969090E+03  0.00000000000E+00 0. -1.
</event>
<event>
 7    1  0.6173324E-006  0.3763546E+02  0.7818608E-02  0.1584521E+00
          2   -1    0    0  502    0  0.00000000000E+00  0.00000000000E+00  0.12565848733E+03  0.12565848733E+03  0.00000000000E+00 0. -1.
          1   -1    0    0  501    0 -0.00000000000E+00 -0.00000000000E+00 -0.16986065885E+03  0.16986065885E+03  0.00000000000E+00 0. -1.
         25    2    1    2    0    0 -0.60660698748E+02  0.31966172679E+01 -0.42807477761E+02  0.14541980275E+03  0.12499800056E+03 0.  0.
          2    1    1    2  501    0  0.24509284832E+02 -0.85913599075E+01 -0.68735306395E+02  0.73478288312E+02  0.00000000000E+00 0. -1.
          1    1    1    2  502    0  0.36151413916E+02  0.53947426396E+01  0.67340612642E+02  0.76621055118E+02  0.00000000000E+00 0. -1.
         22    1    3    3    0    0 -0.48177826608E+01 -0.37684056664E+02  0.27396371247E+02  0.46838662597E+02  0.00000000000E+00 0. -1.
         22    1    3    3    0    0 -0.55842916087E+02  0.40880673932E+02 -0.70203849007E+02  0.98581140152E+02  0.00000000000E+00 0. -1.
</event>
<event>
 7    1  0.6173324E-006  0.1681636E+03  0.7818608E-02  0.1186903E+00
          2   -1    0    0  502    0  0.00000000000E+00  0.00000000000E+00  0.22734505352E+04  0.22734505352E+04  0.00000000000E+00 0. -1.
          1   -1    0    0  501    0 -0.00000000000E+00 -0.00000000000E+00 -0.58316077269E+03  0.58316077269E+03  0.00000000000E+00 0. -1.
         25    2    1    2    0    0  0.98151117973E+01  0.97089258755E+02 -0.67021613131E+02  0.17216211731E+03  0.12500094969E+03 0.  0.
          2    1    1    2  501    0 -0.15969097386E+03 -0.13773873135E+03 -0.43669754540E+03  0.48495145262E+03  0.00000000000E+00 0. -1.
          1    1    1    2  502    0  0.14987586206E+03  0.40649472595E+02  0.21940089210E+04  0.21994977379E+04  0.00000000000E+00 0. -1.
         22    1    3    3    0    0  0.11055677239E+02  0.11693918544E+03 -0.85287499547E+02  0.14515839166E+03  0.00000000000E+00 0. -1.
         22    1    3    3    0    0 -0.12405654415E+01 -0.19849926688E+02  0.18265886416E+02  0.27003725645E+02  0.00000000000E+00 0. -1.
</event>
<event>
 7    1  0.6173324E-006  0.5452958E+02  0.7818608E-02  0.1557746E+00
          2   -1    0    0  502    0  0.00000000000E+00  0.00000000000E+00  0.16885623135E+03  0.16885623135E+03  0.00000000000E+00 0. -1.
          1   -1    0    0  501    0 -0.00000000000E+00 -0.00000000000E+00 -0.37538656255E+03  0.37538656255E+03  0.00000000000E+00 0. -1.
         25    2    1    2    0    0 -0.29861758762E+02  0.25814634048E+02 -0.12403490821E+03  0.18046640898E+03  0.12500138539E+03 0.  0.
          2    1    1    2  501    0  0.10120932465E+01  0.21164306946E+02 -0.21719784782E+03  0.21822891036E+03  0.00000000000E+00 0. -1.
          1    1    1    2  502    0  0.28849665515E+02 -0.46978940994E+02  0.13470242483E+03  0.14554747456E+03  0.00000000000E+00 0. -1.
         22    1    3    3    0    0 -0.55132642225E+02  0.52189467167E+02 -0.12223909899E+03  0.14389491320E+03  0.00000000000E+00 0. -1.
         22    1    3    3    0    0  0.25270883463E+02 -0.26374833119E+02 -0.17958092165E+01  0.36571495783E+02  0.00000000000E+00 0. -1.
</event>
<event>
 7    1  0.6173324E-006  0.1487226E+03  0.7818608E-02  0.1403171E+00
          2   -1    0    0  502    0  0.00000000000E+00  0.00000000000E+00  0.16273772445E+03  0.16273772445E+03  0.00000000000E+00 0. -1.
          1   -1    0    0  501    0 -0.00000000000E+00 -0.00000000000E+00 -0.37353718970E+04  0.37353718970E+04  0.00000000000E+00 0. -1.
         25    2    1    2    0    0 -0.14133804800E+03  0.78303927276E+02 -0.14764440320E+03  0.25205601103E+03  0.12500165624E+03 0.  0.
          2    1    1    2  501    0  0.13764599461E+03 -0.55394673453E+02 -0.35327291467E+04  0.35358436354E+04  0.00000000000E+00 0. -1.
          1    1    1    2  502    0  0.36920533822E+01 -0.22909253822E+02  0.10773937736E+03  0.11020997506E+03  0.00000000000E+00 0. -1.
         22    1    3    3    0    0 -0.13474407026E+03  0.57057973495E+02 -0.16737608694E+03  0.22232033485E+03  0.00000000000E+00 0.  1.
         22    1    3    3    0    0 -0.65939777376E+01  0.21245953781E+02  0.19731683742E+02  0.29735676178E+02  0.00000000000E+00 0.  1.
</event>
<event>
 7    1  0.6173324E-006  0.7824687E+02  0.7818608E-02  0.1349056E+00
          2   -1    0    0  502    0  0.00000000000E+00  0.00000000000E+00  0.20658568230E+03  0.20658568230E+03  0.00000000000E+00 0. -1.
          1   -1    0    0  501    0 -0.00000000000E+00 -0.00000000000E+00 -0.45407546927E+03  0.45407546927E+03  0.00000000000E+00 0. -1.
         25    2    1    2    0    0  0.13141952306E+02  0.42272713430E+02 -0.16900760903E+03  0.21481108011E+03  0.12498213879E+03 0.  0.
          2    1    1    2  501    0  0.64332453986E+02 -0.53240328866E+02 -0.24663232107E+03  0.26038567367E+03  0.00000000000E+00 0. -1.
          1    1    1    2  502    0 -0.77474406292E+02  0.10967615436E+02  0.16815014312E+03  0.18546439780E+03  0.00000000000E+00 0. -1.
         22    1    3    3    0    0  0.53931905832E+02  0.61177730910E+02 -0.13765366767E+03  0.15999967953E+03  0.00000000000E+00 0. -1.
         22    1    3    3    0    0 -0.40789953526E+02 -0.18905017481E+02 -0.31353941358E+02  0.54811400577E+02  0.00000000000E+00 0. -1.
</event>
<event>
 7    1  0.6173324E-006  0.3814205E+02  0.7818608E-02  0.1600430E+00
          2   -1    0    0  502    0  0.00000000000E+00  0.00000000000E+00  0.50592755665E+03  0.50592755665E+03  0.00000000000E+00 0. -1.
          1   -1    0    0  501    0 -0.00000000000E+00 -0.00000000000E+00 -0.75891566470E+02  0.75891566470E+02  0.00000000000E+00 0. -1.
         25    2    1    2    0    0 -0.26342738586E+02 -0.10460896237E+02  0.17762236086E+03  0.21902337087E+03  0.12497265174E+03 0.  0.
          2    1    1    2  501    0  0.55501038462E+01 -0.22593923014E+02 -0.51432806137E+02  0.56450177653E+02  0.00000000000E+00 0. -1.
          1    1    1    2  502    0  0.20792634740E+02  0.33054819251E+02  0.30384643546E+03  0.30634557460E+03  0.00000000000E+00 0. -1.
         22    1    3    3    0    0 -0.46191983031E+02  0.30737181519E+01  0.18743850642E+03  0.19307081791E+03  0.00000000000E+00 0. -1.
         22    1    3    3    0    0  0.19849244445E+02 -0.13534614389E+02 -0.98161455564E+01  0.25952552963E+02  0.00000000000E+00 0. -1.
</event>
<event>
 7    1  0.6173324E-006  0.5647804E+02  0.7818608E-02  0.1443978E+00
          2   -1    0    0  502    0  0.00000000000E+00  0.00000000000E+00  0.16234404999E+03  0.16234404999E+03  0.00000000000E+00 0. -1.
          1   -1    0    0  501    0 -0.00000000000E+00 -0.00000000000E+00 -0.18823349989E+04  0.18823349989E+04  0.00000000000E+00 0. -1.
         25    2    1    2    0    0 -0.26948494517E+02  0.39450421422E+02 -0.25198531443E+02  0.13616899194E+03  0.12499788507E+03 0.  0.
          2    1    1    2  501    0  0.56387053010E+02 -0.57929217349E+01 -0.17965067740E+04  0.17974008030E+04  0.00000000000E+00 0. -1.
          1    1    1    2  502    0 -0.29438558493E+02 -0.33657499687E+02  0.10171435646E+03  0.11110925399E+03  0.00000000000E+00 0. -1.
         22    1    3    3    0    0 -0.43877859323E+02 -0.14990599435E+02  0.31268518423E+02  0.55925887159E+02  0.00000000000E+00 0.  1.
         22    1    3    3    0    0  0.16929364805E+02  0.54441020856E+02 -0.56467049866E+02  0.80243104782E+02  0.00000000000E+00 0.  1.
</event>
<event>
 7    1  0.6173324E-006  0.5809721E+02  0.7818608E-02  0.1445343E+00
          2   -1    0    0  502    0  0.00000000000E+00  0.00000000000E+00  0.10967850659E+04  0.10967850659E+04  0.00000000000E+00 0. -1.
          1   -1    0    0  501    0 -0.00000000000E+00 -0.00000000000E+00 -0.23222230686E+03  0.23222230686E+03  0.00000000000E+00 0. -1.
         25    2    1    2    0    0  0.67134350901E+02  0.29889367435E+02  0.54363004365E+02  0.15486006513E+03  0.12500363264E+03 0.  0.
          2    1    1    2  501    0 -0.29163967470E+02 -0.50135693729E+02 -0.17687136723E+03  0.18613867232E+03  0.00000000000E+00 0. -1.
          1    1    1    2  502    0 -0.37970383431E+02  0.20246326294E+02  0.98707112193E+03  0.98800863534E+03  0.00000000000E+00 0. -1.
         22    1    3    3    0    0  0.50452803120E+02  0.69378006289E+02  0.68440576227E+02  0.10974017302E+03  0.00000000000E+00 0. -1.
         22    1    3    3    0    0  0.16681547781E+02 -0.39488638853E+02 -0.14077571862E+02  0.45119892114E+02  0.00000000000E+00 0. -1.
</event>
<event>
 7    1  0.6173324E-006  0.2927531E+03  0.7818608E-02  0.1259345E+00
          2   -1    0    0  502    0  0.00000000000E+00  0.00000000000E+00  0.32276741747E+04  0.32276741747E+04  0.00000000000E+00 0. -1.
          1   -1    0    0  501    0 -0.00000000000E+00 -0.00000000000E+00 -0.14105869385E+04  0.14105869385E+04  0.00000000000E+00 0. -1.
         25    2    1    2    0    0  0.23032942791E+03  0.12173825720E+03 -0.45653183173E+02  0.29254241846E+03  0.12500001935E+03 0.  0.
          2    1    1    2  501    0 -0.25259059973E+03 -0.15715564723E+03 -0.12235240345E+04  0.12591707476E+04  0.00000000000E+00 0. -1.
          1    1    1    2  502    0  0.22261171825E+02  0.35417390030E+02  0.30862644538E+04  0.30865479472E+04  0.00000000000E+00 0. -1.
         22    1    3    3    0    0  0.96732583197E+01  0.42216270211E+02 -0.38399773575E+02  0.57882018000E+02  0.00000000000E+00 0.  1.
         22    1    3    3    0    0  0.22065616959E+03  0.79521986989E+02 -0.72534095972E+01  0.23466040046E+03  0.00000000000E+00 0.  1.
</event>
<event>
 7    1  0.6173324E-006  0.2088167E+03  0.7818608E-02  0.1285618E+00
          2   -1    0    0  502    0  0.00000000000E+00  0.00000000000E+00  0.16709978153E+03  0.16709978153E+03  0.00000000000E+00 0. -1.
          1   -1    0    0  501    0 -0.00000000000E+00 -0.00000000000E+00 -0.43189549038E+03  0.43189549038E+03  0.00000000000E+00 0. -1.
         25    2    1    2    0    0  0.14653470301E+03  0.98965093361E+02 -0.45110748391E+01  0.21658859361E+03  0.12499504069E+03 0.  0.
          2    1    1    2  501    0 -0.17754018507E+03 -0.13231304230E+03 -0.25314112543E+03  0.33631486416E+03  0.00000000000E+00 0. -1.
          1    1    1    2  502    0  0.31005482053E+02  0.33347948936E+02 -0.71435085873E+01  0.46091814138E+02  0.00000000000E+00 0. -1.
         22    1    3    3    0    0  0.12000839760E+02  0.25642462593E+02 -0.49393957009E+02  0.56932583217E+02  0.00000000000E+00 0.  1.
         22    1    3    3    0    0  0.13453386325E+03  0.73322630768E+02  0.44882882170E+02  0.15965601040E+03  0.00000000000E+00 0.  1.
</event>
<event>
 7    1  0.6173324E-006  0.5159268E+02  0.7818608E-02  0.1501312E+00
          2   -1    0    0  502    0  0.00000000000E+00  0.00000000000E+00  0.26597414995E+03  0.26597414995E+03  0.00000000000E+00 0. -1.
          1   -1    0    0  501    0 -0.00000000000E+00 -0.00000000000E+00 -0.11474635129E+04  0.11474635129E+04  0.00000000000E+00 0. -1.
         25    2    1    2    0    0 -0.58725596858E+02  0.57333212172E+02 -0.18448869968E+03  0.23747930156E+03  0.12499818166E+03 0.  0.
          2    1    1    2  501    0  0.31109758762E+02 -0.40183154564E+02 -0.93468290396E+03  0.93606337070E+03  0.00000000000E+00 0. -1.
          1    1    1    2  502    0  0.27615838096E+02 -0.17150057608E+02  0.23768224067E+03  0.23989499061E+03  0.00000000000E+00 0. -1.
         22    1    3    3    0    0 -0.86322299041E+02  0.11163788916E+02 -0.15048368981E+03  0.17384335016E+03  0.00000000000E+00 0. -1.
         22    1    3    3    0    0  0.27596702183E+02  0.46169423256E+02 -0.34005009868E+02  0.63635951405E+02  0.00000000000E+00 0. -1.
</event>
<event>
 7    1  0.6173324E-006  0.4160232E+03  0.7818608E-02  0.1236558E+00
          2   -1    0    0  502    0  0.00000000000E+00  0.00000000000E+00  0.18598868374E+04  0.18598868374E+04  0.00000000000E+00 0. -1.
          1   -1    0    0  501    0 -0.00000000000E+00 -0.00000000000E+00 -0.13126947822E+03  0.13126947822E+03  0.00000000000E+00 0. -1.
         25    2    1    2    0    0 -0.41958516648E+03 -0.12495165797E+03  0.66192147653E+03  0.80338632367E+03  0.12499966086E+03 0.  0.
          2    1    1    2  501    0  0.27330798148E+02  0.24926649520E+02 -0.93034075274E+01  0.38142676562E+02  0.00000000000E+00 0. -1.
          1    1    1    2  502    0  0.39225436833E+03  0.10002500845E+03  0.10759992902E+04  0.11496273154E+04  0.00000000000E+00 0. -1.
         22    1    3    3    0    0 -0.30525657903E+01 -0.22646787504E+02  0.60642739468E+02  0.64805377804E+02  0.00000000000E+00 0.  1.
         22    1    3    3    0    0 -0.41653260069E+03 -0.10230487047E+03  0.60127873706E+03  0.73858094587E+03  0.00000000000E+00 0.  1.
</event>
<event>
 7    1  0.6173324E-006  0.8237035E+02  0.7818608E-02  0.1475047E+00
          2   -1    0    0  502    0  0.00000000000E+00  0.00000000000E+00  0.58265079549E+03  0.58265079549E+03  0.00000000000E+00 0. -1.
          1   -1    0    0  501    0 -0.00000000000E+00 -0.00000000000E+00 -0.58445891923E+02  0.58445891923E+02  0.00000000000E+00 0. -1.
         25    2    1    2    0    0  0.30338420153E+02 -0.57296849379E+02  0.28296384827E+03  0.31606459959E+03  0.12499977201E+03 0.  0.
          2    1    1    2  501    0 -0.52966593144E+02  0.66586763865E+02  0.25822319442E+01  0.85122999437E+02  0.00000000000E+00 0. -1.
          1    1    1    2  502    0  0.22628172992E+02 -0.92899144861E+01  0.23865882335E+03  0.23990908838E+03  0.00000000000E+00 0. -1.
         22    1    3    3    0    0  0.78036867562E+02 -0.38729603156E+02  0.20566000262E+03  0.22335122909E+03  0.00000000000E+00 0. -1.
         22    1    3    3    0    0 -0.47698447409E+02 -0.18567246223E+02  0.77303845652E+02  0.92713370504E+02  0.00000000000E+00 0. -1.
</event>
<event>
 7    1  0.6173324E-006  0.1132487E+03  0.7818608E-02  0.1315197E+00
          2   -1    0    0  502    0  0.00000000000E+00  0.00000000000E+00  0.70100815166E+03  0.70100815166E+03  0.00000000000E+00 0. -1.
          1   -1    0    0  501    0 -0.00000000000E+00 -0.00000000000E+00 -0.10868612738E+04  0.10868612738E+04  0.00000000000E+00 0. -1.
         25    2    1    2    0    0  0.12205278556E+03  0.29609331525E+02 -0.27417100455E+03  0.32644900879E+03  0.12500248248E+03 0.  0.
          2    1    1    2  501    0 -0.81596679774E+02 -0.79114146547E+02 -0.78091425766E+03  0.78914139680E+03  0.00000000000E+00 0. -1.
          1    1    1    2  502    0 -0.40456105781E+02  0.49504815022E+02  0.66923214008E+03  0.67227901985E+03  0.00000000000E+00 0. -1.
         22    1    3    3    0    0  0.12758691307E+03  0.62255289548E+02 -0.20042046545E+03  0.24560640146E+03  0.00000000000E+00 0. -1.
         22    1    3    3    0    0 -0.55341275196E+01 -0.32645958023E+02 -0.73750539099E+02  0.80842607331E+02  0.00000000000E+00 0. -1.
</event>
<event>
 7    1  0.6173324E-006  0.1069270E+03  0.7818608E-02  0.1379073E+00
          2   -1    0    0  502    0  0.00000000000E+00  0.00000000000E+00  0.85103299271E+03  0.85103299271E+03  0.00000000000E+00 0. -1.
          1   -1    0    0  501    0 -0.00000000000E+00 -0.00000000000E+00 -0.11323228385E+04  0.11323228385E+04  0.00000000000E+00 0. -1.
         25    2    1    2    0    0 -0.18444271157E+01 -0.14293847467E+03  0.16518869689E+03  0.25168675207E+03  0.12499642448E+03 0.  0.
          2    1    1    2  501    0 -0.10939446888E+02  0.10592528593E+03 -0.10858702919E+04  0.10910793411E+04  0.00000000000E+00 0. -1.
          1    1    1    2  502    0  0.12783874003E+02  0.37013188746E+02  0.63939174920E+03  0.64058973807E+03  0.00000000000E+00 0. -1.
         22    1    3    3    0    0 -0.22439833958E+02 -0.10054698060E+03  0.17544346427E+03  0.20345429612E+03  0.00000000000E+00 0.  1.
         22    1    3    3    0    0  0.20595406842E+02 -0.42391494076E+02 -0.10254767377E+02  0.48232455950E+02  0.00000000000E+00 0.  1.
</event>
<event>
 7    1  0.6173324E-006  0.7767904E+02  0.7818608E-02  0.1359501E+00
          2   -1    0    0  502    0  0.00000000000E+00  0.00000000000E+00  0.12548112914E+04  0.12548112914E+04  0.00000000000E+00 0. -1.
          1   -1    0    0  501    0 -0.00000000000E+00 -0.00000000000E+00 -0.42198707026E+03  0.42198707026E+03  0.00000000000E+00 0. -1.
         25    2    1    2    0    0  0.19378945390E+02 -0.33396074728E+02 -0.12170694182E+03  0.17868296031E+03  0.12499671710E+03 0.  0.
          2    1    1    2  501    0  0.10990274556E+02  0.89042986128E+02 -0.26354127153E+03  0.27839439886E+03  0.00000000000E+00 0. -1.
          1    1    1    2  502    0 -0.30369219945E+02 -0.55646911400E+02  0.12180724345E+04  0.12197210025E+04  0.00000000000E+00 0. -1.
         22    1    3    3    0    0  0.18667039961E+02 -0.46156379866E+02  0.61698873190E+01  0.50169087023E+02  0.00000000000E+00 0.  1.
         22    1    3    3    0    0  0.71190542904E+00  0.12760305138E+02 -0.12787682914E+03  0.12851387328E+03  0.00000000000E+00 0.  1.
</event>
<event>
 7    1  0.6173324E-006  0.6754276E+02  0.7818608E-02  0.1424151E+00
          2   -1    0    0  502    0  0.00000000000E+00  0.00000000000E+00  0.56146605713E+03  0.56146605713E+03  0.00000000000E+00 0. -1.
          1   -1    0    0  501    0 -0.00000000000E+00 -0.00000000000E+00 -0.17609780721E+04  0.17609780721E+04  0.00000000000E+00 0. -1.
         25    2    1    2    0    0 -0.90149975079E+02  0.44606941320E+02 -0.41017370039E+03  0.44043747667E+03  0.12500363653E+03 0.  0.
          2    1    1    2  501    0  0.23206636115E+02 -0.36693923560E+02 -0.13332384447E+04  0.13339451797E+04  0.00000000000E+00 0. -1.
          1    1    1    2  502    0  0.66943338963E+02 -0.79130177593E+01  0.54390013013E+03  0.54806147287E+03  0.00000000000E+00 0. -1.
         22    1    3    3    0    0 -0.31981650347E+02  0.82577388098E+02 -0.26700396260E+03  0.28130582474E+03  0.00000000000E+00 0. -1.
         22    1    3    3    0    0 -0.58168324732E+02 -0.37970446779E+02 -0.14316973779E+03  0.15913165194E+03  0.00000000000E+00 0. -1.
</event>
<event>
 7    1  0.6173324E-006  0.3961910E+02  0.7818608E-02  0.1515021E+00
          2   -1    0    0  502    0  0.00000000000E+00  0.00000000000E+00  0.19518697825E+03  0.19518697825E+03  0.00000000000E+00 0. -1.
          1   -1    0    0  501    0 -0.00000000000E+00 -0.00000000000E+00 -0.13194108771E+04  0.13194108771E+04  0.00000000000E+00 0. -1.
         25    2    1    2    0    0 -0.30950536253E+02  0.10221267242E+02 -0.25749266683E+02  0.13171883441E+03  0.12499766640E+03 0.  0.
          2    1    1    2  501    0  0.56865960210E+01 -0.39361220970E+02 -0.12377366150E+04  0.12383753758E+04  0.00000000000E+00 0. -1.
          1    1    1    2  502    0  0.25263940232E+02  0.29139953727E+02  0.13926198290E+03  0.14450364515E+03  0.00000000000E+00 0. -1.
         22    1    3    3    0    0 -0.74246702091E+02 -0.19001283024E+02 -0.10875993819E+02  0.77407420636E+02  0.00000000000E+00 0.  1.
         22    1    3    3    0    0  0.43296165838E+02  0.29222550266E+02 -0.14873272864E+02  0.54311413773E+02  0.00000000000E+00 0.  1.
</event>
<event>
 7    1  0.6173324E-006  0.1053634E+03  0.7818608E-02  0.1327004E+00
          2   -1    0    0  502    0  0.00000000000E+00  0.00000000000E+00  0.12236366961E+04  0.12236366961E+04  0.00000000000E+00 0. -1.
          1   -1    0    0  501    0 -0.00000000000E+00 -0.00000000000E+00 -0.56484989386E+03  0.56484989386E+03  0.00000000000E+00 0. -1.
         25    2    1    2    0    0  0.55126837387E+01  0.16299549814E+03 -0.21229275631E+02  0.20658356108E+03  0.12501265323E+03 0.  0.
          2    1    1    2  501    0  0.31082361214E+01 -0.10174992832E+03 -0.44433768986E+03  0.45584941776E+03  0.00000000000E+00 0. -1.
          1    1    1    2  502    0 -0.86209198600E+01 -0.61245569818E+02  0.11243537677E+04  0.11260536111E+04  0.00000000000E+00 0. -1.
         22    1    3    3    0    0 -0.47477337513E+02  0.56406880859E+02 -0.43326166978E+02  0.85516024993E+02  0.00000000000E+00 0.  1.
         22    1    3    3    0    0  0.52990021252E+02  0.10658861728E+03  0.22096891347E+02  0.12106753608E+03  0.00000000000E+00 0.  1.
</event>
<event>
 7    1  0.6173324E-006  0.4775589E+02  0.7818608E-02  0.1517248E+00
          2   -1    0    0  502    0  0.00000000000E+00  0.00000000000E+00  0.70596996973E+03  0.70596996973E+03  0.00000000000E+00 0. -1.
          1   -1    0    0  501    0 -0.00000000000E+00 -0.00000000000E+00 -0.76606515863E+03  0.76606515863E+03  0.00000000000E+00 0. -1.
         25    2    1    2    0    0  0.46127113993E+02 -0.31021701228E+02  0.15291872301E+03  0.20518091557E+03  0.12500006270E+03 0.  0.
          2    1    1    2  501    0 -0.47761821395E+02 -0.45622827275E+00 -0.73869068084E+03  0.74023328869E+03  0.00000000000E+00 0. -1.
          1    1    1    2  502    0  0.16347074020E+01  0.31477929500E+02  0.52567676893E+03  0.52662092411E+03  0.00000000000E+00 0. -1.
         22    1    3    3    0    0  0.18603608286E+02 -0.43855400295E+02  0.16556668723E+03  0.17228383063E+03  0.00000000000E+00 0.  1.
         22    1    3    3    0    0  0.27523505707E+02  0.12833699067E+02 -0.12647964225E+02  0.32897084935E+02  0.00000000000E+00 0.  1.
</event>
<event>
 7    1  0.6173324E-006  0.8375735E+02  0.7818608E-02  0.1347675E+00
          2   -1    0    0  502    0  0.00000000000E+00  0.00000000000E+00  0.42933069062E+03  0.42933069062E+03  0.00000000000E+00 0. -1.
          1   -1    0    0  501    0 -0.00000000000E+00 -0.00000000000E+00 -0.19077222193E+03  0.19077222193E+03  0.00000000000E+00 0. -1.
         25    2    1    2    0    0  0.55482129229E+02  0.39251345475E+02  0.25863062228E+03  0.29518444393E+03  0.12500048950E+03 0.  0.
          2    1    1    2  501    0 -0.16562394817E+02  0.62854760655E+02 -0.14502514574E+03  0.15892553840E+03  0.00000000000E+00 0. -1.
          1    1    1    2  502    0 -0.38919734411E+02 -0.10210610613E+03  0.12495299215E+03  0.16599293022E+03  0.00000000000E+00 0. -1.
         22    1    3    3    0    0 -0.13170923164E+02 -0.28921286494E+02  0.19654281847E+02  0.37365824283E+02  0.00000000000E+00 0. -1.
         22    1    3    3    0    0  0.68653052392E+02  0.68172631969E+02  0.23897634043E+03  0.25781861965E+03  0.00000000000E+00 0. -1.
</event>
<event>
 7    1  0.6173324E-006  0.1209937E+03  0.7818608E-02  0.1367280E+00
          2   -1    0    0  502    0  0.00000000000E+00  0.00000000000E+00  0.15587895755E+04  0.15587895755E+04  0.00000000000E+00 0. -1.
          1   -1    0    0  501    0 -0.00000000000E+00 -0.00000000000E+00 -0.14145899252E+03  0.14145899252E+03  0.00000000000E+00 0. -1.
         25    2    1    2    0    0  0.76232146435E+02  0.61611179671E+02  0.17706180188E+03  0.23787169726E+03  0.12499914024E+03 0.  0.
          2    1    1    2  501    0 -0.33595466020E+01  0.37989040195E+02 -0.10486963979E+03  0.11158895590E+03  0.00000000000E+00 0. -1.
          1    1    1    2  502    0 -0.72872599833E+02 -0.99600219866E+02  0.13451384209E+04  0.13507879149E+04  0.00000000000E+00 0. -1.
         22    1    3    3    0    0  0.19186368839E+02  0.88001528503E+02  0.13483232563E+03  0.16214851773E+03  0.00000000000E+00 0.  1.
         22    1    3    3    0    0  0.57045777595E+02 -0.26390348833E+02  0.42229476248E+02  0.75723179523E+02  0.00000000000E+00 0.  1.
</event>
<event>
 7    1  0.6173324E-006  0.1780868E+03  0.7818608E-02  0.1253231E+00
          2   -1    0    0  502    0  0.00000000000E+00  0.00000000000E+00  0.12442931286E+04  0.12442931286E+04  0.00000000000E+00 0. -1.
          1   -1    0    0  501    0 -0.00000000000E+00 -0.00000000000E+00 -0.22021304543E+04  0.22021304543E+04  0.00000000000E+00 0. -1.
         25    2    1    2    0    0  0.18869383566E+03 -0.12385286520E+03 -0.20217468331E+03  0.32778802259E+03  0.12500195738E+03 0.  0.
          2    1    1    2  501    0 -0.11606380308E+03  0.13169565264E+03 -0.19320369470E+04  0.19399951845E+04  0.00000000000E+00 0. -1.
          1    1    1    2  502    0 -0.72630032574E+02 -0.78427874385E+01  0.11763743046E+04  0.11786403758E+04  0.00000000000E+00 0. -1.
         22    1    3    3    0    0  0.83338709387E+02 -0.84021169891E+02 -0.17610981709E+03  0.21217814484E+03  0.00000000000E+00 0. -1.
         22    1    3    3    0    0  0.10535512627E+03 -0.39831695310E+02 -0.26064866224E+02  0.11560987775E+03  0.00000000000E+00 0. -1.
</event>
<event>
 7    1  0.6173324E-006  0.1094754E+03  0.7818608E-02  0.1345472E+00
          2   -1    0    0  502    0  0.00000000000E+00  0.00000000000E+00  0.46717371725E+03  0.46717371725E+03  0.00000000000E+00 0. -1.
          1   -1    0    0  501    0 -0.00000000000E+00 -0.00000000000E+00 -0.33880164149E+03  0.33880164149E+03  0.00000000000E+00 0. -1.
         25    2    1    2    0    0 -0.20866476262E+02 -0.85281318419E+02  0.69245310563E+02  0.16771289885E+03  0.12499756119E+03 0.  0.
          2    1    1    2  501    0 -0.23515972322E+02  0.10974639965E+03 -0.27671896167E+03  0.29861456250E+03  0.00000000000E+00 0. -1.
          1    1    1    2  502    0  0.44382448584E+02 -0.24465081228E+02  0.33584572687E+03  0.33964789738E+03  0.00000000000E+00 0. -1.
         22    1    3    3    0    0 -0.41037428704E+02 -0.11076266931E+03  0.65319128768E+02  0.13497787985E+03  0.00000000000E+00 0. -1.
         22    1    3    3    0    0  0.20170952442E+02  0.25481350887E+02  0.39261817950E+01  0.32735019000E+02  0.00000000000E+00 0. -1.
</event>
<event>
 7    1  0.6173324E-006  0.1075181E+03  0.7818608E-02  0.1445558E+00
          2   -1    0    0  502    0  0.00000000000E+00  0.00000000000E+00  0.38910518965E+03  0.38910518965E+03  0.00000000000E+00 0. -1.
          1   -1    0    0  501    0 -0.00000000000E+00 -0.00000000000E+00 -0.31780471385E+03  0.31780471385E+03  0.00000000000E+00 0. -1.
         25    2    1    2    0    0  0.80825123774E+02  0.47582657375E+02  0.14888200653E+03  0.21584232527E+03  0.12500099038E+03 0.  0.
          2    1    1    2  501    0 -0.10170666913E+03 -0.37439631364E+02 -0.27328558009E+03  0.29399146387E+03  0.00000000000E+00 0. -1.
          1    1    1    2  502    0  0.20881545357E+02 -0.10143026011E+02  0.19570404936E+03  0.19707611436E+03  0.00000000000E+00 0. -1.
         22    1    3    3    0    0  0.11380606553E+03  0.25661386146E+02  0.11004772442E+03  0.16037714594E+03  0.00000000000E+00 0. -1.
         22    1    3    3    0    0 -0.32980941756E+02  0.21921271229E+02  0.38834282111E+02  0.55465179333E+02  0.00000000000E+00 0. -1.
</event>
<event>
 7    1  0.6173324E-006  0.6705556E+02  0.7818608E-02  0.1495806E+00
          2   -1    0    0  502    0  0.00000000000E+00  0.00000000000E+00  0.51873211184E+03  0.51873211184E+03  0.00000000000E+00 0. -1.
          1   -1    0    0  501    0 -0.00000000000E+00 -0.00000000000E+00 -0.18779595430E+04  0.18779595430E+04  0.00000000000E+00 0. -1.
         25    2    1    2    0    0  0.38177714962E+02 -0.22279136482E+02 -0.98070694135E+03  0.98962795303E+03  0.12499393088E+03 0.  0.
          2    1    1    2  501    0  0.25878598216E+02  0.22694925037E+01 -0.89041254329E+03  0.89079141761E+03  0.00000000000E+00 0. -1.
          1    1    1    2  502    0 -0.64056313178E+02  0.20009643979E+02  0.51189205344E+03  0.51627228425E+03  0.00000000000E+00 0. -1.
         22    1    3    3    0    0  0.55715821712E+02 -0.10483122382E+02 -0.18165040880E+03  0.19029193272E+03  0.00000000000E+00 0.  1.
         22    1    3    3    0    0 -0.17538106749E+02 -0.11796014101E+02 -0.79905653255E+03  0.79933602030E+03  0.00000000000E+00 0.  1.
</event>
<event>
 7    1  0.6173324E-006  0.5231081E+02  0.7818608E-02  0.1478348E+00
          2   -1    0    0  502    0  0.00000000000E+00  0.00000000000E+00  0.27915945232E+04  0.27915945232E+04  0.00000000000E+00 0. -1.
          1   -1    0    0  501    0 -0.00000000000E+00 -0.00000000000E+00 -0.79106431492E+02  0.79106431492E+02  0.00000000000E+00 0. -1.
         25    2    1    2    0    0 -0.64762447930E+02 -0.62010337059E+02  0.12645419962E+04  0.12738648125E+04  0.12500257541E+03 0.  0.
          2    1    1    2  501    0  0.37272392329E+02  0.36320407644E+02 -0.65087168696E+02  0.83335123269E+02  0.00000000000E+00 0. -1.
          1    1    1    2  502    0  0.27490055600E+02  0.25689929415E+02  0.15130332643E+04  0.15135010189E+04  0.00000000000E+00 0. -1.
         22    1    3    3    0    0 -0.41474139202E+02  0.29700564976E+02  0.65935812150E+03  0.66132848130E+03  0.00000000000E+00 0.  1.
         22    1    3    3    0    0 -0.23288308728E+02 -0.91710902035E+02  0.60518387467E+03  0.61253633120E+03  0.00000000000E+00 0.  1.
</event>
<event>
 7    1  0.1072833E-005  0.8952257E+02  0.7818608E-02  0.1405557E+00
          2   -1    0    0  502    0  0.00000000000E+00  0.00000000000E+00  0.20957393483E+04  0.20957393483E+04  0.00000000000E+00 0. -1.
          1   -1    0    0  501    0 -0.00000000000E+00 -0.00000000000E+00 -0.13697365681E+04  0.13697365681E+04  0.00000000000E+00 0. -1.
         25    2    1    2    0    0 -0.70687141387E+02 -0.81998618236E+02 -0.26256427485E+03  0.31029702504E+03  0.12499519979E+03 0.  0.
          2    1    1    2  501    0  0.32854576171E+02  0.82188055838E+02 -0.10813248069E+04  0.10849413062E+04  0.00000000000E+00 0. -1.
          1    1    1    2  502    0  0.37832565216E+02 -0.18943760263E+00  0.20698918620E+04  0.20702375852E+04  0.00000000000E+00 0. -1.
         22    1    3    3    0    0 -0.70086183536E+02 -0.36524166363E+02 -0.51366532151E+02  0.94258201109E+02  0.00000000000E+00 0.  1.
         22    1    3    3    0    0 -0.60095785112E+00 -0.45474451872E+02 -0.21119774270E+03  0.21603882393E+03  0.00000000000E+00 0.  1.
</event>
<event>
 7    1  0.6173324E-006  0.5026857E+02  0.7818608E-02  0.1523726E+00
          2   -1    0    0  502    0  0.00000000000E+00  0.00000000000E+00  0.73524891186E+03  0.73524891186E+03  0.00000000000E+00 0. -1.
          1   -1    0    0  501    0 -0.00000000000E+00 -0.00000000000E+00 -0.51595526744E+03  0.51595526744E+03  0.00000000000E+00 0. -1.
         25    2    1    2    0    0 -0.13618651235E+02 -0.76498137247E+02  0.18665789640E+03  0.23770380825E+03  0.12499799001E+03 0.  0.
          2    1    1    2  501    0  0.44907574455E+01  0.28322524277E+02 -0.48886212548E+03  0.48970247091E+03  0.00000000000E+00 0. -1.
          1    1    1    2  502    0  0.91278937890E+01  0.48175612970E+02  0.52149787350E+03  0.52379790014E+03  0.00000000000E+00 0. -1.
         22    1    3    3    0    0 -0.29771198253E+02 -0.55653816953E+02  0.16124335055E+02  0.65143424593E+02  0.00000000000E+00 0.  1.
         22    1    3    3    0    0  0.16152547018E+02 -0.20844320294E+02  0.17053356134E+03  0.17256038366E+03  0.00000000000E+00 0.  1.
</event>
<event>
 7    1  0.6173324E-006  0.6267715E+02  0.7818608E-02  0.1462982E+00
          2   -1    0    0  502    0  0.00000000000E+00  0.00000000000E+00  0.27089124998E+02  0.27089124998E+02  0.00000000000E+00 0. -1.
          1   -1    0    0  501    0 -0.00000000000E+00 -0.00000000000E+00 -0.17569570226E+04  0.17569570226E+04  0.00000000000E+00 0. -1.
         25    2    1    2    0    0 -0.53946545962E+02 -0.64230562604E+02 -0.49590376376E+03  0.51825452302E+03  0.12502564825E+03 0.  0.
          2    1    1    2  501    0  0.34412297630E+02  0.66689701698E+01 -0.11906175008E+04  0.11911333740E+04  0.00000000000E+00 0. -1.
          1    1    1    2  502    0  0.19534248332E+02  0.57561592435E+02 -0.43346632947E+02  0.74658250511E+02  0.00000000000E+00 0. -1.
         22    1    3    3    0    0 -0.41558472696E+02 -0.10155608987E+03 -0.33050948263E+03  0.34824885377E+03  0.00000000000E+00 0.  1.
         22    1    3    3    0    0 -0.12388073266E+02  0.37325527268E+02 -0.16539428114E+03  0.17000566925E+03  0.00000000000E+00 0.  1.
</event>
<event>
 7    1  0.6173324E-006  0.5464371E+02  0.7818608E-02  0.1529844E+00
          2   -1    0    0  502    0  0.00000000000E+00  0.00000000000E+00  0.50021071543E+03  0.50021071543E+03  0.00000000000E+00 0. -1.
          1   -1    0    0  501    0 -0.00000000000E+00 -0.00000000000E+00 -0.63579285130E+03  0.63579285130E+03  0.00000000000E+00 0. -1.
         25    2    1    2    0    0  0.56221388981E+02  0.48965658925E+02 -0.10712149970E+03  0.18071733965E+03  0.12500104327E+03 0.  0.
          2    1    1    2  501    0 -0.24947774129E+02 -0.43971953006E+01 -0.48994585725E+03  0.49060031573E+03  0.00000000000E+00 0. -1.
          1    1    1    2  502    0 -0.31273614852E+02 -0.44568463624E+02  0.46148522107E+03  0.46468591135E+03  0.00000000000E+00 0. -1.
         22    1    3    3    0    0  0.79213564131E+02  0.62888713585E+02 -0.40629437530E+02  0.10899784508E+03  0.00000000000E+00 0.  1.
         22    1    3    3    0    0 -0.22992175150E+02 -0.13923054661E+02 -0.66492062166E+02  0.71719494563E+02  0.00000000000E+00 0.  1.
</event>
<event>
 7    1  0.6173324E-006  0.1993073E+03  0.7818608E-02  0.1181275E+00
          2   -1    0    0  502    0  0.00000000000E+00  0.00000000000E+00  0.19011131285E+04  0.19011131285E+04  0.00000000000E+00 0. -1.
          1   -1    0    0  501    0 -0.00000000000E+00 -0.00000000000E+00 -0.45695265446E+03  0.45695265446E+03  0.00000000000E+00 0. -1.
         25    2    1    2    0    0  0.16199439959E+03  0.11842211849E+03  0.14501775201E+03  0.27734434310E+03  0.12499501032E+03 0.  0.
          2    1    1    2  501    0 -0.48013367130E+02 -0.19888181472E+03 -0.36088232207E+03  0.41484371760E+03  0.00000000000E+00 0. -1.
          1    1    1    2  502    0 -0.11398103246E+03  0.80459696230E+02  0.16600250441E+04  0.16658777223E+04  0.00000000000E+00 0. -1.
         22    1    3    3    0    0  0.13730337892E+03  0.14330369299E+03  0.10638812491E+03  0.22518125901E+03  0.00000000000E+00 0.  1.
         22    1    3    3    0    0  0.24691020669E+02 -0.24881574502E+02  0.38629627106E+02  0.52163084090E+02  0.00000000000E+00 0.  1.
</event>
<event>
 7    1  0.6173324E-006  0.1435835E+03  0.7818608E-02  0.1320419E+00
          2   -1    0    0  502    0  0.00000000000E+00  0.00000000000E+00  0.45069756832E+03  0.45069756832E+03  0.00000000000E+00 0. -1.
          1   -1    0    0  501    0 -0.00000000000E+00 -0.00000000000E+00 -0.14289495293E+04  0.14289495293E+04  0.00000000000E+00 0. -1.
         25    2    1    2    0    0  0.59397000119E+02  0.81914967070E+02 -0.44229962491E+02  0.16681198758E+03  0.12502753363E+03 0.  0.
          2    1    1    2  501    0 -0.69324597366E+02 -0.12899935528E+03 -0.13178703906E+04  0.13259823151E+04  0.00000000000E+00 0. -1.
          1    1    1    2  502    0  0.99275972470E+01  0.47084388207E+02  0.38384839214E+03  0.38685279494E+03  0.00000000000E+00 0. -1.
         22    1    3    3    0    0  0.83680314010E+02  0.54348071178E+02 -0.70045252062E+02  0.12191162836E+03  0.00000000000E+00 0. -1.
         22    1    3    3    0    0 -0.24283313891E+02  0.27566895892E+02  0.25815289571E+02  0.44900359222E+02  0.00000000000E+00 0. -1.
</event>
<event>
 7    1  0.6173324E-006  0.1026937E+03  0.7818608E-02  0.1415964E+00
          2   -1    0    0  502    0  0.00000000000E+00  0.00000000000E+00  0.17678036754E+03  0.17678036754E+03  0.00000000000E+00 0. -1.
          1   -1    0    0  501    0 -0.00000000000E+00 -0.00000000000E+00 -0.22344302183E+03  0.22344302183E+03  0.00000000000E+00 0. -1.
         25    2    1    2    0    0  0.71470525725E+02 -0.75930694264E+02 -0.59624561981E+02  0.17335879412E+03  0.12499870690E+03 0.  0.
          2    1    1    2  501    0 -0.46012583505E+02  0.92565758780E+02 -0.78937418715E+02  0.13006419035E+03  0.00000000000E+00 0. -1.
          1    1    1    2  502    0 -0.25457942220E+02 -0.16635064516E+02  0.91899326411E+02  0.96800404898E+02  0.00000000000E+00 0. -1.
         22    1    3    3    0    0  0.74682701055E+02 -0.86545510739E+02 -0.16423845402E+01  0.11432553824E+03  0.00000000000E+00 0.  1.
         22    1    3    3    0    0 -0.32121753305E+01  0.10614816475E+02 -0.57982177441E+02  0.59033255881E+02  0.00000000000E+00 0.  1.
</event>
<event>
 7    1  0.6173324E-006  0.4030619E+02  0.7818608E-02  0.1615867E+00
          2   -1    0    0  502    0  0.00000000000E+00  0.00000000000E+00  0.31045837174E+03  0.31045837174E+03  0.00000000000E+00 0. -1.
          1   -1    0    0  501    0 -0.00000000000E+00 -0.00000000000E+00 -0.16959847479E+03  0.16959847479E+03  0.00000000000E+00 0. -1.
         25    2    1    2    0    0  0.16227238265E+02 -0.13760303994E+02  0.19712653210E+03  0.23438613842E+03  0.12500129199E+03 0.  0.
          2    1    1    2  501    0 -0.35367467776E+02  0.19841754792E+02 -0.14712890875E+03  0.15261542780E+03  0.00000000000E+00 0. -1.
          1    1    1    2  502    0  0.19140229511E+02 -0.60814507973E+01  0.90862273606E+02  0.93055280315E+02  0.00000000000E+00 0. -1.
         22    1    3    3    0    0 -0.29085751155E+02 -0.56776264976E+02  0.11025404145E+03  0.12737927163E+03  0.00000000000E+00 0.  1.
         22    1    3    3    0    0  0.45312989420E+02  0.43015960981E+02  0.86872490647E+02  0.10700686679E+03  0.00000000000E+00 0.  1.
</event>
<event>
 7    1  0.6173324E-006  0.3388579E+02  0.7818608E-02  0.1569857E+00
          2   -1    0    0  502    0  0.00000000000E+00  0.00000000000E+00  0.62861803012E+03  0.62861803012E+03  0.00000000000E+00 0. -1.
          1   -1    0    0  501    0 -0.00000000000E+00 -0.00000000000E+00 -0.28334984663E+03  0.28334984663E+03  0.00000000000E+00 0. -1.
         25    2    1    2    0    0  0.45966469467E+02 -0.25445644242E+02  0.60981653291E+02  0.14867735533E+03  0.12500318725E+03 0.  0.
          2    1    1    2  501    0 -0.31202886255E+02 -0.49268855752E+01 -0.23791256693E+03  0.24000059128E+03  0.00000000000E+00 0. -1.
          1    1    1    2  502    0 -0.14763583212E+02  0.30372529818E+02  0.52219909712E+03  0.52328993015E+03  0.00000000000E+00 0. -1.
         22    1    3    3    0    0 -0.78221680182E+01  0.13547794650E+01 -0.34750548539E+02  0.35645790265E+02  0.00000000000E+00 0.  1.
         22    1    3    3    0    0  0.53788637485E+02 -0.26800423707E+02  0.95732201829E+02  0.11303156506E+03  0.00000000000E+00 0.  1.
</event>
<event>
 7    1  0.6173324E-006  0.6368180E+02  0.7818608E-02  0.1504908E+00
          2   -1    0    0  502    0  0.00000000000E+00  0.00000000000E+00  0.10854626943E+04  0.10854626943E+04  0.00000000000E+00 0. -1.
          1   -1    0    0  501    0 -0.00000000000E+00 -0.00000000000E+00 -0.36085280699E+03  0.36085280699E+03  0.00000000000E+00 0. -1.
         25    2    1    2    0    0 -0.76251762020E+02 -0.21952853465E+02  0.38840722112E+03  0.41567016559E+03  0.12500103263E+03 0.  0.
          2    1    1    2  501    0  0.63590222962E+02 -0.40769728313E+00 -0.34406511772E+03  0.34989239475E+03  0.00000000000E+00 0. -1.
          1    1    1    2  502    0  0.12661539057E+02  0.22360550749E+02  0.68026778395E+03  0.68075294100E+03  0.00000000000E+00 0. -1.
         22    1    3    3    0    0  0.29204656194E+02  0.93924200820E+01  0.14997080839E+03  0.15307636287E+03  0.00000000000E+00 0. -1.
         22    1    3    3    0    0 -0.10545641821E+03 -0.31345273547E+02  0.23843641273E+03  0.26259380273E+03  0.00000000000E+00 0. -1.
</event>
<event>
 7    1  0.6173324E-006  0.1079896E+03  0.7818608E-02  0.1284405E+00
          2   -1    0    0  502    0  0.00000000000E+00  0.00000000000E+00  0.30212668990E+04  0.30212668990E+04  0.00000000000E+00 0. -1.
          1   -1    0    0  501    0 -0.00000000000E+00 -0.00000000000E+00 -0.11541016061E+04  0.11541016061E+04  0.00000000000E+00 0. -1.
         25    2    1    2    0    0 -0.11279637799E+03 -0.17688159271E+02 -0.62835867924E+02  0.18059007650E+03  0.12501414147E+03 0.  0.
          2    1    1    2  501    0  0.61478320613E+02  0.90481042517E+02 -0.10288189281E+04  0.10346181855E+04  0.00000000000E+00 0. -1.
          1    1    1    2  502    0  0.51318057380E+02 -0.72792883246E+02  0.29588200889E+04  0.29601602432E+04  0.00000000000E+00 0. -1.
         22    1    3    3    0    0 -0.74795288875E+02 -0.32658178180E+02  0.23627257575E+02  0.84965517361E+02  0.00000000000E+00 0.  1.
         22    1    3    3    0    0 -0.38001089118E+02  0.14970018908E+02 -0.86463125499E+02  0.95624559143E+02  0.00000000000E+00 0.  1.
</event>
<event>
 7    1  0.6173324E-006  0.5203653E+02  0.7818608E-02  0.1486115E+00
          2   -1    0    0  502    0  0.00000000000E+00  0.00000000000E+00  0.17742377585E+04  0.17742377585E+04  0.00000000000E+00 0. -1.
          1   -1    0    0  501    0 -0.00000000000E+00 -0.00000000000E+00 -0.18629511173E+03  0.18629511173E+03  0.00000000000E+00 0. -1.
         25    2    1    2    0    0  0.20261727117E+02 -0.62155205733E+01  0.37700071109E+03  0.39774850571E+03  0.12500066941E+03 0.  0.
          2    1    1    2  501    0 -0.50911193114E+02 -0.12304718284E+02 -0.17178569341E+03  0.17959309601E+03  0.00000000000E+00 0. -1.
          1    1    1    2  502    0  0.30649465997E+02  0.18520238857E+02  0.13827276291E+04  0.13831912685E+04  0.00000000000E+00 0. -1.
         22    1    3    3    0    0  0.30070712795E+02  0.41078793259E+01  0.12264475977E+02  0.32734382713E+02  0.00000000000E+00 0. -1.
         22    1    3    3    0    0 -0.98089856779E+01 -0.10323399899E+02  0.36473623511E+03  0.36501412300E+03  0.00000000000E+00 0. -1.
</event>
<event>
 7    1  0.6173324E-006  0.5116578E+02  0.7818608E-02  0.1522401E+00
          2   -1    0    0  502    0  0.00000000000E+00  0.00000000000E+00  0.72285190820E+02  0.72285190820E+02  0.00000000000E+00 0. -1.
          1   -1    0    0  501    0 -0.00000000000E+00 -0.00000000000E+00 -0.21088854021E+03  0.21088854021E+03  0.00000000000E+00 0. -1.
         25    2    1    2    0    0 -0.23073035589E+02 -0.11312828343E+02 -0.91134691335E+01  0.12793792576E+03  0.12499884988E+03 0.  0.
          2    1    1    2  501    0  0.49959870728E+02  0.20530485054E+02 -0.10338217311E+03  0.11664203023E+03  0.00000000000E+00 0. -1.
          1    1    1    2  502    0 -0.26886835139E+02 -0.92176567108E+01 -0.26107707145E+02  0.38593775034E+02  0.00000000000E+00 0. -1.
         22    1    3    3    0    0 -0.28243922243E+02 -0.69590087976E+00 -0.64969810445E+02  0.70846874955E+02  0.00000000000E+00 0.  1.
         22    1    3    3    0    0  0.51708866538E+01 -0.10616927463E+02  0.55856341311E+02  0.57091050807E+02  0.00000000000E+00 0.  1.
</event>
<event>
 7    1  0.6173324E-006  0.3127918E+02  0.7818608E-02  0.1613182E+00
          2   -1    0    0  502    0  0.00000000000E+00  0.00000000000E+00  0.17617568931E+04  0.17617568931E+04  0.00000000000E+00 0. -1.
          1   -1    0    0  501    0 -0.00000000000E+00 -0.00000000000E+00 -0.11821585484E+04  0.11821585484E+04  0.00000000000E+00 0. -1.
         25    2    1    2    0    0 -0.83602727022E+01 -0.14001554258E+02  0.86440594305E+03  0.87354947030E+03  0.12500041993E+03 0.  0.
          2    1    1    2  501    0 -0.13869537174E+02  0.28042090866E+02 -0.11771853429E+04  0.11776009742E+04  0.00000000000E+00 0. -1.
          1    1    1    2  502    0  0.22229809876E+02 -0.14040536608E+02  0.89237774446E+03  0.89276499703E+03  0.00000000000E+00 0. -1.
         22    1    3    3    0    0  0.22787202476E+02  0.26409182876E+02  0.77462300020E+02  0.84953572387E+02  0.00000000000E+00 0.  1.
         22    1    3    3    0    0 -0.31147475178E+02 -0.40410737133E+02  0.78694364303E+03  0.78859589791E+03  0.00000000000E+00 0.  1.
</event>
<event>
 7    1  0.6173324E-006  0.2027510E+03  0.7818608E-02  0.1215536E+00
          2   -1    0    0  502    0  0.00000000000E+00  0.00000000000E+00  0.23568419636E+04  0.23568419636E+04  0.00000000000E+00 0. -1.
          1   -1    0    0  501    0 -0.00000000000E+00 -0.00000000000E+00 -0.15105832163E+03  0.15105832163E+03  0.00000000000E+00 0. -1.
         25    2    1    2    0    0  0.11119686961E+03 -0.34013931843E+02  0.84615888125E+03  0.86320988507E+03  0.12499904801E+03 0.  0.
          2    1    1    2  501    0 -0.20133483077E+03  0.62178986241E+02 -0.62220932821E+02  0.21971204995E+03  0.00000000000E+00 0. -1.
          1    1    1    2  502    0  0.90137961161E+02 -0.28165054398E+02  0.14218456936E+04  0.14249783502E+04  0.00000000000E+00 0. -1.
         22    1    3    3    0    0  0.31026707748E+02  0.41555005643E+02  0.41370638924E+03  0.41694418282E+03  0.00000000000E+00 0.  1.
         22    1    3    3    0    0  0.80170161860E+02 -0.75568937486E+02  0.43245249200E+03  0.44626570225E+03  0.00000000000E+00 0.  1.
</event>
<event>
 7    1  0.6173324E-006  0.9162392E+02  0.7818608E-02  0.1453642E+00
          2   -1    0    0  502    0  0.00000000000E+00  0.00000000000E+00  0.39136957152E+03  0.39136957152E+03  0.00000000000E+00 0. -1.
          1   -1    0    0  501    0 -0.00000000000E+00 -0.00000000000E+00 -0.25109415575E+03  0.25109415575E+03  0.00000000000E+00 0. -1.
         25    2    1    2    0    0 -0.33471436682E+02  0.87480535484E+02  0.10668190219E+03  0.18915418555E+03  0.12500038598E+03 0.  0.
          2    1    1    2  501    0  0.80996359151E+01 -0.91354001655E+02 -0.19909856317E+03  0.21920628544E+03  0.00000000000E+00 0. -1.
          1    1    1    2  502    0  0.25371800766E+02  0.38734661715E+01  0.23269207675E+03  0.23410325627E+03  0.00000000000E+00 0. -1.
         22    1    3    3    0    0  0.26027677268E+02  0.85482247374E+02  0.91117086308E+02  0.12762044514E+03  0.00000000000E+00 0. -1.
         22    1    3    3    0    0 -0.59499113949E+02  0.19982881094E+01  0.15564815879E+02  0.61533740415E+02  0.00000000000E+00 0. -1.
</event>
<event>
 7    1  0.6173324E-006  0.8879239E+02  0.7818608E-02  0.1397752E+00
          2   -1    0    0  502    0  0.00000000000E+00  0.00000000000E+00  0.53868984024E+03  0.53868984024E+03  0.00000000000E+00 0. -1.
          1   -1    0    0  501    0 -0.00000000000E+00 -0.00000000000E+00 -0.19118314745E+04  0.19118314745E+04  0.00000000000E+00 0. -1.
         25    2    1    2    0    0 -0.10287300463E+03  0.37478622388E+02 -0.20675663118E+03  0.26525593568E+03  0.12499961863E+03 0.  0.
          2    1    1    2  501    0  0.67322032981E+02 -0.57023883022E+02 -0.16738538730E+04  0.16761774272E+04  0.00000000000E+00 0. -1.
          1    1    1    2  502    0  0.35550971654E+02  0.19545260634E+02  0.50746886991E+03  0.50908795186E+03  0.00000000000E+00 0. -1.
         22    1    3    3    0    0 -0.10211584176E+03  0.71722704714E+02 -0.12505616664E+03  0.17666588897E+03  0.00000000000E+00 0.  1.
         22    1    3    3    0    0 -0.75716287184E+00 -0.34244082326E+02 -0.81700464538E+02  0.88590046708E+02  0.00000000000E+00 0.  1.
</event>
<event>
 7    1  0.6173324E-006  0.7689415E+02  0.7818608E-02  0.1457964E+00
          2   -1    0    0  502    0  0.00000000000E+00  0.00000000000E+00  0.20084833022E+04  0.20084833022E+04  0.00000000000E+00 0. -1.
          1   -1    0    0  501    0 -0.00000000000E+00 -0.00000000000E+00 -0.95958666502E+02  0.95958666502E+02  0.00000000000E+00 0. -1.
         25    2    1    2    0    0  0.90874711825E+02  0.19535261776E+02  0.14621534518E+04  0.14704271978E+04  0.12499435072E+03 0.  0.
          2    1    1    2  501    0 -0.21857528351E+02 -0.20006930196E+02 -0.87165941238E+02  0.92064814742E+02  0.00000000000E+00 0. -1.
          1    1    1    2  502    0 -0.69017183475E+02  0.47166842065E+00  0.53753712517E+03  0.54194995619E+03  0.00000000000E+00 0. -1.
         22    1    3    3    0    0  0.67362398267E+02  0.15427798389E+01  0.28332216400E+03  0.29122417737E+03  0.00000000000E+00 0.  1.
         22    1    3    3    0    0  0.23512313558E+02  0.17992481937E+02  0.11788312878E+04  0.11792030204E+04  0.00000000000E+00 0.  1.
</event>
<event>
 7    1  0.6173324E-006  0.1123160E+03  0.7818608E-02  0.1350496E+00
          2   -1    0    0  502    0  0.00000000000E+00  0.00000000000E+00  0.20905451534E+04  0.20905451534E+04  0.00000000000E+00 0. -1.
          1   -1    0    0  501    0 -0.00000000000E+00 -0.00000000000E+00 -0.64614488728E+03  0.64614488728E+03  0.00000000000E+00 0. -1.
         25    2    1    2    0    0  0.82676235712E+01 -0.83021528643E+02 -0.84463951647E+02  0.17239358277E+03  0.12499784173E+03 0.  0.
          2    1    1    2  501    0  0.27442768753E+02  0.11406654287E+03 -0.51079155995E+03  0.52409188076E+03  0.00000000000E+00 0. -1.
          1    1    1    2  502    0 -0.35710392324E+02 -0.31045014223E+02  0.20396557777E+04  0.20402045771E+04  0.00000000000E+00 0. -1.
         22    1    3    3    0    0 -0.34223055075E+02 -0.66236388467E+02 -0.99467525115E+02  0.12430714062E+03  0.00000000000E+00 0.  1.
         22    1    3    3    0    0  0.42490678646E+02 -0.16785140176E+02  0.15003573468E+02  0.48086442157E+02  0.00000000000E+00 0.  1.
</event>
<event>
 7    1  0.6173324E-006  0.1434491E+03  0.7818608E-02  0.1220395E+00
          2   -1    0    0  502    0  0.00000000000E+00  0.00000000000E+00  0.85385145291E+03  0.85385145291E+03  0.00000000000E+00 0. -1.
          1   -1    0    0  501    0 -0.00000000000E+00 -0.00000000000E+00 -0.74324719863E+03  0.74324719863E+03  0.00000000000E+00 0. -1.
         25    2    1    2    0    0 -0.20749172935E+02 -0.18472695433E+02  0.66488074221E+02  0.14428185123E+03  0.12499927970E+03 0.  0.
          2    1    1    2  501    0  0.14108974328E+03  0.58473812345E+02 -0.69057469324E+03  0.70726155653E+03  0.00000000000E+00 0. -1.
          1    1    1    2  502    0 -0.12034057035E+03 -0.40001116912E+02  0.73469087331E+03  0.74555524379E+03  0.00000000000E+00 0. -1.
         22    1    3    3    0    0  0.42600158284E+02  0.26158825414E+02  0.19518564435E+02  0.53665929512E+02  0.00000000000E+00 0.  1.
         22    1    3    3    0    0 -0.63349331219E+02 -0.44631520846E+02  0.46969509786E+02  0.90615921716E+02  0.00000000000E+00 0.  1.
</event>
<event>
 7    1  0.6173324E-006  0.1466987E+03  0.7818608E-02  0.1281530E+00
          2   -1    0    0  502    0  0.00000000000E+00  0.00000000000E+00  0.98671786731E+03  0.98671786731E+03  0.00000000000E+00 0. -1.
          1   -1    0    0  501    0 -0.00000000000E+00 -0.00000000000E+00 -0.53219244585E+03  0.53219244585E+03  0.00000000000E+00 0. -1.
         25    2    1    2    0    0  0.79901893878E+02  0.11977149096E+03  0.14463623121E+03  0.23931971570E+03  0.12499905701E+03 0.  0.
          2    1    1    2  501    0  0.49481339045E+02 -0.45722919391E+02 -0.47546428600E+03  0.48021378107E+03  0.00000000000E+00 0. -1.
          1    1    1    2  502    0 -0.12938323292E+03 -0.74048571572E+02  0.78535347625E+03  0.79937681638E+03  0.00000000000E+00 0. -1.
         22    1    3    3    0    0  0.35779663449E+02  0.74373354500E+02  0.12076352822E+01  0.82541132528E+02  0.00000000000E+00 0. -1.
         22    1    3    3    0    0  0.44122230429E+02  0.45398136464E+02  0.14342859593E+03  0.15677858317E+03  0.00000000000E+00 0. -1.
</event>
<event>
 7    1  0.6173324E-006  0.1355980E+03  0.7818608E-02  0.1403743E+00
          2   -1    0    0  502    0  0.00000000000E+00  0.00000000000E+00  0.14522311281E+03  0.14522311281E+03  0.00000000000E+00 0. -1.
          1   -1    0    0  501    0 -0.00000000000E+00 -0.00000000000E+00 -0.14867035953E+04  0.14867035953E+04  0.00000000000E+00 0. -1.
         25    2    1    2    0    0  0.63517952109E+01  0.11290191876E+03 -0.36667228707E+03  0.40356252645E+03  0.12500783210E+03 0.  0.
          2    1    1    2  501    0  0.75030902966E+01  0.24199891174E+02 -0.10639456635E+04  0.10642472955E+04  0.00000000000E+00 0. -1.
          1    1    1    2  502    0 -0.13854885508E+02 -0.13710180993E+03  0.89137468015E+02  0.16411688622E+03  0.00000000000E+00 0. -1.
         22    1    3    3    0    0  0.19990927855E+01  0.19520589986E+02  0.50529393710E+01  0.20262823142E+02  0.00000000000E+00 0. -1.
         22    1    3    3    0    0  0.43527024254E+01  0.93381328774E+02 -0.37172522644E+03  0.38329970330E+03  0.00000000000E+00 0. -1.
</event>
<event>
 7    1  0.8737443E-006  0.4081381E+02  0.7818608E-02  0.1531778E+00
          2   -1    0    0  502    0  0.00000000000E+00  0.00000000000E+00  0.12415816428E+04  0.12415816428E+04  0.00000000000E+00 0. -1.
          1   -1    0    0  501    0 -0.00000000000E+00 -0.00000000000E+00 -0.10592990222E+04  0.10592990222E+04  0.00000000000E+00 0. -1.
         25    2    1    2    0    0 -0.11431129719E+01 -0.76420596680E+01 -0.30238410800E+03  0.32729411088E+03  0.12500231384E+03 0.  0.
          2    1    1    2  501    0  0.64217136519E+01 -0.32865260176E+02 -0.74374365829E+03  0.74449714102E+03  0.00000000000E+00 0. -1.
          1    1    1    2  502    0 -0.52786006800E+01  0.40507319844E+02  0.12284103869E+04  0.12290894130E+04  0.00000000000E+00 0. -1.
         22    1    3    3    0    0 -0.61529415908E+02 -0.15843050828E+02 -0.17234958560E+03  0.18368791724E+03  0.00000000000E+00 0. -1.
         22    1    3    3    0    0  0.60386302936E+02  0.82009911601E+01 -0.13003452240E+03  0.14360619365E+03  0.00000000000E+00 0. -1.
</event>
<event>
 7    1  0.6173324E-006  0.1218259E+03  0.7818608E-02  0.1259392E+00
          2   -1    0    0  502    0  0.00000000000E+00  0.00000000000E+00  0.71697516039E+03  0.71697516039E+03  0.00000000000E+00 0. -1.
          1   -1    0    0  501    0 -0.00000000000E+00 -0.00000000000E+00 -0.10881709335E+04  0.10881709335E+04  0.00000000000E+00 0. -1.
         25    2    1    2    0    0 -0.29192335687E+02  0.55925293339E+02 -0.62069032698E+01  0.14015351307E+03  0.12499860271E+03 0.  0.
          2    1    1    2  501    0  0.77998248374E+02  0.63341249458E+02 -0.10060764417E+04  0.10110814246E+04  0.00000000000E+00 0. -1.
          1    1    1    2  502    0 -0.48805912687E+02 -0.11926654280E+03  0.64108757190E+03  0.65391115619E+03  0.00000000000E+00 0. -1.
         22    1    3    3    0    0  0.11899491285E+02  0.62603595491E+02 -0.49049484594E+02  0.80415545762E+02  0.00000000000E+00 0. -1.
         22    1    3    3    0    0 -0.41091826971E+02 -0.66783021515E+01  0.42842581325E+02  0.59737967307E+02  0.00000000000E+00 0. -1.
</event>
<event>
 7    1  0.6173324E-006  0.3973141E+02  0.7818608E-02  0.1520546E+00
          2   -1    0    0  502    0  0.00000000000E+00  0.00000000000E+00  0.13696205985E+04  0.13696205985E+04  0.00000000000E+00 0. -1.
          1   -1    0    0  501    0 -0.00000000000E+00 -0.00000000000E+00 -0.22169167844E+03  0.22169167844E+03  0.00000000000E+00 0. -1.
         25    2    1    2    0    0  0.61335193415E+02 -0.29624095982E+02  0.46245011728E+03  0.48386306324E+03  0.12499503984E+03 0.  0.
          2    1    1    2  501    0 -0.37051965491E+02 -0.71331009718E+00 -0.20893275521E+03  0.21219390462E+03  0.00000000000E+00 0. -1.
          1    1    1    2  502    0 -0.24283227925E+02  0.30337406079E+02  0.89441155795E+03  0.89525530904E+03  0.00000000000E+00 0. -1.
         22    1    3    3    0    0  0.21628542207E+02  0.17475121853E+01  0.33187203844E+01  0.21951344876E+02  0.00000000000E+00 0. -1.
         22    1    3    3    0    0  0.39706651208E+02 -0.31371608167E+02  0.45913139690E+03  0.46191171837E+03  0.00000000000E+00 0. -1.
</event>
<event>
 7    1  0.6173324E-006  0.8391715E+02  0.7818608E-02  0.1479832E+00
          2   -1    0    0  502    0  0.00000000000E+00  0.00000000000E+00  0.10749853667E+04  0.10749853667E+04  0.00000000000E+00 0. -1.
          1   -1    0    0  501    0 -0.00000000000E+00 -0.00000000000E+00 -0.24363865394E+03  0.24363865394E+03  0.00000000000E+00 0. -1.
         25    2    1    2    0    0  0.35560996432E+02  0.70353187288E+02 -0.14381762797E+01  0.14778450091E+03  0.12499613966E+03 0.  0.
          2    1    1    2  501    0  0.21553064466E+02 -0.86106758415E+01 -0.16645540767E+03  0.16806570462E+03  0.00000000000E+00 0. -1.
          1    1    1    2  502    0 -0.57114060898E+02 -0.61742511447E+02  0.99924029672E+03  0.10027738151E+04  0.00000000000E+00 0. -1.
         22    1    3    3    0    0 -0.33490447714E+02  0.83048734805E+01  0.33976547138E+02  0.48425063418E+02  0.00000000000E+00 0.  1.
         22    1    3    3    0    0  0.69051444146E+02  0.62048313808E+02 -0.35414723417E+02  0.99359437497E+02  0.00000000000E+00 0.  1.
</event>
<event>
 7    1  0.6173324E-006  0.1512085E+03  0.7818608E-02  0.1253301E+00
          2   -1    0    0  502    0  0.00000000000E+00  0.00000000000E+00  0.23631705589E+04  0.23631705589E+04  0.00000000000E+00 0. -1.
          1   -1    0    0  501    0 -0.00000000000E+00 -0.00000000000E+00 -0.77208202609E+03  0.77208202609E+03  0.00000000000E+00 0. -1.
         25    2    1    2    0    0 -0.12794197687E+02 -0.72769305912E+02  0.32656774155E+02  0.14882942964E+03  0.12499868339E+03 0.  0.
          2    1    1    2  501    0  0.27856857097E+02 -0.81340650835E+02 -0.70875692042E+03  0.71395285433E+03  0.00000000000E+00 0. -1.
          1    1    1    2  502    0 -0.15062659409E+02  0.15410995675E+03  0.22671886791E+04  0.22724703010E+04  0.00000000000E+00 0. -1.
         22    1    3    3    0    0 -0.41589710326E+02  0.21276912641E+02  0.13471916681E+02  0.48619991316E+02  0.00000000000E+00 0.  1.
         22    1    3    3    0    0  0.28795512639E+02 -0.94046218552E+02  0.19184857474E+02  0.10020943832E+03  0.00000000000E+00 0.  1.
</event>
<event>
 7    1  0.7120686E-006  0.7363078E+02  0.7818608E-02  0.1352767E+00
          2   -1    0    0  502    0  0.00000000000E+00  0.00000000000E+00  0.49189224932E+03  0.49189224932E+03  0.00000000000E+00 0. -1.
          1   -1    0    0  501    0 -0.00000000000E+00 -0.00000000000E+00 -0.22784097329E+04  0.22784097329E+04  0.00000000000E+00 0. -1.
         25    2    1    2    0    0 -0.59163274292E+02 -0.63261538546E+02 -0.97125715159E+03  0.98309204064E+03  0.12500876197E+03 0.  0.
          2    1    1    2  501    0  0.76129945953E+02 -0.54729651726E+01 -0.12975292001E+04  0.12997721905E+04  0.00000000000E+00 0. -1.
          1    1    1    2  502    0 -0.16966671661E+02  0.68734503718E+02  0.48226886816E+03  0.48743775105E+03  0.00000000000E+00 0. -1.
         22    1    3    3    0    0 -0.23963730489E+02 -0.51266230255E+02 -0.90764580201E+03  0.90940826291E+03  0.00000000000E+00 0. -1.
         22    1    3    3    0    0 -0.35199543803E+02 -0.11995308291E+02 -0.63611349580E+02  0.73683777728E+02  0.00000000000E+00 0. -1.
</event>
<event>
 7    1  0.6173324E-006  0.4111485E+02  0.7818608E-02  0.1538753E+00
          2   -1    0    0  502    0  0.00000000000E+00  0.00000000000E+00  0.47643460402E+03  0.47643460402E+03  0.00000000000E+00 0. -1.
          1   -1    0    0  501    0 -0.00000000000E+00 -0.00000000000E+00 -0.16617711385E+03  0.16617711385E+03  0.00000000000E+00 0. -1.
         25    2    1    2    0    0  0.58068214812E+02  0.30662180686E+02  0.45044362506E+02  0.14820950082E+03  0.12499989858E+03 0.  0.
          2    1    1    2  501    0 -0.31754641666E+02  0.37485314158E+00 -0.11127691016E+03  0.11571969806E+03  0.00000000000E+00 0. -1.
          1    1    1    2  502    0 -0.26313573147E+02 -0.31037033828E+02  0.37649003783E+03  0.37868251899E+03  0.00000000000E+00 0. -1.
         22    1    3    3    0    0  0.50143808278E+01  0.66762389394E+01 -0.42367026624E+02  0.43181953712E+02  0.00000000000E+00 0. -1.
         22    1    3    3    0    0  0.53053833984E+02  0.23985941747E+02  0.87411389130E+02  0.10502754711E+03  0.00000000000E+00 0. -1.
</event>
<event>
 7    1  0.6173324E-006  0.3450182E+02  0.7818608E-02  0.1604016E+00
          2   -1    0    0  502    0  0.00000000000E+00  0.00000000000E+00  0.32412459748E+03  0.32412459748E+03  0.00000000000E+00 0. -1.
          1   -1    0    0  501    0 -0.00000000000E+00 -0.00000000000E+00 -0.30683280728E+03  0.30683280728E+03  0.00000000000E+00 0. -1.
         25    2    1    2    0    0  0.47694943203E+02 -0.14596144568E+02 -0.61649400806E+02  0.14803130243E+03  0.12499905134E+03 0.  0.
          2    1    1    2  501    0 -0.13891068794E+02  0.20993163170E+02 -0.20014779377E+03  0.20172459950E+03  0.00000000000E+00 0. -1.
          1    1    1    2  502    0 -0.33803874409E+02 -0.63970186012E+01  0.27908898478E+03  0.28120150284E+03  0.00000000000E+00 0. -1.
         22    1    3    3    0    0  0.58075329609E+02  0.48002589683E+01 -0.92989978380E+02  0.10974025002E+03  0.00000000000E+00 0. -1.
         22    1    3    3    0    0 -0.10380386406E+02 -0.19396403537E+02  0.31340577573E+02  0.38291052411E+02  0.00000000000E+00 0. -1.
</event>
<event>
 7    1  0.6173324E-006  0.1413817E+03  0.7818608E-02  0.1293115E+00
          2   -1    0    0  502    0  0.00000000000E+00  0.00000000000E+00  0.75303471439E+03  0.75303471439E+03  0.00000000000E+00 0. -1.
          1   -1    0    0  501    0 -0.00000000000E+00 -0.00000000000E+00 -0.19078555583E+04  0.19078555583E+04  0.00000000000E+00 0. -1.
         25    2    1    2    0    0  0.10299715622E+03  0.12000989196E+03  0.38055242706E+03  0.43064621014E+03  0.12500088084E+03 0.  0.
          2    1    1    2  501    0 -0.12698803944E+03 -0.62092619147E+02 -0.18773018622E+04  0.18826161949E+04  0.00000000000E+00 0. -1.
          1    1    1    2  502    0  0.23990883219E+02 -0.57917272809E+02  0.34192859115E+03  0.34762786772E+03  0.00000000000E+00 0. -1.
         22    1    3    3    0    0  0.10516439393E+03  0.51190443800E+02  0.15106037496E+03  0.19104776410E+03  0.00000000000E+00 0. -1.
         22    1    3    3    0    0 -0.21672377121E+01  0.68819448156E+02  0.22949205210E+03  0.23959844604E+03  0.00000000000E+00 0. -1.
</event>
<event>
 7    1  0.6173324E-006  0.8570005E+02  0.7818608E-02  0.1400197E+00
          2   -1    0    0  502    0  0.00000000000E+00  0.00000000000E+00  0.31303908999E+04  0.31303908999E+04  0.00000000000E+00 0. -1.
          1   -1    0    0  501    0 -0.00000000000E+00 -0.00000000000E+00 -0.33661179800E+03  0.33661179800E+03  0.00000000000E+00 0. -1.
         25    2    1    2    0    0  0.12070528538E+03 -0.24005561122E+02  0.38648942444E+03  0.42443324358E+03  0.12499388053E+03 0.  0.
          2    1    1    2  501    0 -0.36380229160E+02  0.19393267295E+02 -0.31564478197E+03  0.31832569528E+03  0.00000000000E+00 0. -1.
          1    1    1    2  502    0 -0.84325056222E+02  0.46122938276E+01  0.27229344594E+04  0.27242437590E+04  0.00000000000E+00 0. -1.
         22    1    3    3    0    0  0.14610147700E+03 -0.11477492142E+02  0.31077408569E+03  0.34359555693E+03  0.00000000000E+00 0. -1.
         22    1    3    3    0    0 -0.25396191615E+02 -0.12528068981E+02  0.75715338751E+02  0.80837686651E+02  0.00000000000E+00 0. -1.
</event>
<event>
 7    1  0.6173324E-006  0.7843231E+02  0.7818608E-02  0.1473453E+00
          2   -1    0    0  502    0  0.00000000000E+00  0.00000000000E+00  0.65855218613E+02  0.65855218613E+02  0.00000000000E+00 0. -1.
          1   -1    0    0  501    0 -0.00000000000E+00 -0.00000000000E+00 -0.65317099220E+03  0.65317099220E+03  0.00000000000E+00 0. -1.
         25    2    1    2    0    0 -0.79331777456E+02 -0.14165047595E+02 -0.38476928043E+02  0.15362204616E+03  0.12500031834E+03 0.  0.
          2    1    1    2  501    0  0.77643720450E+02 -0.11762475500E+02 -0.52263745206E+03  0.52850431356E+03  0.00000000000E+00 0. -1.
          1    1    1    2  502    0  0.16880570054E+01  0.25927523095E+02 -0.26201393479E+02  0.36899851091E+02  0.00000000000E+00 0. -1.
         22    1    3    3    0    0 -0.98053197246E+02 -0.14744492454E+02  0.11908197322E+02  0.99868086551E+02  0.00000000000E+00 0.  1.
         22    1    3    3    0    0  0.18721419790E+02  0.57944485858E+00 -0.50385125365E+02  0.53753959606E+02  0.00000000000E+00 0.  1.
</event>
<event>
 7    1  0.6173324E-006  0.4260280E+02  0.7818608E-02  0.1512497E+00
          2   -1    0    0  502    0  0.00000000000E+00  0.00000000000E+00  0.95122733754E+03  0.95122733754E+03  0.00000000000E+00 0. -1.
          1   -1    0    0  501    0 -0.00000000000E+00 -0.00000000000E+00 -0.31862628531E+02  0.31862628531E+02  0.00000000000E+00 0. -1.
         25    2    1    2    0    0  0.71828305487E+02  0.23835252614E+01  0.26308421297E+03  0.30002209694E+03  0.12503986913E+03 0.  0.
          2    1    1    2  501    0 -0.37228981598E+02 -0.13950178686E+02  0.17823213867E+02  0.43569157769E+02  0.00000000000E+00 0. -1.
          1    1    1    2  502    0 -0.34599323889E+02  0.11566653425E+02  0.63845728217E+03  0.63949871137E+03  0.00000000000E+00 0. -1.
         22    1    3    3    0    0  0.10457275481E+03  0.16817781454E+02  0.16998987480E+03  0.20028693506E+03  0.00000000000E+00 0. -1.
         22    1    3    3    0    0 -0.32744449327E+02 -0.14434256193E+02  0.93094338178E+02  0.99735161876E+02  0.00000000000E+00 0. -1.
</event>
<event>
 7    1  0.6173324E-006  0.2250077E+03  0.7818608E-02  0.1232207E+00
          2   -1    0    0  502    0  0.00000000000E+00  0.00000000000E+00  0.21330371035E+04  0.21330371035E+04  0.00000000000E+00 0. -1.
          1   -1    0    0  501    0 -0.00000000000E+00 -0.00000000000E+00 -0.17900626793E+03  0.17900626793E+03  0.00000000000E+00 0. -1.
         25    2    1    2    0    0  0.27610889892E+03  0.65008952870E+02  0.38682415522E+03  0.49569872787E+03  0.12498805436E+03 0.  0.
          2    1    1    2  501    0 -0.71074427689E+02  0.78970812284E+01 -0.10664763760E+03  0.12840427084E+03  0.00000000000E+00 0. -1.
          1    1    1    2  502    0 -0.20503447123E+03 -0.72906034098E+02  0.16738543179E+04  0.16879403727E+04  0.00000000000E+00 0. -1.
         22    1    3    3    0    0  0.96044324154E+02  0.82561144815E+02  0.12948189916E+03  0.18112541800E+03  0.00000000000E+00 0.  1.
         22    1    3    3    0    0  0.18006457476E+03 -0.17552191945E+02  0.25734225606E+03  0.31457330987E+03  0.00000000000E+00 0.  1.
</event>
<event>
 7    1  0.6173324E-006  0.3818515E+02  0.7818608E-02  0.1591493E+00
          2   -1    0    0  502    0  0.00000000000E+00  0.00000000000E+00  0.59775873239E+03  0.59775873239E+03  0.00000000000E+00 0. -1.
          1   -1    0    0  501    0 -0.00000000000E+00 -0.00000000000E+00 -0.13948716688E+03  0.13948716688E+03  0.00000000000E+00 0. -1.
         25    2    1    2    0    0 -0.13461451451E+02  0.59691185333E+01  0.12103919714E+03  0.17462004487E+03  0.12499932710E+03 0.  0.
          2    1    1    2  501    0 -0.19025492735E+02  0.15483897855E+02 -0.11050716448E+03  0.11319696934E+03  0.00000000000E+00 0. -1.
          1    1    1    2  502    0  0.32486944187E+02 -0.21453016388E+02  0.44773953285E+03  0.44942888507E+03  0.00000000000E+00 0. -1.
         22    1    3    3    0    0 -0.25284179799E+02 -0.52449776699E+02  0.29206780811E+02  0.65140654504E+02  0.00000000000E+00 0. -1.
         22    1    3    3    0    0  0.11822728347E+02  0.58418895232E+02  0.91832416330E+02  0.10947939037E+03  0.00000000000E+00 0. -1.
</event>
<event>
 7    1  0.6173324E-006  0.1268618E+03  0.7818608E-02  0.1356702E+00
          2   -1    0    0  502    0  0.00000000000E+00  0.00000000000E+00  0.11851410455E+03  0.11851410455E+03  0.00000000000E+00 0. -1.
          1   -1    0    0  501    0 -0.00000000000E+00 -0.00000000000E+00 -0.23775734182E+04  0.23775734182E+04  0.00000000000E+00 0. -1.
         25    2    1    2    0    0 -0.49231691692E+02  0.14928394837E+03 -0.89057107665E+03  0.91293623225E+03  0.12500505943E+03 0.  0.
          2    1    1    2  501    0  0.30972711975E+02 -0.24905334071E+02 -0.14386411108E+04  0.14391899910E+04  0.00000000000E+00 0. -1.
          1    1    1    2  502    0  0.18258979717E+02 -0.12437861430E+03  0.70152873819E+02  0.14396129946E+03  0.00000000000E+00 0. -1.
         22    1    3    3    0    0 -0.48734575427E+02  0.16746289581E+03 -0.85877659021E+03  0.87630822899E+03  0.00000000000E+00 0.  1.
         22    1    3    3    0    0 -0.49711626466E+00 -0.18178947436E+02 -0.31794486443E+02  0.36628003257E+02  0.00000000000E+00 0.  1.
</event>
<event>
 7    1  0.6173324E-006  0.7032455E+02  0.7818608E-02  0.1451048E+00
          2   -1    0    0  502    0  0.00000000000E+00  0.00000000000E+00  0.29059538305E+03  0.29059538305E+03  0.00000000000E+00 0. -1.
          1   -1    0    0  501    0 -0.00000000000E+00 -0.00000000000E+00 -0.12668721077E+03  0.12668721077E+03  0.00000000000E+00 0. -1.
         25    2    1    2    0    0 -0.63849702348E+02  0.50271110381E+02  0.59129035418E+02  0.16039065247E+03  0.12499979816E+03 0.  0.
          2    1    1    2  501    0  0.67677271313E+02 -0.16404555299E+02 -0.57972622964E+02  0.90609864255E+02  0.00000000000E+00 0. -1.
          1    1    1    2  502    0 -0.38275689658E+01 -0.33866555083E+02  0.16275175983E+03  0.16628207710E+03  0.00000000000E+00 0. -1.
         22    1    3    3    0    0 -0.10041978296E+02 -0.11007157573E+02 -0.33689187243E+02  0.36836940467E+02  0.00000000000E+00 0. -1.
         22    1    3    3    0    0 -0.53807724051E+02  0.61278267954E+02  0.92818222661E+02  0.12355371200E+03  0.00000000000E+00 0. -1.
</event>
<event>
 7    1  0.6173324E-006  0.7686915E+02  0.7818608E-02  0.1508353E+00
          2   -1    0    0  502    0  0.00000000000E+00  0.00000000000E+00  0.76138351401E+03  0.76138351401E+03  0.00000000000E+00 0. -1.
          1   -1    0    0  501    0 -0.00000000000E+00 -0.00000000000E+00 -0.12052575129E+03  0.12052575129E+03  0.00000000000E+00 0. -1.
         25    2    1    2    0    0 -0.46027698902E+02  0.72433650630E+02  0.69230440819E+02  0.16668238704E+03  0.12499992561E+03 0.  0.
          2    1    1    2  501    0 -0.86852242120E+01 -0.18893993094E+02 -0.67962327799E+02  0.71072456652E+02  0.00000000000E+00 0. -1.
          1    1    1    2  502    0  0.54712923114E+02 -0.53539657536E+02  0.63958964969E+03  0.64415442161E+03  0.00000000000E+00 0. -1.
         22    1    3    3    0    0  0.34974736985E+02  0.13519605466E+02  0.53442056327E+02  0.65284495430E+02  0.00000000000E+00 0. -1.
         22    1    3    3    0    0 -0.81002435887E+02  0.58914045164E+02  0.15788384492E+02  0.10139789161E+03  0.00000000000E+00 0. -1.
</event>
<event>
 7    1  0.6173324E-006  0.4838542E+02  0.7818608E-02  0.1584654E+00
          2   -1    0    0  502    0  0.00000000000E+00  0.00000000000E+00  0.28913387735E+03  0.28913387735E+03  0.00000000000E+00 0. -1.
          1   -1    0    0  501    0 -0.00000000000E+00 -0.00000000000E+00 -0.29353830712E+03  0.29353830712E+03  0.00000000000E+00 0. -1.
         25    2    1    2    0    0 -0.41423342863E+02  0.25087921722E+02  0.16120085699E+03  0.20965676758E+03  0.12499978698E+03 0.  0.
          2    1    1    2  501    0 -0.73602205784E+01 -0.18795054502E+02 -0.26306941614E+03  0.26384265127E+03  0.00000000000E+00 0. -1.
          1    1    1    2  502    0  0.48783563441E+02 -0.62928672206E+01  0.97464129377E+02  0.10917276563E+03  0.00000000000E+00 0. -1.
         22    1    3    3    0    0 -0.39697093148E+02 -0.33395698232E+02  0.13672299312E+03  0.14623374683E+03  0.00000000000E+00 0.  1.
         22    1    3    3    0    0 -0.17262497145E+01  0.58483619954E+02  0.24477863877E+02  0.63423020750E+02  0.00000000000E+00 0.  1.
</event>
<event>
 7    1  0.6173324E-006  0.8242680E+02  0.7818608E-02  0.1384926E+00
          2   -1    0    0  502    0  0.00000000000E+00  0.00000000000E+00  0.26665103261E+04  0.26665103261E+04  0.00000000000E+00 0. -1.
          1   -1    0    0  501    0 -0.00000000000E+00 -0.00000000000E+00 -0.17799366592E+03  0.17799366592E+03  0.00000000000E+00 0. -1.
         25    2    1    2    0    0  0.18258634396E+02 -0.62720348795E+02  0.85277585646E+03  0.86436052032E+03  0.12500091138E+03 0.  0.
          2    1    1    2  501    0 -0.65239831216E+02  0.50933146828E+02 -0.16191086807E+03  0.18183935279E+03  0.00000000000E+00 0. -1.
          1    1    1    2  502    0  0.46981196820E+02  0.11787201968E+02  0.17976516718E+04  0.17983041189E+04  0.00000000000E+00 0. -1.
         22    1    3    3    0    0 -0.69554862666E+01 -0.40561356220E+02  0.72521734717E+02  0.83384677333E+02  0.00000000000E+00 0. -1.
         22    1    3    3    0    0  0.25214120663E+02 -0.22158992575E+02  0.78025412175E+03  0.78097584299E+03  0.00000000000E+00 0. -1.
</event>
<event>
 7    1  0.6173324E-006  0.1591758E+03  0.7818608E-02  0.1411228E+00
          2   -1    0    0  502    0  0.00000000000E+00  0.00000000000E+00  0.28337866616E+03  0.28337866616E+03  0.00000000000E+00 0. -1.
          1   -1    0    0  501    0 -0.00000000000E+00 -0.00000000000E+00 -0.15436560651E+03  0.15436560651E+03  0.00000000000E+00 0. -1.
         25    2    1    2    0    0 -0.80106839136E+02  0.13761020275E+03  0.15158028062E+03  0.25289313106E+03  0.12499872274E+03 0.  0.
          2    1    1    2  501    0  0.97144992475E+02 -0.12647410335E+03 -0.31608133994E+02  0.16257897317E+03  0.00000000000E+00 0. -1.
          1    1    1    2  502    0 -0.17038153339E+02 -0.11136099396E+02  0.90409130184E+01  0.22272168443E+02  0.00000000000E+00 0. -1.
         22    1    3    3    0    0  0.29853385394E+01  0.10903296486E+03  0.54430883026E+02  0.12190086423E+03  0.00000000000E+00 0. -1.
         22    1    3    3    0    0 -0.83092177676E+02  0.28577237882E+02  0.97149397593E+02  0.13099226683E+03  0.00000000000E+00 0. -1.
</event>
<event>
 7    1  0.6173324E-006  0.8293480E+02  0.7818608E-02  0.1382776E+00
          2   -1    0    0  502    0  0.00000000000E+00  0.00000000000E+00  0.61096626857E+03  0.61096626857E+03  0.00000000000E+00 0. -1.
          1   -1    0    0  501    0 -0.00000000000E+00 -0.00000000000E+00 -0.10397524753E+04  0.10397524753E+04  0.00000000000E+00 0. -1.
         25    2    1    2    0    0  0.38417034796E+02  0.16279550764E+02 -0.75302504498E+02  0.15177762801E+03  0.12500035538E+03 0.  0.
          2    1    1    2  501    0  0.19178871313E+02  0.45076756641E+02 -0.92246770422E+03  0.92376750777E+03  0.00000000000E+00 0. -1.
          1    1    1    2  502    0 -0.57595906109E+02 -0.61356307405E+02  0.56898400201E+03  0.57517360806E+03  0.00000000000E+00 0. -1.
         22    1    3    3    0    0  0.78622405815E+02  0.10548693533E+02 -0.17665806649E+02  0.81270156613E+02  0.00000000000E+00 0. -1.
         22    1    3    3    0    0 -0.40205371019E+02  0.57308572312E+01 -0.57636697849E+02  0.70507471394E+02  0.00000000000E+00 0. -1.
</event>
<event>
 7    1  0.6173324E-006  0.1314628E+03  0.7818608E-02  0.1322942E+00
          2   -1    0    0  502    0  0.00000000000E+00  0.00000000000E+00  0.52177177581E+03  0.52177177581E+03  0.00000000000E+00 0. -1.
          1   -1    0    0  501    0 -0.00000000000E+00 -0.00000000000E+00 -0.17765365339E+03  0.17765365339E+03  0.00000000000E+00 0. -1.
         25    2    1    2    0    0  0.39436306788E+02 -0.10112113054E+03  0.22283447582E+03  0.27760040400E+03  0.12500430132E+03 0.  0.
          2    1    1    2  501    0 -0.90812825836E+02  0.10003084475E+03 -0.11659518560E+03  0.17845889314E+03  0.00000000000E+00 0. -1.
          1    1    1    2  502    0  0.51376519048E+02  0.10902857993E+01  0.23787883219E+03  0.24336613206E+03  0.00000000000E+00 0. -1.
         22    1    3    3    0    0  0.66336821821E+02 -0.80014956448E+01  0.71274514829E+02  0.97696746753E+02  0.00000000000E+00 0. -1.
         22    1    3    3    0    0 -0.26900515033E+02 -0.93119634900E+02  0.15155996099E+03  0.17990365724E+03  0.00000000000E+00 0. -1.
</event>
<event>
 7    1  0.6173324E-006  0.7337826E+02  0.7818608E-02  0.1363484E+00
          2   -1    0    0  502    0  0.00000000000E+00  0.00000000000E+00  0.12284706224E+04  0.12284706224E+04  0.00000000000E+00 0. -1.
          1   -1    0    0  501    0 -0.00000000000E+00 -0.00000000000E+00 -0.15350883778E+04  0.15350883778E+04  0.00000000000E+00 0. -1.
         25    2    1    2    0    0 -0.10371077598E+03 -0.79062499761E+02  0.15545045522E+03  0.23832032152E+03  0.12499971078E+03 0.  0.
          2    1    1    2  501    0  0.61402645386E+02  0.21036455826E+02 -0.14916971031E+04  0.14931085241E+04  0.00000000000E+00 0. -1.
          1    1    1    2  502    0  0.42308130597E+02  0.58026043935E+02  0.10296288925E+04  0.10321301545E+04  0.00000000000E+00 0. -1.
         22    1    3    3    0    0 -0.11721158250E+02 -0.15715024736E+02  0.11933548426E+03  0.12093512871E+03  0.00000000000E+00 0.  1.
         22    1    3    3    0    0 -0.91989617733E+02 -0.63347475025E+02  0.36114970967E+02  0.11738519281E+03  0.00000000000E+00 0.  1.
</event>
<event>
 7    1  0.6173324E-006  0.1684175E+03  0.7818608E-02  0.1351746E+00
          2   -1    0    0  502    0  0.00000000000E+00  0.00000000000E+00  0.76297938347E+03  0.76297938347E+03  0.00000000000E+00 0. -1.
          1   -1    0    0  501    0 -0.00000000000E+00 -0.00000000000E+00 -0.27559463132E+04  0.27559463132E+04  0.00000000000E+00 0. -1.
         25    2    1    2    0    0 -0.24715552314E+02  0.19442463057E+03 -0.54882998894E+03  0.59602973336E+03  0.12500116317E+03 0.  0.
          2    1    1    2  501    0  0.21733977874E+02 -0.16334548433E+03 -0.21800759981E+04  0.21862949185E+04  0.00000000000E+00 0. -1.
          1    1    1    2  502    0  0.29815744403E+01 -0.31079146242E+02  0.73593905733E+03  0.73660104482E+03  0.00000000000E+00 0. -1.
         22    1    3    3    0    0 -0.52417162994E+02  0.19704696500E+03 -0.49705942170E+03  0.53725518527E+03  0.00000000000E+00 0. -1.
         22    1    3    3    0    0  0.27701610681E+02 -0.26223344257E+01 -0.51770567236E+02  0.58774548097E+02  0.00000000000E+00 0. -1.
</event>
<event>
 7    1  0.6173324E-006  0.1069800E+03  0.7818608E-02  0.1362516E+00
          2   -1    0    0  502    0  0.00000000000E+00  0.00000000000E+00  0.17444704091E+04  0.17444704091E+04  0.00000000000E+00 0. -1.
          1   -1    0    0  501    0 -0.00000000000E+00 -0.00000000000E+00 -0.15505840015E+03  0.15505840015E+03  0.00000000000E+00 0. -1.
         25    2    1    2    0    0  0.41101928554E+02 -0.69764012600E+02  0.17585925596E+03  0.23045619027E+03  0.12500876667E+03 0.  0.
          2    1    1    2  501    0 -0.23787963776E+02 -0.38059234496E+02 -0.12181809670E+03  0.12982303815E+03  0.00000000000E+00 0. -1.
          1    1    1    2  502    0 -0.17313964779E+02  0.10782324710E+03  0.15353708497E+04  0.15392495808E+04  0.00000000000E+00 0. -1.
         22    1    3    3    0    0 -0.12458528858E+02  0.31229671579E+02  0.29399986977E+02  0.44663929098E+02  0.00000000000E+00 0.  1.
         22    1    3    3    0    0  0.53560457412E+02 -0.10099368418E+03  0.14645926898E+03  0.18579226118E+03  0.00000000000E+00 0.  1.
</event>
<event>
 7    1  0.6173324E-006  0.2544432E+03  0.7818608E-02  0.1208733E+00
          2   -1    0    0  502    0  0.00000000000E+00  0.00000000000E+00  0.27433509787E+04  0.27433509787E+04  0.00000000000E+00 0. -1.
          1   -1    0    0  501    0 -0.00000000000E+00 -0.00000000000E+00 -0.35317645597E+03  0.35317645597E+03  0.00000000000E+00 0. -1.
         25    2    1    2    0    0 -0.29907095425E+03 -0.13059929086E+03  0.42316755799E+03  0.54881299090E+03  0.12500122556E+03 0.  0.
          2    1    1    2  501    0  0.22085150920E+03  0.10995424787E+03 -0.23707120900E+03  0.34215213557E+03  0.00000000000E+00 0. -1.
          1    1    1    2  502    0  0.78219445053E+02  0.20645042992E+02  0.22040781737E+04  0.22055623082E+04  0.00000000000E+00 0. -1.
         22    1    3    3    0    0 -0.22735139866E+03 -0.15174021593E+03  0.35120666563E+03  0.44503918208E+03  0.00000000000E+00 0.  1.
         22    1    3    3    0    0 -0.71719555592E+02  0.21140925069E+02  0.71960892358E+02  0.10377380882E+03  0.00000000000E+00 0.  1.
</event>
<event>
 7    1  0.6173324E-006  0.6906146E+02  0.7818608E-02  0.1463034E+00
          2   -1    0    0  502    0  0.00000000000E+00  0.00000000000E+00  0.60932475606E+03  0.60932475606E+03  0.00000000000E+00 0. -1.
          1   -1    0    0  501    0 -0.00000000000E+00 -0.00000000000E+00 -0.11848487337E+03  0.11848487337E+03  0.00000000000E+00 0. -1.
         25    2    1    2    0    0 -0.30204102178E+02  0.39129621730E+02  0.13401840585E+03  0.18981590890E+03  0.12500292429E+03 0.  0.
          2    1    1    2  501    0  0.61758117490E+02 -0.35180276461E+02 -0.75970647073E+02  0.10403487946E+03  0.00000000000E+00 0. -1.
          1    1    1    2  502    0 -0.31554015313E+02 -0.39493452688E+01  0.43279212393E+03  0.43395884107E+03  0.00000000000E+00 0. -1.
         22    1    3    3    0    0  0.13484018671E+02 -0.40919976837E+02  0.38981529610E+02  0.58101832283E+02  0.00000000000E+00 0. -1.
         22    1    3    3    0    0 -0.43688120849E+02  0.80049598567E+02  0.95036876235E+02  0.13171407662E+03  0.00000000000E+00 0. -1.
</event>
<event>
 7    1  0.6919569E-006  0.5651194E+02  0.7818608E-02  0.1513701E+00
          2   -1    0    0  502    0  0.00000000000E+00  0.00000000000E+00  0.85993456947E+03  0.85993456947E+03  0.00000000000E+00 0. -1.
          1   -1    0    0  501    0 -0.00000000000E+00 -0.00000000000E+00 -0.12693545612E+04  0.12693545612E+04  0.00000000000E+00 0. -1.
         25    2    1    2    0    0  0.50374452525E+02 -0.57526776043E+02 -0.30357884894E+03  0.33709395665E+03  0.12500121063E+03 0.  0.
          2    1    1    2  501    0 -0.27885334816E+01  0.27136991283E+02 -0.94787647794E+03  0.94826895427E+03  0.00000000000E+00 0. -1.
          1    1    1    2  502    0 -0.47585919043E+02  0.30389784760E+02  0.84203533516E+03  0.84392621974E+03  0.00000000000E+00 0. -1.
         22    1    3    3    0    0  0.56016319064E+02 -0.36122858651E+02 -0.30747685825E+03  0.31461835178E+03  0.00000000000E+00 0. -1.
         22    1    3    3    0    0 -0.56418665393E+01 -0.21403917391E+02  0.38980093106E+01  0.22475604871E+02  0.00000000000E+00 0. -1.
</event>
<event>
 7    1  0.6173324E-006  0.2030721E+03  0.7818608E-02  0.1294096E+00
          2   -1    0    0  502    0  0.00000000000E+00  0.00000000000E+00  0.15981931438E+04  0.15981931438E+04  0.00000000000E+00 0. -1.
          1   -1    0    0  501    0 -0.00000000000E+00 -0.00000000000E+00 -0.10794965872E+04  0.10794965872E+04  0.00000000000E+00 0. -1.
         25    2    1    2    0    0  0.16656994881E+03  0.22794876557E+02  0.26586855947E+03  0.33849170432E+03  0.12500155493E+03 0.  0.
          2    1    1    2  501    0  0.42803096657E+02  0.61911292425E+01 -0.10341118094E+04  0.10350157823E+04  0.00000000000E+00 0. -1.
          1    1    1    2  502    0 -0.20937304547E+03 -0.28986005799E+02  0.12869398066E+04  0.13041822444E+04  0.00000000000E+00 0. -1.
         22    1    3    3    0    0  0.32339428735E+02 -0.41056804399E+02  0.31689257655E+02  0.61120445753E+02  0.00000000000E+00 0. -1.
         22    1    3    3    0    0  0.13423052007E+03  0.63851680956E+02  0.23417930182E+03  0.27737125857E+03  0.00000000000E+00 0. -1.
</event>
<event>
 7    1  0.6173324E-006  0.1305282E+03  0.7818608E-02  0.1390943E+00
          2   -1    0    0  502    0  0.00000000000E+00  0.00000000000E+00  0.19376280833E+03  0.19376280833E+03  0.00000000000E+00 0. -1.
          1   -1    0    0  501    0 -0.00000000000E+00 -0.00000000000E+00 -0.77836449195E+03  0.77836449195E+03  0.00000000000E+00 0. -1.
         25    2    1    2    0    0  0.68774693346E+02 -0.77093934207E+02  0.11533337089E+03  0.19903476766E+03  0.12505846297E+03 0.  0.
          2    1    1    2  501    0 -0.93430380643E+02  0.92624990621E+02 -0.72365641668E+03  0.73551834397E+03  0.00000000000E+00 0. -1.
          1    1    1    2  502    0  0.24655687297E+02 -0.15531056413E+02  0.23721362169E+02  0.37574188648E+02  0.00000000000E+00 0. -1.
         22    1    3    3    0    0  0.44892993683E+01 -0.73661059156E+02  0.11256365831E+03  0.13459822665E+03  0.00000000000E+00 0.  1.
         22    1    3    3    0    0  0.64285393978E+02 -0.34328750512E+01  0.27697125811E+01  0.64436541013E+02  0.00000000000E+00 0.  1.
</event>
<event>
 7    1  0.6173324E-006  0.7917069E+02  0.7818608E-02  0.1448869E+00
          2   -1    0    0  502    0  0.00000000000E+00  0.00000000000E+00  0.94457547790E+03  0.94457547790E+03  0.00000000000E+00 0. -1.
          1   -1    0    0  501    0 -0.00000000000E+00 -0.00000000000E+00 -0.49707686681E+03  0.49707686681E+03  0.00000000000E+00 0. -1.
         25    2    1    2    0    0 -0.26821150000E+02 -0.49355551637E+02  0.58497320083E+02  0.14900581001E+03  0.12500180157E+03 0.  0.
          2    1    1    2  501    0  0.99886787263E+01 -0.29097266654E+02 -0.44938127742E+03  0.45043307729E+03  0.00000000000E+00 0. -1.
          1    1    1    2  502    0  0.16832471273E+02  0.78452818290E+02  0.83838256842E+03  0.84221345740E+03  0.00000000000E+00 0. -1.
         22    1    3    3    0    0 -0.45262628382E+02 -0.80827004251E+02  0.17760551398E+02  0.94324690989E+02  0.00000000000E+00 0.  1.
         22    1    3    3    0    0  0.18441478382E+02  0.31471452614E+02  0.40736768685E+02  0.54681119021E+02  0.00000000000E+00 0.  1.
</event>
<event>
 7    1  0.6173324E-006  0.5132079E+02  0.7818608E-02  0.1455964E+00
          2   -1    0    0  502    0  0.00000000000E+00  0.00000000000E+00  0.57344379971E+03  0.57344379971E+03  0.00000000000E+00 0. -1.
          1   -1    0    0  501    0 -0.00000000000E+00 -0.00000000000E+00 -0.17176385797E+03  0.17176385797E+03  0.00000000000E+00 0. -1.
         25    2    1    2    0    0  0.11815447465E+02 -0.49782138303E+02 -0.57198465098E+02  0.14668103181E+03  0.12500317832E+03 0.  0.
          2    1    1    2  501    0 -0.49265671867E+02  0.24743290287E+02 -0.57806963532E+02  0.79881048262E+02  0.00000000000E+00 0. -1.
          1    1    1    2  502    0  0.37450224402E+02  0.25038848016E+02  0.51668537037E+03  0.51864557760E+03  0.00000000000E+00 0. -1.
         22    1    3    3    0    0  0.66391437194E+02 -0.23154388058E+02 -0.12831051924E+02  0.71474362624E+02  0.00000000000E+00 0.  1.
         22    1    3    3    0    0 -0.54575989730E+02 -0.26627750245E+02 -0.44367413175E+02  0.75206669185E+02  0.00000000000E+00 0.  1.
</event>
<event>
 7    1  0.6173324E-006  0.6458957E+02  0.7818608E-02  0.1416364E+00
          2   -1    0    0  502    0  0.00000000000E+00  0.00000000000E+00  0.10570047276E+04  0.10570047276E+04  0.00000000000E+00 0. -1.
          1   -1    0    0  501    0 -0.00000000000E+00 -0.00000000000E+00 -0.11372896226E+04  0.11372896226E+04  0.00000000000E+00 0. -1.
         25    2    1    2    0    0 -0.61456558553E+02 -0.91281364366E+02  0.29896364427E+03  0.34221832758E+03  0.12499970825E+03 0.  0.
          2    1    1    2  501    0  0.26072661805E+02  0.40542404245E+02 -0.11138410861E+04  0.11148835972E+04  0.00000000000E+00 0. -1.
          1    1    1    2  502    0  0.35383896748E+02  0.50738960120E+02  0.73459254686E+03  0.73719242543E+03  0.00000000000E+00 0. -1.
         22    1    3    3    0    0 -0.36248179816E+02 -0.10314175404E+03  0.29432779691E+03  0.31397612011E+03  0.00000000000E+00 0. -1.
         22    1    3    3    0    0 -0.25208378737E+02  0.11860389673E+02  0.46358473610E+01  0.28242207465E+02  0.00000000000E+00 0. -1.
</event>
<event>
 7    1  0.6173324E-006  0.1429766E+03  0.7818608E-02  0.1229023E+00
          2   -1    0    0  502    0  0.00000000000E+00  0.00000000000E+00  0.16074046921E+04  0.16074046921E+04  0.00000000000E+00 0. -1.
          1   -1    0    0  501    0 -0.00000000000E+00 -0.00000000000E+00 -0.15706827188E+04  0.15706827188E+04  0.00000000000E+00 0. -1.
         25    2    1    2    0    0  0.11761660849E+03  0.18626495805E+03 -0.15403461859E+02  0.25375298850E+03  0.12500004538E+03 0.  0.
          2    1    1    2  501    0 -0.12285396296E+03 -0.70084192157E+02 -0.14303390710E+04  0.14373151179E+04  0.00000000000E+00 0. -1.
          1    1    1    2  502    0  0.52373544689E+01 -0.11618076589E+03  0.14824645061E+04  0.14870193045E+04  0.00000000000E+00 0. -1.
         22    1    3    3    0    0  0.55685006273E+02  0.18222551192E+03 -0.19593039705E+02  0.19154854299E+03  0.00000000000E+00 0. -1.
         22    1    3    3    0    0  0.61931602220E+02  0.40394461305E+01  0.41895778470E+01  0.62204445509E+02  0.00000000000E+00 0. -1.
</event>
<event>
 7    1  0.6173324E-006  0.7352513E+02  0.7818608E-02  0.1366298E+00
          2   -1    0    0  502    0  0.00000000000E+00  0.00000000000E+00  0.84432064747E+03  0.84432064747E+03  0.00000000000E+00 0. -1.
          1   -1    0    0  501    0 -0.00000000000E+00 -0.00000000000E+00 -0.59696953002E+03  0.59696953002E+03  0.00000000000E+00 0. -1.
         25    2    1    2    0    0  0.30920921667E+02  0.13079865692E+03  0.54657789041E+02  0.19151307202E+03  0.12500156321E+03 0.  0.
          2    1    1    2  501    0 -0.78136223651E+01 -0.71895019244E+02 -0.52466905008E+03  0.52962964286E+03  0.00000000000E+00 0. -1.
          1    1    1    2  502    0 -0.23107299301E+02 -0.58903637678E+02  0.71736237849E+03  0.72014746260E+03  0.00000000000E+00 0. -1.
         22    1    3    3    0    0 -0.16816761172E+02  0.17496217275E+02 -0.32677198097E+02  0.40702829763E+02  0.00000000000E+00 0. -1.
         22    1    3    3    0    0  0.47737682839E+02  0.11330243965E+03  0.87334987137E+02  0.15081024226E+03  0.00000000000E+00 0. -1.
</event>
<event>
 7    1  0.6173324E-006  0.8811072E+02  0.7818608E-02  0.1350370E+00
          2   -1    0    0  502    0  0.00000000000E+00  0.00000000000E+00  0.12447369240E+04  0.12447369240E+04  0.00000000000E+00 0. -1.
          1   -1    0    0  501    0 -0.00000000000E+00 -0.00000000000E+00 -0.59085805009E+03  0.59085805009E+03  0.00000000000E+00 0. -1.
         25    2    1    2    0    0 -0.93201133963E+02 -0.71555049974E+02  0.10193984164E+03  0.19956010398E+03  0.12500370890E+03 0.  0.
          2    1    1    2  501    0  0.59652403463E+02 -0.93596274616E+01 -0.53860477342E+03  0.54197888687E+03  0.00000000000E+00 0. -1.
          1    1    1    2  502    0  0.33548730500E+02  0.80914677436E+02  0.10905438057E+04  0.10940559832E+04  0.00000000000E+00 0. -1.
         22    1    3    3    0    0  0.27584214949E+02 -0.40817295859E+01  0.38032836341E+02  0.47159792948E+02  0.00000000000E+00 0. -1.
         22    1    3    3    0    0 -0.12078534891E+03 -0.67473320388E+02  0.63907005297E+02  0.15240031103E+03  0.00000000000E+00 0. -1.
</event>
<event>
 7    1  0.6173324E-006  0.4530842E+02  0.7818608E-02  0.1562349E+00
          2   -1    0    0  502    0  0.00000000000E+00  0.00000000000E+00  0.53921436644E+02  0.53921436644E+02  0.00000000000E+00 0. -1.
          1   -1    0    0  501    0 -0.00000000000E+00 -0.00000000000E+00 -0.54798112752E+03  0.54798112752E+03  0.00000000000E+00 0. -1.
         25    2    1    2    0    0  0.41872630766E+02  0.30682529379E+02 -0.31253028657E+03  0.34057896970E+03  0.12499647900E+03 0.  0.
          2    1    1    2  501    0 -0.22538779941E+02  0.10268259638E+02 -0.20759849347E+03  0.20907072547E+03  0.00000000000E+00 0. -1.
          1    1    1    2  502    0 -0.19333850825E+02 -0.40950789017E+02  0.26069089160E+02  0.52252868997E+02  0.00000000000E+00 0. -1.
         22    1    3    3    0    0 -0.41606622839E+02  0.30827416260E+02 -0.12556440220E+03  0.13582289850E+03  0.00000000000E+00 0.  1.
         22    1    3    3    0    0  0.83479253605E+02 -0.14488688090E+00 -0.18696588437E+03  0.20475607119E+03  0.00000000000E+00 0.  1.
</event>
<event>
 7    1  0.6173324E-006  0.5031656E+02  0.7818608E-02  0.1489341E+00
          2   -1    0    0  502    0  0.00000000000E+00  0.00000000000E+00  0.59148436853E+03  0.59148436853E+03  0.00000000000E+00 0. -1.
          1   -1    0    0  501    0 -0.00000000000E+00 -0.00000000000E+00 -0.46510492783E+02  0.46510492783E+02  0.00000000000E+00 0. -1.
         25    2    1    2    0    0  0.25154844611E+02 -0.39381515650E+02  0.32248967053E+03  0.34901065468E+03  0.12500071800E+03 0.  0.
          2    1    1    2  501    0 -0.49668366303E+02  0.12732063124E+02 -0.11223373739E+02  0.52488247834E+02  0.00000000000E+00 0. -1.
          1    1    1    2  502    0  0.24513521692E+02  0.26649452526E+02  0.23370757896E+03  0.23649595880E+03  0.00000000000E+00 0. -1.
         22    1    3    3    0    0  0.26236225008E+02 -0.71253525231E+02  0.10717085683E+03  0.13134305050E+03  0.00000000000E+00 0. -1.
         22    1    3    3    0    0 -0.10813803970E+01  0.31872009581E+02  0.21531881370E+03  0.21766760418E+03  0.00000000000E+00 0. -1.
</event>
<event>
 7    1  0.6173324E-006  0.5426354E+02  0.7818608E-02  0.1465947E+00
          2   -1    0    0  502    0  0.00000000000E+00  0.00000000000E+00  0.18907982256E+04  0.18907982256E+04  0.00000000000E+00 0. -1.
          1   -1    0    0  501    0 -0.00000000000E+00 -0.00000000000E+00 -0.47442826160E+02  0.47442826160E+02  0.00000000000E+00 0. -1.
         25    2    1    2    0    0 -0.75152266866E+02 -0.29573239153E+02  0.61466199138E+03  0.63242193245E+03  0.12500278919E+03 0.  0.
          2    1    1    2  501    0  0.36704766071E+02  0.39182217261E+02 -0.19407757156E+02  0.57088939731E+02  0.00000000000E+00 0. -1.
          1    1    1    2  502    0  0.38447500795E+02 -0.96089781083E+01  0.12481011652E+04  0.12487301796E+04  0.00000000000E+00 0. -1.
         22    1    3    3    0    0 -0.10903878811E+03 -0.16769118211E+02  0.50579055228E+03  0.51768208721E+03  0.00000000000E+00 0.  1.
         22    1    3    3    0    0  0.33886521240E+02 -0.12804120942E+02  0.10887143910E+03  0.11473984524E+03  0.00000000000E+00 0.  1.
</event>
<event>
 7    1  0.6173324E-006  0.1093719E+03  0.7818608E-02  0.1335247E+00
          2   -1    0    0  502    0  0.00000000000E+00  0.00000000000E+00  0.45502940020E+03  0.45502940020E+03  0.00000000000E+00 0. -1.
          1   -1    0    0  501    0 -0.00000000000E+00 -0.00000000000E+00 -0.10830731459E+03  0.10830731459E+03  0.00000000000E+00 0. -1.
         25    2    1    2    0    0 -0.96197116245E+02 -0.17800193525E+02  0.19768311980E+03  0.25352638328E+03  0.12500511629E+03 0.  0.
          2    1    1    2  501    0  0.10754704646E+03 -0.36447209824E+02 -0.34023184541E+02  0.11854258050E+03  0.00000000000E+00 0. -1.
          1    1    1    2  502    0 -0.11349930213E+02  0.54247403349E+02  0.18306215035E+03  0.19126775101E+03  0.00000000000E+00 0. -1.
         22    1    3    3    0    0 -0.10607394250E+03 -0.54987294753E+02  0.13823818484E+03  0.18271584390E+03  0.00000000000E+00 0. -1.
         22    1    3    3    0    0  0.98768262559E+01  0.37187101228E+02  0.59444934961E+02  0.70810539379E+02  0.00000000000E+00 0. -1.
</event>
<event>
 7    1  0.6173324E-006  0.3330676E+02  0.7818608E-02  0.1636287E+00
          2   -1    0    0  502    0  0.00000000000E+00  0.00000000000E+00  0.13467898914E+04  0.13467898914E+04  0.00000000000E+00 0. -1.
          1   -1    0    0  501    0 -0.00000000000E+00 -0.00000000000E+00 -0.67630730996E+03  0.67630730996E+03  0.00000000000E+00 0. -1.
         25    2    1    2    0    0 -0.39905370476E+02  0.18558343615E+02 -0.68415883377E+02  0.14913623499E+03  0.12499613105E+03 0.  0.
          2    1    1    2  501    0  0.33183021220E+02  0.19485133045E+01 -0.56695530260E+03  0.56792889057E+03  0.00000000000E+00 0. -1.
          1    1    1    2  502    0  0.67223492562E+01 -0.20506856920E+02  0.13058537674E+04  0.13060320758E+04  0.00000000000E+00 0. -1.
         22    1    3    3    0    0 -0.43160526380E+02 -0.38360895519E+02 -0.71661960140E+02  0.92031656910E+02  0.00000000000E+00 0. -1.
         22    1    3    3    0    0  0.32551559038E+01  0.56919239134E+02  0.32460767637E+01  0.57104578082E+02  0.00000000000E+00 0. -1.
</event>
<event>
 7    1  0.9122857E-006  0.9239848E+02  0.7818608E-02  0.1303761E+00
          2   -1    0    0  502    0  0.00000000000E+00  0.00000000000E+00  0.11961558360E+04  0.11961558360E+04  0.00000000000E+00 0. -1.
          1   -1    0    0  501    0 -0.00000000000E+00 -0.00000000000E+00 -0.95858073655E+03  0.95858073655E+03  0.00000000000E+00 0. -1.
         25    2    1    2    0    0 -0.95532656061E+02  0.13196136944E+02 -0.40200301041E+03  0.43189281900E+03  0.12499744124E+03 0.  0.
          2    1    1    2  501    0  0.38810543415E+02 -0.86135021148E+02 -0.53568598547E+03  0.54395310016E+03  0.00000000000E+00 0. -1.
          1    1    1    2  502    0  0.56722112646E+02  0.72938884204E+02  0.11752640953E+04  0.11788906534E+04  0.00000000000E+00 0. -1.
         22    1    3    3    0    0 -0.11873135018E+03  0.28086781433E+02 -0.37029419003E+03  0.38987663174E+03  0.00000000000E+00 0. -1.
         22    1    3    3    0    0  0.23198694114E+02 -0.14890644489E+02 -0.31708820387E+02  0.42016187264E+02  0.00000000000E+00 0. -1.
</event>
<event>
 7    1  0.6173324E-006  0.9921354E+02  0.7818608E-02  0.1474547E+00
          2   -1    0    0  502    0  0.00000000000E+00  0.00000000000E+00  0.91742167132E+03  0.91742167132E+03  0.00000000000E+00 0. -1.
          1   -1    0    0  501    0 -0.00000000000E+00 -0.00000000000E+00 -0.65569458421E+03  0.65569458421E+03  0.00000000000E+00 0. -1.
         25    2    1    2    0    0 -0.81043548608E+01 -0.97474243872E+02 -0.50181048437E+03  0.52631410571E+03  0.12500346739E+03 0.  0.
          2    1    1    2  501    0  0.20356229468E+02 -0.99843783245E+00 -0.13816283658E+03  0.13965794774E+03  0.00000000000E+00 0. -1.
          1    1    1    2  502    0 -0.12251874607E+02  0.98472681705E+02  0.90170040805E+03  0.90714420208E+03  0.00000000000E+00 0. -1.
         22    1    3    3    0    0 -0.57530331261E+02 -0.91814043170E+02 -0.36484107486E+03  0.38058976266E+03  0.00000000000E+00 0. -1.
         22    1    3    3    0    0  0.49425976400E+02 -0.56602007027E+01 -0.13696940951E+03  0.14572434305E+03  0.00000000000E+00 0. -1.
</event>
<event>
 7    1  0.6173324E-006  0.1044523E+03  0.7818608E-02  0.1342133E+00
          2   -1    0    0  502    0  0.00000000000E+00  0.00000000000E+00  0.10216105106E+04  0.10216105106E+04  0.00000000000E+00 0. -1.
          1   -1    0    0  501    0 -0.00000000000E+00 -0.00000000000E+00 -0.29893999675E+03  0.29893999675E+03  0.00000000000E+00 0. -1.
         25    2    1    2    0    0  0.38149886793E+02  0.39578845673E+02 -0.23860867692E+03  0.27492029573E+03  0.12500067766E+03 0.  0.
          2    1    1    2  501    0  0.10018440427E+02  0.53739831743E+02 -0.20401283732E+02  0.58348530764E+02  0.00000000000E+00 0. -1.
          1    1    1    2  502    0 -0.48168327220E+02 -0.93318677416E+02  0.98168047452E+03  0.98728168086E+03  0.00000000000E+00 0. -1.
         22    1    3    3    0    0 -0.27343550831E+01  0.38140995119E+02 -0.59580506934E+01  0.38700265819E+02  0.00000000000E+00 0. -1.
         22    1    3    3    0    0  0.40884241876E+02  0.14378505537E+01 -0.23265062623E+03  0.23622002991E+03  0.00000000000E+00 0. -1.
</event>
<event>
 7    1  0.6173324E-006  0.5054923E+02  0.7818608E-02  0.1499638E+00
          2   -1    0    0  502    0  0.00000000000E+00  0.00000000000E+00  0.93167696967E+01  0.93167696967E+01  0.00000000000E+00 0. -1.
          1   -1    0    0  501    0 -0.00000000000E+00 -0.00000000000E+00 -0.18036511706E+04  0.18036511706E+04  0.00000000000E+00 0. -1.
         25    2    1    2    0    0  0.27531457409E+02  0.87081720201E+01 -0.88332422704E+03  0.89259169980E+03  0.12499775629E+03 0.  0.
          2    1    1    2  501    0 -0.37786046898E+02 -0.40665693630E+02 -0.84001893382E+03  0.84185111104E+03  0.00000000000E+00 0. -1.
          1    1    1    2  502    0  0.10254589489E+02  0.31957521610E+02 -0.70991240045E+02  0.78525129457E+02  0.00000000000E+00 0. -1.
         22    1    3    3    0    0  0.12116646518E+02 -0.53376078598E+02 -0.24340522247E+03  0.24948330849E+03  0.00000000000E+00 0. -1.
         22    1    3    3    0    0  0.15414810891E+02  0.62084250618E+02 -0.63991900457E+03  0.64310839132E+03  0.00000000000E+00 0. -1.
</event>
<event>
 7    1  0.6173324E-006  0.2673698E+02  0.7818608E-02  0.1670485E+00
          2   -1    0    0  502    0  0.00000000000E+00  0.00000000000E+00  0.24390519617E+04  0.24390519617E+04  0.00000000000E+00 0. -1.
          1   -1    0    0  501    0 -0.00000000000E+00 -0.00000000000E+00 -0.11884616747E+03  0.11884616747E+03  0.00000000000E+00 0. -1.
         25    2    1    2    0    0  0.10553989420E+02  0.31640488791E+02  0.72404887739E+03  0.73551637201E+03  0.12500019773E+03 0.  0.
          2    1    1    2  501    0 -0.21041653417E+02 -0.70145285559E+01 -0.11191924487E+03  0.11409589021E+03  0.00000000000E+00 0. -1.
          1    1    1    2  502    0  0.10487663997E+02 -0.24625960235E+02  0.17080761617E+04  0.17082858669E+04  0.00000000000E+00 0. -1.
         22    1    3    3    0    0  0.17580025465E+02  0.43476564208E+01  0.95717004648E+01  0.20483575408E+02  0.00000000000E+00 0.  1.
         22    1    3    3    0    0 -0.70260360446E+01  0.27292832370E+02  0.71447717692E+03  0.71503279661E+03  0.00000000000E+00 0.  1.
</event>
<event>
 7    1  0.6173324E-006  0.8502363E+02  0.7818608E-02  0.1377425E+00
          2   -1    0    0  502    0  0.00000000000E+00  0.00000000000E+00  0.37903017916E+03  0.37903017916E+03  0.00000000000E+00 0. -1.
          1   -1    0    0  501    0 -0.00000000000E+00 -0.00000000000E+00 -0.65311166888E+03  0.65311166888E+03  0.00000000000E+00 0. -1.
         25    2    1    2    0    0 -0.80521624312E+01  0.12620010072E+03 -0.25144310575E+03  0.30796098854E+03  0.12500012916E+03 0.  0.
          2    1    1    2  501    0  0.24517847262E+02 -0.43478491426E+02 -0.36662366307E+03  0.37000596533E+03  0.00000000000E+00 0. -1.
          1    1    1    2  502    0 -0.16465684831E+02 -0.82721609294E+02  0.34398527910E+03  0.35417489417E+03  0.00000000000E+00 0. -1.
         22    1    3    3    0    0  0.32318481770E+02  0.61687134693E+02 -0.33826651621E+02  0.77421116050E+02  0.00000000000E+00 0. -1.
         22    1    3    3    0    0 -0.40370644201E+02  0.64512966027E+02 -0.21761645413E+03  0.23053987249E+03  0.00000000000E+00 0. -1.
</event>
<event>
 7    1  0.6173324E-006  0.4131959E+02  0.7818608E-02  0.1546775E+00
          2   -1    0    0  502    0  0.00000000000E+00  0.00000000000E+00  0.20548986109E+03  0.20548986109E+03  0.00000000000E+00 0. -1.
          1   -1    0    0  501    0 -0.00000000000E+00 -0.00000000000E+00 -0.96652131232E+02  0.96652131232E+02  0.00000000000E+00 0. -1.
         25    2    1    2    0    0  0.26386013984E+02  0.10411201824E+02  0.10160239913E+03  0.16356222326E+03  0.12499975405E+03 0.  0.
          2    1    1    2  501    0 -0.38996822430E+02  0.16806995696E+02 -0.55003960857E+02  0.69488581608E+02  0.00000000000E+00 0. -1.
          1    1    1    2  502    0  0.12610808445E+02 -0.27218197520E+02  0.62239291586E+02  0.69091187448E+02  0.00000000000E+00 0. -1.
         22    1    3    3    0    0 -0.28260627081E+02  0.47964142596E+02  0.21747224313E+02  0.59767581374E+02  0.00000000000E+00 0.  1.
         22    1    3    3    0    0  0.54646641065E+02 -0.37552940773E+02  0.79855174813E+02  0.10379464189E+03  0.00000000000E+00 0.  1.
</event>
<event>
 7    1  0.6173324E-006  0.3522610E+02  0.7818608E-02  0.1586221E+00
          2   -1    0    0  502    0  0.00000000000E+00  0.00000000000E+00  0.65181651223E+03  0.65181651223E+03  0.00000000000E+00 0. -1.
          1   -1    0    0  501    0 -0.00000000000E+00 -0.00000000000E+00 -0.12050131337E+04  0.12050131337E+04  0.00000000000E+00 0. -1.
         25    2    1    2    0    0 -0.20061721789E+02  0.20109038845E+01 -0.64216570684E+02  0.14196865858E+03  0.12499926261E+03 0.  0.
          2    1    1    2  501    0  0.25058032593E+02  0.24990922450E+02 -0.11013285860E+04  0.11018970485E+04  0.00000000000E+00 0. -1.
          1    1    1    2  502    0 -0.49963108036E+01 -0.27001826334E+02  0.61234853521E+03  0.61296393884E+03  0.00000000000E+00 0. -1.
         22    1    3    3    0    0 -0.31642186236E+01 -0.59290172453E+02 -0.14152140428E+02  0.61037856349E+02  0.00000000000E+00 0.  1.
         22    1    3    3    0    0 -0.16897503165E+02  0.61301076337E+02 -0.50064430256E+02  0.80930802233E+02  0.00000000000E+00 0.  1.
</event>
<event>
 7    1  0.6173324E-006  0.3530995E+02  0.7818608E-02  0.1626162E+00
          2   -1    0    0  502    0  0.00000000000E+00  0.00000000000E+00  0.27072653653E+03  0.27072653653E+03  0.00000000000E+00 0. -1.
          1   -1    0    0  501    0 -0.00000000000E+00 -0.00000000000E+00 -0.39984896345E+03  0.39984896345E+03  0.00000000000E+00 0. -1.
         25    2    1    2    0    0 -0.35662882988E+02  0.35948295150E+02 -0.61694141379E+01  0.13500575049E+03  0.12499747936E+03 0.  0.
          2    1    1    2  501    0  0.38478451245E+01 -0.21237663775E+02 -0.32741470933E+03  0.32812533606E+03  0.00000000000E+00 0. -1.
          1    1    1    2  502    0  0.31815037864E+02 -0.14710631374E+02  0.20446169655E+03  0.20744441344E+03  0.00000000000E+00 0. -1.
         22    1    3    3    0    0  0.32097362754E+02  0.40175871057E+02 -0.33982826619E+02  0.61637438428E+02  0.00000000000E+00 0. -1.
         22    1    3    3    0    0 -0.67760245742E+02 -0.42275759072E+01  0.27813412481E+02  0.73368312063E+02  0.00000000000E+00 0. -1.
</event>
<event>
 7    1  0.6173324E-006  0.1025767E+03  0.7818608E-02  0.1423899E+00
          2   -1    0    0  502    0  0.00000000000E+00  0.00000000000E+00  0.14960661730E+04  0.14960661730E+04  0.00000000000E+00 0. -1.
          1   -1    0    0  501    0 -0.00000000000E+00 -0.00000000000E+00 -0.98234921096E+03  0.98234921096E+03  0.00000000000E+00 0. -1.
         25    2    1    2    0    0 -0.10093248886E+03  0.51756729728E+02  0.82093704951E+03  0.83811029829E+03  0.12500042585E+03 0.  0.
          2    1    1    2  501    0  0.77090845715E+02 -0.67631369828E+02 -0.97075266606E+03  0.97615456734E+03  0.00000000000E+00 0. -1.
          1    1    1    2  502    0  0.23841643147E+02  0.15874640100E+02  0.66353257857E+03  0.66415051831E+03  0.00000000000E+00 0. -1.
         22    1    3    3    0    0 -0.34429887153E+01 -0.38229087046E+01 -0.34020255107E+01  0.61678667165E+01  0.00000000000E+00 0. -1.
         22    1    3    3    0    0 -0.97489500146E+02  0.55579638432E+02  0.82433907502E+03  0.83194243157E+03  0.00000000000E+00 0. -1.
</event>
<event>
 7    1  0.6173324E-006  0.1569888E+03  0.7818608E-02  0.1203317E+00
          2   -1    0    0  502    0  0.00000000000E+00  0.00000000000E+00  0.23066677939E+04  0.23066677939E+04  0.00000000000E+00 0. -1.
          1   -1    0    0  501    0 -0.00000000000E+00 -0.00000000000E+00 -0.64478470762E+03  0.64478470762E+03  0.00000000000E+00 0. -1.
         25    2    1    2    0    0 -0.42318170965E+02 -0.74068775492E+02  0.19322831542E+03  0.24543524048E+03  0.12499705715E+03 0.  0.
          2    1    1    2  501    0 -0.12771728160E+03  0.54801593913E+02 -0.60731120976E+03  0.62301029222E+03  0.00000000000E+00 0. -1.
          1    1    1    2  502    0  0.17003545256E+03  0.19267181580E+02  0.20759659806E+04  0.20830069688E+04  0.00000000000E+00 0. -1.
         22    1    3    3    0    0 -0.63918329672E+02 -0.98195154419E+02  0.13454647561E+03  0.17841130939E+03  0.00000000000E+00 0. -1.
         22    1    3    3    0    0  0.21600158706E+02  0.24126378927E+02  0.58681839802E+02  0.67023931090E+02  0.00000000000E+00 0. -1.
</event>
<event>
 7    1  0.6173324E-006  0.1857962E+03  0.7818608E-02  0.1295218E+00
          2   -1    0    0  502    0  0.00000000000E+00  0.00000000000E+00  0.15984989638E+04  0.15984989638E+04  0.00000000000E+00 0. -1.
          1   -1    0    0  501    0 -0.00000000000E+00 -0.00000000000E+00 -0.19298368615E+04  0.19298368615E+04  0.00000000000E+00 0. -1.
         25    2    1    2    0    0  0.96846754268E+00  0.16184156565E+03 -0.22238483464E+03  0.30211775400E+03  0.12500596907E+03 0.  0.
          2    1    1    2  501    0 -0.42333638844E+02  0.19904587191E+02 -0.16616825892E+04  0.16623409268E+04  0.00000000000E+00 0. -1.
          1    1    1    2  502    0  0.41365171301E+02 -0.18174615284E+03  0.15527295262E+04  0.15638771445E+04  0.00000000000E+00 0. -1.
         22    1    3    3    0    0  0.51743128453E+02  0.13624810549E+03 -0.17755859308E+03  0.22971275883E+03  0.00000000000E+00 0.  1.
         22    1    3    3    0    0 -0.50774660911E+02  0.25593460165E+02 -0.44826241561E+02  0.72404995175E+02  0.00000000000E+00 0.  1.
</event>
<event>
 7    1  0.6173324E-006  0.1102689E+03  0.7818608E-02  0.1328784E+00
          2   -1    0    0  502    0  0.00000000000E+00  0.00000000000E+00  0.18867703580E+04  0.18867703580E+04  0.00000000000E+00 0. -1.
          1   -1    0    0  501    0 -0.00000000000E+00 -0.00000000000E+00 -0.96540994245E+03  0.96540994245E+03  0.00000000000E+00 0. -1.
         25    2    1    2    0    0  0.65687861208E+02  0.43454709378E+02  0.88371995896E+03  0.89598491571E+03  0.12499918576E+03 0.  0.
          2    1    1    2  501    0 -0.48705447453E+02 -0.99097661164E+02 -0.95524563454E+03  0.96160635884E+03  0.00000000000E+00 0. -1.
          1    1    1    2  502    0 -0.16982413756E+02  0.55642951786E+02  0.99288609111E+03  0.99458902587E+03  0.00000000000E+00 0. -1.
         22    1    3    3    0    0  0.70208505800E+01  0.77610680089E+02  0.54350682782E+03  0.54906500698E+03  0.00000000000E+00 0.  1.
         22    1    3    3    0    0  0.58667010628E+02 -0.34155970711E+02  0.34021313114E+03  0.34691990873E+03  0.00000000000E+00 0.  1.
</event>
<event>
 7    1  0.6173324E-006  0.5313945E+02  0.7818608E-02  0.1466084E+00
          2   -1    0    0  502    0  0.00000000000E+00  0.00000000000E+00  0.13240618283E+04  0.13240618283E+04  0.00000000000E+00 0. -1.
          1   -1    0    0  501    0 -0.00000000000E+00 -0.00000000000E+00 -0.54378095639E+03  0.54378095639E+03  0.00000000000E+00 0. -1.
         25    2    1    2    0    0 -0.60078866045E+02 -0.29981612029E+02 -0.39839939171E+03  0.42291855490E+03  0.12501864483E+03 0.  0.
          2    1    1    2  501    0  0.22853489273E+02  0.45752680973E+02 -0.12788573810E+03  0.13773290020E+03  0.00000000000E+00 0. -1.
          1    1    1    2  502    0  0.37225376773E+02 -0.15771068943E+02  0.13065660017E+04  0.13071913295E+04  0.00000000000E+00 0. -1.
         22    1    3    3    0    0 -0.87120003896E+02  0.56620884555E+01 -0.18089767288E+03  0.20086294427E+03  0.00000000000E+00 0. -1.
         22    1    3    3    0    0  0.27041137850E+02 -0.35643700485E+02 -0.21750171882E+03  0.22205561063E+03  0.00000000000E+00 0. -1.
</event>
<event>
 7    1  0.6173324E-006  0.5233558E+02  0.7818608E-02  0.1571740E+00
          2   -1    0    0  502    0  0.00000000000E+00  0.00000000000E+00  0.21381503773E+03  0.21381503773E+03  0.00000000000E+00 0. -1.
          1   -1    0    0  501    0 -0.00000000000E+00 -0.00000000000E+00 -0.41492228088E+03  0.41492228088E+03  0.00000000000E+00 0. -1.
         25    2    1    2    0    0 -0.19787917464E+02 -0.29183306923E+02 -0.18292095771E+03  0.22433614007E+03  0.12499359939E+03 0.  0.
          2    1    1    2  501    0  0.28600314337E+02  0.47375279822E+02 -0.20712194684E+03  0.21438725704E+03  0.00000000000E+00 0. -1.
          1    1    1    2  502    0 -0.88123968727E+01 -0.18191972899E+02  0.18893566141E+03  0.19001392151E+03  0.00000000000E+00 0. -1.
         22    1    3    3    0    0  0.47054510705E+02 -0.26300967259E+02 -0.41989182926E+02  0.68329783691E+02  0.00000000000E+00 0.  1.
         22    1    3    3    0    0 -0.66842428170E+02 -0.28823396638E+01 -0.14093177478E+03  0.15600635638E+03  0.00000000000E+00 0.  1.
</event>
<event>
 7    1  0.6173324E-006  0.7411990E+02  0.7818608E-02  0.1453415E+00
          2   -1    0    0  502    0  0.00000000000E+00  0.00000000000E+00  0.25562992943E+04  0.25562992943E+04  0.00000000000E+00 0. -1.
          1   -1    0    0  501    0 -0.00000000000E+00 -0.00000000000E+00 -0.58840224203E+03  0.58840224203E+03  0.00000000000E+00 0. -1.
         25    2    1    2    0    0 -0.82083695085E+02 -0.54383181143E+01  0.32182482372E+03  0.35491323722E+03  0.12499952195E+03 0.  0.
          2    1    1    2  501    0  0.15804529299E+02 -0.27571150286E+02 -0.57079793167E+03  0.57168193103E+03  0.00000000000E+00 0. -1.
          1    1    1    2  502    0  0.66279165786E+02  0.33009468401E+02  0.22168701602E+04  0.22181063681E+04  0.00000000000E+00 0. -1.
         22    1    3    3    0    0 -0.25356785689E+02 -0.22416253989E+02  0.28090538259E+03  0.28293689931E+03  0.00000000000E+00 0. -1.
         22    1    3    3    0    0 -0.56726909396E+02  0.16977935875E+02  0.40919441132E+02  0.71976337909E+02  0.00000000000E+00 0. -1.
</event>
<event>
 7    1  0.6173324E-006  0.3380349E+03  0.7818608E-02  0.1183015E+00
          2   -1    0    0  502    0  0.00000000000E+00  0.00000000000E+00  0.13994209299E+04  0.13994209299E+04  0.00000000000E+00 0. -1.
          1   -1    0    0  501    0 -0.00000000000E+00 -0.00000000000E+00 -0.36002650434E+04  0.36002650434E+04  0.00000000000E+00 0. -1.
         25    2    1    2    0    0 -0.17059045493E+03  0.19718684498E+03  0.44132767340E+03  0.52762116172E+03  0.12502087760E+03 0.  0.
          2    1    1    2  501    0  0.20591888775E+03 -0.26971371749E+03 -0.35472272320E+04  0.35634209846E+04  0.00000000000E+00 0. -1.
          1    1    1    2  502    0 -0.35328432820E+02  0.72526872515E+02  0.90505544517E+03  0.90864382694E+03  0.00000000000E+00 0. -1.
         22    1    3    3    0    0 -0.74367761336E+02  0.15971140960E+02  0.17969958120E+03  0.19513477587E+03  0.00000000000E+00 0.  1.
         22    1    3    3    0    0 -0.96222693593E+02  0.18121570402E+03  0.26162809220E+03  0.33248638585E+03  0.00000000000E+00 0.  1.
</event>
<event>
 7    1  0.6173324E-006  0.4675954E+02  0.7818608E-02  0.1487047E+00
          2   -1    0    0  502    0  0.00000000000E+00  0.00000000000E+00  0.17353653920E+03  0.17353653920E+03  0.00000000000E+00 0. -1.
          1   -1    0    0  501    0 -0.00000000000E+00 -0.00000000000E+00 -0.19042938436E+04  0.19042938436E+04  0.00000000000E+00 0. -1.
         25    2    1    2    0    0 -0.70053912012E+02 -0.89545824167E+01 -0.88235085739E+03  0.89395322484E+03  0.12498638943E+03 0.  0.
          2    1    1    2  501    0  0.35539031443E+02  0.28353381646E+02 -0.10132885756E+04  0.10143079781E+04  0.00000000000E+00 0. -1.
          1    1    1    2  502    0  0.34514880569E+02 -0.19398799229E+02  0.16488212864E+03  0.16956917980E+03  0.00000000000E+00 0. -1.
         22    1    3    3    0    0 -0.84450619153E+02 -0.49621589270E+02 -0.68300907239E+03  0.68999681315E+03  0.00000000000E+00 0.  1.
         22    1    3    3    0    0  0.14396707142E+02  0.40667006853E+02 -0.19934178500E+03  0.20395641169E+03  0.00000000000E+00 0.  1.
</event>
<event>
 7    1  0.6173324E-006  0.1119132E+03  0.7818608E-02  0.1419538E+00
          2   -1    0    0  502    0  0.00000000000E+00  0.00000000000E+00  0.10919333145E+04  0.10919333145E+04  0.00000000000E+00 0. -1.
          1   -1    0    0  501    0 -0.00000000000E+00 -0.00000000000E+00 -0.65271175957E+03  0.65271175957E+03  0.00000000000E+00 0. -1.
         25    2    1    2    0    0  0.40999953608E+02  0.11117431795E+03  0.35595179128E+03  0.39543309719E+03  0.12499972588E+03 0.  0.
          2    1    1    2  501    0 -0.61536583922E+02 -0.93420707835E+02 -0.62776743414E+03  0.63765675028E+03  0.00000000000E+00 0. -1.
          1    1    1    2  502    0  0.20536630314E+02 -0.17753610116E+02  0.71103719775E+03  0.71155522655E+03  0.00000000000E+00 0. -1.
         22    1    3    3    0    0 -0.15853888156E+02  0.11405019342E+03  0.24619336496E+03  0.27179029662E+03  0.00000000000E+00 0. -1.
         22    1    3    3    0    0  0.56853841765E+02 -0.28758754697E+01  0.10975842632E+03  0.12364280056E+03  0.00000000000E+00 0. -1.
</event>
<event>
 7    1  0.6173324E-006  0.7425425E+02  0.7818608E-02  0.1396999E+00
          2   -1    0    0  502    0  0.00000000000E+00  0.00000000000E+00  0.50233970827E+03  0.50233970827E+03  0.00000000000E+00 0. -1.
          1   -1    0    0  501    0 -0.00000000000E+00 -0.00000000000E+00 -0.17166362456E+04  0.17166362456E+04  0.00000000000E+00 0. -1.
         25    2    1    2    0    0 -0.11136464876E+03  0.81747246939E+01  0.40604260933E+02  0.17246442776E+03  0.12500544676E+03 0.  0.
          2    1    1    2  501    0  0.67684971244E+02 -0.29944074637E+02 -0.16483681978E+04  0.16500289751E+04  0.00000000000E+00 0. -1.
          1    1    1    2  502    0  0.43679677516E+02  0.21769349943E+02  0.39346739952E+03  0.39648255108E+03  0.00000000000E+00 0. -1.
         22    1    3    3    0    0 -0.52825210487E+02  0.28512071073E+02  0.79259116424E+02  0.99425593265E+02  0.00000000000E+00 0.  1.
         22    1    3    3    0    0 -0.58539438274E+02 -0.20337346379E+02 -0.38654855491E+02  0.73038834494E+02  0.00000000000E+00 0.  1.
</event>
<event>
 7    1  0.6173324E-006  0.7151385E+02  0.7818608E-02  0.1483645E+00
          2   -1    0    0  502    0  0.00000000000E+00  0.00000000000E+00  0.31197424234E+03  0.31197424234E+03  0.00000000000E+00 0. -1.
          1   -1    0    0  501    0 -0.00000000000E+00 -0.00000000000E+00 -0.19812001377E+03  0.19812001377E+03  0.00000000000E+00 0. -1.
         25    2    1    2    0    0 -0.70290063311E+02 -0.51281121554E+02  0.12984769214E+01  0.15230811469E+03  0.12500251729E+03 0.  0.
          2    1    1    2  501    0  0.43945195061E+02  0.54259795820E+02 -0.11183081587E+03  0.13183867790E+03  0.00000000000E+00 0. -1.
          1    1    1    2  502    0  0.26344868250E+02 -0.29786742660E+01  0.22438656752E+03  0.22594746352E+03  0.00000000000E+00 0. -1.
         22    1    3    3    0    0 -0.65588026098E+02 -0.90828974153E+02 -0.41476021966E+01  0.11211108026E+03  0.00000000000E+00 0.  1.
         22    1    3    3    0    0 -0.47020372125E+01  0.39547852599E+02  0.54460791180E+01  0.40197034429E+02  0.00000000000E+00 0.  1.
</event>
<event>
 7    1  0.8255727E-006  0.9185665E+02  0.7818608E-02  0.1306899E+00
          2   -1    0    0  502    0  0.00000000000E+00  0.00000000000E+00  0.17958482532E+04  0.17958482532E+04  0.00000000000E+00 0. -1.
          1   -1    0    0  501    0 -0.00000000000E+00 -0.00000000000E+00 -0.10050192350E+04  0.10050192350E+04  0.00000000000E+00 0. -1.
         25    2    1    2    0    0 -0.11188911754E+03  0.23131290253E+02 -0.32439710375E+03  0.36593953154E+03  0.12499611438E+03 0.  0.
          2    1    1    2  501    0  0.37048879303E+02 -0.76474395192E+02 -0.65591869863E+03  0.66140025082E+03  0.00000000000E+00 0. -1.
          1    1    1    2  502    0  0.74840238239E+02  0.53343104939E+02  0.17711448206E+04  0.17735277059E+04  0.00000000000E+00 0. -1.
         22    1    3    3    0    0 -0.39026374692E+02 -0.35070600853E+02 -0.38115322927E+02  0.64852006967E+02  0.00000000000E+00 0. -1.
         22    1    3    3    0    0 -0.72862742850E+02  0.58201891105E+02 -0.28628178082E+03  0.30108752457E+03  0.00000000000E+00 0. -1.
</event>
<event>
 7    1  0.6173324E-006  0.8571408E+02  0.7818608E-02  0.1424306E+00
          2   -1    0    0  502    0  0.00000000000E+00  0.00000000000E+00  0.13339424004E+04  0.13339424004E+04  0.00000000000E+00 0. -1.
          1   -1    0    0  501    0 -0.00000000000E+00 -0.00000000000E+00 -0.82255499902E+03  0.82255499902E+03  0.00000000000E+00 0. -1.
         25    2    1    2    0    0 -0.10057367209E+03 -0.60328936739E+02  0.25522135629E+03  0.30743752124E+03  0.12500097852E+03 0.  0.
          2    1    1    2  501    0  0.26148976625E+02  0.21998593926E+02 -0.79441454232E+03  0.79514915089E+03  0.00000000000E+00 0. -1.
          1    1    1    2  502    0  0.74424695460E+02  0.38330342814E+02  0.10505805875E+04  0.10539107273E+04  0.00000000000E+00 0. -1.
         22    1    3    3    0    0  0.14071589161E+02 -0.53656758072E+02  0.67418894639E+02  0.87306154781E+02  0.00000000000E+00 0. -1.
         22    1    3    3    0    0 -0.11464526125E+03 -0.66721786673E+01  0.18780246165E+03  0.22013136645E+03  0.00000000000E+00 0. -1.
</event>
<event>
 7    1  0.6173324E-006  0.1079241E+03  0.7818608E-02  0.1267198E+00
          2   -1    0    0  502    0  0.00000000000E+00  0.00000000000E+00  0.96476464448E+02  0.96476464448E+02  0.00000000000E+00 0. -1.
          1   -1    0    0  501    0 -0.00000000000E+00 -0.00000000000E+00 -0.20883175836E+04  0.20883175836E+04  0.00000000000E+00 0. -1.
         25    2    1    2    0    0 -0.11420635695E+02  0.22126325008E+02 -0.45646437872E+03  0.47392620298E+03  0.12500524650E+03 0.  0.
          2    1    1    2  501    0  0.71668299354E+02  0.76858612917E+02 -0.15823463077E+04  0.15858320936E+04  0.00000000000E+00 0. -1.
          1    1    1    2  502    0 -0.60247663659E+02 -0.98984937925E+02  0.46969567240E+02  0.12503575152E+03  0.00000000000E+00 0. -1.
         22    1    3    3    0    0 -0.63074620911E+02 -0.10824127043E+02 -0.27681552733E+03  0.28411688739E+03  0.00000000000E+00 0. -1.
         22    1    3    3    0    0  0.51653985216E+02  0.32950452050E+02 -0.17964885140E+03  0.18980931560E+03  0.00000000000E+00 0. -1.
</event>
<event>
 7    1  0.6173324E-006  0.1048934E+03  0.7818608E-02  0.1427802E+00
          2   -1    0    0  502    0  0.00000000000E+00  0.00000000000E+00  0.50309899735E+03  0.50309899735E+03  0.00000000000E+00 0. -1.
          1   -1    0    0  501    0 -0.00000000000E+00 -0.00000000000E+00 -0.39901000727E+03  0.39901000727E+03  0.00000000000E+00 0. -1.
         25    2    1    2    0    0  0.13149225800E+03  0.62350150469E+01  0.42482102324E+03  0.46198163293E+03  0.12500015219E+03 0.  0.
          2    1    1    2  501    0 -0.10431436030E+03 -0.54542792283E+01 -0.36966945646E+03  0.38414416821E+03  0.00000000000E+00 0. -1.
          1    1    1    2  502    0 -0.27177897701E+02 -0.78073581859E+00  0.48937423307E+02  0.55983203479E+02  0.00000000000E+00 0. -1.
         22    1    3    3    0    0  0.15107026514E+03 -0.13876731134E+02  0.37916592884E+03  0.40838901830E+03  0.00000000000E+00 0. -1.
         22    1    3    3    0    0 -0.19578007134E+02  0.20111746181E+02  0.45655094408E+02  0.53592614633E+02  0.00000000000E+00 0. -1.
</event>
<event>
 7    1  0.6173324E-006  0.1227503E+03  0.7818608E-02  0.1337469E+00
          2   -1    0    0  502    0  0.00000000000E+00  0.00000000000E+00  0.10224030889E+04  0.10224030889E+04  0.00000000000E+00 0. -1.
          1   -1    0    0  501    0 -0.00000000000E+00 -0.00000000000E+00 -0.16428717556E+03  0.16428717556E+03  0.00000000000E+00 0. -1.
         25    2    1    2    0    0 -0.46746704806E+02 -0.10757870608E+03  0.18040926265E+03  0.24885254682E+03  0.12498662167E+03 0.  0.
          2    1    1    2  501    0  0.45321221403E+02 -0.17086062252E+02 -0.12054353154E+03  0.12991031379E+03  0.00000000000E+00 0. -1.
          1    1    1    2  502    0  0.14254834030E+01  0.12466476834E+03  0.79825018223E+03  0.80792740385E+03  0.00000000000E+00 0. -1.
         22    1    3    3    0    0  0.35609088864E+02 -0.52860924446E+02  0.34153611942E+02  0.72310122055E+02  0.00000000000E+00 0.  1.
         22    1    3    3    0    0 -0.82355793670E+02 -0.54717781638E+02  0.14625565070E+03  0.17654242476E+03  0.00000000000E+00 0.  1.
</event>
<event>
 7    1  0.6173324E-006  0.5115784E+02  0.7818608E-02  0.1442040E+00
          2   -1    0    0  502    0  0.00000000000E+00  0.00000000000E+00  0.20259960672E+04  0.20259960672E+04  0.00000000000E+00 0. -1.
          1   -1    0    0  501    0 -0.00000000000E+00 -0.00000000000E+00 -0.83058318121E+01  0.83058318121E+01  0.00000000000E+00 0. -1.
         25    2    1    2    0    0  0.25180487718E+02 -0.40800100790E+01  0.10406170633E+04  0.10484078713E+04  0.12499795453E+03 0.  0.
          2    1    1    2  501    0  0.40562718894E+02 -0.29375363721E+02  0.56960982341E+03  0.57180730765E+03  0.00000000000E+00 0. -1.
          1    1    1    2  502    0 -0.65743206612E+02  0.33455373800E+02  0.40746334865E+03  0.41408672008E+03  0.00000000000E+00 0. -1.
         22    1    3    3    0    0 -0.12617694776E+02 -0.54928415027E+02  0.67436985687E+03  0.67672079977E+03  0.00000000000E+00 0.  1.
         22    1    3    3    0    0  0.37798182494E+02  0.50848404948E+02  0.36624720648E+03  0.37168707153E+03  0.00000000000E+00 0.  1.
</event>
<event>
 7    1  0.6173324E-006  0.9111878E+02  0.7818608E-02  0.1321889E+00
          2   -1    0    0  502    0  0.00000000000E+00  0.00000000000E+00  0.16597970185E+04  0.16597970185E+04  0.00000000000E+00 0. -1.
          1   -1    0    0  501    0 -0.00000000000E+00 -0.00000000000E+00 -0.33806987931E+03  0.33806987931E+03  0.00000000000E+00 0. -1.
         25    2    1    2    0    0  0.43823792703E+02  0.98933373706E+01  0.12440413259E+03  0.18198733728E+03  0.12499839917E+03 0.  0.
          2    1    1    2  501    0 -0.40953427360E+02 -0.84677224808E+02 -0.30117112093E+03  0.31551776447E+03  0.00000000000E+00 0. -1.
          1    1    1    2  502    0 -0.28703653434E+01  0.74783887437E+02  0.14984941276E+04  0.15003617961E+04  0.00000000000E+00 0. -1.
         22    1    3    3    0    0  0.35261678545E+02 -0.52887939585E+02  0.89109825216E+02  0.10945812477E+03  0.00000000000E+00 0. -1.
         22    1    3    3    0    0  0.85621141580E+01  0.62781276955E+02  0.35294307371E+02  0.72529212513E+02  0.00000000000E+00 0. -1.
</event>
<event>
 7    1  0.6173324E-006  0.6967610E+02  0.7818608E-02  0.1408954E+00
          2   -1    0    0  502    0  0.00000000000E+00  0.00000000000E+00  0.35578560648E+03  0.35578560648E+03  0.00000000000E+00 0. -1.
          1   -1    0    0  501    0 -0.00000000000E+00 -0.00000000000E+00 -0.10108089784E+04  0.10108089784E+04  0.00000000000E+00 0. -1.
         25    2    1    2    0    0  0.78788591552E+02  0.71664672651E+02 -0.45725282458E+03  0.48584920630E+03  0.12500335281E+03 0.  0.
          2    1    1    2  501    0 -0.58220594891E+02 -0.29034239993E+02 -0.53564001345E+03  0.53957654580E+03  0.00000000000E+00 0. -1.
          1    1    1    2  502    0 -0.20567996661E+02 -0.42630432658E+02  0.33786946616E+03  0.34116883274E+03  0.00000000000E+00 0. -1.
         22    1    3    3    0    0  0.34324887704E+02  0.69060354192E+02 -0.10229842560E+03  0.12811127318E+03  0.00000000000E+00 0.  1.
         22    1    3    3    0    0  0.44463703848E+02  0.26043184591E+01 -0.35495439899E+03  0.35773793312E+03  0.00000000000E+00 0.  1.
</event>
<event>
 7    1  0.6173324E-006  0.1600811E+03  0.7818608E-02  0.1400428E+00
          2   -1    0    0  502    0  0.00000000000E+00  0.00000000000E+00  0.25858031215E+03  0.25858031215E+03  0.00000000000E+00 0. -1.
          1   -1    0    0  501    0 -0.00000000000E+00 -0.00000000000E+00 -0.87827220664E+03  0.87827220664E+03  0.00000000000E+00 0. -1.
         25    2    1    2    0    0 -0.14285004653E+03  0.89917217457E+02 -0.25469825989E+03  0.33013423792E+03  0.12500467858E+03 0.  0.
          2    1    1    2  501    0  0.12285026036E+03 -0.99155671078E+02 -0.57463254218E+03  0.59592498866E+03  0.00000000000E+00 0. -1.
          1    1    1    2  502    0  0.19999786171E+02  0.92384536209E+01  0.20963890758E+03  0.21079329221E+03  0.00000000000E+00 0. -1.
         22    1    3    3    0    0 -0.98162375145E+02  0.10228734319E+03 -0.11377344263E+03  0.18177719527E+03  0.00000000000E+00 0.  1.
         22    1    3    3    0    0 -0.44687671382E+02 -0.12370125737E+02 -0.14092481726E+03  0.14835704265E+03  0.00000000000E+00 0.  1.
</event>
<event>
 7    1  0.6173324E-006  0.1009187E+03  0.7818608E-02  0.1343436E+00
          2   -1    0    0  502    0  0.00000000000E+00  0.00000000000E+00  0.24979792604E+04  0.24979792604E+04  0.00000000000E+00 0. -1.
          1   -1    0    0  501    0 -0.00000000000E+00 -0.00000000000E+00 -0.92015594971E+02  0.92015594971E+02  0.00000000000E+00 0. -1.
         25    2    1    2    0    0 -0.12441062014E+03  0.54953069597E+02  0.23893516901E+03  0.30201361606E+03  0.12499746810E+03 0.  0.
          2    1    1    2  501    0  0.96640680451E+02 -0.63845095918E+01 -0.21111956823E+02  0.99125666715E+02  0.00000000000E+00 0. -1.
          1    1    1    2  502    0  0.27769939691E+02 -0.48568560005E+02  0.21881404532E+04  0.21888555726E+04  0.00000000000E+00 0. -1.
         22    1    3    3    0    0  0.92720715370E+01 -0.19672675994E+02  0.48108255483E+01  0.22273965381E+02  0.00000000000E+00 0. -1.
         22    1    3    3    0    0 -0.13368269168E+03  0.74625745591E+02  0.23412434346E+03  0.27973965067E+03  0.00000000000E+00 0. -1.
</event>
<event>
 7    1  0.6173324E-006  0.1077977E+03  0.7818608E-02  0.1342001E+00
          2   -1    0    0  502    0  0.00000000000E+00  0.00000000000E+00  0.65467394868E+03  0.65467394868E+03  0.00000000000E+00 0. -1.
          1   -1    0    0  501    0 -0.00000000000E+00 -0.00000000000E+00 -0.48958233711E+03  0.48958233711E+03  0.00000000000E+00 0. -1.
         25    2    1    2    0    0 -0.13186886903E+03  0.40269013547E+02  0.33946850549E+02  0.18917812053E+03  0.12499992221E+03 0.  0.
          2    1    1    2  501    0  0.84682476011E+02 -0.64467845800E+02 -0.40375977963E+03  0.41755141543E+03  0.00000000000E+00 0. -1.
          1    1    1    2  502    0  0.47186393019E+02  0.24198832253E+02  0.53490454065E+03  0.53752674983E+03  0.00000000000E+00 0. -1.
         22    1    3    3    0    0 -0.11771791330E+03 -0.22360431091E+02  0.85426418763E+01  0.12012690256E+03  0.00000000000E+00 0.  1.
         22    1    3    3    0    0 -0.14150955733E+02  0.62629444638E+02  0.25404208672E+02  0.69051217962E+02  0.00000000000E+00 0.  1.
</event>
<event>
 7    1  0.6173324E-006  0.5212096E+02  0.7818608E-02  0.1482771E+00
          2   -1    0    0  502    0  0.00000000000E+00  0.00000000000E+00  0.84648654975E+02  0.84648654975E+02  0.00000000000E+00 0. -1.
          1   -1    0    0  501    0 -0.00000000000E+00 -0.00000000000E+00 -0.10376372654E+04  0.10376372654E+04  0.00000000000E+00 0. -1.
         25    2    1    2    0    0  0.31283699560E+02 -0.41205764693E+02 -0.62243881426E+03  0.63697078220E+03  0.12500045990E+03 0.  0.
          2    1    1    2  501    0 -0.53425152394E+02  0.12060628468E+02 -0.40163928344E+03  0.40535641067E+03  0.00000000000E+00 0. -1.
          1    1    1    2  502    0  0.22141452834E+02  0.29145136225E+02  0.71089487289E+02  0.79958727493E+02  0.00000000000E+00 0. -1.
         22    1    3    3    0    0 -0.21170768119E+02  0.80699913853E+01 -0.19918430450E+02  0.30167367391E+02  0.00000000000E+00 0. -1.
         22    1    3    3    0    0  0.52454467679E+02 -0.49275756079E+02 -0.60252038381E+03  0.60680341481E+03  0.00000000000E+00 0. -1.
</event>
<event>
 7    1  0.6173324E-006  0.1467828E+03  0.7818608E-02  0.1308512E+00
          2   -1    0    0  502    0  0.00000000000E+00  0.00000000000E+00  0.13760599758E+04  0.13760599758E+04  0.00000000000E+00 0. -1.
          1   -1    0    0  501    0 -0.00000000000E+00 -0.00000000000E+00 -0.25683177617E+03  0.25683177617E+03  0.00000000000E+00 0. -1.
         25    2    1    2    0    0 -0.18897765262E+03  0.29775243257E+02  0.34686791942E+03  0.41538106484E+03  0.12499982884E+03 0.  0.
          2    1    1    2  501    0  0.49043077294E+02 -0.18460318679E+02 -0.21445216109E+03  0.22076171813E+03  0.00000000000E+00 0. -1.
          1    1    1    2  502    0  0.13993457532E+03 -0.11314924578E+02  0.98681244134E+03  0.99674896903E+03  0.00000000000E+00 0. -1.
         22    1    3    3    0    0 -0.15703556542E+03  0.27648358421E+02  0.16034443883E+03  0.22613035973E+03  0.00000000000E+00 0.  1.
         22    1    3    3    0    0 -0.31942087200E+02  0.21268848360E+01  0.18652348059E+03  0.18925070511E+03  0.00000000000E+00 0.  1.
</event>
<event>
 7    1  0.6173324E-006  0.7206963E+02  0.7818608E-02  0.1404960E+00
          2   -1    0    0  502    0  0.00000000000E+00  0.00000000000E+00  0.26917475724E+03  0.26917475724E+03  0.00000000000E+00 0. -1.
          1   -1    0    0  501    0 -0.00000000000E+00 -0.00000000000E+00 -0.28870372917E+03  0.28870372917E+03  0.00000000000E+00 0. -1.
         25    2    1    2    0    0 -0.87207398425E+02  0.10322340541E+02 -0.36284540863E+02  0.15698359876E+03  0.12496239962E+03 0.  0.
          2    1    1    2  501    0  0.31534180169E+02  0.35141635739E+02 -0.18279460254E+03  0.18879408306E+03  0.00000000000E+00 0. -1.
          1    1    1    2  502    0  0.55673218256E+02 -0.45463976280E+02  0.19955017148E+03  0.21210080459E+03  0.00000000000E+00 0. -1.
         22    1    3    3    0    0 -0.28943148772E+02 -0.19839861491E+02 -0.73577523011E+02  0.81516733603E+02  0.00000000000E+00 0.  1.
         22    1    3    3    0    0 -0.58264249653E+02  0.30162202032E+02  0.37292982149E+02  0.75466865157E+02  0.00000000000E+00 0.  1.
</event>
<event>
 7    1  0.6173324E-006  0.6923117E+02  0.7818608E-02  0.1397497E+00
          2   -1    0    0  502    0  0.00000000000E+00  0.00000000000E+00  0.10417847217E+03  0.10417847217E+03  0.00000000000E+00 0. -1.
          1   -1    0    0  501    0 -0.00000000000E+00 -0.00000000000E+00 -0.12456575960E+04  0.12456575960E+04  0.00000000000E+00 0. -1.
         25    2    1    2    0    0 -0.31179674582E+02  0.12004032632E+01 -0.57490339711E+03  0.58916268391E+03  0.12500055613E+03 0.  0.
          2    1    1    2  501    0  0.83268911633E+02 -0.34559866414E+01 -0.65378048265E+03  0.65907099389E+03  0.00000000000E+00 0. -1.
          1    1    1    2  502    0 -0.52089237051E+02  0.22555833782E+01  0.87204755927E+02  0.10160239037E+03  0.00000000000E+00 0. -1.
         22    1    3    3    0    0 -0.30657928684E+02 -0.17310957352E+02 -0.56846863083E+03  0.56955786543E+03  0.00000000000E+00 0.  1.
         22    1    3    3    0    0 -0.52174589788E+00  0.18511360615E+02 -0.64347662758E+01  0.19604818480E+02  0.00000000000E+00 0.  1.
</event>
<event>
 7    1  0.6173324E-006  0.9033914E+02  0.7818608E-02  0.1409868E+00
          2   -1    0    0  502    0  0.00000000000E+00  0.00000000000E+00  0.19234672752E+04  0.19234672752E+04  0.00000000000E+00 0. -1.
          1   -1    0    0  501    0 -0.00000000000E+00 -0.00000000000E+00 -0.46257217647E+03  0.46257217647E+03  0.00000000000E+00 0. -1.
         25    2    1    2    0    0  0.68824917424E+02  0.36830414368E+02  0.36197574895E+02  0.15175985907E+03  0.12500976648E+03 0.  0.
          2    1    1    2  501    0 -0.90976077073E+02 -0.81397246076E+01 -0.39945610133E+03  0.40976588267E+03  0.00000000000E+00 0. -1.
          1    1    1    2  502    0  0.22151159649E+02 -0.28690689760E+02  0.18241536251E+04  0.18245137099E+04  0.00000000000E+00 0. -1.
         22    1    3    3    0    0  0.82027411035E+02 -0.18866016983E+02  0.42291469706E+02  0.94196556030E+02  0.00000000000E+00 0.  1.
         22    1    3    3    0    0 -0.13202493611E+02  0.55696431350E+02 -0.60938948111E+01  0.57563303038E+02  0.00000000000E+00 0.  1.
</event>
<event>
 7    1  0.6173324E-006  0.2140505E+03  0.7818608E-02  0.1251980E+00
          2   -1    0    0  502    0  0.00000000000E+00  0.00000000000E+00  0.12854476421E+04  0.12854476421E+04  0.00000000000E+00 0. -1.
          1   -1    0    0  501    0 -0.00000000000E+00 -0.00000000000E+00 -0.40198654901E+03  0.40198654901E+03  0.00000000000E+00 0. -1.
         25    2    1    2    0    0 -0.23250311114E+03 -0.82407348215E+01  0.19276257960E+03  0.32696751343E+03  0.12499894538E+03 0.  0.
          2    1    1    2  501    0  0.20709173127E+03 -0.47807241490E+02 -0.30011053190E+03  0.36774834990E+03  0.00000000000E+00 0. -1.
          1    1    1    2  502    0  0.25411379874E+02  0.56047976312E+02  0.99080904541E+03  0.99271832779E+03  0.00000000000E+00 0. -1.
         22    1    3    3    0    0 -0.22069459975E+03 -0.34669894640E+02  0.19682271362E+03  0.29773694522E+03  0.00000000000E+00 0.  1.
         22    1    3    3    0    0 -0.11808511390E+02  0.26429159819E+02 -0.40601340139E+01  0.29230568215E+02  0.00000000000E+00 0.  1.
</event>
<event>
 7    1  0.6173324E-006  0.8543022E+02  0.7818608E-02  0.1315304E+00
          2   -1    0    0  502    0  0.00000000000E+00  0.00000000000E+00  0.12396417058E+04  0.12396417058E+04  0.00000000000E+00 0. -1.
          1   -1    0    0  501    0 -0.00000000000E+00 -0.00000000000E+00 -0.11972199684E+04  0.11972199684E+04  0.00000000000E+00 0. -1.
         25    2    1    2    0    0 -0.39960767747E+02 -0.99739299442E+02  0.18369396161E+03  0.24680440746E+03  0.12499661274E+03 0.  0.
          2    1    1    2  501    0 -0.41751614140E+02  0.74532714543E+02 -0.11623097942E+04  0.11654451427E+04  0.00000000000E+00 0. -1.
          1    1    1    2  502    0  0.81712381887E+02  0.25206584900E+02  0.10210375701E+04  0.10246121241E+04  0.00000000000E+00 0. -1.
         22    1    3    3    0    0 -0.28661766350E+02 -0.12870108268E+03  0.16209249895E+03  0.20894842365E+03  0.00000000000E+00 0. -1.
         22    1    3    3    0    0 -0.11299001397E+02  0.28961783235E+02  0.21601462663E+02  0.37855983805E+02  0.00000000000E+00 0. -1.
</event>
<event>
 7    1  0.6173324E-006  0.2160049E+03  0.7818608E-02  0.1257209E+00
          2   -1    0    0  502    0  0.00000000000E+00  0.00000000000E+00  0.68126990659E+03  0.68126990659E+03  0.00000000000E+00 0. -1.
          1   -1    0    0  501    0 -0.00000000000E+00 -0.00000000000E+00 -0.25618503150E+03  0.25618503150E+03  0.00000000000E+00 0. -1.
         25    2    1    2    0    0 -0.18078409622E+03  0.59642198173E+02  0.52069455404E+02  0.23363316732E+03  0.12503258549E+03 0.  0.
          2    1    1    2  501    0 -0.42039783437E+02 -0.39815770636E+02 -0.13600276927E+03  0.14781539917E+03  0.00000000000E+00 0. -1.
          1    1    1    2  502    0  0.22282387966E+03 -0.19826427536E+02  0.50901818895E+03  0.55600637160E+03  0.00000000000E+00 0. -1.
         22    1    3    3    0    0 -0.16877157775E+03  0.43329041847E+02  0.85848155028E+02  0.19424509529E+03  0.00000000000E+00 0. -1.
         22    1    3    3    0    0 -0.12012518469E+02  0.16313156326E+02 -0.33778699624E+02  0.39388072022E+02  0.00000000000E+00 0. -1.
</event>
<event>
 7    1  0.6173324E-006  0.3755370E+02  0.7818608E-02  0.1554460E+00
          2   -1    0    0  502    0  0.00000000000E+00  0.00000000000E+00  0.19472888553E+04  0.19472888553E+04  0.00000000000E+00 0. -1.
          1   -1    0    0  501    0 -0.00000000000E+00 -0.00000000000E+00 -0.12707127818E+03  0.12707127818E+03  0.00000000000E+00 0. -1.
         25    2    1    2    0    0  0.14373278080E+02 -0.38312965944E+02  0.42024085751E+03  0.44034263692E+03  0.12499914032E+03 0.  0.
          2    1    1    2  501    0 -0.34754364983E+02  0.14403218835E+02 -0.11382952008E+03  0.11988527116E+03  0.00000000000E+00 0. -1.
          1    1    1    2  502    0  0.20381086903E+02  0.23909747109E+02  0.15138062397E+04  0.15141322254E+04  0.00000000000E+00 0. -1.
         22    1    3    3    0    0  0.11748438124E+01  0.24151641979E+02  0.11733954853E+02  0.26876900207E+02  0.00000000000E+00 0. -1.
         22    1    3    3    0    0  0.13198434267E+02 -0.62464607923E+02  0.40850690266E+03  0.41346573671E+03  0.00000000000E+00 0. -1.
</event>
<event>
 7    1  0.6173324E-006  0.4313652E+02  0.7818608E-02  0.1491301E+00
          2   -1    0    0  502    0  0.00000000000E+00  0.00000000000E+00  0.29589059676E+03  0.29589059676E+03  0.00000000000E+00 0. -1.
          1   -1    0    0  501    0 -0.00000000000E+00 -0.00000000000E+00 -0.28044354469E+03  0.28044354469E+03  0.00000000000E+00 0. -1.
         25    2    1    2    0    0  0.11211449765E+02 -0.17548071378E+02 -0.90459937730E+02  0.15569591291E+03  0.12499834218E+03 0.  0.
          2    1    1    2  501    0 -0.46488188082E+02 -0.46197793462E+01 -0.15219059440E+03  0.15919946927E+03  0.00000000000E+00 0. -1.
          1    1    1    2  502    0  0.35276738316E+02  0.22167850724E+02  0.25809758420E+03  0.26143875926E+03  0.00000000000E+00 0. -1.
         22    1    3    3    0    0  0.37626735316E+02  0.21159711221E+02  0.10467813887E+02  0.44419361962E+02  0.00000000000E+00 0. -1.
         22    1    3    3    0    0 -0.26415285551E+02 -0.38707782599E+02 -0.10092775162E+03  0.11127655095E+03  0.00000000000E+00 0. -1.
</event>
<event>
 7    1  0.6173324E-006  0.7659444E+02  0.7818608E-02  0.1409991E+00
          2   -1    0    0  502    0  0.00000000000E+00  0.00000000000E+00  0.27934960227E+02  0.27934960227E+02  0.00000000000E+00 0. -1.
          1   -1    0    0  501    0 -0.00000000000E+00 -0.00000000000E+00 -0.28112579973E+04  0.28112579973E+04  0.00000000000E+00 0. -1.
         25    2    1    2    0    0 -0.90808288439E+01  0.16455011766E+02 -0.19689706055E+04  0.19730243260E+04  0.12500606785E+03 0.  0.
          2    1    1    2  501    0  0.75246303547E+02  0.22130463783E+02 -0.77700564377E+03  0.78095424582E+03  0.00000000000E+00 0. -1.
          1    1    1    2  502    0 -0.66165474703E+02 -0.38585475549E+02 -0.37346787841E+02  0.85214385687E+02  0.00000000000E+00 0. -1.
         22    1    3    3    0    0 -0.26756353378E+01 -0.32214260409E+02 -0.16484077391E+04  0.16487246562E+04  0.00000000000E+00 0. -1.
         22    1    3    3    0    0 -0.64051935061E+01  0.48669272174E+02 -0.32056286634E+03  0.32429966980E+03  0.00000000000E+00 0. -1.
</event>
<event>
 7    1  0.6173324E-006  0.1128322E+03  0.7818608E-02  0.1296849E+00
          2   -1    0    0  502    0  0.00000000000E+00  0.00000000000E+00  0.10671117819E+04  0.10671117819E+04  0.00000000000E+00 0. -1.
          1   -1    0    0  501    0 -0.00000000000E+00 -0.00000000000E+00 -0.27463316150E+03  0.27463316150E+03  0.00000000000E+00 0. -1.
         25    2    1    2    0    0 -0.99718841855E+02 -0.35996110619E+02  0.32786976728E+03  0.36655559540E+03  0.12499941128E+03 0.  0.
          2    1    1    2  501    0  0.10690249351E+03 -0.39535956533E+02 -0.24043058498E+03  0.26607912577E+03  0.00000000000E+00 0. -1.
          1    1    1    2  502    0 -0.71836516504E+01  0.75532067153E+02  0.70503943807E+03  0.70911022221E+03  0.00000000000E+00 0. -1.
         22    1    3    3    0    0 -0.40005919104E+02  0.26649972850E+02  0.23396368143E+03  0.23885078782E+03  0.00000000000E+00 0. -1.
         22    1    3    3    0    0 -0.59712922751E+02 -0.62646083469E+02  0.93906085855E+02  0.12770480758E+03  0.00000000000E+00 0. -1.
</event>
<event>
 7    1  0.6173324E-006  0.8508652E+02  0.7818608E-02  0.1383670E+00
          2   -1    0    0  502    0  0.00000000000E+00  0.00000000000E+00  0.10154837522E+04  0.10154837522E+04  0.00000000000E+00 0. -1.
          1   -1    0    0  501    0 -0.00000000000E+00 -0.00000000000E+00 -0.12251575733E+04  0.12251575733E+04  0.00000000000E+00 0. -1.
         25    2    1    2    0    0  0.49718438862E+01  0.72948989692E+02  0.17068012712E+03  0.22383753848E+03  0.12500105403E+03 0.  0.
          2    1    1    2  501    0 -0.47297201835E+02  0.31679977874E+01 -0.11957903477E+04  0.11967295505E+04  0.00000000000E+00 0. -1.
          1    1    1    2  502    0  0.42325357949E+02 -0.76116987479E+02  0.81543639947E+03  0.82007423645E+03  0.00000000000E+00 0. -1.
         22    1    3    3    0    0  0.27096048623E+02  0.65875449488E+02  0.23754057461E+02  0.75086789398E+02  0.00000000000E+00 0. -1.
         22    1    3    3    0    0 -0.22124204737E+02  0.70735402036E+01  0.14692606966E+03  0.14875074908E+03  0.00000000000E+00 0. -1.
</event>
<event>
 7    1  0.6173324E-006  0.9141123E+02  0.7818608E-02  0.1348962E+00
          2   -1    0    0  502    0  0.00000000000E+00  0.00000000000E+00  0.40460127420E+04  0.40460127420E+04  0.00000000000E+00 0. -1.
          1   -1    0    0  501    0 -0.00000000000E+00 -0.00000000000E+00 -0.62897530608E+03  0.62897530608E+03  0.00000000000E+00 0. -1.
         25    2    1    2    0    0  0.85190584793E+02  0.10843958607E+03 -0.35377426106E+03  0.39974747693E+03  0.12500095186E+03 0.  0.
          2    1    1    2  501    0 -0.88651776948E+01 -0.58234685232E+02 -0.24824884884E+03  0.25514184464E+03  0.00000000000E+00 0. -1.
          1    1    1    2  502    0 -0.76325407098E+02 -0.50204900837E+02  0.40190605458E+04  0.40200987265E+04  0.00000000000E+00 0. -1.
         22    1    3    3    0    0  0.11631077323E+03  0.71601580520E+02 -0.28115352041E+03  0.31257364627E+03  0.00000000000E+00 0.  1.
         22    1    3    3    0    0 -0.31120188435E+02  0.36838005550E+02 -0.72620740647E+02  0.87173830667E+02  0.00000000000E+00 0.  1.
</event>
<event>
 7    1  0.6173324E-006  0.7779636E+02  0.7818608E-02  0.1410667E+00
          2   -1    0    0  502    0  0.00000000000E+00  0.00000000000E+00  0.90845956265E+03  0.90845956265E+03  0.00000000000E+00 0. -1.
          1   -1    0    0  501    0 -0.00000000000E+00 -0.00000000000E+00 -0.15126115248E+03  0.15126115248E+03  0.00000000000E+00 0. -1.
         25    2    1    2    0    0 -0.41385998264E+01 -0.11812712543E+03  0.34507468567E+03  0.38558146495E+03  0.12500152659E+03 0.  0.
          2    1    1    2  501    0  0.58322473452E+01  0.76332163988E+02 -0.11893098544E+03  0.14143971743E+03  0.00000000000E+00 0. -1.
          1    1    1    2  502    0 -0.16936475188E+01  0.41794961439E+02  0.53105470994E+03  0.53269953275E+03  0.00000000000E+00 0. -1.
         22    1    3    3    0    0 -0.45542562043E+02 -0.98667181408E+02  0.30827646299E+03  0.32686956921E+03  0.00000000000E+00 0. -1.
         22    1    3    3    0    0  0.41403962216E+02 -0.19459944019E+02  0.36798222684E+02  0.58711895738E+02  0.00000000000E+00 0. -1.
</event>
<event>
 7    1  0.6173324E-006  0.2023156E+03  0.7818608E-02  0.1292818E+00
          2   -1    0    0  502    0  0.00000000000E+00  0.00000000000E+00  0.15976951738E+03  0.15976951738E+03  0.00000000000E+00 0. -1.
          1   -1    0    0  501    0 -0.00000000000E+00 -0.00000000000E+00 -0.24441632505E+04  0.24441632505E+04  0.00000000000E+00 0. -1.
         25    2    1    2    0    0 -0.16556495996E+03 -0.32212012880E+02 -0.11129405642E+04  0.11325666500E+04  0.12498458907E+03 0.  0.
          2    1    1    2  501    0 -0.27964790488E+02 -0.33879468936E+02 -0.12511211212E+04  0.12518921311E+04  0.00000000000E+00 0. -1.
          1    1    1    2  502    0  0.19352975045E+03  0.66091481816E+02  0.79667952269E+02  0.21947398683E+03  0.00000000000E+00 0. -1.
         22    1    3    3    0    0 -0.84818929781E+02 -0.22363658993E+02 -0.23451951310E+03  0.25038727227E+03  0.00000000000E+00 0. -1.
         22    1    3    3    0    0 -0.80746030178E+02 -0.98483538877E+01 -0.87842105108E+03  0.88217937771E+03  0.00000000000E+00 0. -1.
</event>
<event>
 7    1  0.6173324E-006  0.1443992E+03  0.7818608E-02  0.1386369E+00
          2   -1    0    0  502    0  0.00000000000E+00  0.00000000000E+00  0.15848522289E+04  0.15848522289E+04  0.00000000000E+00 0. -1.
          1   -1    0    0  501    0 -0.00000000000E+00 -0.00000000000E+00 -0.15213979978E+03  0.15213979978E+03  0.00000000000E+00 0. -1.
         25    2    1    2    0    0 -0.12433354697E+03  0.66319985187E+02  0.19289157362E+03  0.26960841966E+03  0.12499747774E+03 0.  0.
          2    1    1    2  501    0  0.11329998468E+03 -0.91322005258E+02 -0.67050900857E+02  0.16022614792E+03  0.00000000000E+00 0. -1.
          1    1    1    2  502    0  0.11033562292E+02  0.25002020071E+02  0.13068717564E+04  0.13071574611E+04  0.00000000000E+00 0. -1.
         22    1    3    3    0    0 -0.86370551915E+02  0.93254603711E+02  0.87263964370E+02  0.15417941766E+03  0.00000000000E+00 0. -1.
         22    1    3    3    0    0 -0.37962995058E+02 -0.26934618523E+02  0.10562760925E+03  0.11542900201E+03  0.00000000000E+00 0. -1.
</event>
<event>
 7    1  0.6173324E-006  0.1412565E+03  0.7818608E-02  0.1381548E+00
          2   -1    0    0  502    0  0.00000000000E+00  0.00000000000E+00  0.14469357861E+04  0.14469357861E+04  0.00000000000E+00 0. -1.
          1   -1    0    0  501    0 -0.00000000000E+00 -0.00000000000E+00 -0.31759670274E+03  0.31759670274E+03  0.00000000000E+00 0. -1.
         25    2    1    2    0    0  0.56836187039E+02 -0.14858340371E+03 -0.11964028986E+03  0.23504993541E+03  0.12500917232E+03 0.  0.
          2    1    1    2  501    0 -0.26945074962E+02  0.10856957289E+02 -0.13512966125E+03  0.13821698859E+03  0.00000000000E+00 0. -1.
          1    1    1    2  502    0 -0.29891112076E+02  0.13772644642E+03  0.13841090345E+04  0.13912655649E+04  0.00000000000E+00 0. -1.
         22    1    3    3    0    0  0.70763435835E+02 -0.94810414032E+02 -0.18617175692E+02  0.11976258886E+03  0.00000000000E+00 0. -1.
         22    1    3    3    0    0 -0.13927248796E+02 -0.53772989674E+02 -0.10102311417E+03  0.11528734655E+03  0.00000000000E+00 0. -1.
</event>
<event>
 7    1  0.6173324E-006  0.8236066E+02  0.7818608E-02  0.1392339E+00
          2   -1    0    0  502    0  0.00000000000E+00  0.00000000000E+00  0.62647581542E+03  0.62647581542E+03  0.00000000000E+00 0. -1.
          1   -1    0    0  501    0 -0.00000000000E+00 -0.00000000000E+00 -0.16543946737E+03  0.16543946737E+03  0.00000000000E+00 0. -1.
         25    2    1    2    0    0  0.23692834047E+02  0.62884263224E+02  0.70785721651E+02  0.15858832031E+03  0.12499542393E+03 0.  0.
          2    1    1    2  501    0  0.16834972204E+02 -0.83932150379E+02 -0.10528338667E+03  0.13569308628E+03  0.00000000000E+00 0. -1.
          1    1    1    2  502    0 -0.40527806251E+02  0.21047887155E+02  0.49553401307E+03  0.49763387620E+03  0.00000000000E+00 0. -1.
         22    1    3    3    0    0 -0.27742197225E+02  0.25578871922E+02 -0.23821193591E+02  0.44624628399E+02  0.00000000000E+00 0. -1.
         22    1    3    3    0    0  0.51435031272E+02  0.37305391302E+02  0.94606915243E+02  0.11396369191E+03  0.00000000000E+00 0. -1.
</event>
<event>
 7    1  0.6173324E-006  0.5025788E+02  0.7818608E-02  0.1447804E+00
          2   -1    0    0  502    0  0.00000000000E+00  0.00000000000E+00  0.12292890881E+04  0.12292890881E+04  0.00000000000E+00 0. -1.
          1   -1    0    0  501    0 -0.00000000000E+00 -0.00000000000E+00 -0.95796568823E+03  0.95796568823E+03  0.00000000000E+00 0. -1.
         25    2    1    2    0    0  0.32574060880E+02 -0.31854976231E+02  0.32249589536E+03  0.34886872711E+03  0.12501990753E+03 0.  0.
          2    1    1    2  501    0  0.17315494883E+02  0.45672807059E+02 -0.94339717768E+03  0.94466082089E+03  0.00000000000E+00 0. -1.
          1    1    1    2  502    0 -0.49889555763E+02 -0.13817830828E+02  0.89222468221E+03  0.89372522834E+03  0.00000000000E+00 0. -1.
         22    1    3    3    0    0  0.18418594664E+02  0.13590789295E+02  0.11160432758E-01  0.22890048222E+02  0.00000000000E+00 0.  1.
         22    1    3    3    0    0  0.14155466217E+02 -0.45445765526E+02  0.32248473493E+03  0.32597867889E+03  0.00000000000E+00 0.  1.
</event>
<event>
 7    1  0.6173324E-006  0.6958243E+02  0.7818608E-02  0.1372293E+00
          2   -1    0    0  502    0  0.00000000000E+00  0.00000000000E+00  0.13956494179E+04  0.13956494179E+04  0.00000000000E+00 0. -1.
          1   -1    0    0  501    0 -0.00000000000E+00 -0.00000000000E+00 -0.36929366954E+03  0.36929366954E+03  0.00000000000E+00 0. -1.
         25    2    1    2    0    0  0.23970539984E+02  0.56748882335E+02  0.13430390519E+01  0.13936238260E+03  0.12500018998E+03 0.  0.
          2    1    1    2  501    0 -0.70436576694E+02 -0.13294882060E+02 -0.29522942975E+03  0.30380665136E+03  0.00000000000E+00 0. -1.
          1    1    1    2  502    0  0.46466036709E+02 -0.43454000275E+02  0.13202421391E+04  0.13217740535E+04  0.00000000000E+00 0. -1.
         22    1    3    3    0    0 -0.39938968822E+02 -0.41567963894E+01 -0.24915800260E+02  0.47256716871E+02  0.00000000000E+00 0. -1.
         22    1    3    3    0    0  0.63909508806E+02  0.60905678724E+02  0.26258839312E+02  0.92105665725E+02  0.00000000000E+00 0. -1.
</event>
<event>
 7    1  0.6173324E-006  0.5682292E+03  0.7818608E-02  0.1250523E+00
          2   -1    0    0  502    0  0.00000000000E+00  0.00000000000E+00  0.90564753512E+03  0.90564753512E+03  0.00000000000E+00 0. -1.
          1   -1    0    0  501    0 -0.00000000000E+00 -0.00000000000E+00 -0.99549668990E+03  0.99549668990E+03  0.00000000000E+00 0. -1.
         25    2    1    2    0    0 -0.17983452343E+03 -0.54845841558E+03 -0.36418501552E+03  0.69383243429E+03  0.12500252758E+03 0.  0.
          2    1    1    2  501    0  0.23161417099E+02  0.40962233003E+01 -0.35776158843E+03  0.35853393765E+03  0.00000000000E+00 0. -1.
          1    1    1    2  502    0  0.15667310633E+03  0.54436219228E+03  0.63209744917E+03  0.84877785309E+03  0.00000000000E+00 0. -1.
         22    1    3    3    0    0 -0.81359859578E+02 -0.14492583808E+03 -0.16111744331E+03  0.23147733331E+03  0.00000000000E+00 0.  1.
         22    1    3    3    0    0 -0.98474663851E+02 -0.40353257750E+03 -0.20306757220E+03  0.46235510098E+03  0.00000000000E+00 0.  1.
</event>
<event>
 7    1  0.6173324E-006  0.3596511E+02  0.7818608E-02  0.1600824E+00
          2   -1    0    0  502    0  0.00000000000E+00  0.00000000000E+00  0.30001915953E+03  0.30001915953E+03  0.00000000000E+00 0. -1.
          1   -1    0    0  501    0 -0.00000000000E+00 -0.00000000000E+00 -0.76848668442E+02  0.76848668442E+02  0.00000000000E+00 0. -1.
         25    2    1    2    0    0 -0.14750605241E+02  0.52501371431E+02  0.17344204927E+03  0.22063692205E+03  0.12499813022E+03 0.  0.
          2    1    1    2  501    0 -0.29266476029E+01 -0.35371373506E+02 -0.45594920545E+02  0.57780585921E+02  0.00000000000E+00 0. -1.
          1    1    1    2  502    0  0.17677252843E+02 -0.17129997924E+02  0.95323362356E+02  0.98450319998E+02  0.00000000000E+00 0. -1.
         22    1    3    3    0    0  0.45383312909E+02  0.49645440387E+02  0.13008986164E+03  0.14645028830E+03  0.00000000000E+00 0.  1.
         22    1    3    3    0    0 -0.60133918149E+02  0.28559310440E+01  0.43352187633E+02  0.74186633747E+02  0.00000000000E+00 0.  1.
</event>
<event>
 7    1  0.6173324E-006  0.3173257E+02  0.7818608E-02  0.1648230E+00
          2   -1    0    0  502    0  0.00000000000E+00  0.00000000000E+00  0.13466086482E+04  0.13466086482E+04  0.00000000000E+00 0. -1.
          1   -1    0    0  501    0 -0.00000000000E+00 -0.00000000000E+00 -0.24528031194E+03  0.24528031194E+03  0.00000000000E+00 0. -1.
         25    2    1    2    0    0  0.25696805527E+02 -0.27882215284E+02  0.46388369736E+03  0.48192309362E+03  0.12499615892E+03 0.  0.
          2    1    1    2  501    0  0.51711372366E+01  0.20518460931E+02 -0.23549793606E+03  0.23644666584E+03  0.00000000000E+00 0. -1.
          1    1    1    2  502    0 -0.30867942763E+02  0.73637543528E+01  0.87294257496E+03  0.87351920068E+03  0.00000000000E+00 0. -1.
         22    1    3    3    0    0  0.39992550125E+02 -0.67307914527E+02  0.20090316020E+03  0.21561966330E+03  0.00000000000E+00 0.  1.
         22    1    3    3    0    0 -0.14295744598E+02  0.39425699243E+02  0.26298053716E+03  0.26630343032E+03  0.00000000000E+00 0.  1.
</event>
<event>
 7    1  0.6173324E-006  0.4912335E+02  0.7818608E-02  0.1489866E+00
          2   -1    0    0  502    0  0.00000000000E+00  0.00000000000E+00  0.42977701551E+04  0.42977701551E+04  0.00000000000E+00 0. -1.
          1   -1    0    0  501    0 -0.00000000000E+00 -0.00000000000E+00 -0.62939407952E+02  0.62939407952E+02  0.00000000000E+00 0. -1.
         25    2    1    2    0    0  0.17155374011E+02 -0.43717893576E+02  0.16037479818E+04  0.16092975340E+04  0.12500161054E+03 0.  0.
          2    1    1    2  501    0  0.28821924356E+02  0.23126448813E+02 -0.54231841580E+02  0.65624908377E+02  0.00000000000E+00 0. -1.
          1    1    1    2  502    0 -0.45977298367E+02  0.20591444763E+02  0.26853146070E+04  0.26857871208E+04  0.00000000000E+00 0. -1.
         22    1    3    3    0    0  0.59226236836E+02  0.13679881417E+02  0.86340271481E+03  0.86553979355E+03  0.00000000000E+00 0.  1.
         22    1    3    3    0    0 -0.42070862825E+02 -0.57397774993E+02  0.74034526698E+03  0.74375774040E+03  0.00000000000E+00 0.  1.
</event>
<event>
 7    1  0.6173324E-006  0.1372635E+03  0.7818608E-02  0.1374599E+00
          2   -1    0    0  502    0  0.00000000000E+00  0.00000000000E+00  0.20093750646E+04  0.20093750646E+04  0.00000000000E+00 0. -1.
          1   -1    0    0  501    0 -0.00000000000E+00 -0.00000000000E+00 -0.37139079320E+03  0.37139079320E+03  0.00000000000E+00 0. -1.
         25    2    1    2    0    0  0.10423301325E+02 -0.12518000221E+03 -0.27423422634E+03  0.32650906754E+03  0.12500032850E+03 0.  0.
          2    1    1    2  501    0 -0.29729795793E+02 -0.10837280119E+02 -0.64988458472E+02  0.72282827372E+02  0.00000000000E+00 0. -1.
          1    1    1    2  502    0  0.19306494468E+02  0.13601728233E+03  0.19772069562E+04  0.19819739629E+04  0.00000000000E+00 0. -1.
         22    1    3    3    0    0 -0.10925044278E+02 -0.11094060573E+02  0.10666352571E+02  0.18873416481E+02  0.00000000000E+00 0. -1.
         22    1    3    3    0    0  0.21348345603E+02 -0.11408594164E+03 -0.28490057891E+03  0.30763565106E+03  0.00000000000E+00 0. -1.
</event>
<event>
 7    1  0.6173324E-006  0.6640208E+02  0.7818608E-02  0.1428997E+00
          2   -1    0    0  502    0  0.00000000000E+00  0.00000000000E+00  0.62408967061E+03  0.62408967061E+03  0.00000000000E+00 0. -1.
          1   -1    0    0  501    0 -0.00000000000E+00 -0.00000000000E+00 -0.81618005109E+02  0.81618005109E+02  0.00000000000E+00 0. -1.
         25    2    1    2    0    0 -0.50891631810E+02  0.42846871343E+02  0.89243399039E+02  0.16737630001E+03  0.12499851583E+03 0.  0.
          2    1    1    2  501    0  0.36036362120E+02  0.22646715208E+02 -0.28965817603E+02  0.51483120476E+02  0.00000000000E+00 0. -1.
          1    1    1    2  502    0  0.14855269690E+02 -0.65493586551E+02  0.48219408407E+03  0.48684825524E+03  0.00000000000E+00 0. -1.
         22    1    3    3    0    0  0.36668653791E+02  0.19917287236E+02  0.21774824572E+01  0.41785522990E+02  0.00000000000E+00 0. -1.
         22    1    3    3    0    0 -0.87560285601E+02  0.22929584108E+02  0.87065916582E+02  0.12559077702E+03  0.00000000000E+00 0. -1.
</event>
<event>
 7    1  0.6173324E-006  0.1217604E+03  0.7818608E-02  0.1355471E+00
          2   -1    0    0  502    0  0.00000000000E+00  0.00000000000E+00  0.17184998819E+04  0.17184998819E+04  0.00000000000E+00 0. -1.
          1   -1    0    0  501    0 -0.00000000000E+00 -0.00000000000E+00 -0.29795388167E+03  0.29795388167E+03  0.00000000000E+00 0. -1.
         25    2    1    2    0    0 -0.16200057200E+02  0.15029395001E+03  0.81778920898E+03  0.84098423834E+03  0.12499834218E+03 0.  0.
          2    1    1    2  501    0  0.18780920131E+02 -0.37390554202E+02 -0.28121608757E+03  0.28431191395E+03  0.00000000000E+00 0. -1.
          1    1    1    2  502    0 -0.25808629307E+01 -0.11290339581E+03  0.88397287883E+03  0.89115761129E+03  0.00000000000E+00 0. -1.
         22    1    3    3    0    0 -0.65879782812E+01  0.17186330065E+03  0.73786808954E+03  0.75764748606E+03  0.00000000000E+00 0.  1.
         22    1    3    3    0    0 -0.96120789189E+01 -0.21569350640E+02  0.79921119436E+02  0.83336752277E+02  0.00000000000E+00 0.  1.
</event>
<event>
 7    1  0.6173324E-006  0.1212437E+03  0.7818608E-02  0.1329317E+00
          2   -1    0    0  502    0  0.00000000000E+00  0.00000000000E+00  0.60294279600E+03  0.60294279600E+03  0.00000000000E+00 0. -1.
          1   -1    0    0  501    0 -0.00000000000E+00 -0.00000000000E+00 -0.22903995079E+03  0.22903995079E+03  0.00000000000E+00 0. -1.
         25    2    1    2    0    0  0.69275018573E+02  0.10947917651E+03 -0.75896782525E+02  0.19537153874E+03  0.12499999306E+03 0.  0.
          2    1    1    2  501    0 -0.99935419650E+02 -0.66661635994E+02 -0.52828635151E+02  0.13123157587E+03  0.00000000000E+00 0. -1.
          1    1    1    2  502    0  0.30660401077E+02 -0.42817540517E+02  0.50262826288E+03  0.50537963218E+03  0.00000000000E+00 0. -1.
         22    1    3    3    0    0  0.72845857161E+02  0.93444610470E+02 -0.10735274697E+03  0.15988441579E+03  0.00000000000E+00 0.  1.
         22    1    3    3    0    0 -0.35708385887E+01  0.16034566042E+02  0.31455964442E+02  0.35487122951E+02  0.00000000000E+00 0.  1.
</event>
<event>
 7    1  0.6173324E-006  0.6083645E+02  0.7818608E-02  0.1528075E+00
          2   -1    0    0  502    0  0.00000000000E+00  0.00000000000E+00  0.28320235701E+03  0.28320235701E+03  0.00000000000E+00 0. -1.
          1   -1    0    0  501    0 -0.00000000000E+00 -0.00000000000E+00 -0.21960590725E+03  0.21960590725E+03  0.00000000000E+00 0. -1.
         25    2    1    2    0    0  0.78723742965E+02  0.76144376641E+01  0.35718632050E+02  0.15217190308E+03  0.12500024018E+03 0.  0.
          2    1    1    2  501    0 -0.57498650400E+02 -0.16528817376E+02 -0.15508823103E+03  0.16622772333E+03  0.00000000000E+00 0. -1.
          1    1    1    2  502    0 -0.21225092565E+02  0.89143797121E+01  0.18296604874E+03  0.18440863784E+03  0.00000000000E+00 0. -1.
         22    1    3    3    0    0  0.73757225444E+01 -0.49368725327E+02 -0.86366362469E+01  0.50658304444E+02  0.00000000000E+00 0. -1.
         22    1    3    3    0    0  0.71348020421E+02  0.56983162991E+02  0.44355268297E+02  0.10151359864E+03  0.00000000000E+00 0. -1.
</event>
<event>
 7    1  0.6173324E-006  0.6884287E+02  0.7818608E-02  0.1488943E+00
          2   -1    0    0  502    0  0.00000000000E+00  0.00000000000E+00  0.10883763181E+04  0.10883763181E+04  0.00000000000E+00 0. -1.
          1   -1    0    0  501    0 -0.00000000000E+00 -0.00000000000E+00 -0.33172545220E+03  0.33172545220E+03  0.00000000000E+00 0. -1.
         25    2    1    2    0    0 -0.56395931721E+02  0.38916859072E+01  0.23994828774E+03  0.27639345546E+03  0.12499006000E+03 0.  0.
          2    1    1    2  501    0  0.65842065724E+02  0.20908643192E+02 -0.30948155500E+03  0.31709806348E+03  0.00000000000E+00 0. -1.
          1    1    1    2  502    0 -0.94461340030E+01 -0.24800329099E+02  0.82618413319E+03  0.82661025140E+03  0.00000000000E+00 0. -1.
         22    1    3    3    0    0  0.19970909488E+02  0.13222894920E+02  0.17227056318E+03  0.17392765483E+03  0.00000000000E+00 0.  1.
         22    1    3    3    0    0 -0.76366841209E+02 -0.93312090128E+01  0.67677724557E+02  0.10246580063E+03  0.00000000000E+00 0.  1.
</event>
<event>
 7    1  0.6173324E-006  0.6635464E+02  0.7818608E-02  0.1432331E+00
          2   -1    0    0  502    0  0.00000000000E+00  0.00000000000E+00  0.33702679833E+04  0.33702679833E+04  0.00000000000E+00 0. -1.
          1   -1    0    0  501    0 -0.00000000000E+00 -0.00000000000E+00 -0.77155221338E+03  0.77155221338E+03  0.00000000000E+00 0. -1.
         25    2    1    2    0    0 -0.35263277145E+01  0.10339265381E+03 -0.34741486389E+02  0.16593156020E+03  0.12499534369E+03 0.  0.
          2    1    1    2  501    0 -0.13329774469E+02 -0.39332891384E+02 -0.67024096870E+03  0.67152640705E+03  0.00000000000E+00 0. -1.
          1    1    1    2  502    0  0.16856102183E+02 -0.64059762427E+02  0.33036982250E+04  0.33043622295E+04  0.00000000000E+00 0. -1.
         22    1    3    3    0    0 -0.94348671517E+01 -0.24471279138E+02 -0.27085269569E+02  0.37702414359E+02  0.00000000000E+00 0. -1.
         22    1    3    3    0    0  0.59085394373E+01  0.12786393295E+03 -0.76562168200E+01  0.12822914584E+03  0.00000000000E+00 0. -1.
</event>
<event>
 7    1  0.6173324E-006  0.7129733E+02  0.7818608E-02  0.1474854E+00
          2   -1    0    0  502    0  0.00000000000E+00  0.00000000000E+00  0.14026048239E+04  0.14026048239E+04  0.00000000000E+00 0. -1.
          1   -1    0    0  501    0 -0.00000000000E+00 -0.00000000000E+00 -0.18785949669E+03  0.18785949669E+03  0.00000000000E+00 0. -1.
         25    2    1    2    0    0 -0.45223696399E+02 -0.58499792208E+01  0.29714279506E+03  0.32557388290E+03  0.12500043040E+03 0.  0.
          2    1    1    2  501    0  0.68502272998E+02  0.21941359638E+02 -0.16600216301E+03  0.18091628670E+03  0.00000000000E+00 0. -1.
          1    1    1    2  502    0 -0.23278576599E+02 -0.16091380417E+02  0.10836046951E+04  0.10839741510E+04  0.00000000000E+00 0. -1.
         22    1    3    3    0    0 -0.76088631663E+01 -0.34126925617E+02  0.12599682397E+02  0.37165761761E+02  0.00000000000E+00 0. -1.
         22    1    3    3    0    0 -0.37614833233E+02  0.28276946396E+02  0.28454311266E+03  0.28840812114E+03  0.00000000000E+00 0. -1.
</event>
<event>
 7    1  0.6942988E-006  0.1573036E+03  0.7818608E-02  0.1316516E+00
          2   -1    0    0  502    0  0.00000000000E+00  0.00000000000E+00  0.20377209669E+04  0.20377209669E+04  0.00000000000E+00 0. -1.
          1   -1    0    0  501    0 -0.00000000000E+00 -0.00000000000E+00 -0.18765654997E+04  0.18765654997E+04  0.00000000000E+00 0. -1.
         25    2    1    2    0    0  0.84084474006E+01  0.13414183219E+03 -0.67151941190E+03  0.69615217307E+03  0.12499917752E+03 0.  0.
          2    1    1    2  501    0  0.22048497302E+02 -0.16792419613E+03 -0.11864598900E+04  0.11984872726E+04  0.00000000000E+00 0. -1.
          1    1    1    2  502    0 -0.30456944702E+02  0.33782363941E+02  0.20191347691E+04  0.20196470209E+04  0.00000000000E+00 0. -1.
         22    1    3    3    0    0  0.66786469191E+02  0.74673702498E+02 -0.36021827864E+03  0.37389009425E+03  0.00000000000E+00 0. -1.
         22    1    3    3    0    0 -0.58378021790E+02  0.59468129690E+02 -0.31130113326E+03  0.32226207882E+03  0.00000000000E+00 0. -1.
</event>
<event>
 7    1  0.6173324E-006  0.1812854E+03  0.7818608E-02  0.1251700E+00
          2   -1    0    0  502    0  0.00000000000E+00  0.00000000000E+00  0.15705544828E+04  0.15705544828E+04  0.00000000000E+00 0. -1.
          1   -1    0    0  501    0 -0.00000000000E+00 -0.00000000000E+00 -0.11330371618E+04  0.11330371618E+04  0.00000000000E+00 0. -1.
         25    2    1    2    0    0  0.83678735476E+02  0.20082810753E+03  0.99813105565E+03  0.10291861396E+04  0.12499778450E+03 0.  0.
          2    1    1    2  501    0  0.71640296356E+01 -0.72511781406E+02 -0.11051898792E+04  0.11075892519E+04  0.00000000000E+00 0. -1.
          1    1    1    2  502    0 -0.90842765112E+02 -0.12831632612E+03  0.54457614458E+03  0.56681625309E+03  0.00000000000E+00 0. -1.
         22    1    3    3    0    0 -0.78408921310E+01 -0.17764240068E+01  0.21394043729E+03  0.21409144303E+03  0.00000000000E+00 0.  1.
         22    1    3    3    0    0  0.91519627607E+02  0.20260453154E+03  0.78419061836E+03  0.81509469656E+03  0.00000000000E+00 0.  1.
</event>
<event>
 7    1  0.6173324E-006  0.8375611E+02  0.7818608E-02  0.1442756E+00
          2   -1    0    0  502    0  0.00000000000E+00  0.00000000000E+00  0.39442806458E+02  0.39442806458E+02  0.00000000000E+00 0. -1.
          1   -1    0    0  501    0 -0.00000000000E+00 -0.00000000000E+00 -0.13803576845E+04  0.13803576845E+04  0.00000000000E+00 0. -1.
         25    2    1    2    0    0 -0.86848462783E+02  0.54250160336E+02 -0.98790741798E+03  0.10010352927E+04  0.12499942113E+03 0.  0.
          2    1    1    2  501    0  0.66730527647E+02 -0.31422473682E+02 -0.37438319774E+03  0.38157976090E+03  0.00000000000E+00 0. -1.
          1    1    1    2  502    0  0.20117935136E+02 -0.22827686654E+02  0.21375737688E+02  0.37185437389E+02  0.00000000000E+00 0. -1.
         22    1    3    3    0    0 -0.87664515560E+02 -0.17223258951E+02 -0.49981558716E+03  0.50773746080E+03  0.00000000000E+00 0.  1.
         22    1    3    3    0    0  0.81605277760E+00  0.71473419287E+02 -0.48809183083E+03  0.49329783187E+03  0.00000000000E+00 0.  1.
</event>
<event>
 7    1  0.6173324E-006  0.1146624E+03  0.7818608E-02  0.1350568E+00
          2   -1    0    0  502    0  0.00000000000E+00  0.00000000000E+00  0.11348452061E+03  0.11348452061E+03  0.00000000000E+00 0. -1.
          1   -1    0    0  501    0 -0.00000000000E+00 -0.00000000000E+00 -0.10521915458E+04  0.10521915458E+04  0.00000000000E+00 0. -1.
         25    2    1    2    0    0  0.67825793855E+02 -0.11735397598E+03 -0.87719353613E+03  0.89636245489E+03  0.12499942688E+03 0.  0.
          2    1    1    2  501    0  0.18378604701E+02  0.42519503741E+02 -0.12874989822E+03  0.13682915479E+03  0.00000000000E+00 0. -1.
          1    1    1    2  502    0 -0.86204398556E+02  0.74834472243E+02  0.67236409134E+02  0.13248445675E+03  0.00000000000E+00 0. -1.
         22    1    3    3    0    0 -0.17068717821E+02 -0.10784601035E+02 -0.20039233071E+02  0.28446785576E+02  0.00000000000E+00 0. -1.
         22    1    3    3    0    0  0.84894511676E+02 -0.10656937495E+03 -0.85715430305E+03  0.86791566931E+03  0.00000000000E+00 0. -1.
</event>
<event>
 7    1  0.6173324E-006  0.4164679E+02  0.7818608E-02  0.1516362E+00
          2   -1    0    0  502    0  0.00000000000E+00  0.00000000000E+00  0.62998810129E+03  0.62998810129E+03  0.00000000000E+00 0. -1.
          1   -1    0    0  501    0 -0.00000000000E+00 -0.00000000000E+00 -0.14510663631E+03  0.14510663631E+03  0.00000000000E+00 0. -1.
         25    2    1    2    0    0  0.34428026262E+02  0.51120533033E+01 -0.34444720866E+02  0.13424706572E+03  0.12499765509E+03 0.  0.
          2    1    1    2  501    0 -0.60395482035E+01 -0.35854667058E+02 -0.54490298470E+02  0.65507449345E+02  0.00000000000E+00 0. -1.
          1    1    1    2  502    0 -0.28388478058E+02  0.30742613754E+02  0.57381648432E+03  0.57534022253E+03  0.00000000000E+00 0. -1.
         22    1    3    3    0    0 -0.44948690745E+02  0.16495437365E+02 -0.23430195764E+02  0.53305331132E+02  0.00000000000E+00 0.  1.
         22    1    3    3    0    0  0.79376717007E+02 -0.11383384062E+02 -0.11014525102E+02  0.80941734592E+02  0.00000000000E+00 0.  1.
</event>
<event>
 7    1  0.6173324E-006  0.2292678E+03  0.7818608E-02  0.1171276E+00
          2   -1    0    0  502    0  0.00000000000E+00  0.00000000000E+00  0.86992691733E+03  0.86992691733E+03  0.00000000000E+00 0. -1.
          1   -1    0    0  501    0 -0.00000000000E+00 -0.00000000000E+00 -0.32560063537E+03  0.32560063537E+03  0.00000000000E+00 0. -1.
         25    2    1    2    0    0  0.18261814576E+03 -0.29404531639E+03  0.21970399177E+03  0.42861039479E+03  0.12499996509E+03 0.  0.
          2    1    1    2  501    0 -0.11454082129E+03  0.17652780545E+03 -0.15953618789E+03  0.26407093949E+03  0.00000000000E+00 0. -1.
          1    1    1    2  502    0 -0.68077324463E+02  0.11751751094E+03  0.48415847808E+03  0.50284621842E+03  0.00000000000E+00 0. -1.
         22    1    3    3    0    0  0.51661048576E+01 -0.51099406708E+02 -0.70958159955E+01  0.51847744502E+02  0.00000000000E+00 0. -1.
         22    1    3    3    0    0  0.17745204090E+03 -0.24294590968E+03  0.22679980777E+03  0.37676265029E+03  0.00000000000E+00 0. -1.
</event>
<event>
 7    1  0.6173324E-006  0.1159839E+03  0.7818608E-02  0.1356948E+00
          2   -1    0    0  502    0  0.00000000000E+00  0.00000000000E+00  0.11444687227E+03  0.11444687227E+03  0.00000000000E+00 0. -1.
          1   -1    0    0  501    0 -0.00000000000E+00 -0.00000000000E+00 -0.21285252775E+04  0.21285252775E+04  0.00000000000E+00 0. -1.
         25    2    1    2    0    0 -0.23771590870E+02  0.77329876859E+02 -0.65087353458E+02  0.16251434498E+03  0.12501820010E+03 0.  0.
          2    1    1    2  501    0  0.60421118125E+02 -0.10054098002E+03 -0.20056617801E+04  0.20090889419E+04  0.00000000000E+00 0. -1.
          1    1    1    2  502    0 -0.36649527255E+02  0.23211103164E+02  0.56670728284E+02  0.71368862975E+02  0.00000000000E+00 0. -1.
         22    1    3    3    0    0  0.10147124835E+02  0.88027428622E+02 -0.30458020517E+00  0.88610863337E+02  0.00000000000E+00 0. -1.
         22    1    3    3    0    0 -0.33918715705E+02 -0.10697551762E+02 -0.64782773253E+02  0.73903481644E+02  0.00000000000E+00 0. -1.
</event>
<event>
 7    1  0.6173324E-006  0.4204503E+02  0.7818608E-02  0.1508817E+00
          2   -1    0    0  502    0  0.00000000000E+00  0.00000000000E+00  0.92215771348E+03  0.92215771348E+03  0.00000000000E+00 0. -1.
          1   -1    0    0  501    0 -0.00000000000E+00 -0.00000000000E+00 -0.44876623239E+02  0.44876623239E+02  0.00000000000E+00 0. -1.
         25    2    1    2    0    0 -0.27062218154E+01 -0.77555555955E+01  0.17312800880E+03  0.21369718880E+03  0.12500283514E+03 0.  0.
          2    1    1    2  501    0  0.23901683362E+02  0.39172664568E+02 -0.22253510422E+01  0.45942793822E+02  0.00000000000E+00 0. -1.
          1    1    1    2  502    0 -0.21195461546E+02 -0.31417108973E+02  0.70637843249E+03  0.70739435410E+03  0.00000000000E+00 0. -1.
         22    1    3    3    0    0  0.36759439427E+02  0.45345989909E+02  0.92767180588E+02  0.10960504086E+03  0.00000000000E+00 0.  1.
         22    1    3    3    0    0 -0.39465661243E+02 -0.53101545504E+02  0.80360828209E+02  0.10409214794E+03  0.00000000000E+00 0.  1.
</event>
<event>
 7    1  0.6173324E-006  0.1799592E+03  0.7818608E-02  0.1348118E+00
          2   -1    0    0  502    0  0.00000000000E+00  0.00000000000E+00  0.46347467944E+03  0.46347467944E+03  0.00000000000E+00 0. -1.
          1   -1    0    0  501    0 -0.00000000000E+00 -0.00000000000E+00 -0.95828969412E+03  0.95828969412E+03  0.00000000000E+00 0. -1.
         25    2    1    2    0    0  0.17367161877E+03  0.11198380585E+03  0.16039828552E+03  0.28991971364E+03  0.12499450556E+03 0.  0.
          2    1    1    2  501    0 -0.15602542656E+03 -0.87551906936E+02 -0.88357310121E+03  0.90150468403E+03  0.00000000000E+00 0. -1.
          1    1    1    2  502    0 -0.17646192210E+02 -0.24431898917E+02  0.22835980100E+03  0.23033997590E+03  0.00000000000E+00 0. -1.
         22    1    3    3    0    0  0.29494126351E+02 -0.26167031241E+02  0.42752474688E+02  0.58158327909E+02  0.00000000000E+00 0. -1.
         22    1    3    3    0    0  0.14417749241E+03  0.13815083709E+03  0.11764581084E+03  0.23176138573E+03  0.00000000000E+00 0. -1.
</event>
<event>
 7    1  0.6173324E-006  0.8334123E+02  0.7818608E-02  0.1415626E+00
          2   -1    0    0  502    0  0.00000000000E+00  0.00000000000E+00  0.80510331972E+03  0.80510331972E+03  0.00000000000E+00 0. -1.
          1   -1    0    0  501    0 -0.00000000000E+00 -0.00000000000E+00 -0.57574644020E+03  0.57574644020E+03  0.00000000000E+00 0. -1.
         25    2    1    2    0    0  0.50685786762E+00  0.10372290125E+03 -0.17835486708E+03  0.24123305145E+03  0.12499691737E+03 0.  0.
          2    1    1    2  501    0 -0.26539171550E+02 -0.76632486831E+02 -0.36099506331E+03  0.36999229910E+03  0.00000000000E+00 0. -1.
          1    1    1    2  502    0  0.26032313683E+02 -0.27090414423E+02  0.76870680990E+03  0.76962440937E+03  0.00000000000E+00 0. -1.
         22    1    3    3    0    0 -0.18712154589E+02  0.10952763240E+02  0.14692590111E+02  0.26191219066E+02  0.00000000000E+00 0. -1.
         22    1    3    3    0    0  0.19219012457E+02  0.92770138014E+02 -0.19304745719E+03  0.21504183238E+03  0.00000000000E+00 0. -1.
</event>
<event>
 7    1  0.6173324E-006  0.1413633E+03  0.7818608E-02  0.1288126E+00
          2   -1    0    0  502    0  0.00000000000E+00  0.00000000000E+00  0.29603851002E+04  0.29603851002E+04  0.00000000000E+00 0. -1.
          1   -1    0    0  501    0 -0.00000000000E+00 -0.00000000000E+00 -0.56421465104E+03  0.56421465104E+03  0.00000000000E+00 0. -1.
         25    2    1    2    0    0  0.16319675733E+03  0.86494728696E+02  0.29479571690E+02  0.22496336907E+03  0.12499981032E+03 0.  0.
          2    1    1    2  501    0 -0.13582141990E+03 -0.26776814287E+02 -0.45581118820E+03  0.47636991422E+03  0.00000000000E+00 0. -1.
          1    1    1    2  502    0 -0.27375337426E+02 -0.59717914408E+02  0.28225020657E+04  0.28232664680E+04  0.00000000000E+00 0. -1.
         22    1    3    3    0    0  0.53594172646E+02 -0.86155675199E+01  0.55388059992E+02  0.77552566269E+02  0.00000000000E+00 0. -1.
         22    1    3    3    0    0  0.10960258468E+03  0.95110296216E+02 -0.25908488301E+02  0.14741080280E+03  0.00000000000E+00 0. -1.
</event>
<event>
 7    1  0.6173324E-006  0.6171355E+02  0.7818608E-02  0.1454465E+00
          2   -1    0    0  502    0  0.00000000000E+00  0.00000000000E+00  0.15611181909E+04  0.15611181909E+04  0.00000000000E+00 0. -1.
          1   -1    0    0  501    0 -0.00000000000E+00 -0.00000000000E+00 -0.22830286295E+03  0.22830286295E+03  0.00000000000E+00 0. -1.
         25    2    1    2    0    0 -0.36752196737E+02 -0.53763582823E+02  0.39877110565E+03  0.42294786048E+03  0.12500100472E+03 0.  0.
          2    1    1    2  501    0  0.36918840983E+02 -0.84607235540E+01 -0.21370649666E+03  0.21703698159E+03  0.00000000000E+00 0. -1.
          1    1    1    2  502    0 -0.16664424609E+00  0.62224306377E+02  0.11477507189E+04  0.11494362118E+04  0.00000000000E+00 0. -1.
         22    1    3    3    0    0  0.33565904040E+02 -0.29134505742E+02  0.27432903618E+03  0.27790629613E+03  0.00000000000E+00 0. -1.
         22    1    3    3    0    0 -0.70318100777E+02 -0.24629077080E+02  0.12444206947E+03  0.14504156435E+03  0.00000000000E+00 0. -1.
</event>
<event>
 7    1  0.6173324E-006  0.5564973E+02  0.7818608E-02  0.1537898E+00
          2   -1    0    0  502    0  0.00000000000E+00  0.00000000000E+00  0.10422838293E+03  0.10422838293E+03  0.00000000000E+00 0. -1.
          1   -1    0    0  501    0 -0.00000000000E+00 -0.00000000000E+00 -0.12943870906E+04  0.12943870906E+04  0.00000000000E+00 0. -1.
         25    2    1    2    0    0 -0.27036415071E+02 -0.28954547180E+02 -0.36693778860E+03  0.38966308590E+03  0.12499858505E+03 0.  0.
          2    1    1    2  501    0  0.23048996944E+02  0.52208954636E+02 -0.91368325292E+03  0.91546388125E+03  0.00000000000E+00 0. -1.
          1    1    1    2  502    0  0.39874181262E+01 -0.23254407456E+02  0.90462333886E+02  0.93488506360E+02  0.00000000000E+00 0. -1.
         22    1    3    3    0    0  0.47232550290E+02  0.59049398027E+01 -0.10763318136E+03  0.11768892832E+03  0.00000000000E+00 0. -1.
         22    1    3    3    0    0 -0.74268965361E+02 -0.34859486983E+02 -0.25930460725E+03  0.27197415757E+03  0.00000000000E+00 0. -1.
</event>
<event>
 7    1  0.6173324E-006  0.4081245E+02  0.7818608E-02  0.1586403E+00
          2   -1    0    0  502    0  0.00000000000E+00  0.00000000000E+00  0.34191775825E+02  0.34191775825E+02  0.00000000000E+00 0. -1.
          1   -1    0    0  501    0 -0.00000000000E+00 -0.00000000000E+00 -0.11687019966E+04  0.11687019966E+04  0.00000000000E+00 0. -1.
         25    2    1    2    0    0 -0.44709096287E+02  0.15846452147E+02 -0.16993459584E+03  0.21622377118E+03  0.12499975609E+03 0.  0.
          2    1    1    2  501    0  0.26525024147E+02 -0.31007114979E+02 -0.96198910360E+03  0.96285411851E+03  0.00000000000E+00 0. -1.
          1    1    1    2  502    0  0.18184072140E+02  0.15160662832E+02 -0.25865213131E+01  0.23815882717E+02  0.00000000000E+00 0. -1.
         22    1    3    3    0    0  0.28821201829E+02  0.20712003492E+02 -0.12493734336E+03  0.12988067034E+03  0.00000000000E+00 0. -1.
         22    1    3    3    0    0 -0.73530298116E+02 -0.48655513449E+01 -0.44997252488E+02  0.86343100839E+02  0.00000000000E+00 0. -1.
</event>
<event>
 7    1  0.6173324E-006  0.8188502E+02  0.7818608E-02  0.1401359E+00
          2   -1    0    0  502    0  0.00000000000E+00  0.00000000000E+00  0.61399289686E+03  0.61399289686E+03  0.00000000000E+00 0. -1.
          1   -1    0    0  501    0 -0.00000000000E+00 -0.00000000000E+00 -0.11780309368E+04  0.11780309368E+04  0.00000000000E+00 0. -1.
         25    2    1    2    0    0  0.12029861373E+03  0.28103305211E+02 -0.74850086698E+02  0.19102137737E+03  0.12500031562E+03 0.  0.
          2    1    1    2  501    0 -0.40801999961E+02 -0.12765797997E+02 -0.10417065530E+04  0.10425834793E+04  0.00000000000E+00 0. -1.
          1    1    1    2  502    0 -0.79496613771E+02 -0.15337507215E+02  0.55251859977E+03  0.55841897695E+03  0.00000000000E+00 0. -1.
         22    1    3    3    0    0  0.97471517342E+02  0.75263900883E+02 -0.48267178786E+02  0.13226893822E+03  0.00000000000E+00 0.  1.
         22    1    3    3    0    0  0.22827096390E+02 -0.47160595671E+02 -0.26582907913E+02  0.58752439156E+02  0.00000000000E+00 0.  1.
</event>
<event>
 7    1  0.6173324E-006  0.8389944E+02  0.7818608E-02  0.1398527E+00
          2   -1    0    0  502    0  0.00000000000E+00  0.00000000000E+00  0.17989940089E+04  0.17989940089E+04  0.00000000000E+00 0. -1.
          1   -1    0    0  501    0 -0.00000000000E+00 -0.00000000000E+00 -0.33173035910E+03  0.33173035910E+03  0.00000000000E+00 0. -1.
         25    2    1    2    0    0  0.84772497321E+01 -0.78385584488E+02 -0.18223295883E+03  0.23462780621E+03  0.12500077017E+03 0.  0.
          2    1    1    2  501    0  0.41295800197E+02  0.10751583570E+02 -0.11858127501E+03  0.12602562615E+03  0.00000000000E+00 0. -1.
          1    1    1    2  502    0 -0.49773049930E+02  0.67634000918E+02  0.17680778837E+04  0.17700709357E+04  0.00000000000E+00 0. -1.
         22    1    3    3    0    0 -0.57086034289E+02 -0.33073005190E+02 -0.10247031080E+03  0.12187207875E+03  0.00000000000E+00 0. -1.
         22    1    3    3    0    0  0.65563284021E+02 -0.45312579298E+02 -0.79762648036E+02  0.11275572746E+03  0.00000000000E+00 0. -1.
</event>
<event>
 7    1  0.6173324E-006  0.4575266E+02  0.7818608E-02  0.1585937E+00
          2   -1    0    0  502    0  0.00000000000E+00  0.00000000000E+00  0.92982579968E+03  0.92982579968E+03  0.00000000000E+00 0. -1.
          1   -1    0    0  501    0 -0.00000000000E+00 -0.00000000000E+00 -0.47295091783E+03  0.47295091783E+03  0.00000000000E+00 0. -1.
         25    2    1    2    0    0  0.34453695436E+02 -0.30573104882E+02  0.27089231783E+03  0.30187211980E+03  0.12498942747E+03 0.  0.
          2    1    1    2  501    0 -0.44227906085E+02  0.11784356804E+02 -0.45614109629E+03  0.45843175988E+03  0.00000000000E+00 0. -1.
          1    1    1    2  502    0  0.97742106487E+01  0.18788748078E+02  0.64212366030E+03  0.64247283784E+03  0.00000000000E+00 0. -1.
         22    1    3    3    0    0  0.64400821116E+01 -0.76788166060E+02  0.13214196282E+03  0.15296860934E+03  0.00000000000E+00 0.  1.
         22    1    3    3    0    0  0.28013613325E+02  0.46215061178E+02  0.13875035501E+03  0.14890351046E+03  0.00000000000E+00 0.  1.
</event>
<event>
 7    1  0.6173324E-006  0.4104685E+02  0.7818608E-02  0.1530417E+00
          2   -1    0    0  502    0  0.00000000000E+00  0.00000000000E+00  0.11790510222E+04  0.11790510222E+04  0.00000000000E+00 0. -1.
          1   -1    0    0  501    0 -0.00000000000E+00 -0.00000000000E+00 -0.22000501700E+04  0.22000501700E+04  0.00000000000E+00 0. -1.
         25    2    1    2    0    0 -0.43839741701E+02 -0.59414523927E+02  0.25278758727E+03  0.29151336868E+03  0.12500588481E+03 0.  0.
          2    1    1    2  501    0  0.19833094581E+02  0.35911292842E+02 -0.21801830970E+04  0.21805690333E+04  0.00000000000E+00 0. -1.
          1    1    1    2  502    0  0.24006647121E+02  0.23503231084E+02  0.90639636189E+03  0.90701879023E+03  0.00000000000E+00 0. -1.
         22    1    3    3    0    0 -0.69555565257E+02 -0.27104307748E+02  0.64205662043E+02  0.98463126068E+02  0.00000000000E+00 0.  1.
         22    1    3    3    0    0  0.25715823556E+02 -0.32310216178E+02  0.18858192522E+03  0.19305024261E+03  0.00000000000E+00 0.  1.
</event>
<event>
 7    1  0.6173324E-006  0.6149892E+02  0.7818608E-02  0.1448010E+00
          2   -1    0    0  502    0  0.00000000000E+00  0.00000000000E+00  0.27916086047E+03  0.27916086047E+03  0.00000000000E+00 0. -1.
          1   -1    0    0  501    0 -0.00000000000E+00 -0.00000000000E+00 -0.44458154599E+03  0.44458154599E+03  0.00000000000E+00 0. -1.
         25    2    1    2    0    0 -0.73902659978E+02 -0.44744415096E+02 -0.14388152393E+03  0.20926111583E+03  0.12499862333E+03 0.  0.
          2    1    1    2  501    0  0.34252299365E+02  0.48788894942E+02 -0.26304176945E+03  0.26971197370E+03  0.00000000000E+00 0. -1.
          1    1    1    2  502    0  0.39650360613E+02 -0.40444798459E+01  0.24150260785E+03  0.24476931694E+03  0.00000000000E+00 0. -1.
         22    1    3    3    0    0 -0.82429911897E+02 -0.72696976264E+02 -0.14255854295E+03  0.18000688571E+03  0.00000000000E+00 0. -1.
         22    1    3    3    0    0  0.85272519191E+01  0.27952561168E+02 -0.13229809781E+01  0.29254230118E+02  0.00000000000E+00 0. -1.
</event>
<event>
 7    1  0.6173324E-006  0.1333093E+03  0.7818608E-02  0.1271306E+00
          2   -1    0    0  502    0  0.00000000000E+00  0.00000000000E+00  0.17741415631E+04  0.17741415631E+04  0.00000000000E+00 0. -1.
          1   -1    0    0  501    0 -0.00000000000E+00 -0.00000000000E+00 -0.16915840827E+03  0.16915840827E+03  0.00000000000E+00 0. -1.
         25    2    1    2    0    0 -0.98160018527E+02 -0.14108929401E+03  0.53220740550E+03  0.57307198589E+03  0.12500080169E+03 0.  0.
          2    1    1    2  501    0  0.17010890656E+02  0.13111350674E+03 -0.11766120460E+03  0.17698666933E+03  0.00000000000E+00 0. -1.
          1    1    1    2  502    0  0.81149127871E+02  0.99757872649E+01  0.11904369539E+04  0.11932413161E+04  0.00000000000E+00 0. -1.
         22    1    3    3    0    0 -0.29956254459E+02  0.21043747534E+02  0.88656841237E+02  0.95917944044E+02  0.00000000000E+00 0. -1.
         22    1    3    3    0    0 -0.68203764068E+02 -0.16213304154E+03  0.44355056427E+03  0.47715404185E+03  0.00000000000E+00 0. -1.
</event>
<event>
 7    1  0.6173324E-006  0.6748078E+02  0.7818608E-02  0.1418393E+00
          2   -1    0    0  502    0  0.00000000000E+00  0.00000000000E+00  0.87227441525E+03  0.87227441525E+03  0.00000000000E+00 0. -1.
          1   -1    0    0  501    0 -0.00000000000E+00 -0.00000000000E+00 -0.73342149409E+02  0.73342149409E+02  0.00000000000E+00 0. -1.
         25    2    1    2    0    0 -0.26985557981E+02  0.48413861380E+02  0.24575757090E+03  0.28123529040E+03  0.12499753037E+03 0.  0.
          2    1    1    2  501    0  0.40498204789E+02  0.20564629940E+02 -0.43909051409E+02  0.63174467875E+02  0.00000000000E+00 0. -1.
          1    1    1    2  502    0 -0.13512646808E+02 -0.68978491320E+02  0.59708374635E+03  0.60120680638E+03  0.00000000000E+00 0. -1.
         22    1    3    3    0    0 -0.67709876531E+02  0.15966916951E+02  0.73163458670E+02  0.10095772136E+03  0.00000000000E+00 0. -1.
         22    1    3    3    0    0  0.40724318550E+02  0.32446944430E+02  0.17259411223E+03  0.18027756904E+03  0.00000000000E+00 0. -1.
</event>
<event>
 7    1  0.6173324E-006  0.9285535E+02  0.7818608E-02  0.1309907E+00
          2   -1    0    0  502    0  0.00000000000E+00  0.00000000000E+00  0.10781478490E+04  0.10781478490E+04  0.00000000000E+00 0. -1.
          1   -1    0    0  501    0 -0.00000000000E+00 -0.00000000000E+00 -0.64506475908E+03  0.64506475908E+03  0.00000000000E+00 0. -1.
         25    2    1    2    0    0 -0.58229401144E+02  0.28294568967E+02  0.12360867870E+03  0.18733616952E+03  0.12499795665E+03 0.  0.
          2    1    1    2  501    0  0.92122593829E+01 -0.93772968398E+02 -0.60775076134E+03  0.61501156350E+03  0.00000000000E+00 0. -1.
          1    1    1    2  502    0  0.49017141762E+02  0.65478399431E+02  0.91722517258E+03  0.92086487510E+03  0.00000000000E+00 0. -1.
         22    1    3    3    0    0  0.87063880492E+01  0.44582569416E+02 -0.45784028666E+00  0.45427043777E+02  0.00000000000E+00 0.  1.
         22    1    3    3    0    0 -0.66935789194E+02 -0.16288000449E+02  0.12406651899E+03  0.14190912574E+03  0.00000000000E+00 0.  1.
</event>
<event>
 7    1  0.6173324E-006  0.1525963E+03  0.7818608E-02  0.1197861E+00
          2   -1    0    0  502    0  0.00000000000E+00  0.00000000000E+00  0.33012752995E+03  0.33012752995E+03  0.00000000000E+00 0. -1.
          1   -1    0    0  501    0 -0.00000000000E+00 -0.00000000000E+00 -0.15212706370E+04  0.15212706370E+04  0.00000000000E+00 0. -1.
         25    2    1    2    0    0  0.36874581975E+02  0.18867854989E+03 -0.97226773106E+02  0.24907411504E+03  0.12500215754E+03 0.  0.
          2    1    1    2  501    0  0.99467860353E+02 -0.11572286327E+03 -0.13197937839E+04  0.13285861915E+04  0.00000000000E+00 0. -1.
          1    1    1    2  502    0 -0.13634244233E+03 -0.72955686624E+02  0.22587744997E+03  0.27373786036E+03  0.00000000000E+00 0. -1.
         22    1    3    3    0    0  0.19457566406E+01  0.19129462052E+03 -0.95964376948E+02  0.21402471692E+03  0.00000000000E+00 0.  1.
         22    1    3    3    0    0  0.34928825334E+02 -0.26160706264E+01 -0.12623961588E+01  0.35049398123E+02  0.00000000000E+00 0.  1.
</event>
<event>
 7    1  0.6173324E-006  0.5640585E+02  0.7818608E-02  0.1430997E+00
          2   -1    0    0  502    0  0.00000000000E+00  0.00000000000E+00  0.34473736790E+03  0.34473736790E+03  0.00000000000E+00 0. -1.
          1   -1    0    0  501    0 -0.00000000000E+00 -0.00000000000E+00 -0.89670861834E+03  0.89670861834E+03  0.00000000000E+00 0. -1.
         25    2    1    2    0    0 -0.15459582872E+02  0.16897936933E+02 -0.40905870583E+02  0.13350114145E+03  0.12499890218E+03 0.  0.
          2    1    1    2  501    0  0.56375750475E+02  0.10694541188E+02 -0.80643851062E+03  0.80847737746E+03  0.00000000000E+00 0. -1.
          1    1    1    2  502    0 -0.40916167604E+02 -0.27592478121E+02  0.29537313076E+03  0.29946746734E+03  0.00000000000E+00 0. -1.
         22    1    3    3    0    0 -0.51169206881E+02 -0.31703008786E+02  0.75879939624E+00  0.60199204941E+02  0.00000000000E+00 0. -1.
         22    1    3    3    0    0  0.35709624010E+02  0.48600945720E+02 -0.41664669979E+02  0.73301936510E+02  0.00000000000E+00 0. -1.
</event>
<event>
 7    1  0.6173324E-006  0.1296719E+03  0.7818608E-02  0.1282128E+00
          2   -1    0    0  502    0  0.00000000000E+00  0.00000000000E+00  0.72239366357E+03  0.72239366357E+03  0.00000000000E+00 0. -1.
          1   -1    0    0  501    0 -0.00000000000E+00 -0.00000000000E+00 -0.17464722305E+03  0.17464722305E+03  0.00000000000E+00 0. -1.
         25    2    1    2    0    0 -0.18372973548E+03  0.26554868072E+02  0.47118889412E+02  0.22870338678E+03  0.12499309049E+03 0.  0.
          2    1    1    2  501    0  0.59448769429E+02 -0.47006617822E+02 -0.58159215157E+02  0.95531526803E+02  0.00000000000E+00 0. -1.
          1    1    1    2  502    0  0.12428096605E+03  0.20451749751E+02  0.55878676626E+03  0.57280597303E+03  0.00000000000E+00 0. -1.
         22    1    3    3    0    0 -0.26290297914E+02  0.56902043998E+02  0.47460295101E+01  0.62861332882E+02  0.00000000000E+00 0. -1.
         22    1    3    3    0    0 -0.15743943756E+03 -0.30347175926E+02  0.42372859902E+02  0.16584205390E+03  0.00000000000E+00 0. -1.
</event>
<event>
 7    1  0.6173324E-006  0.5925565E+02  0.7818608E-02  0.1531291E+00
          2   -1    0    0  502    0  0.00000000000E+00  0.00000000000E+00  0.38935414975E+03  0.38935414975E+03  0.00000000000E+00 0. -1.
          1   -1    0    0  501    0 -0.00000000000E+00 -0.00000000000E+00 -0.66373065616E+03  0.66373065616E+03  0.00000000000E+00 0. -1.
         25    2    1    2    0    0  0.87564475555E+01 -0.73402016774E+02 -0.43906835210E+03  0.46246233541E+03  0.12500344963E+03 0.  0.
          2    1    1    2  501    0 -0.17711916903E+02  0.14889547410E+02 -0.21000644753E+03  0.21127735001E+03  0.00000000000E+00 0. -1.
          1    1    1    2  502    0  0.89554693478E+01  0.58512469364E+02  0.37469829321E+03  0.37934512049E+03  0.00000000000E+00 0. -1.
         22    1    3    3    0    0 -0.46980754643E+02 -0.38410244452E+02 -0.99264193690E+02  0.11634396561E+03  0.00000000000E+00 0. -1.
         22    1    3    3    0    0  0.55737202199E+02 -0.34991772322E+02 -0.33980415841E+03  0.34611836979E+03  0.00000000000E+00 0. -1.
</event>
<event>
 7    1  0.6173324E-006  0.6501185E+02  0.7818608E-02  0.1460293E+00
          2   -1    0    0  502    0  0.00000000000E+00  0.00000000000E+00  0.27353911121E+04  0.27353911121E+04  0.00000000000E+00 0. -1.
          1   -1    0    0  501    0 -0.00000000000E+00 -0.00000000000E+00 -0.34717377697E+03  0.34717377697E+03  0.00000000000E+00 0. -1.
         25    2    1    2    0    0 -0.28364071731E+02 -0.16693518032E+02  0.17714197952E+03  0.21929193920E+03  0.12500591820E+03 0.  0.
          2    1    1    2  501    0 -0.19150798850E+02 -0.28647128454E+02 -0.32476211674E+03  0.32658512449E+03  0.00000000000E+00 0. -1.
          1    1    1    2  502    0  0.47514870582E+02  0.45340646485E+02  0.25358374723E+04  0.25366878254E+04  0.00000000000E+00 0. -1.
         22    1    3    3    0    0 -0.30098606402E+00 -0.54820060343E+02  0.25555079717E+02  0.60484640265E+02  0.00000000000E+00 0.  1.
         22    1    3    3    0    0 -0.28063085667E+02  0.38126542311E+02  0.15158689980E+03  0.15880729894E+03  0.00000000000E+00 0.  1.
</event>
<event>
 7    1  0.6173324E-006  0.1561828E+03  0.7818608E-02  0.1200500E+00
          2   -1    0    0  502    0  0.00000000000E+00  0.00000000000E+00  0.19555359545E+04  0.19555359545E+04  0.00000000000E+00 0. -1.
          1   -1    0    0  501    0 -0.00000000000E+00 -0.00000000000E+00 -0.12656813053E+03  0.12656813053E+03  0.00000000000E+00 0. -1.
         25    2    1    2    0    0  0.38297395832E+02  0.11820647177E+03  0.34098474899E+03  0.38384227291E+03  0.12499932373E+03 0.  0.
          2    1    1    2  501    0  0.12788785212E+03 -0.66229053672E+02 -0.48482641571E+02  0.15196103713E+03  0.00000000000E+00 0. -1.
          1    1    1    2  502    0 -0.16618524796E+03 -0.51977418093E+02  0.15364657165E+04  0.15463007750E+04  0.00000000000E+00 0. -1.
         22    1    3    3    0    0 -0.23963076357E+02  0.86014815402E+02  0.26873645982E+03  0.28318203038E+03  0.00000000000E+00 0.  1.
         22    1    3    3    0    0  0.62260472189E+02  0.32191656363E+02  0.72248289172E+02  0.10066024252E+03  0.00000000000E+00 0.  1.
</event>
<event>
 7    1  0.6173324E-006  0.8540556E+02  0.7818608E-02  0.1450958E+00
          2   -1    0    0  502    0  0.00000000000E+00  0.00000000000E+00  0.84910973592E+02  0.84910973592E+02  0.00000000000E+00 0. -1.
          1   -1    0    0  501    0 -0.00000000000E+00 -0.00000000000E+00 -0.91170861659E+03  0.91170861659E+03  0.00000000000E+00 0. -1.
         25    2    1    2    0    0 -0.32489282217E+02  0.80143001507E+02 -0.10252424886E+03  0.18334613275E+03  0.12500451448E+03 0.  0.
          2    1    1    2  501    0  0.27467765158E+02  0.58436141377E+01 -0.72656729677E+03  0.72710980099E+03  0.00000000000E+00 0. -1.
          1    1    1    2  502    0  0.50215170586E+01 -0.85986615644E+02  0.22939026306E+01  0.86163656450E+02  0.00000000000E+00 0. -1.
         22    1    3    3    0    0 -0.12015441482E+01 -0.23420588714E+02  0.11539290743E+02  0.26136620189E+02  0.00000000000E+00 0. -1.
         22    1    3    3    0    0 -0.31287738069E+02  0.10356359022E+03 -0.11406353960E+03  0.15720951256E+03  0.00000000000E+00 0. -1.
</event>
<event>
 7    1  0.6173324E-006  0.9973700E+02  0.7818608E-02  0.1387670E+00
          2   -1    0    0  502    0  0.00000000000E+00  0.00000000000E+00  0.25966401138E+04  0.25966401138E+04  0.00000000000E+00 0. -1.
          1   -1    0    0  501    0 -0.00000000000E+00 -0.00000000000E+00 -0.10643362037E+03  0.10643362037E+03  0.00000000000E+00 0. -1.
         25    2    1    2    0    0  0.10830209358E+03 -0.41875387402E+02  0.22449957530E+03  0.28197268681E+03  0.12500258100E+03 0.  0.
          2    1    1    2  501    0 -0.98304390906E+02  0.40205008152E+01 -0.46318391021E+02  0.10874424603E+03  0.00000000000E+00 0. -1.
          1    1    1    2  502    0 -0.99977026715E+01  0.37854886587E+02  0.23120253092E+04  0.23123568013E+04  0.00000000000E+00 0. -1.
         22    1    3    3    0    0 -0.46324789223E+01 -0.56334756463E+02  0.81487013988E+02  0.99172567252E+02  0.00000000000E+00 0.  1.
         22    1    3    3    0    0  0.11293457250E+03  0.14459369061E+02  0.14301256131E+03  0.18280011956E+03  0.00000000000E+00 0.  1.
</event>
<event>
 7    1  0.6173324E-006  0.6919068E+02  0.7818608E-02  0.1441734E+00
          2   -1    0    0  502    0  0.00000000000E+00  0.00000000000E+00  0.79227722968E+02  0.79227722968E+02  0.00000000000E+00 0. -1.
          1   -1    0    0  501    0 -0.00000000000E+00 -0.00000000000E+00 -0.11587984262E+04  0.11587984262E+04  0.00000000000E+00 0. -1.
         25    2    1    2    0    0 -0.10955678676E+02  0.89393259664E+02 -0.10203142705E+03  0.18478817610E+03  0.12500030461E+03 0.  0.
          2    1    1    2  501    0  0.27017954790E+02 -0.25446225913E+02 -0.98605822359E+03  0.98675645456E+03  0.00000000000E+00 0. -1.
          1    1    1    2  502    0 -0.16062276114E+02 -0.63947033751E+02  0.85189474034E+01  0.66481518517E+02  0.00000000000E+00 0. -1.
         22    1    3    3    0    0  0.22181829639E+02 -0.63494075057E+01  0.16865231587E+02  0.28579443282E+02  0.00000000000E+00 0. -1.
         22    1    3    3    0    0 -0.33137508314E+02  0.95742667170E+02 -0.11889665863E+03  0.15620873282E+03  0.00000000000E+00 0. -1.
</event>
<event>
 7    1  0.6173324E-006  0.1294645E+03  0.7818608E-02  0.1387025E+00
          2   -1    0    0  502    0  0.00000000000E+00  0.00000000000E+00  0.24644450393E+04  0.24644450393E+04  0.00000000000E+00 0. -1.
          1   -1    0    0  501    0 -0.00000000000E+00 -0.00000000000E+00 -0.59014902176E+03  0.59014902176E+03  0.00000000000E+00 0. -1.
         25    2    1    2    0    0  0.15708849864E+03 -0.24152530343E+02  0.61682293314E+03  0.64911817220E+03  0.12499491794E+03 0.  0.
          2    1    1    2  501    0 -0.12677130932E+03  0.24556001080E+02 -0.56661166181E+03  0.58113917210E+03  0.00000000000E+00 0. -1.
          1    1    1    2  502    0 -0.30317189318E+02 -0.40347073701E+00  0.18240847462E+04  0.18243367167E+04  0.00000000000E+00 0. -1.
         22    1    3    3    0    0  0.55726089267E+01  0.36424882040E+02  0.15483825403E+03  0.15916252986E+03  0.00000000000E+00 0.  1.
         22    1    3    3    0    0  0.15151588971E+03 -0.60577412384E+02  0.46198467911E+03  0.48995564234E+03  0.00000000000E+00 0.  1.
</event>
<event>
 7    1  0.6173324E-006  0.9190616E+02  0.7818608E-02  0.1409206E+00
          2   -1    0    0  502    0  0.00000000000E+00  0.00000000000E+00  0.75845941733E+02  0.75845941733E+02  0.00000000000E+00 0. -1.
          1   -1    0    0  501    0 -0.00000000000E+00 -0.00000000000E+00 -0.70559632805E+03  0.70559632805E+03  0.00000000000E+00 0. -1.
         25    2    1    2    0    0 -0.74857367206E+02  0.27618766246E+01 -0.41515551501E+03  0.43998776153E+03  0.12499550095E+03 0.  0.
          2    1    1    2  501    0 -0.11338215093E+02  0.33971170548E+02 -0.24136615692E+03  0.24400864177E+03  0.00000000000E+00 0. -1.
          1    1    1    2  502    0  0.86195582299E+02 -0.36733047173E+02  0.26771285619E+02  0.97445866491E+02  0.00000000000E+00 0. -1.
         22    1    3    3    0    0 -0.34186110661E+02 -0.40545373459E+02 -0.34036430532E+03  0.34447130187E+03  0.00000000000E+00 0. -1.
         22    1    3    3    0    0 -0.40671256545E+02  0.43307250084E+02 -0.74791209692E+02  0.95516459660E+02  0.00000000000E+00 0. -1.
</event>
<event>
 7    1  0.6173324E-006  0.1834638E+03  0.7818608E-02  0.1275770E+00
          2   -1    0    0  502    0  0.00000000000E+00  0.00000000000E+00  0.19030729565E+04  0.19030729565E+04  0.00000000000E+00 0. -1.
          1   -1    0    0  501    0 -0.00000000000E+00 -0.00000000000E+00 -0.43292015881E+03  0.43292015881E+03  0.00000000000E+00 0. -1.
         25    2    1    2    0    0  0.91270213974E+02  0.14073163989E+03  0.39340531809E+03  0.44556531010E+03  0.12500021935E+03 0.  0.
          2    1    1    2  501    0 -0.14293843837E+03 -0.11686760153E+03 -0.38531028548E+03  0.42726274065E+03  0.00000000000E+00 0. -1.
          1    1    1    2  502    0  0.51668224393E+02 -0.23864038362E+02  0.14620577651E+04  0.14631650646E+04  0.00000000000E+00 0. -1.
         22    1    3    3    0    0 -0.20980817411E+02  0.72344145457E+02  0.11197636418E+03  0.13495397814E+03  0.00000000000E+00 0.  1.
         22    1    3    3    0    0  0.11225103138E+03  0.68387494435E+02  0.28142895392E+03  0.31061133196E+03  0.00000000000E+00 0.  1.
</event>
<event>
 7    1  0.6173324E-006  0.5566551E+02  0.7818608E-02  0.1447826E+00
          2   -1    0    0  502    0  0.00000000000E+00  0.00000000000E+00  0.38989854958E+04  0.38989854958E+04  0.00000000000E+00 0. -1.
          1   -1    0    0  501    0 -0.00000000000E+00 -0.00000000000E+00 -0.14980589878E+03  0.14980589878E+03  0.00000000000E+00 0. -1.
         25    2    1    2    0    0 -0.72472862491E+02  0.11560405671E+02  0.18213922402E+04  0.18271504757E+04  0.12499283837E+03 0.  0.
          2    1    1    2  501    0  0.38742643166E+02 -0.39958070562E+02 -0.14141275652E+03  0.15197107458E+03  0.00000000000E+00 0. -1.
          1    1    1    2  502    0  0.33730219325E+02  0.28397664891E+02  0.20692001134E+04  0.20696698443E+04  0.00000000000E+00 0. -1.
         22    1    3    3    0    0 -0.70863713099E+02  0.53041798218E+02  0.79377588691E+03  0.79869597271E+03  0.00000000000E+00 0.  1.
         22    1    3    3    0    0 -0.16091493921E+01 -0.41481392546E+02  0.10276163533E+04  0.10284545030E+04  0.00000000000E+00 0.  1.
</event>
<event>
 7    1  0.6173324E-006  0.1626794E+03  0.7818608E-02  0.1191619E+00
          2   -1    0    0  502    0  0.00000000000E+00  0.00000000000E+00  0.11313489310E+04  0.11313489310E+04  0.00000000000E+00 0. -1.
          1   -1    0    0  501    0 -0.00000000000E+00 -0.00000000000E+00 -0.26407854972E+03  0.26407854972E+03  0.00000000000E+00 0. -1.
         25    2    1    2    0    0  0.81361464816E+02 -0.22498006649E+02  0.94748465199E+02  0.17812533505E+03  0.12500206026E+03 0.  0.
          2    1    1    2  501    0  0.65123801537E+02  0.13774814838E+03 -0.18621983148E+03  0.24061065551E+03  0.00000000000E+00 0. -1.
          1    1    1    2  502    0 -0.14648526635E+03 -0.11525014173E+03  0.95874174758E+03  0.97669149017E+03  0.00000000000E+00 0. -1.
         22    1    3    3    0    0  0.38284525916E+02 -0.71750150605E+02  0.72685949120E+02  0.10907353591E+03  0.00000000000E+00 0. -1.
         22    1    3    3    0    0  0.43076938900E+02  0.49252143956E+02  0.22062516079E+02  0.69051799144E+02  0.00000000000E+00 0. -1.
</event>
<event>
 7    1  0.6173324E-006  0.8661134E+02  0.7818608E-02  0.1332933E+00
          2   -1    0    0  502    0  0.00000000000E+00  0.00000000000E+00  0.29795387869E+03  0.29795387869E+03  0.00000000000E+00 0. -1.
          1   -1    0    0  501    0 -0.00000000000E+00 -0.00000000000E+00 -0.42874515579E+03  0.42874515579E+03  0.00000000000E+00 0. -1.
         25    2    1    2    0    0  0.12234243082E+03  0.50381559999E+02  0.81862093213E+02  0.19958266500E+03  0.12500346353E+03 0.  0.
          2    1    1    2  501    0 -0.52935563536E+02 -0.67205641523E+02 -0.35644418236E+03  0.36656681148E+03  0.00000000000E+00 0. -1.
          1    1    1    2  502    0 -0.69406867286E+02  0.16824081524E+02  0.14379081205E+03  0.16054955800E+03  0.00000000000E+00 0. -1.
         22    1    3    3    0    0  0.14071526109E+03  0.26277952061E+02  0.41372965215E+02  0.14900683783E+03  0.00000000000E+00 0.  1.
         22    1    3    3    0    0 -0.18372830271E+02  0.24103607938E+02  0.40489127997E+02  0.50575827168E+02  0.00000000000E+00 0.  1.
</event>
<event>
 7    1  0.6173324E-006  0.3490496E+02  0.7818608E-02  0.1580214E+00
          2   -1    0    0  502    0  0.00000000000E+00  0.00000000000E+00  0.21283623005E+04  0.21283623005E+04  0.00000000000E+00 0. -1.
          1   -1    0    0  501    0 -0.00000000000E+00 -0.00000000000E+00 -0.18586817052E+02  0.18586817052E+02  0.00000000000E+00 0. -1.
         25    2    1    2    0    0  0.88876157041E+01  0.26454950318E+01  0.43686635470E+03  0.45448901213E+03  0.12498824713E+03 0.  0.
          2    1    1    2  501    0  0.11721387086E+02  0.26258147174E+02  0.11979351709E+02  0.31151020459E+02  0.00000000000E+00 0. -1.
          1    1    1    2  502    0 -0.20609002790E+02 -0.28903642206E+02  0.16609297770E+04  0.16613090850E+04  0.00000000000E+00 0. -1.
         22    1    3    3    0    0  0.10982129507E+02 -0.27713996515E+02  0.41718247624E+03  0.41824620890E+03  0.00000000000E+00 0. -1.
         22    1    3    3    0    0 -0.20945138025E+01  0.30359491546E+02  0.19683878455E+02  0.36242803231E+02  0.00000000000E+00 0. -1.
</event>
<event>
 7    1  0.6173324E-006  0.5479888E+02  0.7818608E-02  0.1431879E+00
          2   -1    0    0  502    0  0.00000000000E+00  0.00000000000E+00  0.62106956527E+03  0.62106956527E+03  0.00000000000E+00 0. -1.
          1   -1    0    0  501    0 -0.00000000000E+00 -0.00000000000E+00 -0.39122916552E+02  0.39122916552E+02  0.00000000000E+00 0. -1.
         25    2    1    2    0    0  0.31284834009E+02  0.21203093087E+01  0.13945891131E+03  0.18988724160E+03  0.12500056012E+03 0.  0.
          2    1    1    2  501    0 -0.37025819167E+02 -0.56617635615E+02  0.84964579115E+02  0.10860684901E+03  0.00000000000E+00 0. -1.
          1    1    1    2  502    0  0.57409851577E+01  0.54497326306E+02  0.35752315830E+03  0.36169839121E+03  0.00000000000E+00 0. -1.
         22    1    3    3    0    0 -0.33742945700E+02  0.38162522499E+02  0.35549757489E+02  0.62118835836E+02  0.00000000000E+00 0. -1.
         22    1    3    3    0    0  0.65027779709E+02 -0.36042213191E+02  0.10390915382E+03  0.12776840577E+03  0.00000000000E+00 0. -1.
</event>
<event>
 7    1  0.6173324E-006  0.8034501E+02  0.7818608E-02  0.1473974E+00
          2   -1    0    0  502    0  0.00000000000E+00  0.00000000000E+00  0.14663760587E+04  0.14663760587E+04  0.00000000000E+00 0. -1.
          1   -1    0    0  501    0 -0.00000000000E+00 -0.00000000000E+00 -0.54514566566E+03  0.54514566566E+03  0.00000000000E+00 0. -1.
         25    2    1    2    0    0 -0.89447596258E+02 -0.25684483225E+02  0.26588736678E+02  0.15809042798E+03  0.12500022938E+03 0.  0.
          2    1    1    2  501    0  0.93074017065E+01  0.23493345908E+02 -0.47789130483E+03  0.47855894544E+03  0.00000000000E+00 0. -1.
          1    1    1    2  502    0  0.80140194551E+02  0.21911373167E+01  0.13725329612E+04  0.13748723509E+04  0.00000000000E+00 0. -1.
         22    1    3    3    0    0 -0.93028760413E+02  0.17705525489E+02  0.51636589933E+02  0.10786182511E+03  0.00000000000E+00 0.  1.
         22    1    3    3    0    0  0.35811641556E+01 -0.43390008714E+02 -0.25047853255E+02  0.50228602863E+02  0.00000000000E+00 0.  1.
</event>
<event>
 7    1  0.6173324E-006  0.1404654E+03  0.7818608E-02  0.1290928E+00
          2   -1    0    0  502    0  0.00000000000E+00  0.00000000000E+00  0.18607085534E+04  0.18607085534E+04  0.00000000000E+00 0. -1.
          1   -1    0    0  501    0 -0.00000000000E+00 -0.00000000000E+00 -0.31659306963E+03  0.31659306963E+03  0.00000000000E+00 0. -1.
         25    2    1    2    0    0 -0.30067555273E+02  0.12879953092E+03  0.18809267058E+03  0.26172051286E+03  0.12500158832E+03 0.  0.
          2    1    1    2  501    0  0.63704500318E+02  0.94381724420E+01 -0.27293115528E+03  0.28042602943E+03  0.00000000000E+00 0. -1.
          1    1    1    2  502    0 -0.33636945045E+02 -0.13823770336E+03  0.16289539684E+04  0.16351550807E+04  0.00000000000E+00 0. -1.
         22    1    3    3    0    0  0.12213081468E+02  0.71677263517E+02  0.17493648169E+03  0.18944540662E+03  0.00000000000E+00 0. -1.
         22    1    3    3    0    0 -0.42280636741E+02  0.57122267399E+02  0.13156188895E+02  0.72275106242E+02  0.00000000000E+00 0. -1.
</event>
<event>
 7    1  0.6173324E-006  0.5500838E+02  0.7818608E-02  0.1475034E+00
          2   -1    0    0  502    0  0.00000000000E+00  0.00000000000E+00  0.63358788050E+03  0.63358788050E+03  0.00000000000E+00 0. -1.
          1   -1    0    0  501    0 -0.00000000000E+00 -0.00000000000E+00 -0.49266193931E+02  0.49266193931E+02  0.00000000000E+00 0. -1.
         25    2    1    2    0    0 -0.28798468983E+02 -0.32034277733E+01  0.25970999337E+03  0.28967831777E+03  0.12499853345E+03 0.  0.
          2    1    1    2  501    0 -0.21320934601E+02 -0.29787373591E+02 -0.21114602776E+02  0.42281158074E+02  0.00000000000E+00 0. -1.
          1    1    1    2  502    0  0.50119403584E+02  0.32990801364E+02  0.34572629597E+03  0.35089459859E+03  0.00000000000E+00 0. -1.
         22    1    3    3    0    0  0.26312758573E+02  0.24740306087E+02  0.20175364700E+03  0.20496091844E+03  0.00000000000E+00 0. -1.
         22    1    3    3    0    0 -0.55111227556E+02 -0.27943733860E+02  0.57956346368E+02  0.84717399329E+02  0.00000000000E+00 0. -1.
</event>
<event>
 7    1  0.6173324E-006  0.2632802E+03  0.7818608E-02  0.1311488E+00
          2   -1    0    0  502    0  0.00000000000E+00  0.00000000000E+00  0.11348504110E+04  0.11348504110E+04  0.00000000000E+00 0. -1.
          1   -1    0    0  501    0 -0.00000000000E+00 -0.00000000000E+00 -0.11187747138E+04  0.11187747138E+04  0.00000000000E+00 0. -1.
         25    2    1    2    0    0  0.21956499774E+03  0.86180671918E+02  0.39570562912E+03  0.47732165052E+03  0.12496846277E+03 0.  0.
          2    1    1    2  501    0 -0.24634017036E+03 -0.95759150635E+02 -0.10614656327E+04  0.10938750312E+04  0.00000000000E+00 0. -1.
          1    1    1    2  502    0  0.26775172625E+02  0.95784787174E+01  0.68183570072E+03  0.68242844306E+03  0.00000000000E+00 0. -1.
         22    1    3    3    0    0  0.18358175904E+03  0.81404468464E+02  0.39248774544E+03  0.44088046006E+03  0.00000000000E+00 0.  1.
         22    1    3    3    0    0  0.35983238700E+02  0.47762034538E+01  0.32178836823E+01  0.36441190460E+02  0.00000000000E+00 0.  1.
</event>
<event>
 7    1  0.6173324E-006  0.1184350E+03  0.7818608E-02  0.1401735E+00
          2   -1    0    0  502    0  0.00000000000E+00  0.00000000000E+00  0.15035156397E+04  0.15035156397E+04  0.00000000000E+00 0. -1.
          1   -1    0    0  501    0 -0.00000000000E+00 -0.00000000000E+00 -0.12186271799E+04  0.12186271799E+04  0.00000000000E+00 0. -1.
         25    2    1    2    0    0  0.13571654506E+03  0.57140516392E+02 -0.93190293361E+02  0.21446369977E+03  0.12500491400E+03 0.  0.
          2    1    1    2  501    0 -0.28204391729E+02 -0.85470922633E+01 -0.10621835810E+04  0.10625923491E+04  0.00000000000E+00 0. -1.
          1    1    1    2  502    0 -0.10751215333E+03 -0.48593424129E+02  0.14402623342E+04  0.14450867708E+04  0.00000000000E+00 0. -1.
         22    1    3    3    0    0  0.13098960410E+03  0.19673308383E+01 -0.38287805379E+02  0.13648480800E+03  0.00000000000E+00 0. -1.
         22    1    3    3    0    0  0.47269409577E+01  0.55173185554E+02 -0.54902487982E+02  0.77978891769E+02  0.00000000000E+00 0. -1.
</event>
<event>
 7    1  0.6173324E-006  0.4752934E+02  0.7818608E-02  0.1524381E+00
          2   -1    0    0  502    0  0.00000000000E+00  0.00000000000E+00  0.52979774902E+03  0.52979774902E+03  0.00000000000E+00 0. -1.
          1   -1    0    0  501    0 -0.00000000000E+00 -0.00000000000E+00 -0.18273953490E+04  0.18273953490E+04  0.00000000000E+00 0. -1.
         25    2    1    2    0    0 -0.12913221273E+02 -0.64722055155E+02 -0.96987567521E+03  0.98012265621E+03  0.12500360054E+03 0.  0.
          2    1    1    2  501    0 -0.97941426797E+01  0.44816198372E+02 -0.85134365773E+03  0.85257870043E+03  0.00000000000E+00 0. -1.
          1    1    1    2  502    0  0.22707363952E+02  0.19905856784E+02  0.52362173298E+03  0.52449174136E+03  0.00000000000E+00 0. -1.
         22    1    3    3    0    0 -0.16381983329E+02 -0.71371282361E+02 -0.96986251016E+03  0.97262300915E+03  0.00000000000E+00 0. -1.
         22    1    3    3    0    0  0.34687620560E+01  0.66492272058E+01 -0.13165048185E-01  0.74996470553E+01  0.00000000000E+00 0. -1.
</event>
<event>
 7    1  0.6173324E-006  0.6609535E+02  0.7818608E-02  0.1437302E+00
          2   -1    0    0  502    0  0.00000000000E+00  0.00000000000E+00  0.13380400882E+04  0.13380400882E+04  0.00000000000E+00 0. -1.
          1   -1    0    0  501    0 -0.00000000000E+00 -0.00000000000E+00 -0.12356568347E+04  0.12356568347E+04  0.00000000000E+00 0. -1.
         25    2    1    2    0    0 -0.52940984415E+02 -0.33757217595E+02  0.61424115045E+03  0.62996740978E+03  0.12499779558E+03 0.  0.
          2    1    1    2  501    0  0.24003545221E+02  0.61606343637E+02 -0.12263392482E+04  0.12281202968E+04  0.00000000000E+00 0. -1.
          1    1    1    2  502    0  0.28937439194E+02 -0.27849126042E+02  0.71448135121E+03  0.71560921628E+03  0.00000000000E+00 0. -1.
         22    1    3    3    0    0 -0.24828412131E+02 -0.71594189047E+02  0.50954930277E+03  0.51515305483E+03  0.00000000000E+00 0. -1.
         22    1    3    3    0    0 -0.28112572284E+02  0.37836971452E+02  0.10469184769E+03  0.11481435494E+03  0.00000000000E+00 0. -1.
</event>
<event>
 7    1  0.6173324E-006  0.5384596E+02  0.7818608E-02  0.1484672E+00
          2   -1    0    0  502    0  0.00000000000E+00  0.00000000000E+00  0.93433010529E+02  0.93433010529E+02  0.00000000000E+00 0. -1.
          1   -1    0    0  501    0 -0.00000000000E+00 -0.00000000000E+00 -0.10270410691E+04  0.10270410691E+04  0.00000000000E+00 0. -1.
         25    2    1    2    0    0 -0.47049286866E+02  0.34880279520E+02 -0.29193641990E+03  0.32292854829E+03  0.12500281894E+03 0.  0.
          2    1    1    2  501    0  0.54219263072E+02 -0.66441023680E+00 -0.71460884653E+03  0.71666308226E+03  0.00000000000E+00 0. -1.
          1    1    1    2  502    0 -0.71699762059E+01 -0.34215869283E+02  0.72937207891E+02  0.80882449051E+02  0.00000000000E+00 0. -1.
         22    1    3    3    0    0  0.17302596526E+02  0.52263519473E+02 -0.59235045225E+02  0.80868077120E+02  0.00000000000E+00 0.  1.
         22    1    3    3    0    0 -0.64351883393E+02 -0.17383239954E+02 -0.23270137467E+03  0.24206047117E+03  0.00000000000E+00 0.  1.
</event>
<event>
 7    1  0.6173324E-006  0.7917033E+02  0.7818608E-02  0.1425521E+00
          2   -1    0    0  502    0  0.00000000000E+00  0.00000000000E+00  0.95266172481E+03  0.95266172481E+03  0.00000000000E+00 0. -1.
          1   -1    0    0  501    0 -0.00000000000E+00 -0.00000000000E+00 -0.31720494291E+03  0.31720494291E+03  0.00000000000E+00 0. -1.
         25    2    1    2    0    0 -0.43639259054E+02  0.91965895532E+02  0.18244230254E+03  0.24346044809E+03  0.12500274060E+03 0.  0.
          2    1    1    2  501    0  0.33594141359E+02 -0.14662234751E+02 -0.28345877925E+03  0.28581887096E+03  0.00000000000E+00 0. -1.
          1    1    1    2  502    0  0.10045117695E+02 -0.77303660781E+02  0.73647325862E+03  0.74058734867E+03  0.00000000000E+00 0. -1.
         22    1    3    3    0    0 -0.15572072665E+02  0.76765861338E+02  0.24129069622E+02  0.81961569744E+02  0.00000000000E+00 0. -1.
         22    1    3    3    0    0 -0.28067186388E+02  0.15200034195E+02  0.15831323291E+03  0.16149887835E+03  0.00000000000E+00 0. -1.
</event>
<event>
 7    1  0.6173324E-006  0.9279111E+02  0.7818608E-02  0.1325577E+00
          2   -1    0    0  502    0  0.00000000000E+00  0.00000000000E+00  0.14977551959E+04  0.14977551959E+04  0.00000000000E+00 0. -1.
          1   -1    0    0  501    0 -0.00000000000E+00 -0.00000000000E+00 -0.72105030046E+03  0.72105030046E+03  0.00000000000E+00 0. -1.
         25    2    1    2    0    0  0.25047902970E+02 -0.17859765456E+02  0.35826257427E+02  0.13360930521E+03  0.12498622745E+03 0.  0.
          2    1    1    2  501    0  0.69829683736E+02  0.13495041716E+02 -0.66867480022E+03  0.67244649551E+03  0.00000000000E+00 0. -1.
          1    1    1    2  502    0 -0.94877586706E+02  0.43647237403E+01  0.14095534382E+04  0.14127496956E+04  0.00000000000E+00 0. -1.
         22    1    3    3    0    0 -0.13189599148E+01 -0.53756819461E+02  0.61903139367E+02  0.81997158227E+02  0.00000000000E+00 0. -1.
         22    1    3    3    0    0  0.26366862885E+02  0.35897054005E+02 -0.26076881941E+02  0.51612146984E+02  0.00000000000E+00 0. -1.
</event>
<event>
 7    1  0.6173324E-006  0.5069918E+02  0.7818608E-02  0.1522435E+00
          2   -1    0    0  502    0  0.00000000000E+00  0.00000000000E+00  0.23483513258E+04  0.23483513258E+04  0.00000000000E+00 0. -1.
          1   -1    0    0  501    0 -0.00000000000E+00 -0.00000000000E+00 -0.66628769461E+01  0.66628769461E+01  0.00000000000E+00 0. -1.
         25    2    1    2    0    0 -0.61787532354E+02  0.89526872830E+01  0.11912076143E+04  0.11993738463E+04  0.12499677195E+03 0.  0.
          2    1    1    2  501    0  0.23539275163E+02  0.16381020062E+02  0.92975559374E+03  0.93019777434E+03  0.00000000000E+00 0. -1.
          1    1    1    2  502    0  0.38248257191E+02 -0.25333707345E+02  0.22072524074E+03  0.22544258206E+03  0.00000000000E+00 0. -1.
         22    1    3    3    0    0 -0.26975296045E+02 -0.50322093761E+02  0.29119051908E+03  0.29673540085E+03  0.00000000000E+00 0. -1.
         22    1    3    3    0    0 -0.34812236308E+02  0.59274781044E+02  0.90001709524E+03  0.90263844544E+03  0.00000000000E+00 0. -1.
</event>
<event>
 7    1  0.6173324E-006  0.8916626E+02  0.7818608E-02  0.1358365E+00
          2   -1    0    0  502    0  0.00000000000E+00  0.00000000000E+00  0.10012544868E+04  0.10012544868E+04  0.00000000000E+00 0. -1.
          1   -1    0    0  501    0 -0.00000000000E+00 -0.00000000000E+00 -0.32098180680E+04  0.32098180680E+04  0.00000000000E+00 0. -1.
         25    2    1    2    0    0 -0.10386782298E+03  0.96612520756E+02 -0.67706996405E+03  0.70297266632E+03  0.12499731824E+03 0.  0.
          2    1    1    2  501    0  0.64613663261E+02 -0.57013067632E+02 -0.25182727776E+04  0.25197466535E+04  0.00000000000E+00 0. -1.
          1    1    1    2  502    0  0.39254159716E+02 -0.39599453123E+02  0.98677916041E+03  0.98835323501E+03  0.00000000000E+00 0. -1.
         22    1    3    3    0    0 -0.21875985403E+02  0.68062256369E+02 -0.12402652244E+03  0.14315588618E+03  0.00000000000E+00 0.  1.
         22    1    3    3    0    0 -0.81991837574E+02  0.28550264387E+02 -0.55304344161E+03  0.55981678015E+03  0.00000000000E+00 0.  1.
</event>
<event>
 7    1  0.6173324E-006  0.8466120E+02  0.7818608E-02  0.1375490E+00
          2   -1    0    0  502    0  0.00000000000E+00  0.00000000000E+00  0.47811761891E+04  0.47811761891E+04  0.00000000000E+00 0. -1.
          1   -1    0    0  501    0 -0.00000000000E+00 -0.00000000000E+00 -0.43825822295E+03  0.43825822295E+03  0.00000000000E+00 0. -1.
         25    2    1    2    0    0 -0.22054690553E+02 -0.63438101427E+02 -0.97944689540E+02  0.17242079944E+03  0.12499987113E+03 0.  0.
          2    1    1    2  501    0  0.47913160517E+02 -0.17268441176E+02 -0.30055451317E+03  0.30483911396E+03  0.00000000000E+00 0. -1.
          1    1    1    2  502    0 -0.25858469965E+02  0.80706542603E+02  0.47414171689E+04  0.47421744987E+04  0.00000000000E+00 0. -1.
         22    1    3    3    0    0  0.74925631542E+01 -0.71360614647E+02 -0.11636740139E+03  0.13671081863E+03  0.00000000000E+00 0. -1.
         22    1    3    3    0    0 -0.29547253707E+02  0.79225132203E+01  0.18422711849E+02  0.35709980807E+02  0.00000000000E+00 0. -1.
</event>
<event>
 7    1  0.6173324E-006  0.1099014E+03  0.7818608E-02  0.1266138E+00
          2   -1    0    0  502    0  0.00000000000E+00  0.00000000000E+00  0.95234394766E+02  0.95234394766E+02  0.00000000000E+00 0. -1.
          1   -1    0    0  501    0 -0.00000000000E+00 -0.00000000000E+00 -0.97146490780E+03  0.97146490780E+03  0.00000000000E+00 0. -1.
         25    2    1    2    0    0  0.68773962078E+02 -0.35142113285E+02 -0.10621535332E+03  0.18130588296E+03  0.12500118371E+03 0.  0.
          2    1    1    2  501    0 -0.25655006958E+02 -0.10106180795E+03 -0.72947169592E+03  0.73688576018E+03  0.00000000000E+00 0. -1.
          1    1    1    2  502    0 -0.43118955120E+02  0.13620392124E+03 -0.40543463796E+02  0.14850765942E+03  0.00000000000E+00 0. -1.
         22    1    3    3    0    0  0.38113040025E+02 -0.64577544944E+02 -0.11558888417E+03  0.13778117896E+03  0.00000000000E+00 0. -1.
         22    1    3    3    0    0  0.30660922053E+02  0.29435431659E+02  0.93735308528E+01  0.43524704005E+02  0.00000000000E+00 0. -1.
</event>
<event>
 7    1  0.6173324E-006  0.1546151E+03  0.7818608E-02  0.1244519E+00
          2   -1    0    0  502    0  0.00000000000E+00  0.00000000000E+00  0.50421786680E+03  0.50421786680E+03  0.00000000000E+00 0. -1.
          1   -1    0    0  501    0 -0.00000000000E+00 -0.00000000000E+00 -0.38890725730E+03  0.38890725730E+03  0.00000000000E+00 0. -1.
         25    2    1    2    0    0 -0.52739277193E+02  0.17376929035E+03 -0.26359921384E+03  0.34363813000E+03  0.12500168489E+03 0.  0.
          2    1    1    2  501    0 -0.60674975585E+02 -0.68900248470E+02 -0.42125105857E+02  0.10101099665E+03  0.00000000000E+00 0. -1.
          1    1    1    2  502    0  0.11341425278E+03 -0.10486904188E+03  0.42103492919E+03  0.44847599744E+03  0.00000000000E+00 0. -1.
         22    1    3    3    0    0 -0.61023596696E+01  0.94217621264E+01 -0.11983523164E+03  0.12035984022E+03  0.00000000000E+00 0. -1.
         22    1    3    3    0    0 -0.46636917524E+02  0.16434752823E+03 -0.14376398220E+03  0.22327828978E+03  0.00000000000E+00 0. -1.
</event>
<event>
 7    1  0.6173324E-006  0.6464929E+02  0.7818608E-02  0.1522017E+00
          2   -1    0    0  502    0  0.00000000000E+00  0.00000000000E+00  0.14108638615E+04  0.14108638615E+04  0.00000000000E+00 0. -1.
          1   -1    0    0  501    0 -0.00000000000E+00 -0.00000000000E+00 -0.69761356720E+02  0.69761356720E+02  0.00000000000E+00 0. -1.
         25    2    1    2    0    0 -0.75377378058E+02 -0.57784545305E+01  0.48832831298E+03  0.50971057763E+03  0.12500076809E+03 0.  0.
          2    1    1    2  501    0  0.15557306823E+02 -0.16327730638E+02 -0.55758306913E+02  0.60146599016E+02  0.00000000000E+00 0. -1.
          1    1    1    2  502    0  0.59820071234E+02  0.22106185169E+02  0.90853249868E+03  0.91076804155E+03  0.00000000000E+00 0. -1.
         22    1    3    3    0    0  0.17590486757E+02 -0.38578515519E+02  0.21514936406E+03  0.21928742768E+03  0.00000000000E+00 0. -1.
         22    1    3    3    0    0 -0.92967864814E+02  0.32800060988E+02  0.27317894893E+03  0.29042314995E+03  0.00000000000E+00 0. -1.
</event>
<event>
 7    1  0.6173324E-006  0.6674420E+02  0.7818608E-02  0.1530579E+00
          2   -1    0    0  502    0  0.00000000000E+00  0.00000000000E+00  0.76091760118E+03  0.76091760118E+03  0.00000000000E+00 0. -1.
          1   -1    0    0  501    0 -0.00000000000E+00 -0.00000000000E+00 -0.25947899994E+02  0.25947899994E+02  0.00000000000E+00 0. -1.
         25    2    1    2    0    0 -0.36243431454E+02  0.69066850818E+02  0.42536495767E+03  0.45016019889E+03  0.12500016499E+03 0.  0.
          2    1    1    2  501    0  0.42283212257E+02 -0.49331017660E+02  0.67379856545E+02  0.93602694459E+02  0.00000000000E+00 0. -1.
          1    1    1    2  502    0 -0.60397808031E+01 -0.19735833158E+02  0.24222488697E+03  0.24310260782E+03  0.00000000000E+00 0. -1.
         22    1    3    3    0    0 -0.42338226546E+02 -0.32465525099E+01  0.41074703667E+02  0.59077887670E+02  0.00000000000E+00 0. -1.
         22    1    3    3    0    0  0.60947950922E+01  0.72313403328E+02  0.38429025400E+03  0.39108231122E+03  0.00000000000E+00 0. -1.
</event>
<event>
 7    1  0.6173324E-006  0.8324800E+02  0.7818608E-02  0.1325169E+00
          2   -1    0    0  502    0  0.00000000000E+00  0.00000000000E+00  0.21453678438E+03  0.21453678438E+03  0.00000000000E+00 0. -1.
          1   -1    0    0  501    0 -0.00000000000E+00 -0.00000000000E+00 -0.95401283079E+03  0.95401283079E+03  0.00000000000E+00 0. -1.
         25    2    1    2    0    0 -0.10900401951E+03  0.18864926821E+02 -0.30640809436E+03  0.34892455368E+03  0.12499864852E+03 0.  0.
          2    1    1    2  501    0  0.61919356218E+02  0.49960537697E+02 -0.61466701675E+03  0.61979480757E+03  0.00000000000E+00 0. -1.
          1    1    1    2  502    0  0.47084663295E+02 -0.68825464518E+02  0.18159906470E+03  0.19983025393E+03  0.00000000000E+00 0. -1.
         22    1    3    3    0    0 -0.37706120771E+02 -0.51869441039E+02 -0.91811384404E+02  0.11198893143E+03  0.00000000000E+00 0.  1.
         22    1    3    3    0    0 -0.71297898742E+02  0.70734367860E+02 -0.21459670996E+03  0.23693562224E+03  0.00000000000E+00 0.  1.
</event>
<event>
 7    1  0.6173324E-006  0.6073175E+02  0.7818608E-02  0.1402244E+00
          2   -1    0    0  502    0  0.00000000000E+00  0.00000000000E+00  0.82231789915E+03  0.82231789915E+03  0.00000000000E+00 0. -1.
          1   -1    0    0  501    0 -0.00000000000E+00 -0.00000000000E+00 -0.61794891389E+03  0.61794891389E+03  0.00000000000E+00 0. -1.
         25    2    1    2    0    0 -0.39750638368E+02  0.10301170149E+03  0.38062600723E+01  0.16682504340E+03  0.12499833436E+03 0.  0.
          2    1    1    2  501    0  0.21723005464E+01 -0.59831743919E+02 -0.53365150840E+03  0.53699952410E+03  0.00000000000E+00 0. -1.
          1    1    1    2  502    0  0.37578337821E+02 -0.43179957575E+02  0.73421423359E+03  0.73644224554E+03  0.00000000000E+00 0. -1.
         22    1    3    3    0    0 -0.43131882149E+02  0.10484335455E+03 -0.41969474900E+02  0.12088806837E+03  0.00000000000E+00 0. -1.
         22    1    3    3    0    0  0.33812437812E+01 -0.18316530540E+01  0.45775734972E+02  0.45936975027E+02  0.00000000000E+00 0. -1.
</event>
<event>
 7    1  0.6173324E-006  0.1645489E+03  0.7818608E-02  0.1233123E+00
          2   -1    0    0  502    0  0.00000000000E+00  0.00000000000E+00  0.48444952608E+03  0.48444952608E+03  0.00000000000E+00 0. -1.
          1   -1    0    0  501    0 -0.00000000000E+00 -0.00000000000E+00 -0.52266991029E+03  0.52266991029E+03  0.00000000000E+00 0. -1.
         25    2    1    2    0    0  0.56953485707E+02  0.65040975222E+02  0.89938255116E+01  0.15225080326E+03  0.12500156081E+03 0.  0.
          2    1    1    2  501    0 -0.13109187997E+03 -0.12739013307E+03 -0.42617512304E+03  0.46372250592E+03  0.00000000000E+00 0. -1.
          1    1    1    2  502    0  0.74138394263E+02  0.62349157849E+02  0.37896091332E+03  0.39114612719E+03  0.00000000000E+00 0. -1.
         22    1    3    3    0    0  0.59895159920E+02 -0.10260489039E+02  0.37810085052E+02  0.71570317512E+02  0.00000000000E+00 0. -1.
         22    1    3    3    0    0 -0.29416742126E+01  0.75301464261E+02 -0.28816259540E+02  0.80680485750E+02  0.00000000000E+00 0. -1.
</event>
<event>
 7    1  0.6173324E-006  0.1325139E+03  0.7818608E-02  0.1291481E+00
          2   -1    0    0  502    0  0.00000000000E+00  0.00000000000E+00  0.50981115913E+03  0.50981115913E+03  0.00000000000E+00 0. -1.
          1   -1    0    0  501    0 -0.00000000000E+00 -0.00000000000E+00 -0.29465071364E+04  0.29465071364E+04  0.00000000000E+00 0. -1.
         25    2    1    2    0    0  0.12061142938E+03  0.14762988328E+03 -0.10323879494E+04  0.10572562158E+04  0.12499651372E+03 0.  0.
          2    1    1    2  501    0 -0.72794960390E+02 -0.99404471000E+02 -0.18973593988E+04  0.19013555804E+04  0.00000000000E+00 0. -1.
          1    1    1    2  502    0 -0.47816468992E+02 -0.48225412276E+02  0.49305137090E+03  0.49770649930E+03  0.00000000000E+00 0. -1.
         22    1    3    3    0    0  0.43063302811E+02  0.62474468408E+01 -0.77781617696E+02  0.89126083120E+02  0.00000000000E+00 0. -1.
         22    1    3    3    0    0  0.77548126571E+02  0.14138243644E+03 -0.95460633173E+03  0.96813013270E+03  0.00000000000E+00 0. -1.
</event>
<event>
 7    1  0.1203218E-005  0.1199768E+03  0.7818608E-02  0.1333721E+00
          2   -1    0    0  502    0  0.00000000000E+00  0.00000000000E+00  0.70168230183E+03  0.70168230183E+03  0.00000000000E+00 0. -1.
          1   -1    0    0  501    0 -0.00000000000E+00 -0.00000000000E+00 -0.15069653881E+04  0.15069653881E+04  0.00000000000E+00 0. -1.
         25    2    1    2    0    0  0.59161453229E+02 -0.42867682218E+02 -0.47760041755E+03  0.49906475283E+03  0.12500301174E+03 0.  0.
          2    1    1    2  501    0  0.50797973222E+02 -0.64153221055E+01 -0.10127275375E+04  0.10140210332E+04  0.00000000000E+00 0. -1.
          1    1    1    2  502    0 -0.10995942645E+03  0.49283004323E+02  0.68504486879E+03  0.69556190395E+03  0.00000000000E+00 0. -1.
         22    1    3    3    0    0  0.11587626754E+02  0.18594347451E+02 -0.83904411524E+01  0.23461081681E+02  0.00000000000E+00 0.  1.
         22    1    3    3    0    0  0.47573826476E+02 -0.61462029668E+02 -0.46920997640E+03  0.47560367115E+03  0.00000000000E+00 0.  1.
</event>
<event>
 7    1  0.6173324E-006  0.7774540E+02  0.7818608E-02  0.1346757E+00
          2   -1    0    0  502    0  0.00000000000E+00  0.00000000000E+00  0.23752892249E+03  0.23752892249E+03  0.00000000000E+00 0. -1.
          1   -1    0    0  501    0 -0.00000000000E+00 -0.00000000000E+00 -0.13883479075E+04  0.13883479075E+04  0.00000000000E+00 0. -1.
         25    2    1    2    0    0 -0.29179351874E+02  0.10975941459E+02  0.61836678310E+02  0.14290208196E+03  0.12500129751E+03 0.  0.
          2    1    1    2  501    0 -0.48636546510E+02  0.51146525665E+02 -0.13284118413E+04  0.13302854960E+04  0.00000000000E+00 0. -1.
          1    1    1    2  502    0  0.77815898385E+02 -0.62122467124E+02  0.11575617794E+03  0.15268925206E+03  0.00000000000E+00 0. -1.
         22    1    3    3    0    0  0.54480023721E+01 -0.36626829302E+02  0.74041754773E+02  0.82785184692E+02  0.00000000000E+00 0. -1.
         22    1    3    3    0    0 -0.34627354247E+02  0.47602770761E+02 -0.12205076463E+02  0.60116897273E+02  0.00000000000E+00 0. -1.
</event>
<event>
 7    1  0.6173324E-006  0.4586163E+02  0.7818608E-02  0.1527499E+00
          2   -1    0    0  502    0  0.00000000000E+00  0.00000000000E+00  0.38960469723E+03  0.38960469723E+03  0.00000000000E+00 0. -1.
          1   -1    0    0  501    0 -0.00000000000E+00 -0.00000000000E+00 -0.16255346205E+03  0.16255346205E+03  0.00000000000E+00 0. -1.
         25    2    1    2    0    0  0.46519874522E+02 -0.42044318606E+02  0.31596907496E+01  0.13988084121E+03  0.12499937056E+03 0.  0.
          2    1    1    2  501    0 -0.15865560468E+02  0.42178335134E+02 -0.88008332578E+02  0.98874640666E+02  0.00000000000E+00 0. -1.
          1    1    1    2  502    0 -0.30654314054E+02 -0.13401652882E+00  0.31189987700E+03  0.31340267740E+03  0.00000000000E+00 0. -1.
         22    1    3    3    0    0  0.49702260278E+02 -0.81271649288E+02  0.19546387975E+02  0.97249457261E+02  0.00000000000E+00 0.  1.
         22    1    3    3    0    0 -0.31823857562E+01  0.39227330682E+02 -0.16386697225E+02  0.42631383950E+02  0.00000000000E+00 0.  1.
</event>
<event>
 7    1  0.6173324E-006  0.4907516E+02  0.7818608E-02  0.1563550E+00
          2   -1    0    0  502    0  0.00000000000E+00  0.00000000000E+00  0.28539529504E+03  0.28539529504E+03  0.00000000000E+00 0. -1.
          1   -1    0    0  501    0 -0.00000000000E+00 -0.00000000000E+00 -0.66159082070E+03  0.66159082070E+03  0.00000000000E+00 0. -1.
         25    2    1    2    0    0  0.34721404949E+02  0.30433967035E+02  0.64188312130E+01  0.13340893617E+03  0.12499976218E+03 0.  0.
          2    1    1    2  501    0  0.13225782475E+02 -0.18441420895E+02 -0.59504255931E+03  0.59547515038E+03  0.00000000000E+00 0. -1.
          1    1    1    2  502    0 -0.47947187424E+02 -0.11992546140E+02  0.21242820243E+03  0.21810202918E+03  0.00000000000E+00 0. -1.
         22    1    3    3    0    0  0.46943477970E+02  0.37424332193E+02 -0.48208884559E+02  0.76995891542E+02  0.00000000000E+00 0. -1.
         22    1    3    3    0    0 -0.12222073021E+02 -0.69903651585E+01  0.54627715772E+02  0.56413044630E+02  0.00000000000E+00 0. -1.
</event>
<event>
 7    1  0.6173324E-006  0.1801762E+03  0.7818608E-02  0.1300479E+00
          2   -1    0    0  502    0  0.00000000000E+00  0.00000000000E+00  0.17704452372E+04  0.17704452372E+04  0.00000000000E+00 0. -1.
          1   -1    0    0  501    0 -0.00000000000E+00 -0.00000000000E+00 -0.75316303624E+03  0.75316303624E+03  0.00000000000E+00 0. -1.
         25    2    1    2    0    0 -0.15117702248E+03  0.16020309246E+03  0.41486565594E+03  0.48606039874E+03  0.12498670243E+03 0.  0.
          2    1    1    2  501    0  0.13583799116E+03 -0.11689169263E+03 -0.70596701575E+03  0.72835777951E+03  0.00000000000E+00 0. -1.
          1    1    1    2  502    0  0.15339031318E+02 -0.43311399833E+02  0.13083835607E+04  0.13091900952E+04  0.00000000000E+00 0. -1.
         22    1    3    3    0    0 -0.14763685795E+03  0.11637771451E+03  0.39572217926E+03  0.43810553229E+03  0.00000000000E+00 0.  1.
         22    1    3    3    0    0 -0.35401645300E+01  0.43825377951E+02  0.19143476682E+02  0.47954866457E+02  0.00000000000E+00 0.  1.
</event>
<event>
 7    1  0.6173324E-006  0.1845805E+03  0.7818608E-02  0.1273731E+00
          2   -1    0    0  502    0  0.00000000000E+00  0.00000000000E+00  0.37500809474E+03  0.37500809474E+03  0.00000000000E+00 0. -1.
          1   -1    0    0  501    0 -0.00000000000E+00 -0.00000000000E+00 -0.25028742377E+03  0.25028742377E+03  0.00000000000E+00 0. -1.
         25    2    1    2    0    0  0.69213245572E+02  0.12717976926E+03 -0.11933484761E+03  0.22546184714E+03  0.12500828608E+03 0.  0.
          2    1    1    2  501    0 -0.12596869527E+02  0.56294197746E+02 -0.30145786588E+02  0.65088295958E+02  0.00000000000E+00 0. -1.
          1    1    1    2  502    0 -0.56616376045E+02 -0.18347396701E+03  0.27420130517E+03  0.33474537542E+03  0.00000000000E+00 0. -1.
         22    1    3    3    0    0  0.30444699865E+02 -0.65681222825E+01 -0.71892166472E+02  0.78348602924E+02  0.00000000000E+00 0. -1.
         22    1    3    3    0    0  0.38768545707E+02  0.13374789155E+03 -0.47442681134E+02  0.14711324421E+03  0.00000000000E+00 0. -1.
</event>
<event>
 7    1  0.6173324E-006  0.7780678E+02  0.7818608E-02  0.1339832E+00
          2   -1    0    0  502    0  0.00000000000E+00  0.00000000000E+00  0.68161012014E+03  0.68161012014E+03  0.00000000000E+00 0. -1.
          1   -1    0    0  501    0 -0.00000000000E+00 -0.00000000000E+00 -0.28386320209E+03  0.28386320209E+03  0.00000000000E+00 0. -1.
         25    2    1    2    0    0  0.14297470663E+03  0.49838038484E+02  0.31484838242E+03  0.37105274476E+03  0.12500015464E+03 0.  0.
          2    1    1    2  501    0 -0.72507783764E+02 -0.24567372191E+02 -0.24572679557E+03  0.25737636361E+03  0.00000000000E+00 0. -1.
          1    1    1    2  502    0 -0.70466922867E+02 -0.25270666293E+02  0.32862533120E+03  0.33704421386E+03  0.00000000000E+00 0. -1.
         22    1    3    3    0    0 -0.10590409925E+01 -0.24575500693E+02  0.93515200667E+02  0.96696274788E+02  0.00000000000E+00 0. -1.
         22    1    3    3    0    0  0.14403374762E+03  0.74413539177E+02  0.22133318176E+03  0.27435646997E+03  0.00000000000E+00 0. -1.
</event>
<event>
 7    1  0.6173324E-006  0.1237791E+03  0.7818608E-02  0.1312256E+00
          2   -1    0    0  502    0  0.00000000000E+00  0.00000000000E+00  0.24952603500E+04  0.24952603500E+04  0.00000000000E+00 0. -1.
          1   -1    0    0  501    0 -0.00000000000E+00 -0.00000000000E+00 -0.12768619438E+04  0.12768619438E+04  0.00000000000E+00 0. -1.
         25    2    1    2    0    0 -0.77364131498E+02 -0.85475897009E+02  0.17146122891E+03  0.24150569360E+03  0.12503883080E+03 0.  0.
          2    1    1    2  501    0  0.48152455683E+02 -0.35907696176E+02 -0.12394092471E+04  0.12408639343E+04  0.00000000000E+00 0. -1.
          1    1    1    2  502    0  0.29211675815E+02  0.12138359318E+03  0.22863464244E+04  0.22897526659E+04  0.00000000000E+00 0. -1.
         22    1    3    3    0    0 -0.12568722807E+02 -0.26090995236E+02 -0.16982719999E+02  0.33572691342E+02  0.00000000000E+00 0.  1.
         22    1    3    3    0    0 -0.64795408691E+02 -0.59384901773E+02  0.18844394891E+03  0.20793300226E+03  0.00000000000E+00 0.  1.
</event>
<event>
 7    1  0.6173324E-006  0.8320332E+02  0.7818608E-02  0.1452973E+00
          2   -1    0    0  502    0  0.00000000000E+00  0.00000000000E+00  0.16642192238E+04  0.16642192238E+04  0.00000000000E+00 0. -1.
          1   -1    0    0  501    0 -0.00000000000E+00 -0.00000000000E+00 -0.79932124633E+02  0.79932124633E+02  0.00000000000E+00 0. -1.
         25    2    1    2    0    0  0.73148245536E+02  0.19945745390E+01  0.13210479891E+03  0.19603099414E+03  0.12498731382E+03 0.  0.
          2    1    1    2  501    0 -0.81212077008E+02 -0.29228066898E+02 -0.88935022719E+01  0.86768518077E+02  0.00000000000E+00 0. -1.
          1    1    1    2  502    0  0.80638314722E+01  0.27233492359E+02  0.14610758025E+04  0.14613518362E+04  0.00000000000E+00 0. -1.
         22    1    3    3    0    0  0.36320733836E+02  0.13170500085E+02  0.14905285277E+03  0.15397860468E+03  0.00000000000E+00 0.  1.
         22    1    3    3    0    0  0.36827511700E+02 -0.11175925546E+02 -0.16948053861E+02  0.42052389462E+02  0.00000000000E+00 0.  1.
</event>
<event>
 7    1  0.6173324E-006  0.6525158E+02  0.7818608E-02  0.1466492E+00
          2   -1    0    0  502    0  0.00000000000E+00  0.00000000000E+00  0.10537195250E+04  0.10537195250E+04  0.00000000000E+00 0. -1.
          1   -1    0    0  501    0 -0.00000000000E+00 -0.00000000000E+00 -0.82977605200E+03  0.82977605200E+03  0.00000000000E+00 0. -1.
         25    2    1    2    0    0 -0.86383544047E+02  0.31777610648E+02 -0.49013745287E+03  0.51413408071E+03  0.12500878778E+03 0.  0.
          2    1    1    2  501    0  0.55097385657E+02 -0.21836561216E+02 -0.32469867941E+03  0.33006331169E+03  0.00000000000E+00 0. -1.
          1    1    1    2  502    0  0.31286158390E+02 -0.99410494323E+01  0.10387796053E+04  0.10392981846E+04  0.00000000000E+00 0. -1.
         22    1    3    3    0    0 -0.18006602696E+02 -0.44805178735E+02 -0.10541435978E+03  0.11594795829E+03  0.00000000000E+00 0. -1.
         22    1    3    3    0    0 -0.68376941351E+02  0.76582789383E+02 -0.38472309308E+03  0.39818612242E+03  0.00000000000E+00 0. -1.
</event>
<event>
 7    1  0.6173324E-006  0.1075902E+03  0.7818608E-02  0.1308962E+00
          2   -1    0    0  502    0  0.00000000000E+00  0.00000000000E+00  0.83356688879E+02  0.83356688879E+02  0.00000000000E+00 0. -1.
          1   -1    0    0  501    0 -0.00000000000E+00 -0.00000000000E+00 -0.94066493061E+03  0.94066493061E+03  0.00000000000E+00 0. -1.
         25    2    1    2    0    0  0.58908964464E+02  0.27571051154E+02 -0.43034032270E+03  0.45282402595E+03  0.12500550459E+03 0.  0.
          2    1    1    2  501    0 -0.33588770497E+01  0.71120360283E+02 -0.45002558235E+03  0.45562310353E+03  0.00000000000E+00 0. -1.
          1    1    1    2  502    0 -0.55550087414E+02 -0.98691411437E+02  0.23057663319E+02  0.11557449001E+03  0.00000000000E+00 0. -1.
         22    1    3    3    0    0  0.92886198034E+02  0.73415908877E+01 -0.22194323826E+03  0.24070842476E+03  0.00000000000E+00 0. -1.
         22    1    3    3    0    0 -0.33977233570E+02  0.20229460266E+02 -0.20839708444E+03  0.21211560119E+03  0.00000000000E+00 0. -1.
</event>
<event>
 7    1  0.6173324E-006  0.1196793E+03  0.7818608E-02  0.1345901E+00
          2   -1    0    0  502    0  0.00000000000E+00  0.00000000000E+00  0.58092276441E+03  0.58092276441E+03  0.00000000000E+00 0. -1.
          1   -1    0    0  501    0 -0.00000000000E+00 -0.00000000000E+00 -0.81312945415E+02  0.81312945415E+02  0.00000000000E+00 0. -1.
         25    2    1    2    0    0 -0.11271125677E+01 -0.11438013301E+03  0.37952799719E+03  0.41563411935E+03  0.12500454115E+03 0.  0.
          2    1    1    2  501    0  0.47260467262E+02  0.11214841117E+03  0.41081028996E+01  0.12176902071E+03  0.00000000000E+00 0. -1.
          1    1    1    2  502    0 -0.46133354695E+02  0.22317218371E+01  0.11597371890E+03  0.12483256976E+03  0.00000000000E+00 0. -1.
         22    1    3    3    0    0  0.45554274350E+02 -0.68443466131E+02  0.30741465107E+03  0.31821921322E+03  0.00000000000E+00 0. -1.
         22    1    3    3    0    0 -0.46681386918E+02 -0.45936666879E+02  0.72113346116E+02  0.97414906132E+02  0.00000000000E+00 0. -1.
</event>
<event>
 7    1  0.6173324E-006  0.1015280E+03  0.7818608E-02  0.1324264E+00
          2   -1    0    0  502    0  0.00000000000E+00  0.00000000000E+00  0.24755313226E+04  0.24755313226E+04  0.00000000000E+00 0. -1.
          1   -1    0    0  501    0 -0.00000000000E+00 -0.00000000000E+00 -0.34409735818E+03  0.34409735818E+03  0.00000000000E+00 0. -1.
         25    2    1    2    0    0 -0.10999524218E+02 -0.14601843028E+03  0.34195438764E+02  0.19554117858E+03  0.12499861189E+03 0.  0.
          2    1    1    2  501    0  0.42673213421E+02  0.50036822662E+02 -0.25821947961E+03  0.26646197931E+03  0.00000000000E+00 0. -1.
          1    1    1    2  502    0 -0.31673689202E+02  0.95981607614E+02  0.23554580052E+04  0.23576255228E+04  0.00000000000E+00 0. -1.
         22    1    3    3    0    0 -0.28951586060E+02 -0.63354156357E+02  0.74368726220E+02  0.10189529382E+03  0.00000000000E+00 0. -1.
         22    1    3    3    0    0  0.17952061842E+02 -0.82664273919E+02 -0.40173287456E+02  0.93645884757E+02  0.00000000000E+00 0. -1.
</event>
<event>
 7    1  0.6173324E-006  0.9817620E+02  0.7818608E-02  0.1404217E+00
          2   -1    0    0  502    0  0.00000000000E+00  0.00000000000E+00  0.69410888139E+03  0.69410888139E+03  0.00000000000E+00 0. -1.
          1   -1    0    0  501    0 -0.00000000000E+00 -0.00000000000E+00 -0.36792076796E+03  0.36792076796E+03  0.00000000000E+00 0. -1.
         25    2    1    2    0    0 -0.78180785393E+02  0.83319915902E+02  0.36151225329E+02  0.17316477559E+03  0.12499873928E+03 0.  0.
          2    1    1    2  501    0  0.84075721910E+02 -0.48958288380E+02 -0.29097417473E+03  0.30680875374E+03  0.00000000000E+00 0. -1.
          1    1    1    2  502    0 -0.58949365178E+01 -0.34361627523E+02  0.58101106282E+03  0.58205612001E+03  0.00000000000E+00 0. -1.
         22    1    3    3    0    0  0.39564104040E+01  0.84551014639E+02  0.33443999304E+01  0.84709576027E+02  0.00000000000E+00 0. -1.
         22    1    3    3    0    0 -0.82137195797E+02 -0.12310987368E+01  0.32806825398E+02  0.88455199565E+02  0.00000000000E+00 0. -1.
</event>
<event>
 7    1  0.6173324E-006  0.8125946E+02  0.7818608E-02  0.1409524E+00
          2   -1    0    0  502    0  0.00000000000E+00  0.00000000000E+00  0.14849468987E+03  0.14849468987E+03  0.00000000000E+00 0. -1.
          1   -1    0    0  501    0 -0.00000000000E+00 -0.00000000000E+00 -0.10279841480E+04  0.10279841480E+04  0.00000000000E+00 0. -1.
         25    2    1    2    0    0 -0.22689695767E+02 -0.70766823294E+02 -0.19908890570E+03  0.24654599567E+03  0.12500308010E+03 0.  0.
          2    1    1    2  501    0 -0.37587972127E+02  0.14823588338E+02 -0.79104339591E+03  0.79207464839E+03  0.00000000000E+00 0. -1.
          1    1    1    2  502    0  0.60277667894E+02  0.55943234955E+02  0.11064284349E+03  0.13785819380E+03  0.00000000000E+00 0. -1.
         22    1    3    3    0    0 -0.60364198331E+01 -0.78282281707E+02 -0.43248213891E+02  0.89637949544E+02  0.00000000000E+00 0. -1.
         22    1    3    3    0    0 -0.16653275934E+02  0.75154584138E+01 -0.15584069181E+03  0.15690804612E+03  0.00000000000E+00 0. -1.
</event>
<event>
 7    1  0.6173324E-006  0.1777442E+03  0.7818608E-02  0.1315595E+00
          2   -1    0    0  502    0  0.00000000000E+00  0.00000000000E+00  0.19962303341E+04  0.19962303341E+04  0.00000000000E+00 0. -1.
          1   -1    0    0  501    0 -0.00000000000E+00 -0.00000000000E+00 -0.62906040000E+03  0.62906040000E+03  0.00000000000E+00 0. -1.
         25    2    1    2    0    0 -0.59515233504E+02 -0.20514000223E+03  0.10955717721E+04  0.11231770905E+04  0.12499914110E+03 0.  0.
          2    1    1    2  501    0  0.65143790557E+02  0.16494335233E+03 -0.60199753680E+03  0.62757553907E+03  0.00000000000E+00 0. -1.
          1    1    1    2  502    0 -0.56285570533E+01  0.40196649903E+02  0.87359569887E+03  0.87453810460E+03  0.00000000000E+00 0. -1.
         22    1    3    3    0    0 -0.86494739953E+02 -0.17701928563E+03  0.75119105002E+03  0.77659845555E+03  0.00000000000E+00 0. -1.
         22    1    3    3    0    0  0.26979506449E+02 -0.28120716602E+02  0.34438072205E+03  0.34657863493E+03  0.00000000000E+00 0. -1.
</event>
<event>
 7    1  0.6173324E-006  0.1183285E+03  0.7818608E-02  0.1348343E+00
          2   -1    0    0  502    0  0.00000000000E+00  0.00000000000E+00  0.26526416916E+03  0.26526416916E+03  0.00000000000E+00 0. -1.
          1   -1    0    0  501    0 -0.00000000000E+00 -0.00000000000E+00 -0.80331360632E+03  0.80331360632E+03  0.00000000000E+00 0. -1.
         25    2    1    2    0    0 -0.13520006456E+03 -0.84664331434E+02 -0.75348493513E+02  0.21621675892E+03  0.12500073956E+03 0.  0.
          2    1    1    2  501    0  0.91969754411E+02  0.69698576333E+02 -0.64968923598E+03  0.65985788668E+03  0.00000000000E+00 0. -1.
          1    1    1    2  502    0  0.43230310148E+02  0.14965755101E+02  0.18698829233E+03  0.19250312987E+03  0.00000000000E+00 0. -1.
         22    1    3    3    0    0 -0.10866774178E+03  0.16075302405E+01 -0.20492150525E+02  0.11059471276E+03  0.00000000000E+00 0. -1.
         22    1    3    3    0    0 -0.26532322776E+02 -0.86271861675E+02 -0.54856342988E+02  0.10562204616E+03  0.00000000000E+00 0. -1.
</event>
<event>
 7    1  0.6173324E-006  0.3091330E+03  0.7818608E-02  0.1276076E+00
          2   -1    0    0  502    0  0.00000000000E+00  0.00000000000E+00  0.19429056453E+04  0.19429056453E+04  0.00000000000E+00 0. -1.
          1   -1    0    0  501    0 -0.00000000000E+00 -0.00000000000E+00 -0.22136733879E+03  0.22136733879E+03  0.00000000000E+00 0. -1.
         25    2    1    2    0    0  0.33181387901E+03  0.39385509886E+02  0.36610522580E+03  0.51118434577E+03  0.12499892126E+03 0.  0.
          2    1    1    2  501    0 -0.29846429783E+03 -0.34693761647E+02  0.32553606887E+01  0.30049158316E+03  0.00000000000E+00 0. -1.
          1    1    1    2  502    0 -0.33349581175E+02 -0.46917482391E+01  0.13521777200E+04  0.13525970551E+04  0.00000000000E+00 0. -1.
         22    1    3    3    0    0  0.83156697769E+02  0.62683301585E+02  0.79372539233E+02  0.13093598690E+03  0.00000000000E+00 0.  1.
         22    1    3    3    0    0  0.24865718124E+03 -0.23297791699E+02  0.28673268656E+03  0.38024835887E+03  0.00000000000E+00 0.  1.
</event>
<event>
 7    1  0.6173324E-006  0.7799960E+02  0.7818608E-02  0.1403764E+00
          2   -1    0    0  502    0  0.00000000000E+00  0.00000000000E+00  0.53673242301E+03  0.53673242301E+03  0.00000000000E+00 0. -1.
          1   -1    0    0  501    0 -0.00000000000E+00 -0.00000000000E+00 -0.18880150521E+04  0.18880150521E+04  0.00000000000E+00 0. -1.
         25    2    1    2    0    0  0.80081978527E+02  0.64911509627E+02 -0.48787715512E+02  0.16920994571E+03  0.12500054870E+03 0.  0.
          2    1    1    2  501    0 -0.43889205084E+02  0.36241075416E+01 -0.17755898826E+04  0.17761359260E+04  0.00000000000E+00 0. -1.
          1    1    1    2  502    0 -0.36192773443E+02 -0.68535617168E+02  0.47309496900E+03  0.47940160342E+03  0.00000000000E+00 0. -1.
         22    1    3    3    0    0  0.29070094257E+02 -0.18901842454E+02 -0.61170568649E+02  0.70314923715E+02  0.00000000000E+00 0. -1.
         22    1    3    3    0    0  0.51011884270E+02  0.83813352081E+02  0.12382853136E+02  0.98895021996E+02  0.00000000000E+00 0. -1.
</event>
<event>
 7    1  0.6173324E-006  0.1262249E+03  0.7818608E-02  0.1267901E+00
          2   -1    0    0  502    0  0.00000000000E+00  0.00000000000E+00  0.84550544402E+03  0.84550544402E+03  0.00000000000E+00 0. -1.
          1   -1    0    0  501    0 -0.00000000000E+00 -0.00000000000E+00 -0.30504167116E+03  0.30504167116E+03  0.00000000000E+00 0. -1.
         25    2    1    2    0    0  0.54411817455E+02 -0.82276669795E+02  0.69746959661E+02  0.17383833536E+03  0.12500012875E+03 0.  0.
          2    1    1    2  501    0 -0.74979526034E+02 -0.48395637904E+02 -0.23881863545E+03  0.25494785296E+03  0.00000000000E+00 0. -1.
          1    1    1    2  502    0  0.20567708579E+02  0.13067230770E+03  0.70953544865E+03  0.72176092685E+03  0.00000000000E+00 0. -1.
         22    1    3    3    0    0  0.83902235610E+02 -0.63967065676E+02  0.11630341017E+02  0.10614440854E+03  0.00000000000E+00 0.  1.
         22    1    3    3    0    0 -0.29490418155E+02 -0.18309604119E+02  0.58116618644E+02  0.67693926822E+02  0.00000000000E+00 0.  1.
</event>
<event>
 7    1  0.6173324E-006  0.7388378E+02  0.7818608E-02  0.1409434E+00
          2   -1    0    0  502    0  0.00000000000E+00  0.00000000000E+00  0.11446509659E+04  0.11446509659E+04  0.00000000000E+00 0. -1.
          1   -1    0    0  501    0 -0.00000000000E+00 -0.00000000000E+00 -0.26344168671E+03  0.26344168671E+03  0.00000000000E+00 0. -1.
         25    2    1    2    0    0  0.83983976242E+02  0.52869400308E+02  0.43042682815E+02  0.16530567794E+03  0.12499925144E+03 0.  0.
          2    1    1    2  501    0 -0.11112023129E+02 -0.43059464148E+02 -0.19854845746E+03  0.20346764969E+03  0.00000000000E+00 0. -1.
          1    1    1    2  502    0 -0.72871953113E+02 -0.98099361608E+01  0.10367150538E+04  0.10393193249E+04  0.00000000000E+00 0. -1.
         22    1    3    3    0    0 -0.20817157475E+02 -0.14076955068E+02 -0.13690467676E+02  0.28617190892E+02  0.00000000000E+00 0.  1.
         22    1    3    3    0    0  0.10480113372E+03  0.66946355377E+02  0.56733150492E+02  0.13668848705E+03  0.00000000000E+00 0.  1.
</event>
<event>
 7    1  0.6173324E-006  0.1146704E+03  0.7818608E-02  0.1317632E+00
          2   -1    0    0  502    0  0.00000000000E+00  0.00000000000E+00  0.18762350634E+04  0.18762350634E+04  0.00000000000E+00 0. -1.
          1   -1    0    0  501    0 -0.00000000000E+00 -0.00000000000E+00 -0.63367325224E+03  0.63367325224E+03  0.00000000000E+00 0. -1.
         25    2    1    2    0    0 -0.10203611859E+03  0.29498145366E+02  0.29580144942E+03  0.33824063842E+03  0.12500688750E+03 0.  0.
          2    1    1    2  501    0  0.11064375432E+03  0.31673362547E+02 -0.60642761668E+03  0.61725172867E+03  0.00000000000E+00 0. -1.
          1    1    1    2  502    0 -0.86076357376E+01 -0.61171507913E+02  0.15531879785E+04  0.15544159486E+04  0.00000000000E+00 0. -1.
         22    1    3    3    0    0 -0.11754430915E+03 -0.12338612308E+02  0.23220342448E+03  0.26055198388E+03  0.00000000000E+00 0.  1.
         22    1    3    3    0    0  0.15508190560E+02  0.41836757674E+02  0.63598024941E+02  0.77688654535E+02  0.00000000000E+00 0.  1.
</event>
<event>
 7    1  0.6173324E-006  0.2250425E+03  0.7818608E-02  0.1249895E+00
          2   -1    0    0  502    0  0.00000000000E+00  0.00000000000E+00  0.67310898199E+03  0.67310898199E+03  0.00000000000E+00 0. -1.
          1   -1    0    0  501    0 -0.00000000000E+00 -0.00000000000E+00 -0.33281009027E+04  0.33281009027E+04  0.00000000000E+00 0. -1.
         25    2    1    2    0    0  0.18154323064E+03 -0.45856447334E+02  0.33785763058E+02  0.22765623543E+03  0.12500050157E+03 0.  0.
          2    1    1    2  501    0  0.34067095436E+02 -0.49103497930E+02 -0.32052902472E+04  0.32058473590E+04  0.00000000000E+00 0. -1.
          1    1    1    2  502    0 -0.21561032608E+03  0.94959945264E+02  0.51651256338E+03  0.56770629030E+03  0.00000000000E+00 0. -1.
         22    1    3    3    0    0  0.30099695204E+01  0.29954847424E+02 -0.29345765141E+01  0.30248380783E+02  0.00000000000E+00 0.  1.
         22    1    3    3    0    0  0.17853326112E+03 -0.75811294757E+02  0.36720339572E+02  0.19740785465E+03  0.00000000000E+00 0.  1.
</event>
<event>
 7    1  0.6173324E-006  0.3377651E+02  0.7818608E-02  0.1583900E+00
          2   -1    0    0  502    0  0.00000000000E+00  0.00000000000E+00  0.16409458047E+04  0.16409458047E+04  0.00000000000E+00 0. -1.
          1   -1    0    0  501    0 -0.00000000000E+00 -0.00000000000E+00 -0.22944727689E+03  0.22944727689E+03  0.00000000000E+00 0. -1.
         25    2    1    2    0    0  0.49903102148E+01  0.28709089158E+01  0.46685473999E+03  0.48333341783E+03  0.12499879690E+03 0.  0.
          2    1    1    2  501    0 -0.16653743275E+02 -0.29475824888E+02 -0.21973036669E+03  0.22232320046E+03  0.00000000000E+00 0. -1.
          1    1    1    2  502    0  0.11663433060E+02  0.26604915972E+02  0.11643741545E+04  0.11647364633E+04  0.00000000000E+00 0. -1.
         22    1    3    3    0    0 -0.24037252194E+01  0.44074979609E+02  0.60837070660E+02  0.75163361347E+02  0.00000000000E+00 0.  1.
         22    1    3    3    0    0  0.73940354342E+01 -0.41204070693E+02  0.40601766933E+03  0.40817005648E+03  0.00000000000E+00 0.  1.
</event>
<event>
 7    1  0.6173324E-006  0.2298838E+03  0.7818608E-02  0.1249415E+00
          2   -1    0    0  502    0  0.00000000000E+00  0.00000000000E+00  0.71281186873E+03  0.71281186873E+03  0.00000000000E+00 0. -1.
          1   -1    0    0  501    0 -0.00000000000E+00 -0.00000000000E+00 -0.27697438688E+03  0.27697438688E+03  0.00000000000E+00 0. -1.
         25    2    1    2    0    0  0.18406626539E+03  0.32243882711E+02 -0.11366494408E+03  0.25192221740E+03  0.12500010434E+03 0.  0.
          2    1    1    2  501    0  0.38344023594E+02  0.44560009905E+02 -0.60316041231E+02  0.84225194911E+02  0.00000000000E+00 0. -1.
          1    1    1    2  502    0 -0.22241028898E+03 -0.76803892616E+02  0.60981846717E+03  0.65363884329E+03  0.00000000000E+00 0. -1.
         22    1    3    3    0    0  0.56002435189E+02 -0.44539092697E+02 -0.59576257954E+02  0.93109258601E+02  0.00000000000E+00 0.  1.
         22    1    3    3    0    0  0.12806383020E+03  0.76782975408E+02 -0.54088686125E+02  0.15881295880E+03  0.00000000000E+00 0.  1.
</event>
<event>
 7    1  0.6173324E-006  0.1929016E+03  0.7818608E-02  0.1256985E+00
          2   -1    0    0  502    0  0.00000000000E+00  0.00000000000E+00  0.45748012933E+04  0.45748012933E+04  0.00000000000E+00 0. -1.
          1   -1    0    0  501    0 -0.00000000000E+00 -0.00000000000E+00 -0.20353465896E+02  0.20353465896E+02  0.00000000000E+00 0. -1.
         25    2    1    2    0    0 -0.10036165889E+03 -0.15293912854E+03  0.15727461810E+04  0.15882752532E+04  0.12499956172E+03 0.  0.
          2    1    1    2  501    0 -0.57802205407E+02  0.29687240049E+02  0.10694713010E+03  0.12514038441E+03  0.00000000000E+00 0. -1.
          1    1    1    2  502    0  0.15816386429E+03  0.12325188849E+03  0.28747545163E+04  0.28817391216E+04  0.00000000000E+00 0. -1.
         22    1    3    3    0    0  0.25728360007E+02 -0.45128086167E+02  0.26454302918E+03  0.26959507963E+03  0.00000000000E+00 0. -1.
         22    1    3    3    0    0 -0.12609001889E+03 -0.10781104237E+03  0.13082031519E+04  0.13186801736E+04  0.00000000000E+00 0. -1.
</event>
<event>
 7    1  0.6173324E-006  0.8875473E+02  0.7818608E-02  0.1381809E+00
          2   -1    0    0  502    0  0.00000000000E+00  0.00000000000E+00  0.19276418306E+04  0.19276418306E+04  0.00000000000E+00 0. -1.
          1   -1    0    0  501    0 -0.00000000000E+00 -0.00000000000E+00 -0.53752597924E+03  0.53752597924E+03  0.00000000000E+00 0. -1.
         25    2    1    2    0    0 -0.55152107271E+01 -0.10558134318E+03  0.50201320104E+03  0.52803444782E+03  0.12500114595E+03 0.  0.
          2    1    1    2  501    0 -0.36437973207E+02  0.28298481102E+02 -0.52212868470E+03  0.52416304077E+03  0.00000000000E+00 0. -1.
          1    1    1    2  502    0  0.41953183934E+02  0.77282862080E+02  0.14102313350E+04  0.14129703212E+04  0.00000000000E+00 0. -1.
         22    1    3    3    0    0 -0.13097589197E+02 -0.72031921495E+02  0.96823758678E+02  0.12138774568E+03  0.00000000000E+00 0. -1.
         22    1    3    3    0    0  0.75823784703E+01 -0.33549421688E+02  0.40518944236E+03  0.40664670214E+03  0.00000000000E+00 0. -1.
</event>
<event>
 7    1  0.6173324E-006  0.1565346E+03  0.7818608E-02  0.1226776E+00
          2   -1    0    0  502    0  0.00000000000E+00  0.00000000000E+00  0.31544709696E+04  0.31544709696E+04  0.00000000000E+00 0. -1.
          1   -1    0    0  501    0 -0.00000000000E+00 -0.00000000000E+00 -0.84460975546E+03  0.84460975546E+03  0.00000000000E+00 0. -1.
         25    2    1    2    0    0  0.26038646401E+03 -0.12837979034E+02  0.33080223288E+03  0.43934095585E+03  0.12499773542E+03 0.  0.
          2    1    1    2  501    0 -0.10787567409E+03  0.13584891269E+02 -0.78448839403E+03  0.79198721625E+03  0.00000000000E+00 0. -1.
          1    1    1    2  502    0 -0.15251078992E+03 -0.74691223526E+00  0.27635473753E+04  0.27677525529E+04  0.00000000000E+00 0. -1.
         22    1    3    3    0    0 -0.53414256103E+01 -0.82488359460E+01 -0.50547509912E+01  0.11051001294E+02  0.00000000000E+00 0. -1.
         22    1    3    3    0    0  0.26572788962E+03 -0.45891430879E+01  0.33585698387E+03  0.42828995456E+03  0.00000000000E+00 0. -1.
</event>
<event>
 7    1  0.6173324E-006  0.2272386E+02  0.7818608E-02  0.1709938E+00
          2   -1    0    0  502    0  0.00000000000E+00  0.00000000000E+00  0.33461940443E+03  0.33461940443E+03  0.00000000000E+00 0. -1.
          1   -1    0    0  501    0 -0.00000000000E+00 -0.00000000000E+00 -0.85860157124E+03  0.85860157124E+03  0.00000000000E+00 0. -1.
         25    2    1    2    0    0  0.12514190641E+02 -0.10314828170E+02 -0.19308507141E+03  0.23058364559E+03  0.12499588859E+03 0.  0.
          2    1    1    2  501    0  0.48121823087E+01  0.22376760089E+02 -0.64621162714E+03  0.64661684446E+03  0.00000000000E+00 0. -1.
          1    1    1    2  502    0 -0.17326372949E+02 -0.12061931919E+02  0.31531453174E+03  0.31602048562E+03  0.00000000000E+00 0. -1.
         22    1    3    3    0    0  0.42815381588E+02 -0.52616888940E+02 -0.72695559202E+02  0.99430067031E+02  0.00000000000E+00 0. -1.
         22    1    3    3    0    0 -0.30301190947E+02  0.42302060770E+02 -0.12038951221E+03  0.13115357856E+03  0.00000000000E+00 0. -1.
</event>
<event>
 7    1  0.6173324E-006  0.5596232E+02  0.7818608E-02  0.1527460E+00
          2   -1    0    0  502    0  0.00000000000E+00  0.00000000000E+00  0.28630762382E+03  0.28630762382E+03  0.00000000000E+00 0. -1.
          1   -1    0    0  501    0 -0.00000000000E+00 -0.00000000000E+00 -0.24807760243E+03  0.24807760243E+03  0.00000000000E+00 0. -1.
         25    2    1    2    0    0 -0.24446952060E+02  0.19498236771E+02 -0.16191813379E+03  0.20693141309E+03  0.12500117188E+03 0.  0.
          2    1    1    2  501    0 -0.20612922546E+02  0.14371417729E+02 -0.58007077066E+02  0.63215909494E+02  0.00000000000E+00 0. -1.
          1    1    1    2  502    0  0.45059874606E+02 -0.33869654499E+02  0.25815523225E+03  0.26423790367E+03  0.00000000000E+00 0. -1.
         22    1    3    3    0    0  0.80698200414E+01  0.68746565320E+02 -0.97443628785E+02  0.11952603494E+03  0.00000000000E+00 0.  1.
         22    1    3    3    0    0 -0.32516772102E+02 -0.49248328549E+02 -0.64474505007E+02  0.87405378145E+02  0.00000000000E+00 0.  1.
</event>
<event>
 7    1  0.6173324E-006  0.5739839E+02  0.7818608E-02  0.1457889E+00
          2   -1    0    0  502    0  0.00000000000E+00  0.00000000000E+00  0.59040727055E+03  0.59040727055E+03  0.00000000000E+00 0. -1.
          1   -1    0    0  501    0 -0.00000000000E+00 -0.00000000000E+00 -0.35575923355E+02  0.35575923355E+02  0.00000000000E+00 0. -1.
         25    2    1    2    0    0  0.68119561438E+02  0.59902396038E+02  0.27341072520E+03  0.31401598096E+03  0.12499615970E+03 0.  0.
          2    1    1    2  501    0 -0.34466379193E+02 -0.38807894684E+02  0.35554046455E+02  0.62913227574E+02  0.00000000000E+00 0. -1.
          1    1    1    2  502    0 -0.33653182245E+02 -0.21094501355E+02  0.24586657554E+03  0.24905398538E+03  0.00000000000E+00 0. -1.
         22    1    3    3    0    0  0.32058785150E+01  0.84544314133E+02  0.13880050188E+03  0.16255336980E+03  0.00000000000E+00 0. -1.
         22    1    3    3    0    0  0.64913682923E+02 -0.24641918095E+02  0.13461022332E+03  0.15146261116E+03  0.00000000000E+00 0. -1.
</event>
<event>
 7    1  0.6173324E-006  0.5197820E+02  0.7818608E-02  0.1446697E+00
          2   -1    0    0  502    0  0.00000000000E+00  0.00000000000E+00  0.36599713814E+03  0.36599713814E+03  0.00000000000E+00 0. -1.
          1   -1    0    0  501    0 -0.00000000000E+00 -0.00000000000E+00 -0.16163873582E+04  0.16163873582E+04  0.00000000000E+00 0. -1.
         25    2    1    2    0    0  0.53377913288E+02 -0.83045214841E+01 -0.66502220500E+03  0.67882094572E+03  0.12500070602E+03 0.  0.
          2    1    1    2  501    0 -0.16248511361E+02  0.44758411922E+02 -0.94197633945E+03  0.94317906764E+03  0.00000000000E+00 0. -1.
          1    1    1    2  502    0 -0.37129401927E+02 -0.36453890437E+02  0.35660832434E+03  0.36038448302E+03  0.00000000000E+00 0. -1.
         22    1    3    3    0    0  0.84944455004E+02 -0.37693897988E+02 -0.46682495403E+03  0.47598521835E+03  0.00000000000E+00 0.  1.
         22    1    3    3    0    0 -0.31566541717E+02  0.29389376504E+02 -0.19819725097E+03  0.20283572737E+03  0.00000000000E+00 0.  1.
</event>
<event>
 7    1  0.6173324E-006  0.6252964E+02  0.7818608E-02  0.1528034E+00
          2   -1    0    0  502    0  0.00000000000E+00  0.00000000000E+00  0.44339057714E+03  0.44339057714E+03  0.00000000000E+00 0. -1.
          1   -1    0    0  501    0 -0.00000000000E+00 -0.00000000000E+00 -0.10757989712E+04  0.10757989712E+04  0.00000000000E+00 0. -1.
         25    2    1    2    0    0 -0.78153416953E+02 -0.26598930533E+02 -0.79281246182E+03  0.80684066838E+03  0.12499921939E+03 0.  0.
          2    1    1    2  501    0  0.22353473995E+02 -0.15007349434E+01 -0.27327548731E+03  0.27419230837E+03  0.00000000000E+00 0. -1.
          1    1    1    2  502    0  0.55799942958E+02  0.28099665477E+02  0.43367955501E+03  0.43815657164E+03  0.00000000000E+00 0. -1.
         22    1    3    3    0    0 -0.94758974712E+01  0.36526796463E+02 -0.44949524176E+03  0.45107645899E+03  0.00000000000E+00 0.  1.
         22    1    3    3    0    0 -0.68677519481E+02 -0.63125726997E+02 -0.34331722006E+03  0.35576420939E+03  0.00000000000E+00 0.  1.
</event>
<event>
 7    1  0.6173324E-006  0.6236492E+02  0.7818608E-02  0.1460468E+00
          2   -1    0    0  502    0  0.00000000000E+00  0.00000000000E+00  0.34638972084E+03  0.34638972084E+03  0.00000000000E+00 0. -1.
          1   -1    0    0  501    0 -0.00000000000E+00 -0.00000000000E+00 -0.73015814008E+03  0.73015814008E+03  0.00000000000E+00 0. -1.
         25    2    1    2    0    0 -0.31909720844E+02 -0.19716966131E+02 -0.30972033151E+03  0.33609641819E+03  0.12500851784E+03 0.  0.
          2    1    1    2  501    0 -0.30718710360E+02  0.18531844876E+02 -0.40350289550E+03  0.40509462490E+03  0.00000000000E+00 0. -1.
          1    1    1    2  502    0  0.62628431205E+02  0.11851212545E+01  0.32945480777E+03  0.33535681783E+03  0.00000000000E+00 0. -1.
         22    1    3    3    0    0 -0.39383143127E+01  0.13141456401E+02  0.77164115303E+01  0.15740114449E+02  0.00000000000E+00 0. -1.
         22    1    3    3    0    0 -0.27971406532E+02 -0.32858422532E+02 -0.31743674304E+03  0.32035630374E+03  0.00000000000E+00 0. -1.
</event>
<event>
 7    1  0.6173324E-006  0.1181214E+03  0.7818608E-02  0.1331710E+00
          2   -1    0    0  502    0  0.00000000000E+00  0.00000000000E+00  0.20809188810E+04  0.20809188810E+04  0.00000000000E+00 0. -1.
          1   -1    0    0  501    0 -0.00000000000E+00 -0.00000000000E+00 -0.98500798165E+03  0.98500798165E+03  0.00000000000E+00 0. -1.
         25    2    1    2    0    0 -0.52534845891E+02  0.66681267330E+02  0.11422316303E+04  0.11521827812E+04  0.12500304983E+03 0.  0.
          2    1    1    2  501    0  0.29732880555E+02 -0.11444780721E+03 -0.97570986120E+03  0.98284895991E+03  0.00000000000E+00 0. -1.
          1    1    1    2  502    0  0.22801965336E+02  0.47766539882E+02  0.92938913019E+03  0.93089512152E+03  0.00000000000E+00 0. -1.
         22    1    3    3    0    0 -0.68233910308E+02  0.95526374007E+02  0.93999302179E+03  0.94729511540E+03  0.00000000000E+00 0.  1.
         22    1    3    3    0    0  0.15699064417E+02 -0.28845106678E+02  0.20223860854E+03  0.20488766578E+03  0.00000000000E+00 0.  1.
</event>
<event>
 7    1  0.6173324E-006  0.4348288E+02  0.7818608E-02  0.1541304E+00
          2   -1    0    0  502    0  0.00000000000E+00  0.00000000000E+00  0.13339817814E+03  0.13339817814E+03  0.00000000000E+00 0. -1.
          1   -1    0    0  501    0 -0.00000000000E+00 -0.00000000000E+00 -0.41093239545E+03  0.41093239545E+03  0.00000000000E+00 0. -1.
         25    2    1    2    0    0  0.41533437430E+02 -0.29218088615E+02 -0.11941258515E+03  0.18017648785E+03  0.12500191260E+03 0.  0.
          2    1    1    2  501    0 -0.14493910682E+02  0.41095113574E+02 -0.25714983896E+03  0.26081587660E+03  0.00000000000E+00 0. -1.
          1    1    1    2  502    0 -0.27039526748E+02 -0.11877024959E+02  0.99028206792E+02  0.10333820914E+03  0.00000000000E+00 0. -1.
         22    1    3    3    0    0  0.67920694405E+02  0.21945533083E+02 -0.39168631004E+02  0.81418725153E+02  0.00000000000E+00 0. -1.
         22    1    3    3    0    0 -0.26387256975E+02 -0.51163621698E+02 -0.80243954142E+02  0.98757762693E+02  0.00000000000E+00 0. -1.
</event>
<event>
 7    1  0.6173324E-006  0.3586980E+03  0.7818608E-02  0.1204999E+00
          2   -1    0    0  502    0  0.00000000000E+00  0.00000000000E+00  0.17357803309E+04  0.17357803309E+04  0.00000000000E+00 0. -1.
          1   -1    0    0  501    0 -0.00000000000E+00 -0.00000000000E+00 -0.38762212361E+03  0.38762212361E+03  0.00000000000E+00 0. -1.
         25    2    1    2    0    0 -0.18403993678E+03  0.27559726885E+03  0.77535847688E+03  0.85242608704E+03  0.12499965303E+03 0.  0.
          2    1    1    2  501    0 -0.13872307231E+02  0.58098731085E+02 -0.30524601855E+03  0.31103542452E+03  0.00000000000E+00 0. -1.
          1    1    1    2  502    0  0.19791224401E+03 -0.33369599994E+03  0.87804574891E+03  0.95994094292E+03  0.00000000000E+00 0. -1.
         22    1    3    3    0    0 -0.19049293044E+03  0.26046961088E+03  0.64689717015E+03  0.72291626312E+03  0.00000000000E+00 0.  1.
         22    1    3    3    0    0  0.64529936577E+01  0.15127657973E+02  0.12846130673E+03  0.12950982391E+03  0.00000000000E+00 0.  1.
</event>
<event>
 7    1  0.6173324E-006  0.5510015E+02  0.7818608E-02  0.1426458E+00
          2   -1    0    0  502    0  0.00000000000E+00  0.00000000000E+00  0.38704357468E+03  0.38704357468E+03  0.00000000000E+00 0. -1.
          1   -1    0    0  501    0 -0.00000000000E+00 -0.00000000000E+00 -0.43857448815E+03  0.43857448815E+03  0.00000000000E+00 0. -1.
         25    2    1    2    0    0  0.17753553162E+01  0.48859111679E+01  0.66802434779E+02  0.14182309333E+03  0.12499680194E+03 0.  0.
          2    1    1    2  501    0  0.54000451687E+02 -0.10953422155E+02 -0.39635612229E+03  0.40016771724E+03  0.00000000000E+00 0. -1.
          1    1    1    2  502    0 -0.55775807003E+02  0.60675109874E+01  0.27802277405E+03  0.28362725226E+03  0.00000000000E+00 0. -1.
         22    1    3    3    0    0  0.16925653336E+02  0.70195931508E+00  0.10193603276E+03  0.10333404696E+03  0.00000000000E+00 0.  1.
         22    1    3    3    0    0 -0.15150298020E+02  0.41839518528E+01 -0.35133597978E+02  0.38489046364E+02  0.00000000000E+00 0.  1.
</event>
<event>
 7    1  0.6173324E-006  0.5101555E+02  0.7818608E-02  0.1491683E+00
          2   -1    0    0  502    0  0.00000000000E+00  0.00000000000E+00  0.49196948336E+03  0.49196948336E+03  0.00000000000E+00 0. -1.
          1   -1    0    0  501    0 -0.00000000000E+00 -0.00000000000E+00 -0.26719650319E+02  0.26719650319E+02  0.00000000000E+00 0. -1.
         25    2    1    2    0    0 -0.98806442181E+01  0.51474982483E+02  0.26271049331E+03  0.29561008090E+03  0.12498486182E+03 0.  0.
          2    1    1    2  501    0  0.40743567354E+02 -0.34682838588E+02  0.85342401027E+02  0.10072866020E+03  0.00000000000E+00 0. -1.
          1    1    1    2  502    0 -0.30862923136E+02 -0.16792143894E+02  0.11719693870E+03  0.12235039257E+03  0.00000000000E+00 0. -1.
         22    1    3    3    0    0  0.29863259777E+02 -0.70317361550E+01  0.86327607733E+01  0.31871368914E+02  0.00000000000E+00 0. -1.
         22    1    3    3    0    0 -0.39743903995E+02  0.58506718638E+02  0.25407773253E+03  0.26373871198E+03  0.00000000000E+00 0. -1.
</event>
<event>
 7    1  0.6173324E-006  0.1994338E+03  0.7818608E-02  0.1202646E+00
          2   -1    0    0  502    0  0.00000000000E+00  0.00000000000E+00  0.27006223586E+03  0.27006223586E+03  0.00000000000E+00 0. -1.
          1   -1    0    0  501    0 -0.00000000000E+00 -0.00000000000E+00 -0.13456784238E+04  0.13456784238E+04  0.00000000000E+00 0. -1.
         25    2    1    2    0    0 -0.18581301029E+03  0.12639042725E+03  0.43344738277E+02  0.26077729341E+03  0.12500006210E+03 0.  0.
          2    1    1    2  501    0  0.10018270036E+03  0.45896010688E+02 -0.11541328574E+04  0.11593815894E+04  0.00000000000E+00 0. -1.
          1    1    1    2  502    0  0.85630309932E+02 -0.17228643794E+03  0.35171931240E+02  0.19558177682E+03  0.00000000000E+00 0. -1.
         22    1    3    3    0    0 -0.88151928560E+02  0.13227515717E+03  0.33460870937E+02  0.16244109577E+03  0.00000000000E+00 0.  1.
         22    1    3    3    0    0 -0.97661081732E+02 -0.58847299143E+01  0.98838673402E+01  0.98336197633E+02  0.00000000000E+00 0.  1.
</event>
<event>
 7    1  0.6173324E-006  0.1817293E+03  0.7818608E-02  0.1244067E+00
          2   -1    0    0  502    0  0.00000000000E+00  0.00000000000E+00  0.21827137311E+03  0.21827137311E+03  0.00000000000E+00 0. -1.
          1   -1    0    0  501    0 -0.00000000000E+00 -0.00000000000E+00 -0.12259805722E+04  0.12259805722E+04  0.00000000000E+00 0. -1.
         25    2    1    2    0    0 -0.15675149873E+02 -0.21800468857E+03 -0.47662293780E+03  0.53904290989E+03  0.12500431713E+03 0.  0.
          2    1    1    2  501    0  0.66939841278E+02  0.15860022827E+03 -0.69898938365E+03  0.71987577623E+03  0.00000000000E+00 0. -1.
          1    1    1    2  502    0 -0.51264691405E+02  0.59404460304E+02  0.16790312232E+03  0.18533325922E+03  0.00000000000E+00 0. -1.
         22    1    3    3    0    0  0.29804926920E+02 -0.20030939529E+03 -0.39660693314E+03  0.44531926404E+03  0.00000000000E+00 0. -1.
         22    1    3    3    0    0 -0.45480076793E+02 -0.17695293280E+02 -0.80016004657E+02  0.93723645846E+02  0.00000000000E+00 0. -1.
</event>
<event>
 7    1  0.6173324E-006  0.1263657E+03  0.7818608E-02  0.1383161E+00
          2   -1    0    0  502    0  0.00000000000E+00  0.00000000000E+00  0.44290075700E+03  0.44290075700E+03  0.00000000000E+00 0. -1.
          1   -1    0    0  501    0 -0.00000000000E+00 -0.00000000000E+00 -0.16255090559E+03  0.16255090559E+03  0.00000000000E+00 0. -1.
         25    2    1    2    0    0 -0.70742977161E+02  0.86661188884E+02  0.51470013466E+02  0.17546820485E+03  0.12500079260E+03 0.  0.
          2    1    1    2  501    0 -0.31393288171E+02 -0.64561903433E+01 -0.84708375724E+02  0.90568923223E+02  0.00000000000E+00 0. -1.
          1    1    1    2  502    0  0.10213626533E+03 -0.80204998541E+02  0.31358821367E+03  0.33941453451E+03  0.00000000000E+00 0. -1.
         22    1    3    3    0    0  0.20956956223E+02  0.66671710126E+02  0.32772268216E+01  0.69964642220E+02  0.00000000000E+00 0.  1.
         22    1    3    3    0    0 -0.91699933384E+02  0.19989478758E+02  0.48192786644E+02  0.10550356263E+03  0.00000000000E+00 0.  1.
</event>
<event>
 7    1  0.6173324E-006  0.4473871E+02  0.7818608E-02  0.1559746E+00
          2   -1    0    0  502    0  0.00000000000E+00  0.00000000000E+00  0.12656381028E+04  0.12656381028E+04  0.00000000000E+00 0. -1.
          1   -1    0    0  501    0 -0.00000000000E+00 -0.00000000000E+00 -0.28352693632E+03  0.28352693632E+03  0.00000000000E+00 0. -1.
         25    2    1    2    0    0  0.44190481636E+02 -0.41599632528E+02 -0.17871101556E+03  0.22638282168E+03  0.12501290643E+03 0.  0.
          2    1    1    2  501    0 -0.38192698071E+02  0.16815409748E+02 -0.75463658567E+02  0.86233427134E+02  0.00000000000E+00 0. -1.
          1    1    1    2  502    0 -0.59977835647E+01  0.24784222780E+02  0.12362858406E+04  0.12365487903E+04  0.00000000000E+00 0. -1.
         22    1    3    3    0    0 -0.38628345540E+02 -0.13549149028E+02 -0.10257299537E+03  0.11043979309E+03  0.00000000000E+00 0.  1.
         22    1    3    3    0    0  0.82818827176E+02 -0.28050483500E+02 -0.76138020190E+02  0.11594302859E+03  0.00000000000E+00 0.  1.
</event>
<event>
 7    1  0.6173324E-006  0.7753102E+02  0.7818608E-02  0.1383516E+00
          2   -1    0    0  502    0  0.00000000000E+00  0.00000000000E+00  0.27226444301E+03  0.27226444301E+03  0.00000000000E+00 0. -1.
          1   -1    0    0  501    0 -0.00000000000E+00 -0.00000000000E+00 -0.13571059242E+03  0.13571059242E+03  0.00000000000E+00 0. -1.
         25    2    1    2    0    0 -0.57623431501E+02  0.52474721640E+02  0.11302742304E+03  0.18567177678E+03  0.12499901625E+03 0.  0.
          2    1    1    2  501    0  0.43545982902E+02  0.28580793756E+02 -0.76651069205E+02  0.92674164733E+02  0.00000000000E+00 0. -1.
          1    1    1    2  502    0  0.14077448598E+02 -0.81055515396E+02  0.10017749674E+03  0.12962909391E+03  0.00000000000E+00 0. -1.
         22    1    3    3    0    0 -0.62283450243E+02  0.37758211462E+02  0.12624052671E+01  0.72845757420E+02  0.00000000000E+00 0.  1.
         22    1    3    3    0    0  0.46600187422E+01  0.14716510178E+02  0.11176501778E+03  0.11282601936E+03  0.00000000000E+00 0.  1.
</event>
<event>
 7    1  0.6173324E-006  0.1593504E+03  0.7818608E-02  0.1284029E+00
          2   -1    0    0  502    0  0.00000000000E+00  0.00000000000E+00  0.39485314164E+03  0.39485314164E+03  0.00000000000E+00 0. -1.
          1   -1    0    0  501    0 -0.00000000000E+00 -0.00000000000E+00 -0.87219298209E+03  0.87219298209E+03  0.00000000000E+00 0. -1.
         25    2    1    2    0    0 -0.12894193063E+03 -0.65397595775E+02 -0.17893504964E+03  0.26181226620E+03  0.12500017494E+03 0.  0.
          2    1    1    2  501    0 -0.31871406587E+02  0.51509244578E+02 -0.63186508623E+03  0.63476174745E+03  0.00000000000E+00 0. -1.
          1    1    1    2  502    0  0.16081333722E+03  0.13888351197E+02  0.33346029542E+03  0.37047211008E+03  0.00000000000E+00 0. -1.
         22    1    3    3    0    0 -0.37636410282E+02 -0.80076554314E+02 -0.45582696834E+02  0.99531583834E+02  0.00000000000E+00 0. -1.
         22    1    3    3    0    0 -0.91305520350E+02  0.14678958540E+02 -0.13335235281E+03  0.16228068237E+03  0.00000000000E+00 0. -1.
</event>
<event>
 7    1  0.6173324E-006  0.1219899E+03  0.7818608E-02  0.1246305E+00
          2   -1    0    0  502    0  0.00000000000E+00  0.00000000000E+00  0.14071125086E+04  0.14071125086E+04  0.00000000000E+00 0. -1.
          1   -1    0    0  501    0 -0.00000000000E+00 -0.00000000000E+00 -0.35603582829E+02  0.35603582829E+02  0.00000000000E+00 0. -1.
         25    2    1    2    0    0  0.94760529492E+02 -0.33807214980E+02  0.61145878670E+03  0.63216188911E+03  0.12499728189E+03 0.  0.
          2    1    1    2  501    0  0.40902607477E+02  0.11492832936E+03  0.28904163920E+03  0.31373016014E+03  0.00000000000E+00 0. -1.
          1    1    1    2  502    0 -0.13566313697E+03 -0.81121114384E+02  0.47100849983E+03  0.49682404213E+03  0.00000000000E+00 0. -1.
         22    1    3    3    0    0  0.77334841715E+01 -0.61997894712E+02  0.16512107702E+03  0.17654607275E+03  0.00000000000E+00 0.  1.
         22    1    3    3    0    0  0.87027045321E+02  0.28190679731E+02  0.44633770968E+03  0.45561581637E+03  0.00000000000E+00 0.  1.
</event>
<event>
 7    1  0.6173324E-006  0.1146205E+03  0.7818608E-02  0.1370002E+00
          2   -1    0    0  502    0  0.00000000000E+00  0.00000000000E+00  0.16899164264E+04  0.16899164264E+04  0.00000000000E+00 0. -1.
          1   -1    0    0  501    0 -0.00000000000E+00 -0.00000000000E+00 -0.47188448724E+03  0.47188448724E+03  0.00000000000E+00 0. -1.
         25    2    1    2    0    0 -0.13361341912E+03  0.52291393323E+02  0.75493248568E+03  0.77854645618E+03  0.12499836360E+03 0.  0.
          2    1    1    2  501    0  0.29719577376E+02 -0.25804495181E+02 -0.45611410413E+03  0.45780913189E+03  0.00000000000E+00 0. -1.
          1    1    1    2  502    0  0.10389384175E+03 -0.26486898143E+02  0.91921355763E+03  0.92544532559E+03  0.00000000000E+00 0. -1.
         22    1    3    3    0    0 -0.47666452990E+02  0.95722041162E+01  0.55118085607E+03  0.55332093213E+03  0.00000000000E+00 0. -1.
         22    1    3    3    0    0 -0.85946966134E+02  0.42719189207E+02  0.20375162961E+03  0.22522552405E+03  0.00000000000E+00 0. -1.
</event>
<event>
 7    1  0.6173324E-006  0.9729829E+02  0.7818608E-02  0.1328039E+00
          2   -1    0    0  502    0  0.00000000000E+00  0.00000000000E+00  0.57423122158E+02  0.57423122158E+02  0.00000000000E+00 0. -1.
          1   -1    0    0  501    0 -0.00000000000E+00 -0.00000000000E+00 -0.25200037500E+04  0.25200037500E+04  0.00000000000E+00 0. -1.
         25    2    1    2    0    0  0.16889191526E+02 -0.56254227948E+02 -0.40511371862E+03  0.42800686541E+03  0.12499187523E+03 0.  0.
          2    1    1    2  501    0  0.36013521785E+02  0.96327840250E+02 -0.20775399646E+04  0.20800837318E+04  0.00000000000E+00 0. -1.
          1    1    1    2  502    0 -0.52902713311E+02 -0.40073612302E+02  0.20073055378E+02  0.69336274999E+02  0.00000000000E+00 0. -1.
         22    1    3    3    0    0  0.96455314401E+01 -0.65424512236E+02 -0.85076074176E+02  0.10775593476E+03  0.00000000000E+00 0.  1.
         22    1    3    3    0    0  0.72436600860E+01  0.91702842886E+01 -0.32003764444E+03  0.32025093065E+03  0.00000000000E+00 0.  1.
</event>
<event>
 7    1  0.6173324E-006  0.1165859E+03  0.7818608E-02  0.1391540E+00
          2   -1    0    0  502    0  0.00000000000E+00  0.00000000000E+00  0.26049715086E+03  0.26049715086E+03  0.00000000000E+00 0. -1.
          1   -1    0    0  501    0 -0.00000000000E+00 -0.00000000000E+00 -0.96816114419E+03  0.96816114419E+03  0.00000000000E+00 0. -1.
         25    2    1    2    0    0 -0.93931267148E+02  0.66256838444E+02 -0.25448667387E+03  0.30594066583E+03  0.12499268876E+03 0.  0.
          2    1    1    2  501    0  0.11109384694E+03 -0.38695111311E+02 -0.68176272087E+03  0.69183781484E+03  0.00000000000E+00 0. -1.
          1    1    1    2  502    0 -0.17162579789E+02 -0.27561727132E+02  0.22858540141E+03  0.23087981438E+03  0.00000000000E+00 0. -1.
         22    1    3    3    0    0  0.12535579345E+02  0.60481800178E+02 -0.74861655469E+02  0.97053883806E+02  0.00000000000E+00 0. -1.
         22    1    3    3    0    0 -0.10646684649E+03  0.57750382654E+01 -0.17962501841E+03  0.20888678203E+03  0.00000000000E+00 0. -1.
</event>
<event>
 7    1  0.6173324E-006  0.1734741E+03  0.7818608E-02  0.1179083E+00
          2   -1    0    0  502    0  0.00000000000E+00  0.00000000000E+00  0.11874441021E+04  0.11874441021E+04  0.00000000000E+00 0. -1.
          1   -1    0    0  501    0 -0.00000000000E+00 -0.00000000000E+00 -0.78629376431E+02  0.78629376431E+02  0.00000000000E+00 0. -1.
         25    2    1    2    0    0 -0.14549037401E+02  0.12138108300E+03  0.14085575473E+03  0.22452068405E+03  0.12499660845E+03 0.  0.
          2    1    1    2  501    0  0.15853433092E+03  0.43118100976E+02  0.46369082524E+03  0.49193646554E+03  0.00000000000E+00 0. -1.
          1    1    1    2  502    0 -0.14398529352E+03 -0.16449918398E+03  0.50426814573E+03  0.54961632898E+03  0.00000000000E+00 0. -1.
         22    1    3    3    0    0 -0.22497560535E+01  0.95376494347E+02  0.16423230292E+02  0.96806299224E+02  0.00000000000E+00 0.  1.
         22    1    3    3    0    0 -0.12299281348E+02  0.26004588657E+02  0.12443252444E+03  0.12771438483E+03  0.00000000000E+00 0.  1.
</event>
<event>
 7    1  0.6173324E-006  0.5124671E+02  0.7818608E-02  0.1449235E+00
          2   -1    0    0  502    0  0.00000000000E+00  0.00000000000E+00  0.16939231066E+04  0.16939231066E+04  0.00000000000E+00 0. -1.
          1   -1    0    0  501    0 -0.00000000000E+00 -0.00000000000E+00 -0.35302444700E+03  0.35302444700E+03  0.00000000000E+00 0. -1.
         25    2    1    2    0    0 -0.35884679470E+01 -0.58041971162E+01  0.14181871085E+02  0.12598427850E+03  0.12499738859E+03 0.  0.
          2    1    1    2  501    0 -0.36124491645E+01  0.52652844930E+02 -0.29443050560E+03  0.29912320956E+03  0.00000000000E+00 0. -1.
          1    1    1    2  502    0  0.72009171115E+01 -0.46848647814E+02  0.16211472941E+04  0.16218400655E+04  0.00000000000E+00 0. -1.
         22    1    3    3    0    0 -0.27651096060E+02 -0.96534079488E+01 -0.49658087145E+02  0.57651513573E+02  0.00000000000E+00 0.  1.
         22    1    3    3    0    0  0.24062628113E+02  0.38492108325E+01  0.63839958230E+02  0.68332764927E+02  0.00000000000E+00 0.  1.
</event>
<event>
 7    1  0.6173324E-006  0.5948587E+02  0.7818608E-02  0.1440470E+00
          2   -1    0    0  502    0  0.00000000000E+00  0.00000000000E+00  0.48962500811E+02  0.48962500811E+02  0.00000000000E+00 0. -1.
          1   -1    0    0  501    0 -0.00000000000E+00 -0.00000000000E+00 -0.58727887422E+03  0.58727887422E+03  0.00000000000E+00 0. -1.
         25    2    1    2    0    0  0.71964039559E+02 -0.49517150116E+02 -0.12251501653E+03  0.19561849853E+03  0.12500358613E+03 0.  0.
          2    1    1    2  501    0 -0.42812463262E+02  0.81335468284E+01 -0.36937406344E+03  0.37193582825E+03  0.00000000000E+00 0. -1.
          1    1    1    2  502    0 -0.29151576297E+02  0.41383603287E+02 -0.46427293443E+02  0.68687048255E+02  0.00000000000E+00 0. -1.
         22    1    3    3    0    0  0.83762011374E+02 -0.79637139311E+02 -0.11361227671E+03  0.16206757210E+03  0.00000000000E+00 0. -1.
         22    1    3    3    0    0 -0.11797971815E+02  0.30119989195E+02 -0.89027398253E+01  0.33550926432E+02  0.00000000000E+00 0. -1.
</event>
<event>
 7    1  0.6173324E-006  0.6335517E+02  0.7818608E-02  0.1486369E+00
          2   -1    0    0  502    0  0.00000000000E+00  0.00000000000E+00  0.40469641524E+03  0.40469641524E+03  0.00000000000E+00 0. -1.
          1   -1    0    0  501    0 -0.00000000000E+00 -0.00000000000E+00 -0.13761863751E+03  0.13761863751E+03  0.00000000000E+00 0. -1.
         25    2    1    2    0    0  0.30300984134E+02 -0.33223568748E+02  0.25074956049E+03  0.28376426446E+03  0.12499944215E+03 0.  0.
          2    1    1    2  501    0 -0.58683745853E+02  0.25709557986E+02 -0.11084690870E+03  0.12803046734E+03  0.00000000000E+00 0. -1.
          1    1    1    2  502    0  0.28382761719E+02  0.75140107625E+01  0.12717512594E+03  0.13052032094E+03  0.00000000000E+00 0. -1.
         22    1    3    3    0    0 -0.33379824275E+02 -0.53850359518E+02  0.14969695079E+03  0.16255230224E+03  0.00000000000E+00 0.  1.
         22    1    3    3    0    0  0.63680808409E+02  0.20626790770E+02  0.10105260971E+03  0.12121196222E+03  0.00000000000E+00 0.  1.
</event>
<event>
 7    1  0.6173324E-006  0.9984480E+02  0.7818608E-02  0.1405658E+00
          2   -1    0    0  502    0  0.00000000000E+00  0.00000000000E+00  0.99815353558E+03  0.99815353558E+03  0.00000000000E+00 0. -1.
          1   -1    0    0  501    0 -0.00000000000E+00 -0.00000000000E+00 -0.17767904188E+04  0.17767904188E+04  0.00000000000E+00 0. -1.
         25    2    1    2    0    0  0.82860350327E+02  0.37309409671E+00  0.55702227690E+02  0.15998022942E+03  0.12499983512E+03 0.  0.
          2    1    1    2  501    0  0.13321927309E+02 -0.31166979622E+02 -0.17216201046E+04  0.17219537273E+04  0.00000000000E+00 0. -1.
          1    1    1    2  502    0 -0.96182277635E+02  0.30793885525E+02  0.88728099376E+03  0.89300999760E+03  0.00000000000E+00 0. -1.
         22    1    3    3    0    0  0.76565762223E+02  0.49260306946E+02  0.80124257353E+01  0.91395255628E+02  0.00000000000E+00 0. -1.
         22    1    3    3    0    0  0.62945881032E+01 -0.48887212849E+02  0.47689801955E+02  0.68584973792E+02  0.00000000000E+00 0. -1.
</event>
<event>
 7    1  0.6173324E-006  0.8055069E+02  0.7818608E-02  0.1426792E+00
          2   -1    0    0  502    0  0.00000000000E+00  0.00000000000E+00  0.20015881911E+04  0.20015881911E+04  0.00000000000E+00 0. -1.
          1   -1    0    0  501    0 -0.00000000000E+00 -0.00000000000E+00 -0.54538089505E+03  0.54538089505E+03  0.00000000000E+00 0. -1.
         25    2    1    2    0    0 -0.39183855554E+01  0.11553970916E+03  0.13776659277E+03  0.21901824322E+03  0.12499831456E+03 0.  0.
          2    1    1    2  501    0  0.29914167580E+01 -0.79872695361E+02 -0.50141490826E+03  0.50774551329E+03  0.00000000000E+00 0. -1.
          1    1    1    2  502    0  0.92696879742E+00 -0.35667013799E+02  0.18198556115E+04  0.18202053296E+04  0.00000000000E+00 0. -1.
         22    1    3    3    0    0 -0.97910987537E+01 -0.56027102396E+01 -0.18219245986E+02  0.21428880072E+02  0.00000000000E+00 0.  1.
         22    1    3    3    0    0  0.58727131983E+01  0.12114241940E+03  0.15598583875E+03  0.19758936315E+03  0.00000000000E+00 0.  1.
</event>
<event>
 7    1  0.6173324E-006  0.7528558E+02  0.7818608E-02  0.1357507E+00
          2   -1    0    0  502    0  0.00000000000E+00  0.00000000000E+00  0.68575112529E+03  0.68575112529E+03  0.00000000000E+00 0. -1.
          1   -1    0    0  501    0 -0.00000000000E+00 -0.00000000000E+00 -0.44633323585E+03  0.44633323585E+03  0.00000000000E+00 0. -1.
         25    2    1    2    0    0 -0.44015370355E+02  0.16434895012E+02 -0.18517549961E+03  0.22830584991E+03  0.12500454730E+03 0.  0.
          2    1    1    2  501    0  0.56044081542E+02  0.57883537008E+02 -0.23060205863E+03  0.24427188208E+03  0.00000000000E+00 0. -1.
          1    1    1    2  502    0 -0.12028711186E+02 -0.74318432020E+02  0.65519544768E+03  0.65950662915E+03  0.00000000000E+00 0. -1.
         22    1    3    3    0    0  0.34273817062E+02 -0.25273578006E+02 -0.80739395999E+02  0.91281423891E+02  0.00000000000E+00 0.  1.
         22    1    3    3    0    0 -0.78289187417E+02  0.41708473018E+02 -0.10443610361E+03  0.13702442602E+03  0.00000000000E+00 0.  1.
</event>
<event>
 7    1  0.6173324E-006  0.1127709E+03  0.7818608E-02  0.1329079E+00
          2   -1    0    0  502    0  0.00000000000E+00  0.00000000000E+00  0.40138941772E+03  0.40138941772E+03  0.00000000000E+00 0. -1.
          1   -1    0    0  501    0 -0.00000000000E+00 -0.00000000000E+00 -0.91977208924E+03  0.91977208924E+03  0.00000000000E+00 0. -1.
         25    2    1    2    0    0 -0.76037492051E+00 -0.58380181349E+02 -0.50793235659E+03  0.52633552573E+03  0.12499993215E+03 0.  0.
          2    1    1    2  501    0  0.17149052150E+02 -0.54084906908E+02 -0.39232033832E+03  0.39640196140E+03  0.00000000000E+00 0. -1.
          1    1    1    2  502    0 -0.16388677230E+02  0.11246508826E+03  0.38187002338E+03  0.39842401983E+03  0.00000000000E+00 0. -1.
         22    1    3    3    0    0 -0.33533723686E+02 -0.80966187687E+02 -0.42986514159E+03  0.43870727613E+03  0.00000000000E+00 0. -1.
         22    1    3    3    0    0  0.32773348765E+02  0.22586006338E+02 -0.78067214996E+02  0.87628249605E+02  0.00000000000E+00 0. -1.
</event>
<event>
 7    1  0.6173324E-006  0.7916976E+02  0.7818608E-02  0.1356026E+00
          2   -1    0    0  502    0  0.00000000000E+00  0.00000000000E+00  0.10736256673E+04  0.10736256673E+04  0.00000000000E+00 0. -1.
          1   -1    0    0  501    0 -0.00000000000E+00 -0.00000000000E+00 -0.56243051397E+02  0.56243051397E+02  0.00000000000E+00 0. -1.
         25    2    1    2    0    0 -0.26474647505E+02 -0.77515756432E+02  0.79141658908E+03  0.80540253168E+03  0.12499368430E+03 0.  0.
          2    1    1    2  501    0 -0.37240770446E+02  0.70970870087E+02 -0.92547807916E+01  0.80680792954E+02  0.00000000000E+00 0. -1.
          1    1    1    2  502    0  0.63715417950E+02  0.65448863455E+01  0.23522080762E+03  0.24378539406E+03  0.00000000000E+00 0. -1.
         22    1    3    3    0    0 -0.14575307110E+02 -0.65727389516E+02  0.15776213948E+03  0.17152673833E+03  0.00000000000E+00 0.  1.
         22    1    3    3    0    0 -0.11899340395E+02 -0.11788366916E+02  0.63365444960E+03  0.63387579335E+03  0.00000000000E+00 0.  1.
</event>
<event>
 7    1  0.6173324E-006  0.8298330E+02  0.7818608E-02  0.1409544E+00
          2   -1    0    0  502    0  0.00000000000E+00  0.00000000000E+00  0.25653697010E+04  0.25653697010E+04  0.00000000000E+00 0. -1.
          1   -1    0    0  501    0 -0.00000000000E+00 -0.00000000000E+00 -0.37162383637E+02  0.37162383637E+02  0.00000000000E+00 0. -1.
         25    2    1    2    0    0 -0.34401030309E+01 -0.52662911592E+02  0.92805617026E+03  0.93792240860E+03  0.12499989127E+03 0.  0.
          2    1    1    2  501    0 -0.23425968973E+02  0.81700544296E+02  0.24488113640E+02  0.88450114020E+02  0.00000000000E+00 0. -1.
          1    1    1    2  502    0  0.26866072003E+02 -0.29037632703E+02  0.15756630335E+04  0.15761595621E+04  0.00000000000E+00 0. -1.
         22    1    3    3    0    0  0.30767196350E+02 -0.79053450324E+02  0.74611635276E+03  0.75092321860E+03  0.00000000000E+00 0.  1.
         22    1    3    3    0    0 -0.34207299381E+02  0.26390538731E+02  0.18193981750E+03  0.18699918999E+03  0.00000000000E+00 0.  1.
</event>
<event>
 7    1  0.6173324E-006  0.1172358E+03  0.7818608E-02  0.1292384E+00
          2   -1    0    0  502    0  0.00000000000E+00  0.00000000000E+00  0.82431778645E+03  0.82431778645E+03  0.00000000000E+00 0. -1.
          1   -1    0    0  501    0 -0.00000000000E+00 -0.00000000000E+00 -0.17722145253E+04  0.17722145253E+04  0.00000000000E+00 0. -1.
         25    2    1    2    0    0 -0.14603941238E+03  0.24704700795E+02  0.39676882666E+03  0.44157558240E+03  0.12500264380E+03 0.  0.
          2    1    1    2  501    0  0.10939698776E+03  0.42013567097E+02 -0.17442523754E+04  0.17481845411E+04  0.00000000000E+00 0. -1.
          1    1    1    2  502    0  0.36642424618E+02 -0.66718267892E+02  0.39958680984E+03  0.40677218827E+03  0.00000000000E+00 0. -1.
         22    1    3    3    0    0 -0.15479439788E+03  0.39874813654E+02  0.39212677812E+03  0.42345568423E+03  0.00000000000E+00 0. -1.
         22    1    3    3    0    0  0.87549855080E+01 -0.15170112859E+02  0.46420485372E+01  0.18119898179E+02  0.00000000000E+00 0. -1.
</event>
<event>
 7    1  0.6173324E-006  0.5643456E+02  0.7818608E-02  0.1424839E+00
          2   -1    0    0  502    0  0.00000000000E+00  0.00000000000E+00  0.24029293315E+04  0.24029293315E+04  0.00000000000E+00 0. -1.
          1   -1    0    0  501    0 -0.00000000000E+00 -0.00000000000E+00 -0.74695855112E+02  0.74695855112E+02  0.00000000000E+00 0. -1.
         25    2    1    2    0    0  0.45040726757E+02 -0.72226494212E+02  0.48664786948E+02  0.15886592642E+03  0.12499915022E+03 0.  0.
          2    1    1    2  501    0  0.72372489815E+01  0.51180627347E+02  0.15464120365E+02  0.53953437399E+02  0.00000000000E+00 0. -1.
          1    1    1    2  502    0 -0.52277975738E+02  0.21045866864E+02  0.22641045691E+04  0.22648058228E+04  0.00000000000E+00 0. -1.
         22    1    3    3    0    0  0.18843430526E+02 -0.86191752379E+02  0.77535145310E+02  0.11745548863E+03  0.00000000000E+00 0.  1.
         22    1    3    3    0    0  0.26197296231E+02  0.13965258167E+02 -0.28870358362E+02  0.41410437784E+02  0.00000000000E+00 0.  1.
</event>
<event>
 7    1  0.6173324E-006  0.1154929E+03  0.7818608E-02  0.1369111E+00
          2   -1    0    0  502    0  0.00000000000E+00  0.00000000000E+00  0.23132519864E+04  0.23132519864E+04  0.00000000000E+00 0. -1.
          1   -1    0    0  501    0 -0.00000000000E+00 -0.00000000000E+00 -0.15354076197E+04  0.15354076197E+04  0.00000000000E+00 0. -1.
         25    2    1    2    0    0  0.98449260392E+02 -0.43951839292E+02 -0.84819798123E+01  0.16529072716E+03  0.12500023782E+03 0.  0.
          2    1    1    2  501    0 -0.15096742707E+02 -0.36340164580E+02 -0.14467551889E+04  0.14472902597E+04  0.00000000000E+00 0. -1.
          1    1    1    2  502    0 -0.83352517685E+02  0.80292003872E+02  0.22330815353E+04  0.22360786193E+04  0.00000000000E+00 0. -1.
         22    1    3    3    0    0  0.99398783976E+02 -0.40097415536E+02 -0.53711869026E+02  0.11988697120E+03  0.00000000000E+00 0. -1.
         22    1    3    3    0    0 -0.94952358382E+00 -0.38544237560E+01  0.45229889214E+02  0.45403755966E+02  0.00000000000E+00 0. -1.
</event>
<event>
 7    1  0.6173324E-006  0.1129902E+03  0.7818608E-02  0.1348381E+00
          2   -1    0    0  502    0  0.00000000000E+00  0.00000000000E+00  0.10942684049E+04  0.10942684049E+04  0.00000000000E+00 0. -1.
          1   -1    0    0  501    0 -0.00000000000E+00 -0.00000000000E+00 -0.20680520149E+04  0.20680520149E+04  0.00000000000E+00 0. -1.
         25    2    1    2    0    0  0.93594284954E+02  0.97169950124E+02 -0.26289312865E+03  0.32084065512E+03  0.12499615793E+03 0.  0.
          2    1    1    2  501    0 -0.45970490185E+02 -0.10224289615E+03 -0.17738765935E+04  0.17774152764E+04  0.00000000000E+00 0. -1.
          1    1    1    2  502    0 -0.47623794769E+02  0.50729460250E+01  0.10629861122E+04  0.10640644883E+04  0.00000000000E+00 0. -1.
         22    1    3    3    0    0  0.92678878062E+02  0.78276838178E+02 -0.27346958304E+03  0.29916926761E+03  0.00000000000E+00 0.  1.
         22    1    3    3    0    0  0.91540689246E+00  0.18893111947E+02  0.10576454390E+02  0.21671387502E+02  0.00000000000E+00 0.  1.
</event>
<event>
 7    1  0.6173324E-006  0.4964141E+02  0.7818608E-02  0.1544610E+00
          2   -1    0    0  502    0  0.00000000000E+00  0.00000000000E+00  0.81377067922E+03  0.81377067922E+03  0.00000000000E+00 0. -1.
          1   -1    0    0  501    0 -0.00000000000E+00 -0.00000000000E+00 -0.11217783816E+04  0.11217783816E+04  0.00000000000E+00 0. -1.
         25    2    1    2    0    0  0.15017125776E+02  0.20606536630E+02  0.48115355880E+03  0.49777209874E+03  0.12497268389E+03 0.  0.
          2    1    1    2  501    0 -0.20137749697E+02 -0.45403959542E+02 -0.11124198772E+04  0.11135281907E+04  0.00000000000E+00 0. -1.
          1    1    1    2  502    0  0.51206239216E+01  0.24797422912E+02  0.32325861592E+03  0.32424877138E+03  0.00000000000E+00 0. -1.
         22    1    3    3    0    0  0.57427786906E+02 -0.10742305674E+02  0.12800959617E+03  0.14071177830E+03  0.00000000000E+00 0.  1.
         22    1    3    3    0    0 -0.42410661130E+02  0.31348842304E+02  0.35314396263E+03  0.35706032044E+03  0.00000000000E+00 0.  1.
</event>
<event>
 7    1  0.6173324E-006  0.1742842E+03  0.7818608E-02  0.1325149E+00
          2   -1    0    0  502    0  0.00000000000E+00  0.00000000000E+00  0.33571322980E+04  0.33571322980E+04  0.00000000000E+00 0. -1.
          1   -1    0    0  501    0 -0.00000000000E+00 -0.00000000000E+00 -0.20563536349E+04  0.20563536349E+04  0.00000000000E+00 0. -1.
         25    2    1    2    0    0  0.18935375385E+03  0.43952746416E+02  0.58067564646E+03  0.62497525524E+03  0.12499270081E+03 0.  0.
          2    1    1    2  501    0 -0.17519726320E+02 -0.33731648041E+02 -0.20313363110E+04  0.20316918992E+04  0.00000000000E+00 0. -1.
          1    1    1    2  502    0 -0.17183402753E+03 -0.10221098375E+02  0.27514393277E+04  0.27568187785E+04  0.00000000000E+00 0. -1.
         22    1    3    3    0    0 -0.70306785998E+01  0.13825750705E+02  0.55094183518E+01  0.16460118916E+02  0.00000000000E+00 0.  1.
         22    1    3    3    0    0  0.19638443245E+03  0.30126995711E+02  0.57516622811E+03  0.60851513632E+03  0.00000000000E+00 0.  1.
</event>
<event>
 7    1  0.6173324E-006  0.1131607E+03  0.7818608E-02  0.1297435E+00
          2   -1    0    0  502    0  0.00000000000E+00  0.00000000000E+00  0.45401589442E+03  0.45401589442E+03  0.00000000000E+00 0. -1.
          1   -1    0    0  501    0 -0.00000000000E+00 -0.00000000000E+00 -0.89487107332E+03  0.89487107332E+03  0.00000000000E+00 0. -1.
         25    2    1    2    0    0 -0.11050004940E+03 -0.58713804706E+02  0.16960964374E+03  0.24505254158E+03  0.12500298037E+03 0.  0.
          2    1    1    2  501    0  0.11216967504E+03 -0.16511397121E+02 -0.84754784463E+03  0.85509766178E+03  0.00000000000E+00 0. -1.
          1    1    1    2  502    0 -0.16696256378E+01  0.75225201827E+02  0.23708302199E+03  0.24873676438E+03  0.00000000000E+00 0. -1.
         22    1    3    3    0    0  0.14500715413E+02 -0.43654764386E+02  0.21847408410E+02  0.50924635053E+02  0.00000000000E+00 0.  1.
         22    1    3    3    0    0 -0.12500076482E+03 -0.15059040320E+02  0.14776223533E+03  0.19412790652E+03  0.00000000000E+00 0.  1.
</event>
<event>
 7    1  0.6173324E-006  0.9327355E+02  0.7818608E-02  0.1478248E+00
          2   -1    0    0  502    0  0.00000000000E+00  0.00000000000E+00  0.90048975211E+03  0.90048975211E+03  0.00000000000E+00 0. -1.
          1   -1    0    0  501    0 -0.00000000000E+00 -0.00000000000E+00 -0.34204608047E+03  0.34204608047E+03  0.00000000000E+00 0. -1.
         25    2    1    2    0    0 -0.53820396727E+02 -0.71378450907E+02  0.65885777660E+02  0.16720634691E+03  0.12500203355E+03 0.  0.
          2    1    1    2  501    0 -0.17892306880E+02  0.11214841255E+02 -0.28820381308E+03  0.28897637479E+03  0.00000000000E+00 0. -1.
          1    1    1    2  502    0  0.71712703607E+02  0.60163609652E+02  0.78076170706E+03  0.78635311088E+03  0.00000000000E+00 0. -1.
         22    1    3    3    0    0  0.23554066680E+02 -0.71939139716E+02  0.25174625325E+02  0.79773401837E+02  0.00000000000E+00 0. -1.
         22    1    3    3    0    0 -0.77374463407E+02  0.56068880943E+00  0.40711152334E+02  0.87432945071E+02  0.00000000000E+00 0. -1.
</event>
<event>
 7    1  0.6173324E-006  0.2945024E+02  0.7818608E-02  0.1662874E+00
          2   -1    0    0  502    0  0.00000000000E+00  0.00000000000E+00  0.20492880270E+03  0.20492880270E+03  0.00000000000E+00 0. -1.
          1   -1    0    0  501    0 -0.00000000000E+00 -0.00000000000E+00 -0.10320517370E+03  0.10320517370E+03  0.00000000000E+00 0. -1.
         25    2    1    2    0    0  0.26884802399E+02 -0.75745546615E+00  0.29163440328E+01  0.12789386216E+03  0.12499987431E+03 0.  0.
          2    1    1    2  501    0 -0.46738808599E+01  0.20475685447E+02 -0.36283096597E+02  0.41923286554E+02  0.00000000000E+00 0. -1.
          1    1    1    2  502    0 -0.22210921539E+02 -0.19718229981E+02  0.13509038156E+03  0.13831682768E+03  0.00000000000E+00 0. -1.
         22    1    3    3    0    0 -0.17532472974E+02 -0.95235560152E+01  0.55221881449E+02  0.58715772315E+02  0.00000000000E+00 0. -1.
         22    1    3    3    0    0  0.44417275373E+02  0.87661005490E+01 -0.52305537416E+02  0.69178089846E+02  0.00000000000E+00 0. -1.
</event>
<event>
 7    1  0.6173324E-006  0.4028744E+02  0.7818608E-02  0.1510436E+00
          2   -1    0    0  502    0  0.00000000000E+00  0.00000000000E+00  0.40209871667E+02  0.40209871667E+02  0.00000000000E+00 0. -1.
          1   -1    0    0  501    0 -0.00000000000E+00 -0.00000000000E+00 -0.22139754348E+04  0.22139754348E+04  0.00000000000E+00 0. -1.
         25    2    1    2    0    0 -0.18764847756E+02  0.26139962981E+02 -0.66926258085E+03  0.68159634682E+03  0.12500304274E+03 0.  0.
          2    1    1    2  501    0 -0.18847152231E+02 -0.36896223042E+02 -0.15269330079E+04  0.15274949941E+04  0.00000000000E+00 0. -1.
          1    1    1    2  502    0  0.37611999987E+02  0.10756260061E+02  0.22430025656E+02  0.45093965499E+02  0.00000000000E+00 0. -1.
         22    1    3    3    0    0  0.53533443905E+02  0.82527516375E+01 -0.30973094457E+03  0.31443154350E+03  0.00000000000E+00 0. -1.
         22    1    3    3    0    0 -0.72298291660E+02  0.17887211343E+02 -0.35953163628E+03  0.36716480331E+03  0.00000000000E+00 0. -1.
</event>
<event>
 7    1  0.6173324E-006  0.8163775E+02  0.7818608E-02  0.1408116E+00
          2   -1    0    0  502    0  0.00000000000E+00  0.00000000000E+00  0.42325404962E+03  0.42325404962E+03  0.00000000000E+00 0. -1.
          1   -1    0    0  501    0 -0.00000000000E+00 -0.00000000000E+00 -0.14798047631E+04  0.14798047631E+04  0.00000000000E+00 0. -1.
         25    2    1    2    0    0  0.33125422943E+02 -0.55614551353E+02 -0.96955344874E+02  0.17092582144E+03  0.12500010228E+03 0.  0.
          2    1    1    2  501    0 -0.30581339316E+02 -0.26800491410E+02 -0.13411522704E+04  0.13417685706E+04  0.00000000000E+00 0. -1.
          1    1    1    2  502    0 -0.25440836261E+01  0.82415042763E+02  0.38155690178E+03  0.39036442068E+03  0.00000000000E+00 0. -1.
         22    1    3    3    0    0 -0.44402608428E+02 -0.35501628868E+02 -0.21181854208E+02  0.60668181406E+02  0.00000000000E+00 0. -1.
         22    1    3    3    0    0  0.77528031371E+02 -0.20112922485E+02 -0.75773490666E+02  0.11025764004E+03  0.00000000000E+00 0. -1.
</event>
<event>
 7    1  0.6173324E-006  0.1191062E+03  0.7818608E-02  0.1394573E+00
          2   -1    0    0  502    0  0.00000000000E+00  0.00000000000E+00  0.38969785824E+04  0.38969785824E+04  0.00000000000E+00 0. -1.
          1   -1    0    0  501    0 -0.00000000000E+00 -0.00000000000E+00 -0.57976208854E+03  0.57976208854E+03  0.00000000000E+00 0. -1.
         25    2    1    2    0    0  0.12672531306E+02  0.13109904265E+03 -0.20222169710E+03  0.27178357322E+03  0.12500057543E+03 0.  0.
          2    1    1    2  501    0  0.25127798306E+02 -0.18188026692E+02 -0.34113786348E+03  0.34254525608E+03  0.00000000000E+00 0. -1.
          1    1    1    2  502    0 -0.37800329612E+02 -0.11291101596E+03  0.38605760544E+04  0.38624118416E+04  0.00000000000E+00 0. -1.
         22    1    3    3    0    0  0.18890218872E+02  0.38246572071E+02  0.65995851241E+01  0.43164744503E+02  0.00000000000E+00 0. -1.
         22    1    3    3    0    0 -0.62176875662E+01  0.92852470582E+02 -0.20882128222E+03  0.22861882871E+03  0.00000000000E+00 0. -1.
</event>
<event>
 7    1  0.6173324E-006  0.1260150E+03  0.7818608E-02  0.1396027E+00
          2   -1    0    0  502    0  0.00000000000E+00  0.00000000000E+00  0.15541786723E+04  0.15541786723E+04  0.00000000000E+00 0. -1.
          1   -1    0    0  501    0 -0.00000000000E+00 -0.00000000000E+00 -0.48901703388E+03  0.48901703388E+03  0.00000000000E+00 0. -1.
         25    2    1    2    0    0 -0.66152805936E+02 -0.12373084423E+03  0.10383444168E+04  0.10552104265E+04  0.12499760340E+03 0.  0.
          2    1    1    2  501    0  0.49338116305E+00  0.28976757409E+02 -0.47358752893E+03  0.47447343809E+03  0.00000000000E+00 0. -1.
          1    1    1    2  502    0  0.65659424772E+02  0.94754086822E+02  0.50040475059E+03  0.51351184158E+03  0.00000000000E+00 0. -1.
         22    1    3    3    0    0  0.36363759083E+02 -0.48754701069E+02  0.32207170130E+03  0.32776443467E+03  0.00000000000E+00 0.  1.
         22    1    3    3    0    0 -0.10251656502E+03 -0.74976143162E+02  0.71627271548E+03  0.72744599187E+03  0.00000000000E+00 0.  1.
</event>
<event>
 7    1  0.6173324E-006  0.7453500E+02  0.7818608E-02  0.1511336E+00
          2   -1    0    0  502    0  0.00000000000E+00  0.00000000000E+00  0.62168191045E+02  0.62168191045E+02  0.00000000000E+00 0. -1.
          1   -1    0    0  501    0 -0.00000000000E+00 -0.00000000000E+00 -0.16211531836E+04  0.16211531836E+04  0.00000000000E+00 0. -1.
         25    2    1    2    0    0 -0.86636910514E+02 -0.10221154294E+02 -0.60679394298E+03  0.62564683431E+03  0.12499858314E+03 0.  0.
          2    1    1    2  501    0  0.72733069765E+02 -0.55387391846E+01 -0.10014586295E+04  0.10041116291E+04  0.00000000000E+00 0. -1.
          1    1    1    2  502    0  0.13903840749E+02  0.15759893479E+02  0.49267579922E+02  0.53562911248E+02  0.00000000000E+00 0. -1.
         22    1    3    3    0    0 -0.65485777600E+02  0.10110010096E+02 -0.11309252800E+03  0.13107447983E+03  0.00000000000E+00 0. -1.
         22    1    3    3    0    0 -0.21151132914E+02 -0.20331164390E+02 -0.49370141497E+03  0.49457235448E+03  0.00000000000E+00 0. -1.
</event>
<event>
 7    1  0.6173324E-006  0.7472522E+02  0.7818608E-02  0.1363912E+00
          2   -1    0    0  502    0  0.00000000000E+00  0.00000000000E+00  0.16466596919E+04  0.16466596919E+04  0.00000000000E+00 0. -1.
          1   -1    0    0  501    0 -0.00000000000E+00 -0.00000000000E+00 -0.35783334337E+02  0.35783334337E+02  0.00000000000E+00 0. -1.
         25    2    1    2    0    0  0.30026737816E+02 -0.40407379706E+02  0.88764060387E+03  0.89781137108E+03  0.12500022033E+03 0.  0.
          2    1    1    2  501    0 -0.32689571398E+02 -0.54449819882E+02  0.90281706152E+01  0.64147477176E+02  0.00000000000E+00 0. -1.
          1    1    1    2  502    0  0.26628335822E+01  0.94857199588E+02  0.71420758311E+03  0.72048417801E+03  0.00000000000E+00 0. -1.
         22    1    3    3    0    0  0.65008529660E+02 -0.36856603082E+02  0.79845981589E+03  0.80194924759E+03  0.00000000000E+00 0. -1.
         22    1    3    3    0    0 -0.34981791844E+02 -0.35507766243E+01  0.89180787986E+02  0.95862123496E+02  0.00000000000E+00 0. -1.
</event>
<event>
 7    1  0.6173324E-006  0.4540578E+02  0.7818608E-02  0.1505529E+00
          2   -1    0    0  502    0  0.00000000000E+00  0.00000000000E+00  0.13890818631E+04  0.13890818631E+04  0.00000000000E+00 0. -1.
          1   -1    0    0  501    0 -0.00000000000E+00 -0.00000000000E+00 -0.41109728905E+02  0.41109728905E+02  0.00000000000E+00 0. -1.
         25    2    1    2    0    0  0.29691649961E+02 -0.74365777535E+02  0.74041908730E+03  0.75514787077E+03  0.12496407062E+03 0.  0.
          2    1    1    2  501    0 -0.12236073587E+02  0.43009882890E+02 -0.18188342886E+02  0.48274085594E+02  0.00000000000E+00 0. -1.
          1    1    1    2  502    0 -0.17455576375E+02  0.31355894645E+02  0.62574138974E+03  0.62676963560E+03  0.00000000000E+00 0. -1.
         22    1    3    3    0    0  0.53194424013E+02  0.11387170952E+02  0.19160914166E+03  0.19918177019E+03  0.00000000000E+00 0. -1.
         22    1    3    3    0    0 -0.23502774052E+02 -0.85752948487E+02  0.54880994564E+03  0.55596610058E+03  0.00000000000E+00 0. -1.
</event>
<event>
 7    1  0.6173324E-006  0.1201090E+03  0.7818608E-02  0.1409090E+00
          2   -1    0    0  502    0  0.00000000000E+00  0.00000000000E+00  0.76960265497E+03  0.76960265497E+03  0.00000000000E+00 0. -1.
          1   -1    0    0  501    0 -0.00000000000E+00 -0.00000000000E+00 -0.31511242832E+03  0.31511242832E+03  0.00000000000E+00 0. -1.
         25    2    1    2    0    0 -0.74500540891E+02 -0.12518966173E+03  0.17368332524E+03  0.25886949936E+03  0.12499895293E+03 0.  0.
          2    1    1    2  501    0  0.57301398608E+02  0.10382293207E+03 -0.25925419944E+03  0.28508839231E+03  0.00000000000E+00 0. -1.
          1    1    1    2  502    0  0.17199142283E+02  0.21366729663E+02  0.54006110085E+03  0.54075719161E+03  0.00000000000E+00 0. -1.
         22    1    3    3    0    0 -0.96633425760E+02 -0.10480498969E+03  0.17845484327E+03  0.22840366881E+03  0.00000000000E+00 0. -1.
         22    1    3    3    0    0  0.22132884869E+02 -0.20384672038E+02 -0.47715180296E+01  0.30465830549E+02  0.00000000000E+00 0. -1.
</event>
<event>
 7    1  0.6173324E-006  0.2181726E+03  0.7818608E-02  0.1278317E+00
          2   -1    0    0  502    0  0.00000000000E+00  0.00000000000E+00  0.74577789034E+03  0.74577789034E+03  0.00000000000E+00 0. -1.
          1   -1    0    0  501    0 -0.00000000000E+00 -0.00000000000E+00 -0.58111717782E+03  0.58111717782E+03  0.00000000000E+00 0. -1.
         25    2    1    2    0    0  0.12177361110E+02 -0.17356616618E+03 -0.33421901587E+03  0.39698975810E+03  0.12500006120E+03 0.  0.
          2    1    1    2  501    0 -0.41453143689E+01 -0.46523349107E+02 -0.19572543507E+03  0.20122139940E+03  0.00000000000E+00 0. -1.
          1    1    1    2  502    0 -0.80320467409E+01  0.22008951529E+03  0.69460516347E+03  0.72868391065E+03  0.00000000000E+00 0. -1.
         22    1    3    3    0    0 -0.31829718540E+02 -0.60660124248E+02 -0.22017323336E+03  0.23058411555E+03  0.00000000000E+00 0. -1.
         22    1    3    3    0    0  0.44007079650E+02 -0.11290604194E+03 -0.11404578252E+03  0.16640564256E+03  0.00000000000E+00 0. -1.
</event>
<event>
 7    1  0.6173324E-006  0.6684003E+02  0.7818608E-02  0.1395007E+00
          2   -1    0    0  502    0  0.00000000000E+00  0.00000000000E+00  0.43956668530E+02  0.43956668530E+02  0.00000000000E+00 0. -1.
          1   -1    0    0  501    0 -0.00000000000E+00 -0.00000000000E+00 -0.17314522343E+04  0.17314522343E+04  0.00000000000E+00 0. -1.
         25    2    1    2    0    0  0.82934090249E+02 -0.69221295375E+02 -0.50280781767E+03  0.52925536933E+03  0.12500357353E+03 0.  0.
          2    1    1    2  501    0 -0.29059142452E+02  0.57740444734E+02 -0.11891341021E+04  0.11908897117E+04  0.00000000000E+00 0. -1.
          1    1    1    2  502    0 -0.53874947797E+02  0.11480850641E+02  0.44463540148E+01  0.55263821761E+02  0.00000000000E+00 0. -1.
         22    1    3    3    0    0  0.81209290644E+02  0.10595723909E+01 -0.16137285606E+03  0.18065788179E+03  0.00000000000E+00 0. -1.
         22    1    3    3    0    0  0.17247996051E+01 -0.70280867766E+02 -0.34143496161E+03  0.34859748753E+03  0.00000000000E+00 0. -1.
</event>
<event>
 7    1  0.6173324E-006  0.1164853E+03  0.7818608E-02  0.1424945E+00
          2   -1    0    0  502    0  0.00000000000E+00  0.00000000000E+00  0.17393488759E+04  0.17393488759E+04  0.00000000000E+00 0. -1.
          1   -1    0    0  501    0 -0.00000000000E+00 -0.00000000000E+00 -0.29515007357E+03  0.29515007357E+03  0.00000000000E+00 0. -1.
         25    2    1    2    0    0 -0.10510901524E+03 -0.69283745845E+01  0.37800915724E+03  0.41183425576E+03  0.12498249398E+03 0.  0.
          2    1    1    2  501    0  0.11583985495E+03 -0.15676253759E+02 -0.26583700041E+03  0.29040304357E+03  0.00000000000E+00 0. -1.
          1    1    1    2  502    0 -0.10730839713E+02  0.22604628344E+02  0.13320266455E+04  0.13322616501E+04  0.00000000000E+00 0. -1.
         22    1    3    3    0    0 -0.11578321941E+03 -0.44719335042E+02  0.29197529545E+03  0.31726195167E+03  0.00000000000E+00 0.  1.
         22    1    3    3    0    0  0.10674204169E+02  0.37790960457E+02  0.86033861794E+02  0.94572304096E+02  0.00000000000E+00 0.  1.
</event>
<event>
 7    1  0.6173324E-006  0.6084305E+02  0.7818608E-02  0.1439373E+00
          2   -1    0    0  502    0  0.00000000000E+00  0.00000000000E+00  0.41655528738E+04  0.41655528738E+04  0.00000000000E+00 0. -1.
          1   -1    0    0  501    0 -0.00000000000E+00 -0.00000000000E+00 -0.39908023022E+03  0.39908023022E+03  0.00000000000E+00 0. -1.
         25    2    1    2    0    0 -0.18009166701E+02  0.94963536804E+02  0.16022813249E+04  0.16100538831E+04  0.12500263604E+03 0.  0.
          2    1    1    2  501    0 -0.74217093296E+01 -0.60342878153E+02 -0.39267415743E+03  0.39735291446E+03  0.00000000000E+00 0. -1.
          1    1    1    2  502    0  0.25430876030E+02 -0.34620658651E+02  0.25568654762E+04  0.25572263065E+04  0.00000000000E+00 0. -1.
         22    1    3    3    0    0 -0.19104585361E+02  0.77182387252E+02  0.40995898712E+03  0.41759846408E+03  0.00000000000E+00 0. -1.
         22    1    3    3    0    0  0.10954186600E+01  0.17781149552E+02  0.11923223377E+04  0.11924554190E+04  0.00000000000E+00 0. -1.
</event>
<event>
 7    1  0.6173324E-006  0.1055872E+03  0.7818608E-02  0.1385415E+00
          2   -1    0    0  502    0  0.00000000000E+00  0.00000000000E+00  0.23886657062E+03  0.23886657062E+03  0.00000000000E+00 0. -1.
          1   -1    0    0  501    0 -0.00000000000E+00 -0.00000000000E+00 -0.11253698678E+04  0.11253698678E+04  0.00000000000E+00 0. -1.
         25    2    1    2    0    0 -0.48160355097E+02  0.65653090276E+02  0.11572569812E+03  0.18880705023E+03  0.12500366774E+03 0.  0.
          2    1    1    2  501    0  0.85691588889E+02 -0.62500541488E+02 -0.10820147767E+04  0.10872006912E+04  0.00000000000E+00 0. -1.
          1    1    1    2  502    0 -0.37531233792E+02 -0.31525487877E+01  0.79785781322E+02  0.88228697004E+02  0.00000000000E+00 0. -1.
         22    1    3    3    0    0 -0.60284365157E+02  0.97300394271E+02  0.97314329456E+02  0.15023864391E+03  0.00000000000E+00 0. -1.
         22    1    3    3    0    0  0.12124010061E+02 -0.31647303995E+02  0.18411368661E+02  0.38568406320E+02  0.00000000000E+00 0. -1.
</event>
<event>
 7    1  0.6173324E-006  0.4670265E+02  0.7818608E-02  0.1525305E+00
          2   -1    0    0  502    0  0.00000000000E+00  0.00000000000E+00  0.11519128882E+03  0.11519128882E+03  0.00000000000E+00 0. -1.
          1   -1    0    0  501    0 -0.00000000000E+00 -0.00000000000E+00 -0.16159296897E+04  0.16159296897E+04  0.00000000000E+00 0. -1.
         25    2    1    2    0    0  0.37982304664E+02  0.27812410014E+02 -0.15699985814E+03  0.20613242679E+03  0.12500174519E+03 0.  0.
          2    1    1    2  501    0 -0.12783021666E+02 -0.45072341654E+02 -0.14313958246E+04  0.14321623261E+04  0.00000000000E+00 0. -1.
          1    1    1    2  502    0 -0.25199282998E+02  0.17259931640E+02  0.87657281852E+02  0.92826225634E+02  0.00000000000E+00 0. -1.
         22    1    3    3    0    0  0.20736570713E+02  0.77830495208E+02 -0.90468074744E+02  0.12112829520E+03  0.00000000000E+00 0. -1.
         22    1    3    3    0    0  0.17245733951E+02 -0.50018085194E+02 -0.66531783398E+02  0.85004131594E+02  0.00000000000E+00 0. -1.
</event>
<event>
 7    1  0.6173324E-006  0.8376726E+02  0.7818608E-02  0.1363601E+00
          2   -1    0    0  502    0  0.00000000000E+00  0.00000000000E+00  0.72122192263E+03  0.72122192263E+03  0.00000000000E+00 0. -1.
          1   -1    0    0  501    0 -0.00000000000E+00 -0.00000000000E+00 -0.14724383706E+03  0.14724383706E+03  0.00000000000E+00 0. -1.
         25    2    1    2    0    0 -0.12074111554E+03 -0.57376507814E+02  0.27401632558E+03  0.32951529242E+03  0.12499960249E+03 0.  0.
          2    1    1    2  501    0  0.48874894685E+02  0.28941133900E+02 -0.10891323247E+03  0.12283499815E+03  0.00000000000E+00 0. -1.
          1    1    1    2  502    0  0.71866220852E+02  0.28435373914E+02  0.40887499246E+03  0.41611546913E+03  0.00000000000E+00 0. -1.
         22    1    3    3    0    0 -0.21488685170E+02  0.38673831698E+02  0.78949365006E+02  0.90501000455E+02  0.00000000000E+00 0.  1.
         22    1    3    3    0    0 -0.99252430367E+02 -0.96050339512E+02  0.19506696058E+03  0.23901429196E+03  0.00000000000E+00 0.  1.
</event>
<event>
 7    1  0.6173324E-006  0.8226844E+02  0.7818608E-02  0.1365130E+00
          2   -1    0    0  502    0  0.00000000000E+00  0.00000000000E+00  0.69276823142E+03  0.69276823142E+03  0.00000000000E+00 0. -1.
          1   -1    0    0  501    0 -0.00000000000E+00 -0.00000000000E+00 -0.18107677415E+03  0.18107677415E+03  0.00000000000E+00 0. -1.
         25    2    1    2    0    0 -0.28422389967E+02 -0.21560172217E+02  0.79901427024E+02  0.15258207238E+03  0.12499750994E+03 0.  0.
          2    1    1    2  501    0  0.85519693469E+02  0.20810911784E+02 -0.12977265493E+03  0.15680450883E+03  0.00000000000E+00 0. -1.
          1    1    1    2  502    0 -0.57097303502E+02  0.74926043266E+00  0.56156268517E+03  0.56445842437E+03  0.00000000000E+00 0. -1.
         22    1    3    3    0    0 -0.12592651666E+02 -0.56204798586E+02  0.95416683140E+02  0.11145356738E+03  0.00000000000E+00 0. -1.
         22    1    3    3    0    0 -0.15829738301E+02  0.34644626369E+02 -0.15515256115E+02  0.41128504997E+02  0.00000000000E+00 0. -1.
</event>
<event>
 7    1  0.6173324E-006  0.6926143E+02  0.7818608E-02  0.1384310E+00
          2   -1    0    0  502    0  0.00000000000E+00  0.00000000000E+00  0.15456750068E+04  0.15456750068E+04  0.00000000000E+00 0. -1.
          1   -1    0    0  501    0 -0.00000000000E+00 -0.00000000000E+00 -0.52130187592E+03  0.52130187592E+03  0.00000000000E+00 0. -1.
         25    2    1    2    0    0 -0.46792245489E+02  0.11387742431E+03  0.50638267730E+03  0.53591649295E+03  0.12500195818E+03 0.  0.
          2    1    1    2  501    0  0.25754982475E+02 -0.51892760033E+02 -0.50382787619E+03  0.50714761805E+03  0.00000000000E+00 0. -1.
          1    1    1    2  502    0  0.21037263013E+02 -0.61984664277E+02  0.10218183298E+04  0.10239127717E+04  0.00000000000E+00 0. -1.
         22    1    3    3    0    0  0.30600017713E+02  0.22684956893E+01  0.41571609715E+02  0.51669196733E+02  0.00000000000E+00 0. -1.
         22    1    3    3    0    0 -0.77392263201E+02  0.11160892862E+03  0.46481106758E+03  0.48424729622E+03  0.00000000000E+00 0. -1.
</event>
<event>
 7    1  0.6173324E-006  0.4641621E+02  0.7818608E-02  0.1468920E+00
          2   -1    0    0  502    0  0.00000000000E+00  0.00000000000E+00  0.30717713035E+03  0.30717713035E+03  0.00000000000E+00 0. -1.
          1   -1    0    0  501    0 -0.00000000000E+00 -0.00000000000E+00 -0.71211686014E+03  0.71211686014E+03  0.00000000000E+00 0. -1.
         25    2    1    2    0    0 -0.33042117099E+01  0.62108044475E+01 -0.30584346142E+03  0.33047440394E+03  0.12499446732E+03 0.  0.
          2    1    1    2  501    0 -0.17780714838E+02 -0.47561622869E+02 -0.39047722105E+03  0.39376480537E+03  0.00000000000E+00 0. -1.
          1    1    1    2  502    0  0.21084926548E+02  0.41350818422E+02  0.29138095268E+03  0.29505478118E+03  0.00000000000E+00 0. -1.
         22    1    3    3    0    0  0.17031564725E+02 -0.50801600266E+02 -0.77321830557E+02  0.94072005758E+02  0.00000000000E+00 0.  1.
         22    1    3    3    0    0 -0.20335776435E+02  0.57012404714E+02 -0.22852163086E+03  0.23640239818E+03  0.00000000000E+00 0.  1.
</event>
<event>
 7    1  0.6173324E-006  0.6617517E+02  0.7818608E-02  0.1411198E+00
          2   -1    0    0  502    0  0.00000000000E+00  0.00000000000E+00  0.58661753537E+03  0.58661753537E+03  0.00000000000E+00 0. -1.
          1   -1    0    0  501    0 -0.00000000000E+00 -0.00000000000E+00 -0.40367117215E+03  0.40367117215E+03  0.00000000000E+00 0. -1.
         25    2    1    2    0    0 -0.23558990408E+02 -0.35586782953E+02  0.90273368294E+02  0.15998697187E+03  0.12500041998E+03 0.  0.
          2    1    1    2  501    0 -0.43844206374E+02  0.21816266527E+02 -0.36460427032E+03  0.36787842809E+03  0.00000000000E+00 0. -1.
          1    1    1    2  502    0  0.67403196782E+02  0.13770516427E+02  0.45727726524E+03  0.46242330755E+03  0.00000000000E+00 0. -1.
         22    1    3    3    0    0 -0.32831224513E+01  0.72225955598E+01 -0.29836913455E+02  0.30873713482E+02  0.00000000000E+00 0. -1.
         22    1    3    3    0    0 -0.20275867957E+02 -0.42809378513E+02  0.12011028175E+03  0.12911325839E+03  0.00000000000E+00 0. -1.
</event>
<event>
 7    1  0.6173324E-006  0.1935829E+03  0.7818608E-02  0.1199271E+00
          2   -1    0    0  502    0  0.00000000000E+00  0.00000000000E+00  0.29328751036E+04  0.29328751036E+04  0.00000000000E+00 0. -1.
          1   -1    0    0  501    0 -0.00000000000E+00 -0.00000000000E+00 -0.63640951100E+03  0.63640951100E+03  0.00000000000E+00 0. -1.
         25    2    1    2    0    0  0.27213194706E+03 -0.48262279559E+02  0.21534350885E+03  0.37199901641E+03  0.12500158867E+03 0.  0.
          2    1    1    2  501    0 -0.84499741554E+02  0.82015828051E+02 -0.54838030501E+03  0.56088123636E+03  0.00000000000E+00 0. -1.
          1    1    1    2  502    0 -0.18763220550E+03 -0.33753548492E+02  0.26295023888E+04  0.26364043618E+04  0.00000000000E+00 0. -1.
         22    1    3    3    0    0  0.10479632942E+03  0.26444557592E+02  0.13221809104E+03  0.17077238912E+03  0.00000000000E+00 0. -1.
         22    1    3    3    0    0  0.16733561764E+03 -0.74706837152E+02  0.83125417813E+02  0.20122662730E+03  0.00000000000E+00 0. -1.
</event>
<event>
 7    1  0.6173324E-006  0.5740280E+02  0.7818608E-02  0.1460553E+00
          2   -1    0    0  502    0  0.00000000000E+00  0.00000000000E+00  0.12927053680E+04  0.12927053680E+04  0.00000000000E+00 0. -1.
          1   -1    0    0  501    0 -0.00000000000E+00 -0.00000000000E+00 -0.25341077143E+03  0.25341077143E+03  0.00000000000E+00 0. -1.
         25    2    1    2    0    0  0.90952027277E+02  0.15345205146E+02  0.25779550347E+03  0.30098484117E+03  0.12500242564E+03 0.  0.
          2    1    1    2  501    0 -0.34784611589E+02 -0.17531669109E+02 -0.22939344757E+03  0.23267720647E+03  0.00000000000E+00 0. -1.
          1    1    1    2  502    0 -0.56167415688E+02  0.21864639632E+01  0.10108925407E+04  0.10124540918E+04  0.00000000000E+00 0. -1.
         22    1    3    3    0    0  0.39040976564E+02 -0.41504121772E+02  0.39022373008E+02  0.69061824262E+02  0.00000000000E+00 0. -1.
         22    1    3    3    0    0  0.51911050713E+02  0.56849326918E+02  0.21877313047E+03  0.23192301691E+03  0.00000000000E+00 0. -1.
</event>
<event>
 7    1  0.6173324E-006  0.6409577E+02  0.7818608E-02  0.1428790E+00
          2   -1    0    0  502    0  0.00000000000E+00  0.00000000000E+00  0.49852028704E+03  0.49852028704E+03  0.00000000000E+00 0. -1.
          1   -1    0    0  501    0 -0.00000000000E+00 -0.00000000000E+00 -0.93129465942E+03  0.93129465942E+03  0.00000000000E+00 0. -1.
         25    2    1    2    0    0 -0.61372869962E+02  0.30791530355E+02 -0.74394730547E+03  0.75749395882E+03  0.12499902732E+03 0.  0.
          2    1    1    2  501    0  0.34580762633E+02  0.27468222425E+02 -0.17573984502E+03  0.18120382312E+03  0.00000000000E+00 0. -1.
          1    1    1    2  502    0  0.26792107329E+02 -0.58259752780E+02  0.48691277810E+03  0.49111716452E+03  0.00000000000E+00 0. -1.
         22    1    3    3    0    0 -0.76124831369E+02 -0.64417950749E+01 -0.23793136035E+03  0.24989561603E+03  0.00000000000E+00 0.  1.
         22    1    3    3    0    0  0.14751961407E+02  0.37233325430E+02 -0.50601594512E+03  0.50759834279E+03  0.00000000000E+00 0.  1.
</event>
<event>
 7    1  0.6173324E-006  0.1264103E+03  0.7818608E-02  0.1388877E+00
          2   -1    0    0  502    0  0.00000000000E+00  0.00000000000E+00  0.20229436269E+04  0.20229436269E+04  0.00000000000E+00 0. -1.
          1   -1    0    0  501    0 -0.00000000000E+00 -0.00000000000E+00 -0.36815786528E+03  0.36815786528E+03  0.00000000000E+00 0. -1.
         25    2    1    2    0    0  0.11007938421E+03 -0.11065504323E+03  0.34876111638E+03  0.40202190512E+03  0.12500114592E+03 0.  0.
          2    1    1    2  501    0 -0.88070591383E+02  0.89406212386E+02 -0.32985061229E+03  0.35291829977E+03  0.00000000000E+00 0. -1.
          1    1    1    2  502    0 -0.22008792829E+02  0.21248830843E+02  0.16358752576E+04  0.16361612873E+04  0.00000000000E+00 0. -1.
         22    1    3    3    0    0  0.12154402597E+03 -0.43713486354E+02  0.19462890251E+03  0.23358987314E+03  0.00000000000E+00 0.  1.
         22    1    3    3    0    0 -0.11464641763E+02 -0.66941556875E+02  0.15413221387E+03  0.16843203199E+03  0.00000000000E+00 0.  1.
</event>
<event>
 7    1  0.6173324E-006  0.8276624E+02  0.7818608E-02  0.1336701E+00
          2   -1    0    0  502    0  0.00000000000E+00  0.00000000000E+00  0.23384199050E+04  0.23384199050E+04  0.00000000000E+00 0. -1.
          1   -1    0    0  501    0 -0.00000000000E+00 -0.00000000000E+00 -0.14439884951E+04  0.14439884951E+04  0.00000000000E+00 0. -1.
         25    2    1    2    0    0  0.13963579926E+02 -0.24816477120E+01 -0.24792808996E+02  0.12822048709E+03  0.12499867916E+03 0.  0.
          2    1    1    2  501    0 -0.80473540145E+02 -0.25908743703E+02 -0.13656025899E+04  0.13682169737E+04  0.00000000000E+00 0. -1.
          1    1    1    2  502    0  0.66509960219E+02  0.28390391415E+02  0.22848268087E+04  0.22859709392E+04  0.00000000000E+00 0. -1.
         22    1    3    3    0    0 -0.75304983838E+01  0.43610129237E+02 -0.53807179668E+02  0.69668962687E+02  0.00000000000E+00 0.  1.
         22    1    3    3    0    0  0.21494078310E+02 -0.46091776949E+02  0.29014370673E+02  0.58551524406E+02  0.00000000000E+00 0.  1.
</event>
<event>
 7    1  0.6173324E-006  0.5031564E+02  0.7818608E-02  0.1446065E+00
          2   -1    0    0  502    0  0.00000000000E+00  0.00000000000E+00  0.21479692021E+03  0.21479692021E+03  0.00000000000E+00 0. -1.
          1   -1    0    0  501    0 -0.00000000000E+00 -0.00000000000E+00 -0.14032555946E+04  0.14032555946E+04  0.00000000000E+00 0. -1.
         25    2    1    2    0    0 -0.45253671845E+02 -0.10528610113E+02  0.46342170519E+02  0.14117947626E+03  0.12500120520E+03 0.  0.
          2    1    1    2  501    0  0.13695600203E+02  0.48561095137E+02 -0.13503013231E+04  0.13512436541E+04  0.00000000000E+00 0. -1.
          1    1    1    2  502    0  0.31558071642E+02 -0.38032485024E+02  0.11550047816E+03  0.12562938454E+03  0.00000000000E+00 0. -1.
         22    1    3    3    0    0 -0.83026996246E+02  0.17041648778E+02  0.18497854278E+02  0.86752927971E+02  0.00000000000E+00 0. -1.
         22    1    3    3    0    0  0.37773324401E+02 -0.27570258890E+02  0.27844316241E+02  0.54426548288E+02  0.00000000000E+00 0. -1.
</event>
<event>
 7    1  0.6173324E-006  0.1428601E+03  0.7818608E-02  0.1315498E+00
          2   -1    0    0  502    0  0.00000000000E+00  0.00000000000E+00  0.10603312473E+04  0.10603312473E+04  0.00000000000E+00 0. -1.
          1   -1    0    0  501    0 -0.00000000000E+00 -0.00000000000E+00 -0.71441997368E+03  0.71441997368E+03  0.00000000000E+00 0. -1.
         25    2    1    2    0    0  0.11855215960E+02 -0.15052281021E+03  0.15384585873E+03  0.24918173187E+03  0.12500129884E+03 0.  0.
          2    1    1    2  501    0 -0.58245761442E+02  0.13045757908E+03 -0.65833962730E+03  0.67366372437E+03  0.00000000000E+00 0. -1.
          1    1    1    2  502    0  0.46390545481E+02  0.20065231136E+02  0.85040504219E+03  0.85190576474E+03  0.00000000000E+00 0. -1.
         22    1    3    3    0    0  0.36603207311E+02 -0.46035338321E+02  0.12476932062E+03  0.13793632781E+03  0.00000000000E+00 0.  1.
         22    1    3    3    0    0 -0.24747991351E+02 -0.10448747189E+03  0.29076538104E+02  0.11124540407E+03  0.00000000000E+00 0.  1.
</event>
<event>
 7    1  0.6173324E-006  0.1144535E+03  0.7818608E-02  0.1328510E+00
          2   -1    0    0  502    0  0.00000000000E+00  0.00000000000E+00  0.10382613117E+03  0.10382613117E+03  0.00000000000E+00 0. -1.
          1   -1    0    0  501    0 -0.00000000000E+00 -0.00000000000E+00 -0.16959061295E+04  0.16959061295E+04  0.00000000000E+00 0. -1.
         25    2    1    2    0    0  0.13901574951E+03 -0.62364109985E+02 -0.13419520286E+03  0.23842972613E+03  0.12500288399E+03 0.  0.
          2    1    1    2  501    0 -0.56171901893E+02 -0.12371834688E+01 -0.14557545005E+04  0.14568383503E+04  0.00000000000E+00 0. -1.
          1    1    1    2  502    0 -0.82843847621E+02  0.63601293454E+02 -0.21302949076E+01  0.10446418417E+03  0.00000000000E+00 0. -1.
         22    1    3    3    0    0  0.51617772179E+02 -0.91018991110E+02 -0.79585679059E+02  0.13146380285E+03  0.00000000000E+00 0. -1.
         22    1    3    3    0    0  0.87397977336E+02  0.28654881125E+02 -0.54609523802E+02  0.10696592329E+03  0.00000000000E+00 0. -1.
</event>
<event>
 7    1  0.6173324E-006  0.6803725E+02  0.7818608E-02  0.1398763E+00
          2   -1    0    0  502    0  0.00000000000E+00  0.00000000000E+00  0.12647536993E+03  0.12647536993E+03  0.00000000000E+00 0. -1.
          1   -1    0    0  501    0 -0.00000000000E+00 -0.00000000000E+00 -0.39974320405E+03  0.39974320405E+03  0.00000000000E+00 0. -1.
         25    2    1    2    0    0 -0.56457405686E+01 -0.22886526491E+02 -0.27522556906E+02  0.13014701826E+03  0.12500035096E+03 0.  0.
          2    1    1    2  501    0 -0.18836138179E+02  0.69354339745E+02 -0.30704771586E+03  0.31534603907E+03  0.00000000000E+00 0. -1.
          1    1    1    2  502    0  0.24481878747E+02 -0.46467813254E+02  0.61302438643E+02  0.80725516655E+02  0.00000000000E+00 0. -1.
         22    1    3    3    0    0 -0.10086016932E+02 -0.35565167487E+02 -0.73486056407E+02  0.82260618537E+02  0.00000000000E+00 0. -1.
         22    1    3    3    0    0  0.44402763638E+01  0.12678640996E+02  0.45963499500E+02  0.47886399718E+02  0.00000000000E+00 0. -1.
</event>
<event>
 7    1  0.6173324E-006  0.1854993E+03  0.7818608E-02  0.1192066E+00
          2   -1    0    0  502    0  0.00000000000E+00  0.00000000000E+00  0.43451564570E+03  0.43451564570E+03  0.00000000000E+00 0. -1.
          1   -1    0    0  501    0 -0.00000000000E+00 -0.00000000000E+00 -0.26971538076E+04  0.26971538076E+04  0.00000000000E+00 0. -1.
         25    2    1    2    0    0  0.15911904855E+03  0.17018662547E+03 -0.20214590225E+04  0.20386756845E+04  0.12497842973E+03 0.  0.
          2    1    1    2  501    0 -0.27802859583E+02 -0.14930006691E+03 -0.64770709488E+03  0.66527286864E+03  0.00000000000E+00 0. -1.
          1    1    1    2  502    0 -0.13131618897E+03 -0.20886558559E+02  0.40652795550E+03  0.42772090014E+03  0.00000000000E+00 0. -1.
         22    1    3    3    0    0  0.12057921943E+03  0.68602283830E+02 -0.14757208471E+04  0.14822272565E+04  0.00000000000E+00 0. -1.
         22    1    3    3    0    0  0.38539829119E+02  0.10158434164E+03 -0.54573817543E+03  0.55644842800E+03  0.00000000000E+00 0. -1.
</event>
<event>
 7    1  0.6173324E-006  0.1754299E+03  0.7818608E-02  0.1272616E+00
          2   -1    0    0  502    0  0.00000000000E+00  0.00000000000E+00  0.19575783297E+04  0.19575783297E+04  0.00000000000E+00 0. -1.
          1   -1    0    0  501    0 -0.00000000000E+00 -0.00000000000E+00 -0.58118910487E+03  0.58118910487E+03  0.00000000000E+00 0. -1.
         25    2    1    2    0    0 -0.14894951396E+03 -0.57678275803E+02 -0.74293226645E+02  0.21601369078E+03  0.12501875807E+03 0.  0.
          2    1    1    2  501    0  0.18150123443E+03  0.56760355365E+01 -0.41660390449E+03  0.45445982079E+03  0.00000000000E+00 0. -1.
          1    1    1    2  502    0 -0.32551720470E+02  0.52002240266E+02  0.18672863560E+04  0.18682939230E+04  0.00000000000E+00 0. -1.
         22    1    3    3    0    0 -0.30765493702E+02 -0.62599880728E+02  0.10414429311E+02  0.70524612780E+02  0.00000000000E+00 0.  1.
         22    1    3    3    0    0 -0.11818402026E+03  0.49216049255E+01 -0.84707655956E+02  0.14548907800E+03  0.00000000000E+00 0.  1.
</event>
<event>
 7    1  0.6173324E-006  0.6495578E+02  0.7818608E-02  0.1391748E+00
          2   -1    0    0  502    0  0.00000000000E+00  0.00000000000E+00  0.37194064963E+03  0.37194064963E+03  0.00000000000E+00 0. -1.
          1   -1    0    0  501    0 -0.00000000000E+00 -0.00000000000E+00 -0.47649075161E+03  0.47649075161E+03  0.00000000000E+00 0. -1.
         25    2    1    2    0    0  0.28108635147E+02  0.97730510423E+02 -0.19227749870E+03  0.25086656101E+03  0.12498818699E+03 0.  0.
          2    1    1    2  501    0  0.20068160981E+02 -0.54608019928E+02 -0.24847825800E+03  0.25519837700E+03  0.00000000000E+00 0. -1.
          1    1    1    2  502    0 -0.48176796128E+02 -0.43122490495E+02  0.33620565472E+03  0.34236646322E+03  0.00000000000E+00 0. -1.
         22    1    3    3    0    0  0.39864398772E+02  0.75918749248E+02 -0.36605787595E+02  0.93235242598E+02  0.00000000000E+00 0.  1.
         22    1    3    3    0    0 -0.11755763625E+02  0.21811761175E+02 -0.15567171111E+03  0.15763131841E+03  0.00000000000E+00 0.  1.
</event>
<event>
 7    1  0.6173324E-006  0.1749192E+03  0.7818608E-02  0.1226738E+00
          2   -1    0    0  502    0  0.00000000000E+00  0.00000000000E+00  0.17449200960E+04  0.17449200960E+04  0.00000000000E+00 0. -1.
          1   -1    0    0  501    0 -0.00000000000E+00 -0.00000000000E+00 -0.57046850972E+03  0.57046850972E+03  0.00000000000E+00 0. -1.
         25    2    1    2    0    0 -0.10732581026E+03 -0.13332367455E+02 -0.28768742190E+02  0.16778137477E+03  0.12500547037E+03 0.  0.
          2    1    1    2  501    0  0.17874962212E+03  0.79463577684E+02 -0.45044107216E+03  0.49108354389E+03  0.00000000000E+00 0. -1.
          1    1    1    2  502    0 -0.71423811856E+02 -0.66131210228E+02  0.16536614006E+04  0.16565236870E+04  0.00000000000E+00 0. -1.
         22    1    3    3    0    0  0.19692206779E+02 -0.22132426939E+02  0.14922685474E+02  0.33170979362E+02  0.00000000000E+00 0.  1.
         22    1    3    3    0    0 -0.12701801704E+03  0.88000594841E+01 -0.43691427665E+02  0.13461039541E+03  0.00000000000E+00 0.  1.
</event>
<event>
 7    1  0.6173324E-006  0.4141354E+02  0.7818608E-02  0.1567630E+00
          2   -1    0    0  502    0  0.00000000000E+00  0.00000000000E+00  0.16509901525E+03  0.16509901525E+03  0.00000000000E+00 0. -1.
          1   -1    0    0  501    0 -0.00000000000E+00 -0.00000000000E+00 -0.13905711641E+04  0.13905711641E+04  0.00000000000E+00 0. -1.
         25    2    1    2    0    0 -0.12050084635E+01  0.17137616977E+02  0.23070163681E+01  0.12619747292E+03  0.12500131954E+03 0.  0.
          2    1    1    2  501    0 -0.63099327668E+01  0.25439853799E+02 -0.13238561964E+04  0.13241156408E+04  0.00000000000E+00 0. -1.
          1    1    1    2  502    0  0.75149412303E+01 -0.42577470775E+02  0.96077031184E+02  0.10535706564E+03  0.00000000000E+00 0. -1.
         22    1    3    3    0    0 -0.40568440781E+02 -0.10370102302E+02 -0.43111274511E+02  0.60099246244E+02  0.00000000000E+00 0.  1.
         22    1    3    3    0    0  0.39363432318E+02  0.27507719278E+02  0.45418290879E+02  0.66098226679E+02  0.00000000000E+00 0.  1.
</event>
<event>
 7    1  0.6173324E-006  0.6449111E+02  0.7818608E-02  0.1483955E+00
          2   -1    0    0  502    0  0.00000000000E+00  0.00000000000E+00  0.23525568620E+04  0.23525568620E+04  0.00000000000E+00 0. -1.
          1   -1    0    0  501    0 -0.00000000000E+00 -0.00000000000E+00 -0.37657522748E+02  0.37657522748E+02  0.00000000000E+00 0. -1.
         25    2    1    2    0    0 -0.12884801215E+00  0.87744527715E+02  0.12946677735E+04  0.13036447941E+04  0.12500394686E+03 0.  0.
          2    1    1    2  501    0 -0.14509747474E+02 -0.62322016708E+02 -0.19001265502E+01  0.64017005704E+02  0.00000000000E+00 0. -1.
          1    1    1    2  502    0  0.14638595486E+02 -0.25422511007E+02  0.10221316924E+04  0.10225525850E+04  0.00000000000E+00 0. -1.
         22    1    3    3    0    0 -0.33781362884E+02 -0.20401944601E+02  0.33446367682E+03  0.33678386382E+03  0.00000000000E+00 0.  1.
         22    1    3    3    0    0  0.33652514871E+02  0.10814647232E+03  0.96020409665E+03  0.96686093025E+03  0.00000000000E+00 0.  1.
</event>
<event>
 7    1  0.6173324E-006  0.8618306E+02  0.7818608E-02  0.1383744E+00
          2   -1    0    0  502    0  0.00000000000E+00  0.00000000000E+00  0.12393072575E+02  0.12393072575E+02  0.00000000000E+00 0. -1.
          1   -1    0    0  501    0 -0.00000000000E+00 -0.00000000000E+00 -0.23028389947E+04  0.23028389947E+04  0.00000000000E+00 0. -1.
         25    2    1    2    0    0  0.42884230576E+02  0.71265727177E+02 -0.65124434591E+03  0.66832825914E+03  0.12500241107E+03 0.  0.
          2    1    1    2  501    0 -0.40141708685E+02  0.24005460795E+02 -0.94907846223E+03  0.95023025967E+03  0.00000000000E+00 0. -1.
          1    1    1    2  502    0 -0.27425218915E+01 -0.95271187971E+02 -0.69012311394E+03  0.69667354843E+03  0.00000000000E+00 0. -1.
         22    1    3    3    0    0 -0.95259219809E+01  0.71583795742E+01 -0.45719483560E+03  0.45735008832E+03  0.00000000000E+00 0.  1.
         22    1    3    3    0    0  0.52410152557E+02  0.64107347603E+02 -0.19404951031E+03  0.21097817081E+03  0.00000000000E+00 0.  1.
</event>
<event>
 7    1  0.6173324E-006  0.2632357E+03  0.7818608E-02  0.1152301E+00
          2   -1    0    0  502    0  0.00000000000E+00  0.00000000000E+00  0.15500140436E+04  0.15500140436E+04  0.00000000000E+00 0. -1.
          1   -1    0    0  501    0 -0.00000000000E+00 -0.00000000000E+00 -0.96566222094E+03  0.96566222094E+03  0.00000000000E+00 0. -1.
         25    2    1    2    0    0  0.14057279211E+02 -0.28465573064E+03  0.30509748183E+03  0.43581629206E+03  0.12499949968E+03 0.  0.
          2    1    1    2  501    0 -0.13869413306E+03  0.49968080750E+02 -0.87912118122E+03  0.89139605278E+03  0.00000000000E+00 0. -1.
          1    1    1    2  502    0  0.12463685385E+03  0.23468764989E+03  0.11583755221E+04  0.11884639197E+04  0.00000000000E+00 0. -1.
         22    1    3    3    0    0  0.38278474236E+02 -0.27858982594E+03  0.29827121283E+03  0.40993078576E+03  0.00000000000E+00 0. -1.
         22    1    3    3    0    0 -0.24221195026E+02 -0.60659047036E+01  0.68262690009E+01  0.25885506308E+02  0.00000000000E+00 0. -1.
</event>
<event>
 7    1  0.6173324E-006  0.9063816E+02  0.7818608E-02  0.1473701E+00
          2   -1    0    0  502    0  0.00000000000E+00  0.00000000000E+00  0.16793414445E+04  0.16793414445E+04  0.00000000000E+00 0. -1.
          1   -1    0    0  501    0 -0.00000000000E+00 -0.00000000000E+00 -0.29078205056E+03  0.29078205056E+03  0.00000000000E+00 0. -1.
         25    2    1    2    0    0 -0.59968470992E+02  0.35615006588E+02  0.17947331015E+03  0.22956526205E+03  0.12499957710E+03 0.  0.
          2    1    1    2  501    0  0.81769892579E+02 -0.40945859024E+02 -0.25778003283E+03  0.27352042708E+03  0.00000000000E+00 0. -1.
          1    1    1    2  502    0 -0.21801421587E+02  0.53308524356E+01  0.14668661167E+04  0.14670378060E+04  0.00000000000E+00 0. -1.
         22    1    3    3    0    0 -0.91538655177E+02  0.46001332428E+02  0.16287670920E+03  0.19241691811E+03  0.00000000000E+00 0. -1.
         22    1    3    3    0    0  0.31570184185E+02 -0.10386325840E+02  0.16596600953E+02  0.37148343935E+02  0.00000000000E+00 0. -1.
</event>
<event>
 7    1  0.6173324E-006  0.1839733E+03  0.7818608E-02  0.1253930E+00
          2   -1    0    0  502    0  0.00000000000E+00  0.00000000000E+00  0.32038637797E+03  0.32038637797E+03  0.00000000000E+00 0. -1.
          1   -1    0    0  501    0 -0.00000000000E+00 -0.00000000000E+00 -0.62049865942E+03  0.62049865942E+03  0.00000000000E+00 0. -1.
         25    2    1    2    0    0  0.10827444961E+03  0.98100597230E+02 -0.90688933913E+02  0.21259183776E+03  0.12499489243E+03 0.  0.
          2    1    1    2  501    0 -0.95917466103E+01  0.69567347533E+02 -0.42912417449E+03  0.43483235227E+03  0.00000000000E+00 0. -1.
          1    1    1    2  502    0 -0.98682702996E+02 -0.16766794476E+03  0.21970082695E+03  0.29346084736E+03  0.00000000000E+00 0. -1.
         22    1    3    3    0    0  0.13235766015E+02 -0.21165956554E+02 -0.48200818312E+02  0.54281692170E+02  0.00000000000E+00 0.  1.
         22    1    3    3    0    0  0.95038683591E+02  0.11926655378E+03 -0.42488115601E+02  0.15831014559E+03  0.00000000000E+00 0.  1.
</event>
<event>
 7    1  0.8227117E-006  0.5614367E+02  0.7818608E-02  0.1477556E+00
          2   -1    0    0  502    0  0.00000000000E+00  0.00000000000E+00  0.25604580143E+04  0.25604580143E+04  0.00000000000E+00 0. -1.
          1   -1    0    0  501    0 -0.00000000000E+00 -0.00000000000E+00 -0.22872059097E+04  0.22872059097E+04  0.00000000000E+00 0. -1.
         25    2    1    2    0    0 -0.43103009575E+02 -0.31130370043E+02 -0.12105341923E+04  0.12181317074E+04  0.12499942550E+03 0.  0.
          2    1    1    2  501    0  0.27006755165E+02 -0.22660153892E+02 -0.10722749698E+04  0.10728543509E+04  0.00000000000E+00 0. -1.
          1    1    1    2  502    0  0.16096254410E+02  0.53790523935E+02  0.25560612667E+04  0.25566778657E+04  0.00000000000E+00 0. -1.
         22    1    3    3    0    0  0.44076336257E+02 -0.90788128957E+01 -0.47289073580E+03  0.47502715319E+03  0.00000000000E+00 0.  1.
         22    1    3    3    0    0 -0.87179345832E+02 -0.22051557147E+02 -0.73764345649E+03  0.74310455416E+03  0.00000000000E+00 0.  1.
</event>
<event>
 7    1  0.6173324E-006  0.8977539E+02  0.7818608E-02  0.1423037E+00
          2   -1    0    0  502    0  0.00000000000E+00  0.00000000000E+00  0.10145250169E+04  0.10145250169E+04  0.00000000000E+00 0. -1.
          1   -1    0    0  501    0 -0.00000000000E+00 -0.00000000000E+00 -0.19018352174E+04  0.19018352174E+04  0.00000000000E+00 0. -1.
         25    2    1    2    0    0  0.71647592144E+02 -0.12766331895E+02  0.16974412285E+03  0.22301356583E+03  0.12500250642E+03 0.  0.
          2    1    1    2  501    0  0.19032236441E+02  0.26890119941E+02 -0.18724815528E+04  0.18727713341E+04  0.00000000000E+00 0. -1.
          1    1    1    2  502    0 -0.90679828585E+02 -0.14123788046E+02  0.81542722944E+03  0.82057533427E+03  0.00000000000E+00 0. -1.
         22    1    3    3    0    0  0.67227910875E+02 -0.39950890846E+02  0.17786666219E+03  0.19429929284E+03  0.00000000000E+00 0. -1.
         22    1    3    3    0    0  0.44196812696E+01  0.27184558951E+02 -0.81225393413E+01  0.28714272988E+02  0.00000000000E+00 0. -1.
</event>
<event>
 7    1  0.6173324E-006  0.4161577E+02  0.7818608E-02  0.1584811E+00
          2   -1    0    0  502    0  0.00000000000E+00  0.00000000000E+00  0.30567530981E+02  0.30567530981E+02  0.00000000000E+00 0. -1.
          1   -1    0    0  501    0 -0.00000000000E+00 -0.00000000000E+00 -0.51462094274E+03  0.51462094274E+03  0.00000000000E+00 0. -1.
         25    2    1    2    0    0 -0.47078818958E+02 -0.53568271048E+01 -0.29973977886E+03  0.32819799823E+03  0.12499952089E+03 0.  0.
          2    1    1    2  501    0  0.13479504572E+02 -0.19183349792E+02 -0.17201285557E+03  0.17360334223E+03  0.00000000000E+00 0. -1.
          1    1    1    2  502    0  0.33599314386E+02  0.24540176897E+02 -0.12300777334E+02  0.43387133259E+02  0.00000000000E+00 0. -1.
         22    1    3    3    0    0  0.32114110406E+02  0.13612238046E+02 -0.28639089504E+02  0.45130993335E+02  0.00000000000E+00 0.  1.
         22    1    3    3    0    0 -0.79192929364E+02 -0.18969065151E+02 -0.27110068935E+03  0.28306700490E+03  0.00000000000E+00 0.  1.
</event>
<event>
 7    1  0.6173324E-006  0.4714743E+02  0.7818608E-02  0.1503527E+00
          2   -1    0    0  502    0  0.00000000000E+00  0.00000000000E+00  0.11287775970E+04  0.11287775970E+04  0.00000000000E+00 0. -1.
          1   -1    0    0  501    0 -0.00000000000E+00 -0.00000000000E+00 -0.19804133962E+02  0.19804133962E+02  0.00000000000E+00 0. -1.
         25    2    1    2    0    0  0.19075747204E+02  0.50341216721E+02  0.37575639499E+03  0.39964894394E+03  0.12501315045E+03 0.  0.
          2    1    1    2  501    0 -0.41676782968E+02 -0.23568134431E+02  0.70099482062E+02  0.84890214892E+02  0.00000000000E+00 0. -1.
          1    1    1    2  502    0  0.22601035764E+02 -0.26773082290E+02  0.66311758601E+03  0.66404257215E+03  0.00000000000E+00 0. -1.
         22    1    3    3    0    0 -0.33742298830E+02 -0.86237028583E+01  0.23987512170E+03  0.24239015036E+03  0.00000000000E+00 0.  1.
         22    1    3    3    0    0  0.52818046035E+02  0.58964919579E+02  0.13588127329E+03  0.15725879359E+03  0.00000000000E+00 0.  1.
</event>
<event>
 7    1  0.6173324E-006  0.7236145E+02  0.7818608E-02  0.1424659E+00
          2   -1    0    0  502    0  0.00000000000E+00  0.00000000000E+00  0.50199235762E+02  0.50199235762E+02  0.00000000000E+00 0. -1.
          1   -1    0    0  501    0 -0.00000000000E+00 -0.00000000000E+00 -0.18408680790E+04  0.18408680790E+04  0.00000000000E+00 0. -1.
         25    2    1    2    0    0  0.62817867859E+02  0.86128729503E+02 -0.32048290675E+03  0.36014507096E+03  0.12502374194E+03 0.  0.
          2    1    1    2  501    0 -0.31644501108E+02 -0.25064142814E+02 -0.14612195374E+04  0.14617770425E+04  0.00000000000E+00 0. -1.
          1    1    1    2  502    0 -0.31173366751E+02 -0.61064586688E+02 -0.89663990960E+01  0.69145201242E+02  0.00000000000E+00 0. -1.
         22    1    3    3    0    0 -0.26433001914E+02  0.21816722333E+01 -0.13679042467E+03  0.13933801909E+03  0.00000000000E+00 0. -1.
         22    1    3    3    0    0  0.89250869774E+02  0.83947057269E+02 -0.18369248208E+03  0.22080705186E+03  0.00000000000E+00 0. -1.
</event>
<event>
 7    1  0.6173324E-006  0.1197084E+03  0.7818608E-02  0.1247579E+00
          2   -1    0    0  502    0  0.00000000000E+00  0.00000000000E+00  0.21514565010E+03  0.21514565010E+03  0.00000000000E+00 0. -1.
          1   -1    0    0  501    0 -0.00000000000E+00 -0.00000000000E+00 -0.35169450133E+03  0.35169450133E+03  0.00000000000E+00 0. -1.
         25    2    1    2    0    0  0.59137874691E+02 -0.30072293685E+02 -0.48305802997E+02  0.14953254849E+03  0.12499960554E+03 0.  0.
          2    1    1    2  501    0  0.61469720778E+02  0.10272090231E+03 -0.20300000554E+03  0.23566737702E+03  0.00000000000E+00 0. -1.
          1    1    1    2  502    0 -0.12060759547E+03 -0.72648608625E+02  0.11475695731E+03  0.18164022591E+03  0.00000000000E+00 0. -1.
         22    1    3    3    0    0  0.55353049765E+02  0.66265433128E+01 -0.82274390362E+02  0.99382828014E+02  0.00000000000E+00 0.  1.
         22    1    3    3    0    0  0.37848249259E+01 -0.36698836997E+02  0.33968587365E+02  0.50149720481E+02  0.00000000000E+00 0.  1.
</event>
<event>
 7    1  0.6173324E-006  0.4089294E+02  0.7818608E-02  0.1523747E+00
          2   -1    0    0  502    0  0.00000000000E+00  0.00000000000E+00  0.49048159727E+03  0.49048159727E+03  0.00000000000E+00 0. -1.
          1   -1    0    0  501    0 -0.00000000000E+00 -0.00000000000E+00 -0.82203508199E+03  0.82203508199E+03  0.00000000000E+00 0. -1.
         25    2    1    2    0    0 -0.21762514770E+02 -0.37678595684E+02 -0.23810374251E+03  0.27241231330E+03  0.12498716983E+03 0.  0.
          2    1    1    2  501    0 -0.13452025481E+02  0.39166857216E+02 -0.56536251273E+03  0.56687720936E+03  0.00000000000E+00 0. -1.
          1    1    1    2  502    0  0.35214540251E+02 -0.14882615323E+01  0.47191277051E+03  0.47322715659E+03  0.00000000000E+00 0. -1.
         22    1    3    3    0    0 -0.60145558139E+02  0.73155834645E+01 -0.62199003251E+02  0.86831572200E+02  0.00000000000E+00 0.  1.
         22    1    3    3    0    0  0.38383043368E+02 -0.44994179148E+02 -0.17590473926E+03  0.18558074110E+03  0.00000000000E+00 0.  1.
</event>
<event>
 7    1  0.6173324E-006  0.6207756E+02  0.7818608E-02  0.1449539E+00
          2   -1    0    0  502    0  0.00000000000E+00  0.00000000000E+00  0.83337733692E+03  0.83337733692E+03  0.00000000000E+00 0. -1.
          1   -1    0    0  501    0 -0.00000000000E+00 -0.00000000000E+00 -0.11067458622E+03  0.11067458622E+03  0.00000000000E+00 0. -1.
         25    2    1    2    0    0  0.49722523449E+02  0.53076865295E+02  0.23834380067E+03  0.27878820999E+03  0.12500246295E+03 0.  0.
          2    1    1    2  501    0 -0.60133958604E+02 -0.15449189704E+02 -0.79042523019E+02  0.10051114806E+03  0.00000000000E+00 0. -1.
          1    1    1    2  502    0  0.10411435154E+02 -0.37627675591E+02  0.56340147304E+03  0.56475256509E+03  0.00000000000E+00 0. -1.
         22    1    3    3    0    0  0.74678484404E+02  0.17094407904E+00  0.18545904715E+03  0.19992989627E+03  0.00000000000E+00 0.  1.
         22    1    3    3    0    0 -0.24955960954E+02  0.52905921216E+02  0.52884753526E+02  0.78858313717E+02  0.00000000000E+00 0.  1.
</event>
<event>
 7    1  0.6173324E-006  0.7858234E+02  0.7818608E-02  0.1398906E+00
          2   -1    0    0  502    0  0.00000000000E+00  0.00000000000E+00  0.25992422626E+03  0.25992422626E+03  0.00000000000E+00 0. -1.
          1   -1    0    0  501    0 -0.00000000000E+00 -0.00000000000E+00 -0.87512653898E+03  0.87512653898E+03  0.00000000000E+00 0. -1.
         25    2    1    2    0    0 -0.87107010247E+02  0.39241272988E+02 -0.67094732887E+01  0.15747442642E+03  0.12500267679E+03 0.  0.
          2    1    1    2  501    0  0.78247709982E+02  0.53092116378E+01 -0.78826375714E+03  0.79215569345E+03  0.00000000000E+00 0. -1.
          1    1    1    2  502    0  0.88593002647E+01 -0.44550484626E+02  0.17977091770E+03  0.18542064538E+03  0.00000000000E+00 0. -1.
         22    1    3    3    0    0 -0.11266341969E+03  0.12031298382E+02  0.14997373024E+02  0.11429225465E+03  0.00000000000E+00 0. -1.
         22    1    3    3    0    0  0.25556409440E+02  0.27209974606E+02 -0.21706846313E+02  0.43182171765E+02  0.00000000000E+00 0. -1.
</event>
<event>
 7    1  0.6173324E-006  0.1305672E+03  0.7818608E-02  0.1397588E+00
          2   -1    0    0  502    0  0.00000000000E+00  0.00000000000E+00  0.42182460680E+03  0.42182460680E+03  0.00000000000E+00 0. -1.
          1   -1    0    0  501    0 -0.00000000000E+00 -0.00000000000E+00 -0.37340879481E+03  0.37340879481E+03  0.00000000000E+00 0. -1.
         25    2    1    2    0    0 -0.20572671620E+02  0.12574406471E+03 -0.78696556448E+02  0.19507118449E+03  0.12499925757E+03 0.  0.
          2    1    1    2  501    0 -0.27368671657E+02 -0.37584739813E+01 -0.22383769793E+03  0.22553599564E+03  0.00000000000E+00 0. -1.
          1    1    1    2  502    0  0.47941343278E+02 -0.12198559073E+03  0.35095006637E+03  0.37462622148E+03  0.00000000000E+00 0. -1.
         22    1    3    3    0    0  0.20284175480E+02  0.90555495135E+02  0.78184248975E+01  0.93128262316E+02  0.00000000000E+00 0. -1.
         22    1    3    3    0    0 -0.40856847100E+02  0.35188569573E+02 -0.86514981345E+02  0.10194292217E+03  0.00000000000E+00 0. -1.
</event>
<event>
 7    1  0.6173324E-006  0.2091796E+03  0.7818608E-02  0.1192448E+00
          2   -1    0    0  502    0  0.00000000000E+00  0.00000000000E+00  0.14278986914E+04  0.14278986914E+04  0.00000000000E+00 0. -1.
          1   -1    0    0  501    0 -0.00000000000E+00 -0.00000000000E+00 -0.11347792788E+04  0.11347792788E+04  0.00000000000E+00 0. -1.
         25    2    1    2    0    0 -0.13980567532E+03  0.12193238878E+02  0.52564787549E+03  0.55823279100E+03  0.12499543195E+03 0.  0.
          2    1    1    2  501    0  0.16910863143E+03 -0.12589720804E+03 -0.11045821622E+04  0.11245219381E+04  0.00000000000E+00 0. -1.
          1    1    1    2  502    0 -0.29302956105E+02  0.11370396916E+03  0.87205369925E+03  0.87992324110E+03  0.00000000000E+00 0. -1.
         22    1    3    3    0    0 -0.46580112934E+02 -0.49072513859E+02  0.28597932157E+03  0.29387410724E+03  0.00000000000E+00 0. -1.
         22    1    3    3    0    0 -0.93225562387E+02  0.61265752738E+02  0.23966855392E+03  0.26435868376E+03  0.00000000000E+00 0. -1.
</event>
<event>
 7    1  0.6173324E-006  0.4637254E+02  0.7818608E-02  0.1495392E+00
          2   -1    0    0  502    0  0.00000000000E+00  0.00000000000E+00  0.18960386138E+04  0.18960386138E+04  0.00000000000E+00 0. -1.
          1   -1    0    0  501    0 -0.00000000000E+00 -0.00000000000E+00 -0.13608476020E+04  0.13608476020E+04  0.00000000000E+00 0. -1.
         25    2    1    2    0    0  0.58411962530E+02  0.27797912358E+01  0.38229254757E+03  0.40643708740E+03  0.12499531785E+03 0.  0.
          2    1    1    2  501    0 -0.36871138449E+02  0.28126175887E+02 -0.13481403182E+04  0.13489376858E+04  0.00000000000E+00 0. -1.
          1    1    1    2  502    0 -0.21540824081E+02 -0.30905967123E+02  0.15010387825E+04  0.15015114426E+04  0.00000000000E+00 0. -1.
         22    1    3    3    0    0 -0.14964639701E+02 -0.20125722179E+02  0.26510218761E+03  0.26628585206E+03  0.00000000000E+00 0. -1.
         22    1    3    3    0    0  0.73376602231E+02  0.22905513415E+02  0.11719035996E+03  0.14015123534E+03  0.00000000000E+00 0. -1.
</event>
<event>
 7    1  0.6173324E-006  0.9586892E+02  0.7818608E-02  0.1364406E+00
          2   -1    0    0  502    0  0.00000000000E+00  0.00000000000E+00  0.10472365552E+03  0.10472365552E+03  0.00000000000E+00 0. -1.
          1   -1    0    0  501    0 -0.00000000000E+00 -0.00000000000E+00 -0.10154396814E+04  0.10154396814E+04  0.00000000000E+00 0. -1.
         25    2    1    2    0    0 -0.51882960436E+02  0.72788683609E+02 -0.25556246766E+03  0.29820763494E+03  0.12500233845E+03 0.  0.
          2    1    1    2  501    0 -0.37107321180E+02 -0.32455796546E+02 -0.70878687148E+03  0.71049923377E+03  0.00000000000E+00 0. -1.
          1    1    1    2  502    0  0.88990281617E+02 -0.40332887063E+02  0.53633313288E+02  0.11145646816E+03  0.00000000000E+00 0. -1.
         22    1    3    3    0    0 -0.62355263232E+02 -0.15900605838E+02 -0.10926321554E+03  0.12680480428E+03  0.00000000000E+00 0.  1.
         22    1    3    3    0    0  0.10472302796E+02  0.88689289447E+02 -0.14629925212E+03  0.17140283066E+03  0.00000000000E+00 0.  1.
</event>
<event>
 7    1  0.6173324E-006  0.7386621E+02  0.7818608E-02  0.1490138E+00
          2   -1    0    0  502    0  0.00000000000E+00  0.00000000000E+00  0.65461239627E+02  0.65461239627E+02  0.00000000000E+00 0. -1.
          1   -1    0    0  501    0 -0.00000000000E+00 -0.00000000000E+00 -0.11848813763E+04  0.11848813763E+04  0.00000000000E+00 0. -1.
         25    2    1    2    0    0  0.85164863841E+02  0.13470137054E+01 -0.24101195287E+03  0.28454609472E+03  0.12499940046E+03 0.  0.
          2    1    1    2  501    0 -0.70901320850E+02  0.18607865076E+02 -0.91707833565E+03  0.92000321937E+03  0.00000000000E+00 0. -1.
          1    1    1    2  502    0 -0.14263542992E+02 -0.19954878782E+02  0.38670151864E+02  0.45793301814E+02  0.00000000000E+00 0. -1.
         22    1    3    3    0    0  0.41542740887E+02 -0.45252983394E+02 -0.19866348789E+03  0.20794425514E+03  0.00000000000E+00 0. -1.
         22    1    3    3    0    0  0.43622122954E+02  0.46599997099E+02 -0.42348464983E+02  0.76601839580E+02  0.00000000000E+00 0. -1.
</event>
<event>
 7    1  0.6173324E-006  0.1006996E+03  0.7818608E-02  0.1329531E+00
          2   -1    0    0  502    0  0.00000000000E+00  0.00000000000E+00  0.60469050490E+03  0.60469050490E+03  0.00000000000E+00 0. -1.
          1   -1    0    0  501    0 -0.00000000000E+00 -0.00000000000E+00 -0.43285915176E+03  0.43285915176E+03  0.00000000000E+00 0. -1.
         25    2    1    2    0    0  0.12158196365E+03 -0.10706753858E+03  0.21769968698E+03  0.29877141399E+03  0.12500228961E+03 0.  0.
          2    1    1    2  501    0 -0.70251028155E+02  0.70048405418E+02 -0.38306038488E+03  0.39569842624E+03  0.00000000000E+00 0. -1.
          1    1    1    2  502    0 -0.51330935491E+02  0.37019133159E+02  0.33719205104E+03  0.34307981643E+03  0.00000000000E+00 0. -1.
         22    1    3    3    0    0  0.14091392557E+03 -0.59073881558E+02  0.16639639561E+03  0.22590754386E+03  0.00000000000E+00 0.  1.
         22    1    3    3    0    0 -0.19331961920E+02 -0.47993657019E+02  0.51303291366E+02  0.72863870133E+02  0.00000000000E+00 0.  1.
</event>
<event>
 7    1  0.6173324E-006  0.1934874E+03  0.7818608E-02  0.1346734E+00
          2   -1    0    0  502    0  0.00000000000E+00  0.00000000000E+00  0.33481736269E+04  0.33481736269E+04  0.00000000000E+00 0. -1.
          1   -1    0    0  501    0 -0.00000000000E+00 -0.00000000000E+00 -0.57967321913E+02  0.57967321913E+02  0.00000000000E+00 0. -1.
         25    2    1    2    0    0 -0.18986082648E+03  0.20181644637E+02  0.22365330838E+04  0.22481456805E+04  0.12499733553E+03 0.  0.
          2    1    1    2  501    0  0.18769116974E+03 -0.48463763956E+02  0.12890998782E+03  0.23279711462E+03  0.00000000000E+00 0. -1.
          1    1    1    2  502    0  0.21696567317E+01  0.28282119319E+02  0.92476323345E+03  0.92519815371E+03  0.00000000000E+00 0. -1.
         22    1    3    3    0    0 -0.10746593080E+03  0.72218268053E+02  0.13919945859E+04  0.13980033375E+04  0.00000000000E+00 0. -1.
         22    1    3    3    0    0 -0.82394895680E+02 -0.52036623416E+02  0.84453849790E+03  0.85014234305E+03  0.00000000000E+00 0. -1.
</event>
<event>
 7    1  0.6173324E-006  0.9448740E+02  0.7818608E-02  0.1450757E+00
          2   -1    0    0  502    0  0.00000000000E+00  0.00000000000E+00  0.23419458308E+03  0.23419458308E+03  0.00000000000E+00 0. -1.
          1   -1    0    0  501    0 -0.00000000000E+00 -0.00000000000E+00 -0.59262582295E+03  0.59262582295E+03  0.00000000000E+00 0. -1.
         25    2    1    2    0    0 -0.84524002339E+02 -0.48654948444E+02 -0.60672381013E+02  0.16975706533E+03  0.12499884973E+03 0.  0.
          2    1    1    2  501    0  0.17750917540E+02 -0.18196881248E+02 -0.46461582509E+03  0.46531074185E+03  0.00000000000E+00 0. -1.
          1    1    1    2  502    0  0.66773084799E+02  0.66851829692E+02  0.16685696623E+03  0.19175259885E+03  0.00000000000E+00 0. -1.
         22    1    3    3    0    0 -0.78248748477E+02 -0.14911685318E+02  0.19963728243E+02  0.82120493439E+02  0.00000000000E+00 0.  1.
         22    1    3    3    0    0 -0.62752538615E+01 -0.33743263126E+02 -0.80636109256E+02  0.87636571894E+02  0.00000000000E+00 0.  1.
</event>
<event>
 7    1  0.6173324E-006  0.7566816E+02  0.7818608E-02  0.1379683E+00
          2   -1    0    0  502    0  0.00000000000E+00  0.00000000000E+00  0.12225108125E+04  0.12225108125E+04  0.00000000000E+00 0. -1.
          1   -1    0    0  501    0 -0.00000000000E+00 -0.00000000000E+00 -0.68647863733E+03  0.68647863733E+03  0.00000000000E+00 0. -1.
         25    2    1    2    0    0  0.91181728904E+02 -0.10856941092E+02  0.13713996500E+03  0.20704042227E+03  0.12500554226E+03 0.  0.
          2    1    1    2  501    0 -0.54814663442E+02  0.52198613658E+02 -0.64860448364E+03  0.65300621650E+03  0.00000000000E+00 0. -1.
          1    1    1    2  502    0 -0.36367065462E+02 -0.41341672566E+02  0.10474966938E+04  0.10489428111E+04  0.00000000000E+00 0. -1.
         22    1    3    3    0    0 -0.29278530129E+02  0.13327156128E+02  0.31100114860E+02  0.44744413744E+02  0.00000000000E+00 0.  1.
         22    1    3    3    0    0  0.12046025903E+03 -0.24184097220E+02  0.10603985014E+03  0.16229600852E+03  0.00000000000E+00 0.  1.
</event>
<event>
 7    1  0.6173324E-006  0.7500492E+02  0.7818608E-02  0.1359160E+00
          2   -1    0    0  502    0  0.00000000000E+00  0.00000000000E+00  0.18132133833E+04  0.18132133833E+04  0.00000000000E+00 0. -1.
          1   -1    0    0  501    0 -0.00000000000E+00 -0.00000000000E+00 -0.26792730193E+02  0.26792730193E+02  0.00000000000E+00 0. -1.
         25    2    1    2    0    0 -0.97755174666E+00  0.24186982768E+02  0.55473999778E+03  0.56916429829E+03  0.12500227026E+03 0.  0.
          2    1    1    2  501    0  0.36429058669E+02  0.54847729390E+02  0.42188561424E+02  0.78199900574E+02  0.00000000000E+00 0. -1.
          1    1    1    2  502    0 -0.35451506922E+02 -0.79034712157E+02  0.11894920939E+04  0.11926419146E+04  0.00000000000E+00 0. -1.
         22    1    3    3    0    0  0.54646946671E+02  0.38818658039E+02  0.35658759866E+03  0.36283314693E+03  0.00000000000E+00 0. -1.
         22    1    3    3    0    0 -0.55624498418E+02 -0.14631675272E+02  0.19815239912E+03  0.20633115136E+03  0.00000000000E+00 0. -1.
</event>
<event>
 7    1  0.6173324E-006  0.1168153E+03  0.7818608E-02  0.1300287E+00
          2   -1    0    0  502    0  0.00000000000E+00  0.00000000000E+00  0.95519768904E+03  0.95519768904E+03  0.00000000000E+00 0. -1.
          1   -1    0    0  501    0 -0.00000000000E+00 -0.00000000000E+00 -0.33622329706E+04  0.33622329706E+04  0.00000000000E+00 0. -1.
         25    2    1    2    0    0 -0.13499119007E+03 -0.17626084795E+02 -0.11473559168E+03  0.21753683244E+03  0.12499886883E+03 0.  0.
          2    1    1    2  501    0  0.28264755597E+02  0.65125558338E+02 -0.31919255606E+04  0.31927149919E+04  0.00000000000E+00 0. -1.
          1    1    1    2  502    0  0.10672643447E+03 -0.47499473543E+02  0.89962587078E+03  0.90717883528E+03  0.00000000000E+00 0. -1.
         22    1    3    3    0    0 -0.15369379185E+03 -0.20888591508E+00 -0.11503846222E+03  0.19197831408E+03  0.00000000000E+00 0. -1.
         22    1    3    3    0    0  0.18702601781E+02 -0.17417198880E+02  0.30287054175E+00  0.25558518360E+02  0.00000000000E+00 0. -1.
</event>
<event>
 7    1  0.6173324E-006  0.1164556E+03  0.7818608E-02  0.1279986E+00
          2   -1    0    0  502    0  0.00000000000E+00  0.00000000000E+00  0.43715107237E+03  0.43715107237E+03  0.00000000000E+00 0. -1.
          1   -1    0    0  501    0 -0.00000000000E+00 -0.00000000000E+00 -0.88226102937E+03  0.88226102937E+03  0.00000000000E+00 0. -1.
         25    2    1    2    0    0  0.34522601231E+01  0.10140055688E+03  0.12457331619E+03  0.20356182346E+03  0.12499965530E+03 0.  0.
          2    1    1    2  501    0 -0.86120065127E+02 -0.75602552683E+00 -0.82486691651E+03  0.82935075037E+03  0.00000000000E+00 0. -1.
          1    1    1    2  502    0  0.82667805004E+02 -0.10064453136E+03  0.25518364332E+03  0.28649952791E+03  0.00000000000E+00 0. -1.
         22    1    3    3    0    0 -0.16700926517E+02  0.65057126534E+02 -0.51313855239E+01  0.67362317187E+02  0.00000000000E+00 0.  1.
         22    1    3    3    0    0  0.20153186640E+02  0.36343430349E+02  0.12970470171E+03  0.13619950627E+03  0.00000000000E+00 0.  1.
</event>
<event>
 7    1  0.6173324E-006  0.6856148E+02  0.7818608E-02  0.1379117E+00
          2   -1    0    0  502    0  0.00000000000E+00  0.00000000000E+00  0.86298564233E+03  0.86298564233E+03  0.00000000000E+00 0. -1.
          1   -1    0    0  501    0 -0.00000000000E+00 -0.00000000000E+00 -0.23312946364E+02  0.23312946364E+02  0.00000000000E+00 0. -1.
         25    2    1    2    0    0 -0.14638232723E+02  0.38217478870E+02  0.43523222906E+03  0.45467438975E+03  0.12500741551E+03 0.  0.
          2    1    1    2  501    0 -0.23603784766E+02 -0.85804811118E+02  0.26014859131E+03  0.27494889312E+03  0.00000000000E+00 0. -1.
          1    1    1    2  502    0  0.38242017490E+02  0.47587332249E+02  0.14429187559E+03  0.15667530582E+03  0.00000000000E+00 0. -1.
         22    1    3    3    0    0  0.23661037308E+02  0.61706205722E+02  0.12681505609E+03  0.14300195440E+03  0.00000000000E+00 0.  1.
         22    1    3    3    0    0 -0.38299270031E+02 -0.23488726852E+02  0.30841717297E+03  0.31167243535E+03  0.00000000000E+00 0.  1.
</event>
<event>
 7    1  0.6173324E-006  0.7212539E+02  0.7818608E-02  0.1359328E+00
          2   -1    0    0  502    0  0.00000000000E+00  0.00000000000E+00  0.63552402006E+03  0.63552402006E+03  0.00000000000E+00 0. -1.
          1   -1    0    0  501    0 -0.00000000000E+00 -0.00000000000E+00 -0.29738482440E+03  0.29738482440E+03  0.00000000000E+00 0. -1.
         25    2    1    2    0    0 -0.10886710684E+03 -0.82736974346E+02 -0.47070740710E+02  0.19114790440E+03  0.12499765138E+03 0.  0.
          2    1    1    2  501    0  0.45317094552E+02  0.51201479192E+02 -0.16937550141E+03  0.18265620988E+03  0.00000000000E+00 0. -1.
          1    1    1    2  502    0  0.63550012287E+02  0.31535495154E+02  0.55458543778E+03  0.55910473018E+03  0.00000000000E+00 0. -1.
         22    1    3    3    0    0 -0.50254442867E+02 -0.17727135638E+02 -0.81261371734E+02  0.97175979037E+02  0.00000000000E+00 0.  1.
         22    1    3    3    0    0 -0.58612663972E+02 -0.65009838708E+02  0.34190631023E+02  0.93971925363E+02  0.00000000000E+00 0.  1.
</event>
<event>
 7    1  0.6173324E-006  0.3383914E+03  0.7818608E-02  0.1250845E+00
          2   -1    0    0  502    0  0.00000000000E+00  0.00000000000E+00  0.28904051114E+04  0.28904051114E+04  0.00000000000E+00 0. -1.
          1   -1    0    0  501    0 -0.00000000000E+00 -0.00000000000E+00 -0.50486021672E+03  0.50486021672E+03  0.00000000000E+00 0. -1.
         25    2    1    2    0    0  0.13905436502E+03 -0.27676394688E+03  0.63870191934E+03  0.72076124043E+03  0.12498890037E+03 0.  0.
          2    1    1    2  501    0  0.83230582424E+01 -0.38479996666E+02 -0.44926957774E+03  0.45099128254E+03  0.00000000000E+00 0. -1.
          1    1    1    2  502    0 -0.14737742326E+03  0.31524394354E+03  0.21961125531E+04  0.22235128052E+04  0.00000000000E+00 0. -1.
         22    1    3    3    0    0  0.13155917600E+03 -0.22056385628E+03  0.39947131430E+03  0.47490374018E+03  0.00000000000E+00 0. -1.
         22    1    3    3    0    0  0.74951890125E+01 -0.56200090599E+02  0.23923060504E+03  0.24585750025E+03  0.00000000000E+00 0. -1.
</event>
<event>
 7    1  0.6173324E-006  0.1209267E+03  0.7818608E-02  0.1264640E+00
          2   -1    0    0  502    0  0.00000000000E+00  0.00000000000E+00  0.23673139748E+04  0.23673139748E+04  0.00000000000E+00 0. -1.
          1   -1    0    0  501    0 -0.00000000000E+00 -0.00000000000E+00 -0.42017247943E+03  0.42017247943E+03  0.00000000000E+00 0. -1.
         25    2    1    2    0    0  0.12795224793E+03 -0.15478495361E+03  0.28691459582E+03  0.37185399148E+03  0.12500098428E+03 0.  0.
          2    1    1    2  501    0 -0.27940031811E+02  0.92005043150E+02 -0.36983954193E+03  0.38213460994E+03  0.00000000000E+00 0. -1.
          1    1    1    2  502    0 -0.10001221612E+03  0.62779910461E+02  0.20300664415E+04  0.20334978528E+04  0.00000000000E+00 0. -1.
         22    1    3    3    0    0  0.10944082888E+03 -0.16797348821E+03  0.28579091888E+03  0.34909717427E+03  0.00000000000E+00 0. -1.
         22    1    3    3    0    0  0.18511419045E+02  0.13188534597E+02  0.11236769414E+01  0.22756817215E+02  0.00000000000E+00 0. -1.
</event>
<event>
 7    1  0.6173324E-006  0.7139927E+02  0.7818608E-02  0.1387689E+00
          2   -1    0    0  502    0  0.00000000000E+00  0.00000000000E+00  0.87928939863E+03  0.87928939863E+03  0.00000000000E+00 0. -1.
          1   -1    0    0  501    0 -0.00000000000E+00 -0.00000000000E+00 -0.25511334114E+03  0.25511334114E+03  0.00000000000E+00 0. -1.
         25    2    1    2    0    0 -0.27020306100E+02  0.53600899593E+01  0.89434516481E+02  0.15614471427E+03  0.12499524611E+03 0.  0.
          2    1    1    2  501    0 -0.39676020409E+02 -0.37631482048E+02 -0.21653675230E+03  0.22333490576E+03  0.00000000000E+00 0. -1.
          1    1    1    2  502    0  0.66696326509E+02  0.32271392089E+02  0.75127829331E+03  0.75492311974E+03  0.00000000000E+00 0. -1.
         22    1    3    3    0    0 -0.19781541004E+02  0.25665123449E+02  0.11685538157E+03  0.12126495012E+03  0.00000000000E+00 0. -1.
         22    1    3    3    0    0 -0.72387650956E+01 -0.20305033490E+02 -0.27420865088E+02  0.34879764152E+02  0.00000000000E+00 0. -1.
</event>
<event>
 7    1  0.6173324E-006  0.1132637E+03  0.7818608E-02  0.1360364E+00
          2   -1    0    0  502    0  0.00000000000E+00  0.00000000000E+00  0.25987130040E+03  0.25987130040E+03  0.00000000000E+00 0. -1.
          1   -1    0    0  501    0 -0.00000000000E+00 -0.00000000000E+00 -0.74917884466E+03  0.74917884466E+03  0.00000000000E+00 0. -1.
         25    2    1    2    0    0  0.65236862243E+02  0.85452867404E+02 -0.12983293097E+03  0.20985524136E+03  0.12499836646E+03 0.  0.
          2    1    1    2  501    0 -0.35218336852E+02  0.24955408200E+02 -0.56356769204E+03  0.56521822968E+03  0.00000000000E+00 0. -1.
          1    1    1    2  502    0 -0.30018525390E+02 -0.11040827560E+03  0.20409307875E+03  0.23397667402E+03  0.00000000000E+00 0. -1.
         22    1    3    3    0    0 -0.16609396116E+02  0.53468948520E+02 -0.10424933063E+03  0.11833310370E+03  0.00000000000E+00 0.  1.
         22    1    3    3    0    0  0.81846258359E+02  0.31983918885E+02 -0.25583600348E+02  0.91522137657E+02  0.00000000000E+00 0.  1.
</event>
<event>
 7    1  0.6173324E-006  0.1767012E+03  0.7818608E-02  0.1316810E+00
          2   -1    0    0  502    0  0.00000000000E+00  0.00000000000E+00  0.11118877640E+04  0.11118877640E+04  0.00000000000E+00 0. -1.
          1   -1    0    0  501    0 -0.00000000000E+00 -0.00000000000E+00 -0.25228749528E+03  0.25228749528E+03  0.00000000000E+00 0. -1.
         25    2    1    2    0    0 -0.70966377641E+01 -0.17645365258E+03 -0.98850535723E+02  0.23788106340E+03  0.12501887112E+03 0.  0.
          2    1    1    2  501    0 -0.39948687667E+02  0.59201749845E+01 -0.71038913123E+02  0.81715808115E+02  0.00000000000E+00 0. -1.
          1    1    1    2  502    0  0.47045325431E+02  0.17053347760E+03  0.10294897176E+04  0.10445783878E+04  0.00000000000E+00 0. -1.
         22    1    3    3    0    0 -0.18704097850E+02 -0.96636606436E+02  0.13736945469E+02  0.99384006010E+02  0.00000000000E+00 0.  1.
         22    1    3    3    0    0  0.11607460086E+02 -0.79817046146E+02 -0.11258748119E+03  0.13849705739E+03  0.00000000000E+00 0.  1.
</event>
<event>
 7    1  0.6173324E-006  0.9721456E+02  0.7818608E-02  0.1355939E+00
          2   -1    0    0  502    0  0.00000000000E+00  0.00000000000E+00  0.40418163466E+04  0.40418163466E+04  0.00000000000E+00 0. -1.
          1   -1    0    0  501    0 -0.00000000000E+00 -0.00000000000E+00 -0.51828202041E+03  0.51828202041E+03  0.00000000000E+00 0. -1.
         25    2    1    2    0    0  0.31157074985E+02 -0.14438747631E+03  0.20273093022E+03  0.28025886407E+03  0.12500677656E+03 0.  0.
          2    1    1    2  501    0 -0.13517590491E+02  0.95258060537E+02 -0.47451065924E+03  0.48416648902E+03  0.00000000000E+00 0. -1.
          1    1    1    2  502    0 -0.17639484494E+02  0.49129415769E+02  0.37953140552E+04  0.37956730139E+04  0.00000000000E+00 0. -1.
         22    1    3    3    0    0 -0.27440839457E+01 -0.23245572567E+02  0.13572797640E+03  0.13773151498E+03  0.00000000000E+00 0. -1.
         22    1    3    3    0    0  0.33901158930E+02 -0.12114190374E+03  0.67002953823E+02  0.14252734909E+03  0.00000000000E+00 0. -1.
</event>
<event>
 7    1  0.6173324E-006  0.2817240E+03  0.7818608E-02  0.1163116E+00
          2   -1    0    0  502    0  0.00000000000E+00  0.00000000000E+00  0.45387231301E+03  0.45387231301E+03  0.00000000000E+00 0. -1.
          1   -1    0    0  501    0 -0.00000000000E+00 -0.00000000000E+00 -0.21609857158E+04  0.21609857158E+04  0.00000000000E+00 0. -1.
         25    2    1    2    0    0  0.94115679588E+02 -0.35162263163E+03 -0.11318230165E+03  0.40116201133E+03  0.12499795883E+03 0.  0.
          2    1    1    2  501    0 -0.84946338964E+02  0.86718277521E+02 -0.18447699965E+04  0.18487596599E+04  0.00000000000E+00 0. -1.
          1    1    1    2  502    0 -0.91693406236E+01  0.26490435410E+03  0.25083889538E+03  0.36493635755E+03  0.00000000000E+00 0. -1.
         22    1    3    3    0    0 -0.20370964458E+02 -0.75092305185E+02 -0.57465882865E+02  0.96727236001E+02  0.00000000000E+00 0.  1.
         22    1    3    3    0    0  0.11448664405E+03 -0.27653032644E+03 -0.55716418783E+02  0.30443477533E+03  0.00000000000E+00 0.  1.
</event>
<event>
 7    1  0.6173324E-006  0.9647274E+02  0.7818608E-02  0.1422356E+00
          2   -1    0    0  502    0  0.00000000000E+00  0.00000000000E+00  0.34807855958E+03  0.34807855958E+03  0.00000000000E+00 0. -1.
          1   -1    0    0  501    0 -0.00000000000E+00 -0.00000000000E+00 -0.35769846984E+04  0.35769846984E+04  0.00000000000E+00 0. -1.
         25    2    1    2    0    0 -0.37844390527E+02 -0.90947918519E+02 -0.95348485965E+02  0.18552632459E+03  0.12499984626E+03 0.  0.
          2    1    1    2  501    0  0.74821417505E+01  0.96224261086E+02 -0.34350841197E+04  0.34364397275E+04  0.00000000000E+00 0. -1.
          1    1    1    2  502    0  0.30362248777E+02 -0.52763425670E+01  0.30152646693E+03  0.30309720587E+03  0.00000000000E+00 0. -1.
         22    1    3    3    0    0  0.80430178366E+01 -0.17231756939E+01 -0.84171773865E+02  0.84572731929E+02  0.00000000000E+00 0. -1.
         22    1    3    3    0    0 -0.45887408364E+02 -0.89224742825E+02 -0.11176712100E+02  0.10095359266E+03  0.00000000000E+00 0. -1.
</event>
<event>
 7    1  0.6173324E-006  0.6277913E+02  0.7818608E-02  0.1518395E+00
          2   -1    0    0  502    0  0.00000000000E+00  0.00000000000E+00  0.17505617441E+04  0.17505617441E+04  0.00000000000E+00 0. -1.
          1   -1    0    0  501    0 -0.00000000000E+00 -0.00000000000E+00 -0.86690377881E+03  0.86690377881E+03  0.00000000000E+00 0. -1.
         25    2    1    2    0    0 -0.13441131337E+02  0.85080783745E+02  0.24482889228E+02  0.15373849437E+03  0.12496683164E+03 0.  0.
          2    1    1    2  501    0  0.77445889402E+01 -0.61979055157E+02 -0.80097487385E+03  0.80340657856E+03  0.00000000000E+00 0. -1.
          1    1    1    2  502    0  0.56965423965E+01 -0.23101728588E+02  0.16601499499E+04  0.16603204500E+04  0.00000000000E+00 0. -1.
         22    1    3    3    0    0  0.31651559219E+02 -0.57975854127E+01  0.39753916573E+02  0.51144961438E+02  0.00000000000E+00 0.  1.
         22    1    3    3    0    0 -0.45092690555E+02  0.90878369158E+02 -0.15271027345E+02  0.10259353293E+03  0.00000000000E+00 0.  1.
</event>
<event>
 7    1  0.6173324E-006  0.5548147E+02  0.7818608E-02  0.1487194E+00
          2   -1    0    0  502    0  0.00000000000E+00  0.00000000000E+00  0.10869473492E+03  0.10869473492E+03  0.00000000000E+00 0. -1.
          1   -1    0    0  501    0 -0.00000000000E+00 -0.00000000000E+00 -0.17834196500E+04  0.17834196500E+04  0.00000000000E+00 0. -1.
         25    2    1    2    0    0 -0.51406346385E+02  0.59129227223E+02 -0.12753660863E+03  0.19501290067E+03  0.12500226768E+03 0.  0.
          2    1    1    2  501    0  0.36674093270E+01 -0.33132043434E+02 -0.16120946513E+04  0.16124392537E+04  0.00000000000E+00 0. -1.
          1    1    1    2  502    0  0.47738937058E+02 -0.25997183788E+02  0.64906344854E+02  0.84662230532E+02  0.00000000000E+00 0. -1.
         22    1    3    3    0    0 -0.65350136101E+02  0.23711363189E+02 -0.13886895765E+03  0.15529796017E+03  0.00000000000E+00 0. -1.
         22    1    3    3    0    0  0.13943789716E+02  0.35417864034E+02  0.11332349024E+02  0.39714940498E+02  0.00000000000E+00 0. -1.
</event>
<event>
 7    1  0.6249771E-006  0.8209245E+02  0.7818608E-02  0.1334043E+00
          2   -1    0    0  502    0  0.00000000000E+00  0.00000000000E+00  0.59818228707E+03  0.59818228707E+03  0.00000000000E+00 0. -1.
          1   -1    0    0  501    0 -0.00000000000E+00 -0.00000000000E+00 -0.71716659204E+03  0.71716659204E+03  0.00000000000E+00 0. -1.
         25    2    1    2    0    0 -0.15964730400E+01 -0.17986951049E+02 -0.22127279442E+03  0.25477881768E+03  0.12499806900E+03 0.  0.
          2    1    1    2  501    0 -0.71519839399E+02 -0.21283249803E+02 -0.47324069464E+03  0.47908748597E+03  0.00000000000E+00 0. -1.
          1    1    1    2  502    0  0.73116312439E+02  0.39270200852E+02  0.57552918409E+03  0.58148257546E+03  0.00000000000E+00 0. -1.
         22    1    3    3    0    0  0.85944572893E+01  0.64305866045E+01  0.14213218305E+02  0.17811027898E+02  0.00000000000E+00 0.  1.
         22    1    3    3    0    0 -0.10190930329E+02 -0.24417537654E+02 -0.23548601272E+03  0.23696778978E+03  0.00000000000E+00 0.  1.
</event>
<event>
 7    1  0.6173324E-006  0.4494691E+02  0.7818608E-02  0.1516162E+00
          2   -1    0    0  502    0  0.00000000000E+00  0.00000000000E+00  0.13363117329E+03  0.13363117329E+03  0.00000000000E+00 0. -1.
          1   -1    0    0  501    0 -0.00000000000E+00 -0.00000000000E+00 -0.28866970095E+03  0.28866970095E+03  0.00000000000E+00 0. -1.
         25    2    1    2    0    0  0.36692531816E+02 -0.24107847619E+02 -0.19409265214E+03  0.23499352992E+03  0.12498988472E+03 0.  0.
          2    1    1    2  501    0  0.76948810452E+01  0.32846135447E+02 -0.65338574788E+02  0.73533728067E+02  0.00000000000E+00 0. -1.
          1    1    1    2  502    0 -0.44387412861E+02 -0.87382878285E+01  0.10439269927E+03  0.11377361625E+03  0.00000000000E+00 0. -1.
         22    1    3    3    0    0  0.41040444091E+02  0.21299204485E+01 -0.20286723559E+03  0.20698784962E+03  0.00000000000E+00 0.  1.
         22    1    3    3    0    0 -0.43479122746E+01 -0.26237768067E+02  0.87745834539E+01  0.28005680301E+02  0.00000000000E+00 0.  1.
</event>
<event>
 7    1  0.6173324E-006  0.1462070E+03  0.7818608E-02  0.1356467E+00
          2   -1    0    0  502    0  0.00000000000E+00  0.00000000000E+00  0.15936884790E+04  0.15936884790E+04  0.00000000000E+00 0. -1.
          1   -1    0    0  501    0 -0.00000000000E+00 -0.00000000000E+00 -0.28815325648E+03  0.28815325648E+03  0.00000000000E+00 0. -1.
         25    2    1    2    0    0 -0.15590865226E+03  0.85976805559E+02  0.17149098374E+03  0.27701057854E+03  0.12500473661E+03 0.  0.
          2    1    1    2  501    0  0.27560649163E+02 -0.20841846439E+02 -0.23031930916E+03  0.23289687872E+03  0.00000000000E+00 0. -1.
          1    1    1    2  502    0  0.12834800309E+03 -0.65134959120E+02  0.13643635480E+04  0.13719342783E+04  0.00000000000E+00 0. -1.
         22    1    3    3    0    0 -0.15254916073E+03  0.27340030799E+02  0.99801762658E+02  0.18433424954E+03  0.00000000000E+00 0.  1.
         22    1    3    3    0    0 -0.33594915250E+01  0.58636774760E+02  0.71689221078E+02  0.92676328997E+02  0.00000000000E+00 0.  1.
</event>
<event>
 7    1  0.6173324E-006  0.1417711E+03  0.7818608E-02  0.1218729E+00
          2   -1    0    0  502    0  0.00000000000E+00  0.00000000000E+00  0.23305975049E+04  0.23305975049E+04  0.00000000000E+00 0. -1.
          1   -1    0    0  501    0 -0.00000000000E+00 -0.00000000000E+00 -0.44135003399E+03  0.44135003399E+03  0.00000000000E+00 0. -1.
         25    2    1    2    0    0 -0.86227601423E+02  0.11706206696E+03 -0.28701574279E+02  0.19387482178E+03  0.12499975754E+03 0.  0.
          2    1    1    2  501    0  0.12915738195E+03  0.19237949808E+02 -0.31477209087E+03  0.34078321147E+03  0.00000000000E+00 0. -1.
          1    1    1    2  502    0 -0.42929780529E+02 -0.13630001677E+03  0.22327211361E+04  0.22372895057E+04  0.00000000000E+00 0. -1.
         22    1    3    3    0    0 -0.81014241798E+02  0.66097386425E+02 -0.71874795705E+02  0.12687851719E+03  0.00000000000E+00 0.  1.
         22    1    3    3    0    0 -0.52133596241E+01  0.50964680536E+02  0.43173221426E+02  0.66996304592E+02  0.00000000000E+00 0.  1.
</event>
<event>
 7    1  0.6173324E-006  0.4993804E+02  0.7818608E-02  0.1544286E+00
          2   -1    0    0  502    0  0.00000000000E+00  0.00000000000E+00  0.16807329987E+04  0.16807329987E+04  0.00000000000E+00 0. -1.
          1   -1    0    0  501    0 -0.00000000000E+00 -0.00000000000E+00 -0.43734929187E+02  0.43734929187E+02  0.00000000000E+00 0. -1.
         25    2    1    2    0    0  0.30181648755E+02 -0.85256785386E+01  0.23515132483E+03  0.26814735495E+03  0.12499295693E+03 0.  0.
          2    1    1    2  501    0 -0.41752579140E+02  0.30938016376E+02 -0.22335681598E+01  0.52013724620E+02  0.00000000000E+00 0. -1.
          1    1    1    2  502    0  0.11570930386E+02 -0.22412337837E+02  0.14040803128E+04  0.14043068483E+04  0.00000000000E+00 0. -1.
         22    1    3    3    0    0  0.71789476792E+02  0.23034191811E+02  0.15683917640E+03  0.17401962597E+03  0.00000000000E+00 0.  1.
         22    1    3    3    0    0 -0.41607828037E+02 -0.31559870349E+02  0.78312148435E+02  0.94127728980E+02  0.00000000000E+00 0.  1.
</event>
<event>
 7    1  0.6173324E-006  0.6869878E+02  0.7818608E-02  0.1388971E+00
          2   -1    0    0  502    0  0.00000000000E+00  0.00000000000E+00  0.18917636114E+04  0.18917636114E+04  0.00000000000E+00 0. -1.
          1   -1    0    0  501    0 -0.00000000000E+00 -0.00000000000E+00 -0.10047080918E+04  0.10047080918E+04  0.00000000000E+00 0. -1.
         25    2    1    2    0    0  0.11262942114E+03  0.51910850082E+02  0.15291806664E+03  0.23321464242E+03  0.12500004588E+03 0.  0.
          2    1    1    2  501    0 -0.51138385827E+02 -0.23428716872E+02 -0.96306296068E+03  0.96470425806E+03  0.00000000000E+00 0. -1.
          1    1    1    2  502    0 -0.61491035313E+02 -0.28482133210E+02  0.16972004137E+04  0.16985528027E+04  0.00000000000E+00 0. -1.
         22    1    3    3    0    0  0.62040475851E+02 -0.33621875630E+02  0.94509180098E+02  0.11794675192E+03  0.00000000000E+00 0.  1.
         22    1    3    3    0    0  0.50588945289E+02  0.85532725712E+02  0.58408886546E+02  0.11526789050E+03  0.00000000000E+00 0.  1.
</event>
<event>
 7    1  0.6173324E-006  0.7511518E+02  0.7818608E-02  0.1506078E+00
          2   -1    0    0  502    0  0.00000000000E+00  0.00000000000E+00  0.42523509027E+02  0.42523509027E+02  0.00000000000E+00 0. -1.
          1   -1    0    0  501    0 -0.00000000000E+00 -0.00000000000E+00 -0.29174368956E+04  0.29174368956E+04  0.00000000000E+00 0. -1.
         25    2    1    2    0    0  0.58173211832E+00  0.68272670647E+02 -0.88798964355E+03  0.89934062902E+03  0.12500585583E+03 0.  0.
          2    1    1    2  501    0 -0.21635847051E+02 -0.73151848853E+02 -0.20198196068E+04  0.20212596436E+04  0.00000000000E+00 0. -1.
          1    1    1    2  502    0  0.21054114933E+02  0.48791782067E+01  0.32895863787E+02  0.39360131985E+02  0.00000000000E+00 0. -1.
         22    1    3    3    0    0  0.19329624451E+02  0.11177249280E+02 -0.72948035377E+03  0.72982200009E+03  0.00000000000E+00 0. -1.
         22    1    3    3    0    0 -0.18747892332E+02  0.57095421367E+02 -0.15850928978E+03  0.16951862893E+03  0.00000000000E+00 0. -1.
</event>
<event>
 7    1  0.6173324E-006  0.6961097E+02  0.7818608E-02  0.1522359E+00
          2   -1    0    0  502    0  0.00000000000E+00  0.00000000000E+00  0.13073305523E+04  0.13073305523E+04  0.00000000000E+00 0. -1.
          1   -1    0    0  501    0 -0.00000000000E+00 -0.00000000000E+00 -0.13217462225E+03  0.13217462225E+03  0.00000000000E+00 0. -1.
         25    2    1    2    0    0 -0.19806184117E+00  0.66977958053E+02  0.14663574567E+03  0.20399321625E+03  0.12500041709E+03 0.  0.
          2    1    1    2  501    0  0.21094111088E+02 -0.66728154197E+02 -0.91556830021E+02  0.11524001566E+03  0.00000000000E+00 0. -1.
          1    1    1    2  502    0 -0.20896049247E+02 -0.24980385579E+00  0.11200770144E+04  0.11202719426E+04  0.00000000000E+00 0. -1.
         22    1    3    3    0    0 -0.46971419167E+02  0.72354770615E+02  0.12573240248E+03  0.15248004487E+03  0.00000000000E+00 0. -1.
         22    1    3    3    0    0  0.46773357326E+02 -0.53768125623E+01  0.20903343189E+02  0.51513171377E+02  0.00000000000E+00 0. -1.
</event>
<event>
 7    1  0.6173324E-006  0.5142930E+02  0.7818608E-02  0.1537860E+00
          2   -1    0    0  502    0  0.00000000000E+00  0.00000000000E+00  0.16921942020E+02  0.16921942020E+02  0.00000000000E+00 0. -1.
          1   -1    0    0  501    0 -0.00000000000E+00 -0.00000000000E+00 -0.19857941829E+04  0.19857941829E+04  0.00000000000E+00 0. -1.
         25    2    1    2    0    0  0.24874497878E+01 -0.35008440543E+02 -0.13408727429E+04  0.13471437815E+04  0.12499950756E+03 0.  0.
          2    1    1    2  501    0  0.79118210261E+01  0.58331338350E+02 -0.62726958949E+03  0.63002561841E+03  0.00000000000E+00 0. -1.
          1    1    1    2  502    0 -0.10399270814E+02 -0.23322897807E+02 -0.72990848061E+00  0.25546725073E+02  0.00000000000E+00 0. -1.
         22    1    3    3    0    0 -0.29506700676E+02 -0.69193113904E+02 -0.58405100764E+03  0.58887512422E+03  0.00000000000E+00 0. -1.
         22    1    3    3    0    0  0.31994150464E+02  0.34184673361E+02 -0.75682173530E+03  0.75826865726E+03  0.00000000000E+00 0. -1.
</event>
<event>
 7    1  0.6173324E-006  0.5929948E+02  0.7818608E-02  0.1487839E+00
          2   -1    0    0  502    0  0.00000000000E+00  0.00000000000E+00  0.13722278122E+03  0.13722278122E+03  0.00000000000E+00 0. -1.
          1   -1    0    0  501    0 -0.00000000000E+00 -0.00000000000E+00 -0.82330346553E+03  0.82330346553E+03  0.00000000000E+00 0. -1.
         25    2    1    2    0    0  0.73111055647E+02 -0.40706030831E+02 -0.26104026496E+03  0.30127998055E+03  0.12500159737E+03 0.  0.
          2    1    1    2  501    0 -0.55602918241E+02  0.15065519270E+02 -0.53852178090E+03  0.54159427885E+03  0.00000000000E+00 0. -1.
          1    1    1    2  502    0 -0.17508137406E+02  0.25640511562E+02  0.11348136154E+03  0.11765198735E+03  0.00000000000E+00 0. -1.
         22    1    3    3    0    0  0.64513136896E+02 -0.56113293714E+02 -0.26875128891E+03  0.28202464760E+03  0.00000000000E+00 0. -1.
         22    1    3    3    0    0  0.85979187507E+01  0.15407262883E+02  0.77110239523E+01  0.19255332944E+02  0.00000000000E+00 0. -1.
</event>
<event>
 7    1  0.6173324E-006  0.1609436E+03  0.7818608E-02  0.1223873E+00
          2   -1    0    0  502    0  0.00000000000E+00  0.00000000000E+00  0.74651136972E+03  0.74651136972E+03  0.00000000000E+00 0. -1.
          1   -1    0    0  501    0 -0.00000000000E+00 -0.00000000000E+00 -0.15899611675E+04  0.15899611675E+04  0.00000000000E+00 0. -1.
         25    2    1    2    0    0  0.70129238749E+02  0.58691747899E+02 -0.14439978021E+03  0.21175283954E+03  0.12500054852E+03 0.  0.
          2    1    1    2  501    0  0.95485149716E+02 -0.52553946963E+02 -0.14001056117E+04  0.14043415023E+04  0.00000000000E+00 0. -1.
          1    1    1    2  502    0 -0.16561438847E+03 -0.61378009356E+01  0.70105559415E+03  0.72037819537E+03  0.00000000000E+00 0. -1.
         22    1    3    3    0    0  0.35183241129E+02  0.13829150111E+02 -0.14992523551E+03  0.15461785826E+03  0.00000000000E+00 0. -1.
         22    1    3    3    0    0  0.34945997620E+02  0.44862597788E+02  0.55254553031E+01  0.57134981283E+02  0.00000000000E+00 0. -1.
</event>
<event>
 7    1  0.6173324E-006  0.8776088E+02  0.7818608E-02  0.1362952E+00
          2   -1    0    0  502    0  0.00000000000E+00  0.00000000000E+00  0.67931554871E+03  0.67931554871E+03  0.00000000000E+00 0. -1.
          1   -1    0    0  501    0 -0.00000000000E+00 -0.00000000000E+00 -0.38096396416E+03  0.38096396416E+03  0.00000000000E+00 0. -1.
         25    2    1    2    0    0 -0.13376209304E+02  0.13320246247E+03 -0.43026450999E+02  0.18814325612E+03  0.12499916142E+03 0.  0.
          2    1    1    2  501    0 -0.86004876314E+01 -0.83317835726E+02 -0.25750102132E+03  0.27078147300E+03  0.00000000000E+00 0. -1.
          1    1    1    2  502    0  0.21976696936E+02 -0.49884626743E+02  0.59887905687E+03  0.60135478376E+03  0.00000000000E+00 0. -1.
         22    1    3    3    0    0 -0.68940437622E+02  0.62335449155E+02 -0.17909606790E+02  0.94653294587E+02  0.00000000000E+00 0. -1.
         22    1    3    3    0    0  0.55564228317E+02  0.70867013314E+02 -0.25116844209E+02  0.93489961534E+02  0.00000000000E+00 0. -1.
</event>
<event>
 7    1  0.6173324E-006  0.1996081E+03  0.7818608E-02  0.1358653E+00
          2   -1    0    0  502    0  0.00000000000E+00  0.00000000000E+00  0.11792337294E+04  0.11792337294E+04  0.00000000000E+00 0. -1.
          1   -1    0    0  501    0 -0.00000000000E+00 -0.00000000000E+00 -0.11958422699E+04  0.11958422699E+04  0.00000000000E+00 0. -1.
         25    2    1    2    0    0  0.13237258919E+03  0.12536083872E+03 -0.58919440749E+03  0.62929187790E+03  0.12498150069E+03 0.  0.
          2    1    1    2  501    0 -0.52180978558E+00  0.24841763757E+02 -0.57771511267E+03  0.57824919967E+03  0.00000000000E+00 0. -1.
          1    1    1    2  502    0 -0.13185077940E+03 -0.15020260248E+03  0.11503009796E+04  0.11675349218E+04  0.00000000000E+00 0. -1.
         22    1    3    3    0    0  0.13611404309E+03  0.14359942100E+03 -0.56577159307E+03  0.59937077170E+03  0.00000000000E+00 0.  1.
         22    1    3    3    0    0 -0.37414539087E+01 -0.18238582278E+02 -0.23422814422E+02  0.29921106202E+02  0.00000000000E+00 0.  1.
</event>
<event>
 7    1  0.6173324E-006  0.2002118E+03  0.7818608E-02  0.1179422E+00
          2   -1    0    0  502    0  0.00000000000E+00  0.00000000000E+00  0.68777999874E+03  0.68777999874E+03  0.00000000000E+00 0. -1.
          1   -1    0    0  501    0 -0.00000000000E+00 -0.00000000000E+00 -0.26741020036E+04  0.26741020036E+04  0.00000000000E+00 0. -1.
         25    2    1    2    0    0 -0.14848268339E+03 -0.85323249968E+02 -0.20959443259E+03  0.29813190986E+03  0.12500258099E+03 0.  0.
          2    1    1    2  501    0  0.88655979634E+02 -0.11067996169E+03 -0.24017788535E+04  0.24059616784E+04  0.00000000000E+00 0. -1.
          1    1    1    2  502    0  0.59826703752E+02  0.19600321166E+03  0.62505128128E+03  0.65778841407E+03  0.00000000000E+00 0. -1.
         22    1    3    3    0    0 -0.67248669302E+02  0.19517216160E+02 -0.33353363006E+02  0.77561279472E+02  0.00000000000E+00 0.  1.
         22    1    3    3    0    0 -0.81234014084E+02 -0.10484046613E+03 -0.17624106958E+03  0.22057063039E+03  0.00000000000E+00 0.  1.
</event>
<event>
 7    1  0.6173324E-006  0.3248071E+02  0.7818608E-02  0.1583486E+00
          2   -1    0    0  502    0  0.00000000000E+00  0.00000000000E+00  0.57599041857E+03  0.57599041857E+03  0.00000000000E+00 0. -1.
          1   -1    0    0  501    0 -0.00000000000E+00 -0.00000000000E+00 -0.19273599283E+04  0.19273599283E+04  0.00000000000E+00 0. -1.
         25    2    1    2    0    0  0.25609546190E+01 -0.26170275405E+00  0.36405176977E+02  0.13022649201E+03  0.12500790108E+03 0.  0.
          2    1    1    2  501    0  0.30236884410E+02  0.17096514231E+01 -0.18797802519E+04  0.18800241987E+04  0.00000000000E+00 0. -1.
          1    1    1    2  502    0 -0.32797839029E+02 -0.14479486691E+01  0.49200556518E+03  0.49309965623E+03  0.00000000000E+00 0. -1.
         22    1    3    3    0    0 -0.74589915412E+01 -0.56852659307E+02  0.43972110338E+02  0.72259310215E+02  0.00000000000E+00 0. -1.
         22    1    3    3    0    0  0.10019946160E+02  0.56590956553E+02 -0.75669333619E+01  0.57967181794E+02  0.00000000000E+00 0. -1.
</event>
<event>
 7    1  0.6173324E-006  0.8585896E+02  0.7818608E-02  0.1408119E+00
          2   -1    0    0  502    0  0.00000000000E+00  0.00000000000E+00  0.14575597104E+04  0.14575597104E+04  0.00000000000E+00 0. -1.
          1   -1    0    0  501    0 -0.00000000000E+00 -0.00000000000E+00 -0.35708849015E+03  0.35708849015E+03  0.00000000000E+00 0. -1.
         25    2    1    2    0    0  0.88785345993E+02 -0.64818333593E+02 -0.89512912826E+02  0.18899867400E+03  0.12499473260E+03 0.  0.
          2    1    1    2  501    0 -0.74269399846E+01  0.37943062074E+02 -0.21480147931E+03  0.21825331821E+03  0.00000000000E+00 0. -1.
          1    1    1    2  502    0 -0.81358406008E+02  0.26875271519E+02  0.14047856124E+04  0.14073962083E+04  0.00000000000E+00 0. -1.
         22    1    3    3    0    0  0.17875965481E+02  0.29866477181E+02 -0.56196612434E+02  0.66103069899E+02  0.00000000000E+00 0. -1.
         22    1    3    3    0    0  0.70909380513E+02 -0.94684810774E+02 -0.33316300392E+02  0.12289560410E+03  0.00000000000E+00 0. -1.
</event>
<event>
 7    1  0.6173324E-006  0.7524975E+02  0.7818608E-02  0.1368827E+00
          2   -1    0    0  502    0  0.00000000000E+00  0.00000000000E+00  0.48134987063E+03  0.48134987063E+03  0.00000000000E+00 0. -1.
          1   -1    0    0  501    0 -0.00000000000E+00 -0.00000000000E+00 -0.29586644675E+04  0.29586644675E+04  0.00000000000E+00 0. -1.
         25    2    1    2    0    0 -0.76667664718E+02  0.62879964516E+00 -0.20293460276E+03  0.25038610635E+03  0.12502968868E+03 0.  0.
          2    1    1    2  501    0  0.51394633112E+02 -0.55639325590E+02 -0.27294743066E+04  0.27305250655E+04  0.00000000000E+00 0. -1.
          1    1    1    2  502    0  0.25273031606E+02  0.55010525945E+02  0.45509431247E+03  0.45910316633E+03  0.00000000000E+00 0. -1.
         22    1    3    3    0    0 -0.20672731090E+02  0.23510123853E+02 -0.18451821266E+03  0.18715517236E+03  0.00000000000E+00 0. -1.
         22    1    3    3    0    0 -0.55994933627E+02 -0.22881324208E+02 -0.18416390097E+02  0.63230933993E+02  0.00000000000E+00 0. -1.
</event>
<event>
 7    1  0.6173324E-006  0.8623244E+02  0.7818608E-02  0.1340087E+00
          2   -1    0    0  502    0  0.00000000000E+00  0.00000000000E+00  0.44080506761E+03  0.44080506761E+03  0.00000000000E+00 0. -1.
          1   -1    0    0  501    0 -0.00000000000E+00 -0.00000000000E+00 -0.88056247335E+03  0.88056247335E+03  0.00000000000E+00 0. -1.
         25    2    1    2    0    0 -0.38677042606E+02 -0.36352846375E+02 -0.21324339263E+02  0.13747728272E+03  0.12501133051E+03 0.  0.
          2    1    1    2  501    0  0.87862308724E+02 -0.97256506792E+01 -0.79572786374E+03  0.80062301161E+03  0.00000000000E+00 0. -1.
          1    1    1    2  502    0 -0.49185266118E+02  0.46078497054E+02  0.37729479727E+03  0.38326724663E+03  0.00000000000E+00 0. -1.
         22    1    3    3    0    0 -0.24924890660E+02  0.45519034906E+02 -0.15917406436E+02  0.54282562033E+02  0.00000000000E+00 0. -1.
         22    1    3    3    0    0 -0.13752151946E+02 -0.81871881281E+02 -0.54069328268E+01  0.83194720687E+02  0.00000000000E+00 0. -1.
</event>
<event>
 7    1  0.6173324E-006  0.1204120E+03  0.7818608E-02  0.1435246E+00
          2   -1    0    0  502    0  0.00000000000E+00  0.00000000000E+00  0.41232862761E+02  0.41232862761E+02  0.00000000000E+00 0. -1.
          1   -1    0    0  501    0 -0.00000000000E+00 -0.00000000000E+00 -0.17458105751E+04  0.17458105751E+04  0.00000000000E+00 0. -1.
         25    2    1    2    0    0  0.67714607277E+02  0.77007271579E+02 -0.86390711932E+03  0.87890634645E+03  0.12500186838E+03 0.  0.
          2    1    1    2  501    0  0.51453060958E+01  0.21789042425E+02 -0.76201274605E+03  0.76234156498E+03  0.00000000000E+00 0. -1.
          1    1    1    2  502    0 -0.72859913373E+02 -0.98796314004E+02 -0.78657846951E+02  0.14579552642E+03  0.00000000000E+00 0. -1.
         22    1    3    3    0    0  0.95003072767E+02  0.18168099760E+02 -0.50207418843E+03  0.51130632146E+03  0.00000000000E+00 0.  1.
         22    1    3    3    0    0 -0.27288465490E+02  0.58839171819E+02 -0.36183293090E+03  0.36760002499E+03  0.00000000000E+00 0.  1.
</event>
<event>
 7    1  0.6173324E-006  0.1276409E+03  0.7818608E-02  0.1366723E+00
          2   -1    0    0  502    0  0.00000000000E+00  0.00000000000E+00  0.92606404114E+03  0.92606404114E+03  0.00000000000E+00 0. -1.
          1   -1    0    0  501    0 -0.00000000000E+00 -0.00000000000E+00 -0.13575729756E+03  0.13575729756E+03  0.00000000000E+00 0. -1.
         25    2    1    2    0    0  0.76611971562E+02 -0.85613324346E+02  0.14388478796E+03  0.22254643590E+03  0.12500019374E+03 0.  0.
          2    1    1    2  501    0 -0.59227277318E+02  0.11750120303E+03 -0.50842574286E+02  0.14106512841E+03  0.00000000000E+00 0. -1.
          1    1    1    2  502    0 -0.17384694245E+02 -0.31887878689E+02  0.69726452989E+03  0.69820977439E+03  0.00000000000E+00 0. -1.
         22    1    3    3    0    0  0.28319551912E+02 -0.94460003488E+02  0.37724860382E+02  0.10558340007E+03  0.00000000000E+00 0.  1.
         22    1    3    3    0    0  0.48292419651E+02  0.88466791419E+01  0.10615992758E+03  0.11696303583E+03  0.00000000000E+00 0.  1.
</event>
<event>
 7    1  0.6173324E-006  0.9360636E+02  0.7818608E-02  0.1428431E+00
          2   -1    0    0  502    0  0.00000000000E+00  0.00000000000E+00  0.55652008376E+03  0.55652008376E+03  0.00000000000E+00 0. -1.
          1   -1    0    0  501    0 -0.00000000000E+00 -0.00000000000E+00 -0.96327185770E+03  0.96327185770E+03  0.00000000000E+00 0. -1.
         25    2    1    2    0    0  0.66146138879E+02  0.12348616398E+02 -0.25266291898E+03  0.28981170968E+03  0.12499790568E+03 0.  0.
          2    1    1    2  501    0  0.27874502843E+02 -0.11935397580E+02 -0.68758960804E+03  0.68825788097E+03  0.00000000000E+00 0. -1.
          1    1    1    2  502    0 -0.94020641721E+02 -0.41321881811E+00  0.53350075309E+03  0.54172235081E+03  0.00000000000E+00 0. -1.
         22    1    3    3    0    0 -0.22435544111E+02 -0.24669963054E+02 -0.21953514235E+02  0.39923896402E+02  0.00000000000E+00 0.  1.
         22    1    3    3    0    0  0.88581682990E+02  0.37018579452E+02 -0.23070940474E+03  0.24988781327E+03  0.00000000000E+00 0.  1.
</event>
<event>
 7    1  0.6173324E-006  0.1569949E+03  0.7818608E-02  0.1331796E+00
          2   -1    0    0  502    0  0.00000000000E+00  0.00000000000E+00  0.32122875367E+03  0.32122875367E+03  0.00000000000E+00 0. -1.
          1   -1    0    0  501    0 -0.00000000000E+00 -0.00000000000E+00 -0.15767560823E+04  0.15767560823E+04  0.00000000000E+00 0. -1.
         25    2    1    2    0    0 -0.66504433317E+02 -0.99779747641E+02 -0.39768385264E+03  0.43376971362E+03  0.12499952046E+03 0.  0.
          2    1    1    2  501    0 -0.13652332886E+02 -0.37378764977E+02 -0.11398479168E+04  0.11405423411E+04  0.00000000000E+00 0. -1.
          1    1    1    2  502    0  0.80156766203E+02  0.13715851262E+03  0.28200444079E+03  0.32367278134E+03  0.00000000000E+00 0. -1.
         22    1    3    3    0    0 -0.61289538837E+02 -0.12265347731E+03 -0.25841065808E+03  0.29253435914E+03  0.00000000000E+00 0.  1.
         22    1    3    3    0    0 -0.52148944792E+01  0.22873729667E+02 -0.13927319456E+03  0.14123535448E+03  0.00000000000E+00 0.  1.
</event>
<event>
 7    1  0.6173324E-006  0.4922243E+02  0.7818608E-02  0.1475192E+00
          2   -1    0    0  502    0  0.00000000000E+00  0.00000000000E+00  0.65169168974E+03  0.65169168974E+03  0.00000000000E+00 0. -1.
          1   -1    0    0  501    0 -0.00000000000E+00 -0.00000000000E+00 -0.99280209956E+02  0.99280209956E+02  0.00000000000E+00 0. -1.
         25    2    1    2    0    0 -0.16719698018E+02  0.14779969413E+02  0.64500704888E+02  0.14242045714E+03  0.12500099953E+03 0.  0.
          2    1    1    2  501    0  0.52870651594E+02  0.43312890646E+01 -0.47725366552E+02  0.71356684883E+02  0.00000000000E+00 0. -1.
          1    1    1    2  502    0 -0.36150953576E+02 -0.19111258478E+02  0.53563614145E+03  0.53719475767E+03  0.00000000000E+00 0. -1.
         22    1    3    3    0    0 -0.62051930775E+02  0.37768164376E+02  0.54012070347E+02  0.90521710635E+02  0.00000000000E+00 0.  1.
         22    1    3    3    0    0  0.45332232757E+02 -0.22988194963E+02  0.10488634541E+02  0.51898746506E+02  0.00000000000E+00 0.  1.
</event>
<event>
 7    1  0.9016943E-006  0.5513929E+02  0.7818608E-02  0.1423536E+00
          2   -1    0    0  502    0  0.00000000000E+00  0.00000000000E+00  0.20744687960E+04  0.20744687960E+04  0.00000000000E+00 0. -1.
          1   -1    0    0  501    0 -0.00000000000E+00 -0.00000000000E+00 -0.76180817016E+03  0.76180817016E+03  0.00000000000E+00 0. -1.
         25    2    1    2    0    0 -0.20612862187E+02  0.49381063639E+02 -0.64342739910E+02  0.15043777628E+03  0.12501262664E+03 0.  0.
          2    1    1    2  501    0  0.55203006524E+02 -0.86540938450E+01 -0.65287292489E+03  0.65525973577E+03  0.00000000000E+00 0. -1.
          1    1    1    2  502    0 -0.34590144336E+02 -0.40726969794E+02  0.20298762907E+04  0.20305794541E+04  0.00000000000E+00 0. -1.
         22    1    3    3    0    0  0.51528989697E+02  0.62192470370E+01 -0.25568203334E+02  0.57858869973E+02  0.00000000000E+00 0. -1.
         22    1    3    3    0    0 -0.72141851884E+02  0.43161816602E+02 -0.38774536577E+02  0.92578906303E+02  0.00000000000E+00 0. -1.
</event>
<event>
 7    1  0.6173324E-006  0.2208898E+03  0.7818608E-02  0.1164970E+00
          2   -1    0    0  502    0  0.00000000000E+00  0.00000000000E+00  0.14312713691E+04  0.14312713691E+04  0.00000000000E+00 0. -1.
          1   -1    0    0  501    0 -0.00000000000E+00 -0.00000000000E+00 -0.44861367375E+03  0.44861367375E+03  0.00000000000E+00 0. -1.
         25    2    1    2    0    0 -0.26205386489E+03 -0.11239721119E+03  0.96162226321E+02  0.32585107984E+03  0.12500556496E+03 0.  0.
          2    1    1    2  501    0  0.45768419996E+02  0.14446375565E+03 -0.30610149639E+03  0.34155914724E+03  0.00000000000E+00 0. -1.
          1    1    1    2  502    0  0.21628544490E+03 -0.32066544460E+02  0.11925969654E+04  0.12124748158E+04  0.00000000000E+00 0. -1.
         22    1    3    3    0    0 -0.24295859093E+03 -0.52746833815E+02  0.73688829834E+02  0.25930898370E+03  0.00000000000E+00 0. -1.
         22    1    3    3    0    0 -0.19095273964E+02 -0.59650377375E+02  0.22473396487E+02  0.66542096137E+02  0.00000000000E+00 0. -1.
</event>
<event>
 7    1  0.6173324E-006  0.1025263E+03  0.7818608E-02  0.1397301E+00
          2   -1    0    0  502    0  0.00000000000E+00  0.00000000000E+00  0.39201844103E+03  0.39201844103E+03  0.00000000000E+00 0. -1.
          1   -1    0    0  501    0 -0.00000000000E+00 -0.00000000000E+00 -0.27304745861E+03  0.27304745861E+03  0.00000000000E+00 0. -1.
         25    2    1    2    0    0  0.62451819817E+02 -0.51485701145E+02 -0.53581008454E+02  0.15823534667E+03  0.12496596836E+03 0.  0.
          2    1    1    2  501    0  0.33626059835E+02  0.10614068143E+02 -0.15711567650E+03  0.16102393034E+03  0.00000000000E+00 0. -1.
          1    1    1    2  502    0 -0.96077879652E+02  0.40871633002E+02  0.32966766737E+03  0.34580662262E+03  0.00000000000E+00 0. -1.
         22    1    3    3    0    0  0.10873150897E+02 -0.82088790859E+02 -0.85674026426E+01  0.83247795065E+02  0.00000000000E+00 0. -1.
         22    1    3    3    0    0  0.51578668920E+02  0.30603089714E+02 -0.45013605811E+02  0.74987551605E+02  0.00000000000E+00 0. -1.
</event>
<event>
 7    1  0.6173324E-006  0.1101252E+03  0.7818608E-02  0.1297568E+00
          2   -1    0    0  502    0  0.00000000000E+00  0.00000000000E+00  0.87225640051E+03  0.87225640051E+03  0.00000000000E+00 0. -1.
          1   -1    0    0  501    0 -0.00000000000E+00 -0.00000000000E+00 -0.17064242075E+03  0.17064242075E+03  0.00000000000E+00 0. -1.
         25    2    1    2    0    0  0.99919995286E+02  0.14976209359E+03  0.12727390277E+03  0.25344782756E+03  0.12499785933E+03 0.  0.
          2    1    1    2  501    0 -0.55056406888E+02 -0.54149102172E+02 -0.88956301817E+02  0.11779879812E+03  0.00000000000E+00 0. -1.
          1    1    1    2  502    0 -0.44863588398E+02 -0.95612991413E+02  0.66329637880E+03  0.67165219558E+03  0.00000000000E+00 0. -1.
         22    1    3    3    0    0  0.78839106109E+02  0.19878943639E+02  0.78782625585E+02  0.11321430628E+03  0.00000000000E+00 0.  1.
         22    1    3    3    0    0  0.21080889177E+02  0.12988314995E+03  0.48491277184E+02  0.14023352128E+03  0.00000000000E+00 0.  1.
</event>
<event>
 7    1  0.6173324E-006  0.7250538E+02  0.7818608E-02  0.1473426E+00
          2   -1    0    0  502    0  0.00000000000E+00  0.00000000000E+00  0.21752988172E+04  0.21752988172E+04  0.00000000000E+00 0. -1.
          1   -1    0    0  501    0 -0.00000000000E+00 -0.00000000000E+00 -0.40215800440E+02  0.40215800440E+02  0.00000000000E+00 0. -1.
         25    2    1    2    0    0 -0.93464073516E+02 -0.17575796245E+02  0.92545203147E+03  0.93868628754E+03  0.12500416876E+03 0.  0.
          2    1    1    2  501    0  0.71640222536E+02 -0.14393665955E+00  0.49411736732E+01  0.71810566075E+02  0.00000000000E+00 0. -1.
          1    1    1    2  502    0  0.21823850980E+02  0.17719732905E+02  0.12046898116E+04  0.12050177640E+04  0.00000000000E+00 0. -1.
         22    1    3    3    0    0 -0.11385187861E+03 -0.37019542835E+02  0.58822033791E+03  0.60027982037E+03  0.00000000000E+00 0.  1.
         22    1    3    3    0    0  0.20387805095E+02  0.19443746590E+02  0.33723169356E+03  0.33840646717E+03  0.00000000000E+00 0.  1.
</event>
<event>
 7    1  0.6173324E-006  0.5214013E+02  0.7818608E-02  0.1476059E+00
          2   -1    0    0  502    0  0.00000000000E+00  0.00000000000E+00  0.12910174127E+04  0.12910174127E+04  0.00000000000E+00 0. -1.
          1   -1    0    0  501    0 -0.00000000000E+00 -0.00000000000E+00 -0.65615516719E+03  0.65615516719E+03  0.00000000000E+00 0. -1.
         25    2    1    2    0    0  0.50738191400E+02 -0.10399250827E+02 -0.52629712073E+03  0.54341259819E+03  0.12500433631E+03 0.  0.
          2    1    1    2  501    0 -0.20749436390E+02 -0.32271170372E+02 -0.11772171864E+03  0.12381587373E+03  0.00000000000E+00 0. -1.
          1    1    1    2  502    0 -0.29988755009E+02  0.42670421199E+02  0.12788810849E+04  0.12799441080E+04  0.00000000000E+00 0. -1.
         22    1    3    3    0    0  0.74926352010E+02 -0.25379257709E+02 -0.49432302631E+03  0.50061294359E+03  0.00000000000E+00 0. -1.
         22    1    3    3    0    0 -0.24188160611E+02  0.14980006882E+02 -0.31974094424E+02  0.42799654603E+02  0.00000000000E+00 0. -1.
</event>
<event>
 7    1  0.6173324E-006  0.1422747E+03  0.7818608E-02  0.1227372E+00
          2   -1    0    0  502    0  0.00000000000E+00  0.00000000000E+00  0.22700497279E+04  0.22700497279E+04  0.00000000000E+00 0. -1.
          1   -1    0    0  501    0 -0.00000000000E+00 -0.00000000000E+00 -0.93833435093E+03  0.93833435093E+03  0.00000000000E+00 0. -1.
         25    2    1    2    0    0 -0.16793000326E+03 -0.19411016121E+03  0.23112655955E+03  0.36731953697E+03  0.12499966013E+03 0.  0.
          2    1    1    2  501    0  0.10415246487E+03  0.93776846842E+02 -0.86278541149E+03  0.87409410204E+03  0.00000000000E+00 0. -1.
          1    1    1    2  502    0  0.63777538395E+02  0.10033331437E+03  0.19633742290E+04  0.19669704399E+04  0.00000000000E+00 0. -1.
         22    1    3    3    0    0 -0.15903531517E+03 -0.15692210554E+03  0.24017593134E+03  0.32802630485E+03  0.00000000000E+00 0. -1.
         22    1    3    3    0    0 -0.88946880909E+01 -0.37188055673E+02 -0.90493717917E+01  0.39293232124E+02  0.00000000000E+00 0. -1.
</event>
<event>
 7    1  0.6173324E-006  0.1071023E+03  0.7818608E-02  0.1315346E+00
          2   -1    0    0  502    0  0.00000000000E+00  0.00000000000E+00  0.44649138997E+04  0.44649138997E+04  0.00000000000E+00 0. -1.
          1   -1    0    0  501    0 -0.00000000000E+00 -0.00000000000E+00 -0.55724617735E+02  0.55724617735E+02  0.00000000000E+00 0. -1.
         25    2    1    2    0    0  0.51763127515E+02  0.50789664083E+02  0.94749389670E+02  0.17280414462E+03  0.12499925683E+03 0.  0.
          2    1    1    2  501    0  0.55501622531E+02 -0.38436752483E+02  0.55144684622E+02  0.87170810981E+02  0.00000000000E+00 0. -1.
          1    1    1    2  502    0 -0.10726475005E+03 -0.12352911599E+02  0.42592952077E+04  0.42606635618E+04  0.00000000000E+00 0. -1.
         22    1    3    3    0    0 -0.31374109983E+02 -0.17231986658E+01  0.61394411434E+02  0.68967948687E+02  0.00000000000E+00 0. -1.
         22    1    3    3    0    0  0.83137237497E+02  0.52512862749E+02  0.33354978236E+02  0.10383619593E+03  0.00000000000E+00 0. -1.
</event>
<event>
 7    1  0.6173324E-006  0.6469243E+02  0.7818608E-02  0.1426097E+00
          2   -1    0    0  502    0  0.00000000000E+00  0.00000000000E+00  0.61160869123E+03  0.61160869123E+03  0.00000000000E+00 0. -1.
          1   -1    0    0  501    0 -0.00000000000E+00 -0.00000000000E+00 -0.17160114033E+03  0.17160114033E+03  0.00000000000E+00 0. -1.
         25    2    1    2    0    0 -0.22770323528E+02  0.52295355766E+02 -0.82867255249E+02  0.16045364647E+03  0.12500039522E+03 0.  0.
          2    1    1    2  501    0 -0.16231115533E+02 -0.74054989081E+02 -0.19712670308E+02  0.78333772346E+02  0.00000000000E+00 0. -1.
          1    1    1    2  502    0  0.39001439061E+02  0.21759633315E+02  0.54258747646E+03  0.54442241275E+03  0.00000000000E+00 0. -1.
         22    1    3    3    0    0 -0.21148384136E+02  0.90455712022E+02 -0.35126930135E+02  0.99314607232E+02  0.00000000000E+00 0.  1.
         22    1    3    3    0    0 -0.16219393920E+01 -0.38160356256E+02 -0.47740325114E+02  0.61139039238E+02  0.00000000000E+00 0.  1.
</event>
<event>
 7    1  0.6173324E-006  0.5524640E+02  0.7818608E-02  0.1461911E+00
          2   -1    0    0  502    0  0.00000000000E+00  0.00000000000E+00  0.17387977931E+04  0.17387977931E+04  0.00000000000E+00 0. -1.
          1   -1    0    0  501    0 -0.00000000000E+00 -0.00000000000E+00 -0.12451649161E+03  0.12451649161E+03  0.00000000000E+00 0. -1.
         25    2    1    2    0    0 -0.13729808424E+02 -0.10358028888E+02  0.31536684232E+03  0.33967343275E+03  0.12500399705E+03 0.  0.
          2    1    1    2  501    0 -0.35933256306E+02 -0.17746403657E+02 -0.10819287391E+03  0.11537691154E+03  0.00000000000E+00 0. -1.
          1    1    1    2  502    0  0.49663064731E+02  0.28104432545E+02  0.14071073331E+04  0.14082639404E+04  0.00000000000E+00 0. -1.
         22    1    3    3    0    0 -0.40362572544E+02 -0.34813848027E+02  0.54210109123E+02  0.76025503668E+02  0.00000000000E+00 0. -1.
         22    1    3    3    0    0  0.26632764120E+02  0.24455819139E+02  0.26115673320E+03  0.26364792908E+03  0.00000000000E+00 0. -1.
</event>
<event>
 7    1  0.6173324E-006  0.5206580E+02  0.7818608E-02  0.1559480E+00
          2   -1    0    0  502    0  0.00000000000E+00  0.00000000000E+00  0.93436126394E+02  0.93436126394E+02  0.00000000000E+00 0. -1.
          1   -1    0    0  501    0 -0.00000000000E+00 -0.00000000000E+00 -0.42674655934E+03  0.42674655934E+03  0.00000000000E+00 0. -1.
         25    2    1    2    0    0  0.46993067055E+02  0.42088009926E+02 -0.82104190488E+02  0.16231421865E+03  0.12500023420E+03 0.  0.
          2    1    1    2  501    0  0.13218481666E+00 -0.21947792430E+02 -0.29171734545E+03  0.29254184777E+03  0.00000000000E+00 0. -1.
          1    1    1    2  502    0 -0.47125251871E+02 -0.20140217496E+02  0.40511102987E+02  0.65326619306E+02  0.00000000000E+00 0. -1.
         22    1    3    3    0    0  0.28017415039E+02 -0.60693579115E+01  0.28359579246E+02  0.40324662255E+02  0.00000000000E+00 0. -1.
         22    1    3    3    0    0  0.18975652015E+02  0.48157367838E+02 -0.11046376973E+03  0.12198955640E+03  0.00000000000E+00 0. -1.
</event>
<event>
 7    1  0.6173324E-006  0.4236199E+02  0.7818608E-02  0.1535693E+00
          2   -1    0    0  502    0  0.00000000000E+00  0.00000000000E+00  0.43169153816E+03  0.43169153816E+03  0.00000000000E+00 0. -1.
          1   -1    0    0  501    0 -0.00000000000E+00 -0.00000000000E+00 -0.19402401762E+03  0.19402401762E+03  0.00000000000E+00 0. -1.
         25    2    1    2    0    0  0.95350217366E+01  0.14719196988E+02  0.19721417004E+02  0.12774861622E+03  0.12499281282E+03 0.  0.
          2    1    1    2  501    0 -0.14136006065E+02  0.28087849744E+02 -0.13692730094E+03  0.14049142221E+03  0.00000000000E+00 0. -1.
          1    1    1    2  502    0  0.46009843287E+01 -0.42807046732E+02  0.35487340447E+03  0.35747551735E+03  0.00000000000E+00 0. -1.
         22    1    3    3    0    0  0.30763442288E+01 -0.45756865294E+02 -0.25023024982E+02  0.52242764041E+02  0.00000000000E+00 0. -1.
         22    1    3    3    0    0  0.64586775078E+01  0.60476062282E+02  0.44744441986E+02  0.75505852177E+02  0.00000000000E+00 0. -1.
</event>
<event>
 7    1  0.6173324E-006  0.9130160E+02  0.7818608E-02  0.1352600E+00
          2   -1    0    0  502    0  0.00000000000E+00  0.00000000000E+00  0.33331431635E+04  0.33331431635E+04  0.00000000000E+00 0. -1.
          1   -1    0    0  501    0 -0.00000000000E+00 -0.00000000000E+00 -0.43841732641E+02  0.43841732641E+02  0.00000000000E+00 0. -1.
         25    2    1    2    0    0 -0.76215202780E+02 -0.10729439108E+02  0.17321956797E+04  0.17384045296E+04  0.12499823177E+03 0.  0.
          2    1    1    2  501    0  0.79743467177E+02 -0.46337517525E+02  0.12679915430E+02  0.93096543132E+02  0.00000000000E+00 0. -1.
          1    1    1    2  502    0 -0.35282643968E+01  0.57066956633E+02  0.15444258357E+04  0.15454838233E+04  0.00000000000E+00 0. -1.
         22    1    3    3    0    0  0.63709909916E+01 -0.33341755878E+02  0.14578686412E+03  0.14968657910E+03  0.00000000000E+00 0. -1.
         22    1    3    3    0    0 -0.82586193772E+02  0.22612316771E+02  0.15864088156E+04  0.15887179505E+04  0.00000000000E+00 0. -1.
</event>
<event>
 7    1  0.6173324E-006  0.5711421E+02  0.7818608E-02  0.1444393E+00
          2   -1    0    0  502    0  0.00000000000E+00  0.00000000000E+00  0.20905543861E+04  0.20905543861E+04  0.00000000000E+00 0. -1.
          1   -1    0    0  501    0 -0.00000000000E+00 -0.00000000000E+00 -0.10752050417E+02  0.10752050417E+02  0.00000000000E+00 0. -1.
         25    2    1    2    0    0 -0.49811480290E+02  0.16048999942E+02  0.76282245050E+03  0.77476536304E+03  0.12499809122E+03 0.  0.
          2    1    1    2  501    0  0.55522647572E+02  0.27660487237E+02  0.21736364555E+03  0.22604163633E+03  0.00000000000E+00 0. -1.
          1    1    1    2  502    0 -0.57111672820E+01 -0.43709487179E+02  0.10996162396E+04  0.11004994371E+04  0.00000000000E+00 0. -1.
         22    1    3    3    0    0 -0.23445617330E+02 -0.38980675311E+02  0.10912737154E+03  0.11822847897E+03  0.00000000000E+00 0. -1.
         22    1    3    3    0    0 -0.26365862960E+02  0.55029675253E+02  0.65369507896E+03  0.65653688407E+03  0.00000000000E+00 0. -1.
</event>
<event>
 7    1  0.6173324E-006  0.4101565E+02  0.7818608E-02  0.1604559E+00
          2   -1    0    0  502    0  0.00000000000E+00  0.00000000000E+00  0.14454299829E+03  0.14454299829E+03  0.00000000000E+00 0. -1.
          1   -1    0    0  501    0 -0.00000000000E+00 -0.00000000000E+00 -0.10251346817E+03  0.10251346817E+03  0.00000000000E+00 0. -1.
         25    2    1    2    0    0  0.24762777033E+02 -0.51933852838E+02 -0.80496902830E+00  0.13760624761E+03  0.12499804482E+03 0.  0.
          2    1    1    2  501    0 -0.16672441682E+02  0.12942565208E+02 -0.23807877819E+02  0.31816589259E+02  0.00000000000E+00 0. -1.
          1    1    1    2  502    0 -0.80903353509E+01  0.38991287629E+02  0.66642376965E+02  0.77633629598E+02  0.00000000000E+00 0. -1.
         22    1    3    3    0    0 -0.32267972130E+02  0.20800134721E+02 -0.19877888190E+02  0.43231910306E+02  0.00000000000E+00 0. -1.
         22    1    3    3    0    0  0.57030749163E+02 -0.72733987558E+02  0.19072919162E+02  0.94374337304E+02  0.00000000000E+00 0. -1.
</event>
<event>
 7    1  0.6173324E-006  0.5853046E+02  0.7818608E-02  0.1461850E+00
          2   -1    0    0  502    0  0.00000000000E+00  0.00000000000E+00  0.30269410763E+04  0.30269410763E+04  0.00000000000E+00 0. -1.
          1   -1    0    0  501    0 -0.00000000000E+00 -0.00000000000E+00 -0.69001619510E+02  0.69001619510E+02  0.00000000000E+00 0. -1.
         25    2    1    2    0    0  0.18606354983E+02  0.22539676433E+02  0.95769894125E+03  0.96626388700E+03  0.12499761517E+03 0.  0.
          2    1    1    2  501    0 -0.56181954419E+02 -0.18034746146E+02 -0.51059116365E+02  0.78030105952E+02  0.00000000000E+00 0. -1.
          1    1    1    2  502    0  0.37575599436E+02 -0.45049302871E+01  0.20512996319E+04  0.20516487028E+04  0.00000000000E+00 0. -1.
         22    1    3    3    0    0 -0.30308143470E+02  0.50944952198E+02  0.27987272282E+03  0.28608165389E+03  0.00000000000E+00 0. -1.
         22    1    3    3    0    0  0.48914498453E+02 -0.28405275765E+02  0.67782621843E+03  0.68018223311E+03  0.00000000000E+00 0. -1.
</event>
<event>
 7    1  0.6173324E-006  0.1256614E+03  0.7818608E-02  0.1256357E+00
          2   -1    0    0  502    0  0.00000000000E+00  0.00000000000E+00  0.30750393897E+04  0.30750393897E+04  0.00000000000E+00 0. -1.
          1   -1    0    0  501    0 -0.00000000000E+00 -0.00000000000E+00 -0.11488335780E+04  0.11488335780E+04  0.00000000000E+00 0. -1.
         25    2    1    2    0    0 -0.92230662933E+02 -0.17756567165E+03 -0.56365492696E+03  0.61103834135E+03  0.12499965992E+03 0.  0.
          2    1    1    2  501    0 -0.65976139648E+01  0.10015430252E+03 -0.55569789337E+03  0.56468979229E+03  0.00000000000E+00 0. -1.
          1    1    1    2  502    0  0.98828276897E+02  0.77411369128E+02  0.30455586320E+04  0.30481448341E+04  0.00000000000E+00 0. -1.
         22    1    3    3    0    0 -0.57977307474E+01  0.32471651712E+01  0.48608028570E+01  0.82331748362E+01  0.00000000000E+00 0. -1.
         22    1    3    3    0    0 -0.86432932185E+02 -0.18081283682E+03 -0.56851572982E+03  0.60280516651E+03  0.00000000000E+00 0. -1.
</event>
<event>
 7    1  0.6173324E-006  0.1098713E+03  0.7818608E-02  0.1411533E+00
          2   -1    0    0  502    0  0.00000000000E+00  0.00000000000E+00  0.12013898073E+04  0.12013898073E+04  0.00000000000E+00 0. -1.
          1   -1    0    0  501    0 -0.00000000000E+00 -0.00000000000E+00 -0.11528935785E+03  0.11528935785E+03  0.00000000000E+00 0. -1.
         25    2    1    2    0    0  0.11583048273E+03 -0.21108404674E+02  0.74801645472E+02  0.18730249235E+03  0.12499868798E+03 0.  0.
          2    1    1    2  501    0 -0.64432085867E+01  0.28704518216E+02 -0.52371984398E+02  0.60069035723E+02  0.00000000000E+00 0. -1.
          1    1    1    2  502    0 -0.10938727414E+03 -0.75961135416E+01  0.10636707884E+04  0.10693076371E+04  0.00000000000E+00 0. -1.
         22    1    3    3    0    0  0.52435316328E+02 -0.23986235254E+02  0.10285726362E+03  0.11791699860E+03  0.00000000000E+00 0. -1.
         22    1    3    3    0    0  0.63395166402E+02  0.28778305799E+01 -0.28055618149E+02  0.69385493741E+02  0.00000000000E+00 0. -1.
</event>
<event>
 7    1  0.6173324E-006  0.8342328E+02  0.7818608E-02  0.1320479E+00
          2   -1    0    0  502    0  0.00000000000E+00  0.00000000000E+00  0.17391698634E+03  0.17391698634E+03  0.00000000000E+00 0. -1.
          1   -1    0    0  501    0 -0.00000000000E+00 -0.00000000000E+00 -0.32877447261E+03  0.32877447261E+03  0.00000000000E+00 0. -1.
         25    2    1    2    0    0 -0.70361748643E+02  0.34638991449E+02  0.33524337554E+02  0.15131470921E+03  0.12498649773E+03 0.  0.
          2    1    1    2  501    0  0.46983589481E+01 -0.86095415580E+02 -0.23880811042E+03  0.25389724056E+03  0.00000000000E+00 0. -1.
          1    1    1    2  502    0  0.65663389695E+02  0.51456424131E+02  0.50426286588E+02  0.97479509178E+02  0.00000000000E+00 0. -1.
         22    1    3    3    0    0 -0.10044613725E+02  0.74499659473E+02  0.14562471419E+02  0.76571268112E+02  0.00000000000E+00 0.  1.
         22    1    3    3    0    0 -0.60317134919E+02 -0.39860668024E+02  0.18961866135E+02  0.74743441100E+02  0.00000000000E+00 0.  1.
</event>
<event>
 7    1  0.6173324E-006  0.1388071E+03  0.7818608E-02  0.1308677E+00
          2   -1    0    0  502    0  0.00000000000E+00  0.00000000000E+00  0.31503423936E+04  0.31503423936E+04  0.00000000000E+00 0. -1.
          1   -1    0    0  501    0 -0.00000000000E+00 -0.00000000000E+00 -0.82271382586E+02  0.82271382586E+02  0.00000000000E+00 0. -1.
         25    2    1    2    0    0  0.18235933852E+03  0.41796397764E+02  0.79280705459E+03  0.82411719263E+03  0.12499701661E+03 0.  0.
          2    1    1    2  501    0 -0.55271047176E+02 -0.25624439537E+01 -0.52892115048E+02  0.76544304877E+02  0.00000000000E+00 0. -1.
          1    1    1    2  502    0 -0.12708829134E+03 -0.39233953811E+02  0.23281560715E+04  0.23319522787E+04  0.00000000000E+00 0. -1.
         22    1    3    3    0    0  0.14859945704E+03 -0.24059411233E+02  0.55580203175E+03  0.57582684237E+03  0.00000000000E+00 0.  1.
         22    1    3    3    0    0  0.33759881478E+02  0.65855808998E+02  0.23700502285E+03  0.24829035026E+03  0.00000000000E+00 0.  1.
</event>
<event>
 7    1  0.6173324E-006  0.1675324E+03  0.7818608E-02  0.1253274E+00
          2   -1    0    0  502    0  0.00000000000E+00  0.00000000000E+00  0.19501817845E+04  0.19501817845E+04  0.00000000000E+00 0. -1.
          1   -1    0    0  501    0 -0.00000000000E+00 -0.00000000000E+00 -0.33977892684E+03  0.33977892684E+03  0.00000000000E+00 0. -1.
         25    2    1    2    0    0  0.17444562393E+03  0.74440489705E+01  0.35937168722E+03  0.41864002598E+03  0.12499908882E+03 0.  0.
          2    1    1    2  501    0 -0.14768282229E+03 -0.80306001856E+02 -0.28631434843E+03  0.33201683097E+03  0.00000000000E+00 0. -1.
          1    1    1    2  502    0 -0.26762801639E+02  0.72861952885E+02  0.15373455189E+04  0.15393038544E+04  0.00000000000E+00 0. -1.
         22    1    3    3    0    0  0.17048754111E+03  0.42245770911E+01  0.21614529468E+03  0.27532278718E+03  0.00000000000E+00 0. -1.
         22    1    3    3    0    0  0.39580828124E+01  0.32194718793E+01  0.14322639254E+03  0.14331723880E+03  0.00000000000E+00 0. -1.
</event>
<event>
 7    1  0.6173324E-006  0.1379836E+03  0.7818608E-02  0.1374141E+00
          2   -1    0    0  502    0  0.00000000000E+00  0.00000000000E+00  0.23007236062E+04  0.23007236062E+04  0.00000000000E+00 0. -1.
          1   -1    0    0  501    0 -0.00000000000E+00 -0.00000000000E+00 -0.19965389901E+03  0.19965389901E+03  0.00000000000E+00 0. -1.
         25    2    1    2    0    0  0.12472629907E+03  0.10121274663E+03  0.46681263551E+03  0.50925377385E+03  0.12499879898E+03 0.  0.
          2    1    1    2  501    0 -0.31450900974E+02 -0.30340056241E+01 -0.17448312563E+03  0.17732096743E+03  0.00000000000E+00 0. -1.
          1    1    1    2  502    0 -0.93275398095E+02 -0.98178741008E+02  0.18087401973E+04  0.18138027639E+04  0.00000000000E+00 0. -1.
         22    1    3    3    0    0  0.10400485578E+03  0.74232881981E+02  0.18177296085E+03  0.22219122415E+03  0.00000000000E+00 0. -1.
         22    1    3    3    0    0  0.20721443290E+02  0.26979864652E+02  0.28503967467E+03  0.28706254970E+03  0.00000000000E+00 0. -1.
</event>
<event>
 7    1  0.6173324E-006  0.6266046E+02  0.7818608E-02  0.1432595E+00
          2   -1    0    0  502    0  0.00000000000E+00  0.00000000000E+00  0.23522107865E+02  0.23522107865E+02  0.00000000000E+00 0. -1.
          1   -1    0    0  501    0 -0.00000000000E+00 -0.00000000000E+00 -0.21088969502E+04  0.21088969502E+04  0.00000000000E+00 0. -1.
         25    2    1    2    0    0  0.39488974833E+02  0.32287900160E+02 -0.17150671502E+04  0.17203727613E+04  0.12500088127E+03 0.  0.
          2    1    1    2  501    0 -0.83379295088E+02 -0.32537649517E+02 -0.35413523696E+03  0.36527054569E+03  0.00000000000E+00 0. -1.
          1    1    1    2  502    0  0.43890320255E+02  0.24974935718E+00 -0.16172455157E+02  0.46775751118E+02  0.00000000000E+00 0. -1.
         22    1    3    3    0    0 -0.15475617291E+02 -0.10644607800E+02 -0.12466779049E+04  0.12468193939E+04  0.00000000000E+00 0.  1.
         22    1    3    3    0    0  0.54964592124E+02  0.42932507959E+02 -0.46838924536E+03  0.47355336742E+03  0.00000000000E+00 0.  1.
</event>
<event>
 7    1  0.6173324E-006  0.1989333E+03  0.7818608E-02  0.1223965E+00
          2   -1    0    0  502    0  0.00000000000E+00  0.00000000000E+00  0.19760803421E+03  0.19760803421E+03  0.00000000000E+00 0. -1.
          1   -1    0    0  501    0 -0.00000000000E+00 -0.00000000000E+00 -0.20970382271E+04  0.20970382271E+04  0.00000000000E+00 0. -1.
         25    2    1    2    0    0 -0.98002129121E+02 -0.23088242476E+03 -0.29504808617E+03  0.40692671801E+03  0.12499947720E+03 0.  0.
          2    1    1    2  501    0  0.17977156742E+02  0.19405339510E+03 -0.17263222127E+04  0.17372876216E+04  0.00000000000E+00 0. -1.
          1    1    1    2  502    0  0.80024972379E+02  0.36829029660E+02  0.12194010593E+03  0.15043192170E+03  0.00000000000E+00 0. -1.
         22    1    3    3    0    0  0.20906133646E+01  0.10275256654E+02  0.27814600509E+01  0.10848413873E+02  0.00000000000E+00 0. -1.
         22    1    3    3    0    0 -0.10009274249E+03 -0.24115768141E+03 -0.29782954622E+03  0.39607830413E+03  0.00000000000E+00 0. -1.
</event>
<event>
 7    1  0.6173324E-006  0.3043685E+02  0.7818608E-02  0.1595843E+00
          2   -1    0    0  502    0  0.00000000000E+00  0.00000000000E+00  0.32731699384E+03  0.32731699384E+03  0.00000000000E+00 0. -1.
          1   -1    0    0  501    0 -0.00000000000E+00 -0.00000000000E+00 -0.49169144233E+03  0.49169144233E+03  0.00000000000E+00 0. -1.
         25    2    1    2    0    0  0.44707895451E+02  0.17845995549E+02 -0.14368309039E+03  0.19643652258E+03  0.12500080587E+03 0.  0.
          2    1    1    2  501    0 -0.15795331410E+02 -0.25748782932E+02 -0.32017262740E+03  0.32159447080E+03  0.00000000000E+00 0. -1.
          1    1    1    2  502    0 -0.28912564041E+02  0.79027873826E+01  0.29948126929E+03  0.30097744278E+03  0.00000000000E+00 0. -1.
         22    1    3    3    0    0  0.47403163893E+02 -0.47353258335E+02 -0.88326228611E+02  0.11086439321E+03  0.00000000000E+00 0.  1.
         22    1    3    3    0    0 -0.26952684427E+01  0.65199253884E+02 -0.55356861776E+02  0.85572129369E+02  0.00000000000E+00 0.  1.
</event>
<event>
 7    1  0.6173324E-006  0.8925575E+02  0.7818608E-02  0.1421943E+00
          2   -1    0    0  502    0  0.00000000000E+00  0.00000000000E+00  0.21566269735E+04  0.21566269735E+04  0.00000000000E+00 0. -1.
          1   -1    0    0  501    0 -0.00000000000E+00 -0.00000000000E+00 -0.62551596515E+02  0.62551596515E+02  0.00000000000E+00 0. -1.
         25    2    1    2    0    0  0.10569680363E+03 -0.48146916400E+02  0.32500172619E+03  0.36706664852E+03  0.12498744964E+03 0.  0.
          2    1    1    2  501    0 -0.72329187297E+02  0.46372474449E+02  0.32576813828E+01  0.85979824433E+02  0.00000000000E+00 0. -1.
          1    1    1    2  502    0 -0.33367616334E+02  0.17744419506E+01  0.17658159694E+04  0.17661320970E+04  0.00000000000E+00 0. -1.
         22    1    3    3    0    0 -0.12503396155E+02  0.23481671444E+02  0.95740529736E+02  0.99367866252E+02  0.00000000000E+00 0. -1.
         22    1    3    3    0    0  0.11820019979E+03 -0.71628587844E+02  0.22926119646E+03  0.26769878227E+03  0.00000000000E+00 0. -1.
</event>
<event>
 7    1  0.6173324E-006  0.2283495E+03  0.7818608E-02  0.1188094E+00
          2   -1    0    0  502    0  0.00000000000E+00  0.00000000000E+00  0.82389044141E+03  0.82389044141E+03  0.00000000000E+00 0. -1.
          1   -1    0    0  501    0 -0.00000000000E+00 -0.00000000000E+00 -0.49088370763E+03  0.49088370763E+03  0.00000000000E+00 0. -1.
         25    2    1    2    0    0 -0.28682959141E+03 -0.84302842773E+02  0.17514611461E+03  0.36834590927E+03  0.12499745440E+03 0.  0.
          2    1    1    2  501    0  0.22153076642E+03 -0.77482688633E+01 -0.35651974446E+03  0.41981215363E+03  0.00000000000E+00 0. -1.
          1    1    1    2  502    0  0.65298824985E+02  0.92051111637E+02  0.51438036362E+03  0.52661608614E+03  0.00000000000E+00 0. -1.
         22    1    3    3    0    0 -0.28449042815E+03 -0.10395323001E+03  0.15554613386E+03  0.34049328554E+03  0.00000000000E+00 0. -1.
         22    1    3    3    0    0 -0.23391632577E+01  0.19650387234E+02  0.19599980758E+02  0.27852623734E+02  0.00000000000E+00 0. -1.
</event>
<event>
 7    1  0.6173324E-006  0.9592086E+02  0.7818608E-02  0.1344291E+00
          2   -1    0    0  502    0  0.00000000000E+00  0.00000000000E+00  0.12718642505E+04  0.12718642505E+04  0.00000000000E+00 0. -1.
          1   -1    0    0  501    0 -0.00000000000E+00 -0.00000000000E+00 -0.34876318690E+03  0.34876318690E+03  0.00000000000E+00 0. -1.
         25    2    1    2    0    0  0.15064223935E+02  0.54253991318E+02  0.39990894130E+02  0.14280904240E+03  0.12499889824E+03 0.  0.
          2    1    1    2  501    0 -0.43087107494E+02  0.39466929318E+02 -0.29243245265E+03  0.29821280440E+03  0.00000000000E+00 0. -1.
          1    1    1    2  502    0  0.28022883559E+02 -0.93720920636E+02  0.11755426221E+04  0.11796055906E+04  0.00000000000E+00 0. -1.
         22    1    3    3    0    0 -0.42433223949E+02  0.49878100455E+02  0.52346442182E+02  0.83836468251E+02  0.00000000000E+00 0.  1.
         22    1    3    3    0    0  0.57497447884E+02  0.43758908632E+01 -0.12355548052E+02  0.58972574148E+02  0.00000000000E+00 0.  1.
</event>
<event>
 7    1  0.6173324E-006  0.5472892E+02  0.7818608E-02  0.1469548E+00
          2   -1    0    0  502    0  0.00000000000E+00  0.00000000000E+00  0.65122419384E+01  0.65122419384E+01  0.00000000000E+00 0. -1.
          1   -1    0    0  501    0 -0.00000000000E+00 -0.00000000000E+00 -0.26444790112E+04  0.26444790112E+04  0.00000000000E+00 0. -1.
         25    2    1    2    0    0 -0.65017816273E+02  0.29008306849E+02 -0.16062539557E+04  0.16126831598E+04  0.12500562112E+03 0.  0.
          2    1    1    2  501    0  0.35062361234E+02  0.15385740441E+02 -0.78104966105E+03  0.78198763622E+03  0.00000000000E+00 0. -1.
          1    1    1    2  502    0  0.29955455038E+02 -0.44394047290E+02 -0.25066315249E+03  0.25632045712E+03  0.00000000000E+00 0. -1.
         22    1    3    3    0    0  0.36385037100E+02  0.21303094125E+02 -0.46902887350E+03  0.47092013858E+03  0.00000000000E+00 0.  1.
         22    1    3    3    0    0 -0.10140285337E+03  0.77052127240E+01 -0.11372250822E+04  0.11417630212E+04  0.00000000000E+00 0.  1.
</event>
<event>
 7    1  0.6173324E-006  0.4231638E+02  0.7818608E-02  0.1606027E+00
          2   -1    0    0  502    0  0.00000000000E+00  0.00000000000E+00  0.15001490904E+04  0.15001490904E+04  0.00000000000E+00 0. -1.
          1   -1    0    0  501    0 -0.00000000000E+00 -0.00000000000E+00 -0.37664063047E+03  0.37664063047E+03  0.00000000000E+00 0. -1.
         25    2    1    2    0    0 -0.20727506200E+01  0.23683124505E+02  0.12877123309E+04  0.12939838187E+04  0.12500355664E+03 0.  0.
          2    1    1    2  501    0  0.14338181201E+02 -0.39832342235E+02 -0.37180967648E+03  0.37421201805E+03  0.00000000000E+00 0. -1.
          1    1    1    2  502    0 -0.12265430581E+02  0.16149217730E+02  0.20760580547E+03  0.20859388410E+03  0.00000000000E+00 0. -1.
         22    1    3    3    0    0  0.83304008895E-01  0.30316885682E+02  0.70386204918E+02  0.76637708341E+02  0.00000000000E+00 0.  1.
         22    1    3    3    0    0 -0.21560546289E+01 -0.66337611775E+01  0.12173261260E+04  0.12173461103E+04  0.00000000000E+00 0.  1.
</event>
<event>
 7    1  0.6173324E-006  0.3927365E+03  0.7818608E-02  0.1229117E+00
          2   -1    0    0  502    0  0.00000000000E+00  0.00000000000E+00  0.25787048077E+03  0.25787048077E+03  0.00000000000E+00 0. -1.
          1   -1    0    0  501    0 -0.00000000000E+00 -0.00000000000E+00 -0.24332153008E+04  0.24332153008E+04  0.00000000000E+00 0. -1.
         25    2    1    2    0    0  0.34833161471E+03  0.17408870254E+03 -0.93150675178E+03  0.10173356999E+04  0.12500123011E+03 0.  0.
          2    1    1    2  501    0 -0.17081668019E+02  0.38695087328E+02 -0.12778767417E+04  0.12785765758E+04  0.00000000000E+00 0. -1.
          1    1    1    2  502    0 -0.33124994669E+03 -0.21278378987E+03  0.34038673511E+02  0.39517350583E+03  0.00000000000E+00 0. -1.
         22    1    3    3    0    0  0.26074613143E+02 -0.16919730715E+02 -0.11261830014E+03  0.11682912421E+03  0.00000000000E+00 0.  1.
         22    1    3    3    0    0  0.32225700157E+03  0.19100843326E+03 -0.81888845165E+03  0.90050657570E+03  0.00000000000E+00 0.  1.
</event>
<event>
 7    1  0.6173324E-006  0.8657752E+02  0.7818608E-02  0.1333407E+00
          2   -1    0    0  502    0  0.00000000000E+00  0.00000000000E+00  0.29134402165E+03  0.29134402165E+03  0.00000000000E+00 0. -1.
          1   -1    0    0  501    0 -0.00000000000E+00 -0.00000000000E+00 -0.24151168419E+04  0.24151168419E+04  0.00000000000E+00 0. -1.
         25    2    1    2    0    0 -0.70263306944E+02  0.44333889264E+02 -0.11432157434E+04  0.11530276133E+04  0.12501205881E+03 0.  0.
          2    1    1    2  501    0  0.18716751852E+02 -0.93375427714E+02 -0.12607532981E+04  0.12643449553E+04  0.00000000000E+00 0. -1.
          1    1    1    2  502    0  0.51546555092E+02  0.49041538450E+02  0.28019622133E+03  0.28908829496E+03  0.00000000000E+00 0. -1.
         22    1    3    3    0    0 -0.26524985573E+02  0.22089311264E+02 -0.64155159640E+02  0.72851884260E+02  0.00000000000E+00 0. -1.
         22    1    3    3    0    0 -0.43738321371E+02  0.22244578000E+02 -0.10790605838E+04  0.10801757290E+04  0.00000000000E+00 0. -1.
</event>
<event>
 7    1  0.6173324E-006  0.1614606E+03  0.7818608E-02  0.1338752E+00
          2   -1    0    0  502    0  0.00000000000E+00  0.00000000000E+00  0.20684277326E+04  0.20684277326E+04  0.00000000000E+00 0. -1.
          1   -1    0    0  501    0 -0.00000000000E+00 -0.00000000000E+00 -0.62677144688E+03  0.62677144688E+03  0.00000000000E+00 0. -1.
         25    2    1    2    0    0  0.95382021386E+02 -0.12136289795E+03 -0.20769002217E+02  0.19970744607E+03  0.12500011824E+03 0.  0.
          2    1    1    2  501    0 -0.69790098079E+02  0.14726792230E+03 -0.50350620893E+03  0.52922301647E+03  0.00000000000E+00 0. -1.
          1    1    1    2  502    0 -0.25591923307E+02 -0.25905024344E+02  0.19659314969E+04  0.19662687170E+04  0.00000000000E+00 0. -1.
         22    1    3    3    0    0  0.10557196943E+03 -0.14030861546E+03 -0.26164435336E+02  0.17752894406E+03  0.00000000000E+00 0.  1.
         22    1    3    3    0    0 -0.10189948045E+02  0.18945717508E+02  0.53954331184E+01  0.22178502014E+02  0.00000000000E+00 0.  1.
</event>
<event>
 7    1  0.6173324E-006  0.5146903E+02  0.7818608E-02  0.1564071E+00
          2   -1    0    0  502    0  0.00000000000E+00  0.00000000000E+00  0.21084955189E+02  0.21084955189E+02  0.00000000000E+00 0. -1.
          1   -1    0    0  501    0 -0.00000000000E+00 -0.00000000000E+00 -0.99036288441E+03  0.99036288441E+03  0.00000000000E+00 0. -1.
         25    2    1    2    0    0 -0.53530294158E+02  0.42008336911E+02 -0.57701928209E+03  0.59431146556E+03  0.12499869375E+03 0.  0.
          2    1    1    2  501    0  0.86198104355E+01 -0.19769935506E+02 -0.35251730731E+03  0.35317644802E+03  0.00000000000E+00 0. -1.
          1    1    1    2  502    0  0.44910483722E+02 -0.22238401405E+02 -0.39741339829E+02  0.63959926021E+02  0.00000000000E+00 0. -1.
         22    1    3    3    0    0  0.32610836615E+02  0.40649573493E+02 -0.15309846640E+03  0.16172505961E+03  0.00000000000E+00 0.  1.
         22    1    3    3    0    0 -0.86141130773E+02  0.13587634181E+01 -0.42392081568E+03  0.43258640596E+03  0.00000000000E+00 0.  1.
</event>
<event>
 7    1  0.6173324E-006  0.4696507E+02  0.7818608E-02  0.1475629E+00
          2   -1    0    0  502    0  0.00000000000E+00  0.00000000000E+00  0.45305668640E+03  0.45305668640E+03  0.00000000000E+00 0. -1.
          1   -1    0    0  501    0 -0.00000000000E+00 -0.00000000000E+00 -0.52095349372E+03  0.52095349372E+03  0.00000000000E+00 0. -1.
         25    2    1    2    0    0  0.27718098864E+02 -0.21940187911E-01  0.26812597818E+03  0.29713025561E+03  0.12500622039E+03 0.  0.
          2    1    1    2  501    0  0.90133954338E+01 -0.41762453587E+02 -0.50097753403E+03  0.50279601573E+03  0.00000000000E+00 0. -1.
          1    1    1    2  502    0 -0.36731494297E+02  0.41784393775E+02  0.16495474853E+03  0.17408390879E+03  0.00000000000E+00 0. -1.
         22    1    3    3    0    0 -0.31391174378E+02 -0.21951061026E+02  0.24478889818E+02  0.45458453072E+02  0.00000000000E+00 0. -1.
         22    1    3    3    0    0  0.59109273241E+02  0.21929120838E+02  0.24364708836E+03  0.25167180254E+03  0.00000000000E+00 0. -1.
</event>
<event>
 7    1  0.6173324E-006  0.7501678E+02  0.7818608E-02  0.1459337E+00
          2   -1    0    0  502    0  0.00000000000E+00  0.00000000000E+00  0.21520181278E+04  0.21520181278E+04  0.00000000000E+00 0. -1.
          1   -1    0    0  501    0 -0.00000000000E+00 -0.00000000000E+00 -0.69686284534E+02  0.69686284534E+02  0.00000000000E+00 0. -1.
         25    2    1    2    0    0 -0.83035060566E+02 -0.56130691115E+02  0.22660153641E+03  0.27751883040E+03  0.12499187636E+03 0.  0.
          2    1    1    2  501    0  0.54190754989E+02  0.47628961285E+02 -0.14603620741E+02  0.73609928801E+02  0.00000000000E+00 0. -1.
          1    1    1    2  502    0  0.28844305578E+02  0.85017298299E+01  0.18703339276E+04  0.18705756532E+04  0.00000000000E+00 0. -1.
         22    1    3    3    0    0  0.12721713930E+02 -0.26489489999E+02  0.14590150720E+03  0.14883139753E+03  0.00000000000E+00 0.  1.
         22    1    3    3    0    0 -0.95756774496E+02 -0.29641201115E+02  0.80700029206E+02  0.12868743287E+03  0.00000000000E+00 0.  1.
</event>
<event>
 7    1  0.6173324E-006  0.1603307E+03  0.7818608E-02  0.1239393E+00
          2   -1    0    0  502    0  0.00000000000E+00  0.00000000000E+00  0.11190345716E+04  0.11190345716E+04  0.00000000000E+00 0. -1.
          1   -1    0    0  501    0 -0.00000000000E+00 -0.00000000000E+00 -0.12727816663E+04  0.12727816663E+04  0.00000000000E+00 0. -1.
         25    2    1    2    0    0 -0.33765275109E+02 -0.70734782204E+02 -0.60728587747E+02  0.15955081253E+03  0.12499998877E+03 0.  0.
          2    1    1    2  501    0  0.56720463122E+02  0.16111491313E+03 -0.11543130515E+04  0.11668821050E+04  0.00000000000E+00 0. -1.
          1    1    1    2  502    0 -0.22955188014E+02 -0.90380130924E+02  0.10612945446E+04  0.10653833202E+04  0.00000000000E+00 0. -1.
         22    1    3    3    0    0 -0.49592869187E+02 -0.90093061076E+02 -0.10415713060E+02  0.10336681966E+03  0.00000000000E+00 0. -1.
         22    1    3    3    0    0  0.15827594078E+02  0.19358278873E+02 -0.50312874687E+02  0.56183992867E+02  0.00000000000E+00 0. -1.
</event>
<event>
 7    1  0.6173324E-006  0.6064190E+02  0.7818608E-02  0.1437767E+00
          2   -1    0    0  502    0  0.00000000000E+00  0.00000000000E+00  0.33469810888E+03  0.33469810888E+03  0.00000000000E+00 0. -1.
          1   -1    0    0  501    0 -0.00000000000E+00 -0.00000000000E+00 -0.35868768724E+03  0.35868768724E+03  0.00000000000E+00 0. -1.
         25    2    1    2    0    0 -0.12603752909E+02 -0.36729170882E+02 -0.15878730604E+02  0.13185127304E+03  0.12499895014E+03 0.  0.
          2    1    1    2  501    0 -0.26095278361E+02  0.56858060014E+02 -0.27962541176E+03  0.28653825826E+03  0.00000000000E+00 0. -1.
          1    1    1    2  502    0  0.38699031270E+02 -0.20128889132E+02  0.27151456401E+03  0.27499626482E+03  0.00000000000E+00 0. -1.
         22    1    3    3    0    0 -0.57760448463E+02 -0.50227451011E+02 -0.30660158614E+02  0.82456725426E+02  0.00000000000E+00 0. -1.
         22    1    3    3    0    0  0.45156695554E+02  0.13498280129E+02  0.14781428011E+02  0.49394547613E+02  0.00000000000E+00 0. -1.
</event>
<event>
 7    1  0.6173324E-006  0.1012583E+03  0.7818608E-02  0.1397688E+00
          2   -1    0    0  502    0  0.00000000000E+00  0.00000000000E+00  0.23681688338E+04  0.23681688338E+04  0.00000000000E+00 0. -1.
          1   -1    0    0  501    0 -0.00000000000E+00 -0.00000000000E+00 -0.10597724153E+02  0.10597724153E+02  0.00000000000E+00 0. -1.
         25    2    1    2    0    0 -0.76857936595E+01 -0.84442250468E+02  0.14670859778E+04  0.14748413688E+04  0.12500492767E+03 0.  0.
          2    1    1    2  501    0 -0.20967647063E+02  0.10555784982E+03  0.48083055911E+03  0.49272723535E+03  0.00000000000E+00 0. -1.
          1    1    1    2  502    0  0.28653440722E+02 -0.21115599352E+02  0.40965457278E+03  0.41119795379E+03  0.00000000000E+00 0. -1.
         22    1    3    3    0    0 -0.61829315498E+02 -0.20518327007E+02  0.52184785752E+03  0.52589832896E+03  0.00000000000E+00 0. -1.
         22    1    3    3    0    0  0.54143521839E+02 -0.63923923461E+02  0.94523812026E+03  0.94894303988E+03  0.00000000000E+00 0. -1.
</event>
<event>
 7    1  0.6173324E-006  0.1750264E+03  0.7818608E-02  0.1337326E+00
          2   -1    0    0  502    0  0.00000000000E+00  0.00000000000E+00  0.81715429072E+03  0.81715429072E+03  0.00000000000E+00 0. -1.
          1   -1    0    0  501    0 -0.00000000000E+00 -0.00000000000E+00 -0.62840501328E+03  0.62840501328E+03  0.00000000000E+00 0. -1.
         25    2    1    2    0    0 -0.29648236660E+02  0.13993747689E+03  0.55500986553E+03  0.58661986889E+03  0.12500161746E+03 0.  0.
          2    1    1    2  501    0  0.26208294123E+02 -0.17377417358E+03 -0.59873332506E+03  0.62399193314E+03  0.00000000000E+00 0. -1.
          1    1    1    2  502    0  0.34399425375E+01  0.33836696695E+02  0.23247273697E+03  0.23494750197E+03  0.00000000000E+00 0. -1.
         22    1    3    3    0    0 -0.24065401949E+02  0.15545602865E+03  0.54517794478E+03  0.56741934396E+03  0.00000000000E+00 0. -1.
         22    1    3    3    0    0 -0.55828347110E+01 -0.15518551765E+02  0.98319207469E+01  0.19200524937E+02  0.00000000000E+00 0. -1.
</event>
<event>
 7    1  0.6173324E-006  0.2728804E+03  0.7818608E-02  0.1216947E+00
          2   -1    0    0  502    0  0.00000000000E+00  0.00000000000E+00  0.47526485213E+03  0.47526485213E+03  0.00000000000E+00 0. -1.
          1   -1    0    0  501    0 -0.00000000000E+00 -0.00000000000E+00 -0.17486931004E+04  0.17486931004E+04  0.00000000000E+00 0. -1.
         25    2    1    2    0    0 -0.20274340052E+03 -0.24668120430E+03 -0.94112832532E+03  0.10016499095E+04  0.12499405396E+03 0.  0.
          2    1    1    2  501    0 -0.20738646473E+01  0.69096377881E+02 -0.73424519588E+03  0.73749211388E+03  0.00000000000E+00 0. -1.
          1    1    1    2  502    0  0.20481726517E+03  0.17758482642E+03  0.40194527294E+03  0.48481592911E+03  0.00000000000E+00 0. -1.
         22    1    3    3    0    0 -0.19828484157E+03 -0.26078606603E+03 -0.91028828536E+03  0.96744561248E+03  0.00000000000E+00 0. -1.
         22    1    3    3    0    0 -0.44585589535E+01  0.14104861726E+02 -0.30840039960E+02  0.34204297054E+02  0.00000000000E+00 0. -1.
</event>
<event>
 7    1  0.6173324E-006  0.1119540E+03  0.7818608E-02  0.1375854E+00
          2   -1    0    0  502    0  0.00000000000E+00  0.00000000000E+00  0.55358440635E+03  0.55358440635E+03  0.00000000000E+00 0. -1.
          1   -1    0    0  501    0 -0.00000000000E+00 -0.00000000000E+00 -0.86414446063E+03  0.86414446063E+03  0.00000000000E+00 0. -1.
         25    2    1    2    0    0  0.68334225624E+02  0.30663515238E+02 -0.29974095891E+03  0.33328494073E+03  0.12499756681E+03 0.  0.
          2    1    1    2  501    0  0.30621690260E+02  0.23168862257E+02 -0.54103356016E+03  0.54239450339E+03  0.00000000000E+00 0. -1.
          1    1    1    2  502    0 -0.98955915884E+02 -0.53832377494E+02  0.53021446479E+03  0.54204942286E+03  0.00000000000E+00 0. -1.
         22    1    3    3    0    0  0.23388246700E+02  0.74966251322E+02 -0.12634984762E+03  0.14876569804E+03  0.00000000000E+00 0.  1.
         22    1    3    3    0    0  0.44945978924E+02 -0.44302736085E+02 -0.17339111129E+03  0.18451924269E+03  0.00000000000E+00 0.  1.
</event>
<event>
 7    1  0.6173324E-006  0.1253197E+03  0.7818608E-02  0.1355230E+00
          2   -1    0    0  502    0  0.00000000000E+00  0.00000000000E+00  0.15230462183E+03  0.15230462183E+03  0.00000000000E+00 0. -1.
          1   -1    0    0  501    0 -0.00000000000E+00 -0.00000000000E+00 -0.16050230801E+04  0.16050230801E+04  0.00000000000E+00 0. -1.
         25    2    1    2    0    0  0.71201928546E+02 -0.55466298424E+02 -0.31895802541E+03  0.35426629532E+03  0.12499664449E+03 0.  0.
          2    1    1    2  501    0  0.19316183993E+02 -0.35866176906E+02 -0.12372989547E+04  0.12379693861E+04  0.00000000000E+00 0. -1.
          1    1    1    2  502    0 -0.90518112538E+02  0.91332475330E+02  0.10353852181E+03  0.16509202054E+03  0.00000000000E+00 0. -1.
         22    1    3    3    0    0  0.55760386863E+02 -0.43632758058E+02 -0.55163823449E+02  0.89755700300E+02  0.00000000000E+00 0.  1.
         22    1    3    3    0    0  0.15441541683E+02 -0.11833540366E+02 -0.26379420197E+03  0.26451059502E+03  0.00000000000E+00 0.  1.
</event>
<event>
 7    1  0.6173324E-006  0.4415574E+02  0.7818608E-02  0.1519255E+00
          2   -1    0    0  502    0  0.00000000000E+00  0.00000000000E+00  0.69164527228E+03  0.69164527228E+03  0.00000000000E+00 0. -1.
          1   -1    0    0  501    0 -0.00000000000E+00 -0.00000000000E+00 -0.10069802813E+03  0.10069802813E+03  0.00000000000E+00 0. -1.
         25    2    1    2    0    0 -0.17158127713E+02  0.31244791203E+01  0.15537881907E+03  0.20017912920E+03  0.12499977055E+03 0.  0.
          2    1    1    2  501    0  0.29397959871E+02 -0.34453211807E+02 -0.71143803734E+02  0.84336852313E+02  0.00000000000E+00 0. -1.
          1    1    1    2  502    0 -0.12239832157E+02  0.31328732686E+02  0.50671222882E+03  0.50782731889E+03  0.00000000000E+00 0. -1.
         22    1    3    3    0    0 -0.39189177770E+02  0.34570497928E+02  0.14601462119E+02  0.54259687406E+02  0.00000000000E+00 0. -1.
         22    1    3    3    0    0  0.22031050057E+02 -0.31446018808E+02  0.14077735695E+03  0.14591944180E+03  0.00000000000E+00 0. -1.
</event>
<event>
 7    1  0.6173324E-006  0.9162057E+02  0.7818608E-02  0.1392899E+00
          2   -1    0    0  502    0  0.00000000000E+00  0.00000000000E+00  0.15857339409E+03  0.15857339409E+03  0.00000000000E+00 0. -1.
          1   -1    0    0  501    0 -0.00000000000E+00 -0.00000000000E+00 -0.80596451415E+03  0.80596451415E+03  0.00000000000E+00 0. -1.
         25    2    1    2    0    0 -0.31459712141E+02 -0.11622004268E+03 -0.36582381108E+03  0.40490477634E+03  0.12499602131E+03 0.  0.
          2    1    1    2  501    0 -0.14649975413E+02  0.38152481547E+02 -0.40467893402E+03  0.40673735170E+03  0.00000000000E+00 0. -1.
          1    1    1    2  502    0  0.46109687554E+02  0.78067561133E+02  0.12311162503E+03  0.15289578021E+03  0.00000000000E+00 0. -1.
         22    1    3    3    0    0 -0.15836172640E+02 -0.68077266145E+02 -0.52233743765E+02  0.87256303597E+02  0.00000000000E+00 0.  1.
         22    1    3    3    0    0 -0.15623539501E+02 -0.48142776535E+02 -0.31359006731E+03  0.31764847274E+03  0.00000000000E+00 0.  1.
</event>
<event>
 7    1  0.6173324E-006  0.1979589E+03  0.7818608E-02  0.1185810E+00
          2   -1    0    0  502    0  0.00000000000E+00  0.00000000000E+00  0.14003421604E+04  0.14003421604E+04  0.00000000000E+00 0. -1.
          1   -1    0    0  501    0 -0.00000000000E+00 -0.00000000000E+00 -0.11209472287E+04  0.11209472287E+04  0.00000000000E+00 0. -1.
         25    2    1    2    0    0 -0.11691153006E+03  0.13567122002E+03 -0.18182879268E+02  0.21915995116E+03  0.12500192515E+03 0.  0.
          2    1    1    2  501    0  0.20139025697E+03 -0.32259818776E+02 -0.98840679802E+03  0.10092307615E+04  0.00000000000E+00 0. -1.
          1    1    1    2  502    0 -0.84478726909E+02 -0.10341140124E+03  0.12859846089E+04  0.12928986765E+04  0.00000000000E+00 0. -1.
         22    1    3    3    0    0 -0.53786124072E+02  0.11573489534E+03 -0.59829378425E+02  0.14095058590E+03  0.00000000000E+00 0. -1.
         22    1    3    3    0    0 -0.63125405985E+02  0.19936324676E+02  0.41646499157E+02  0.78209365261E+02  0.00000000000E+00 0. -1.
</event>
<event>
 7    1  0.6173324E-006  0.7723811E+02  0.7818608E-02  0.1353187E+00
          2   -1    0    0  502    0  0.00000000000E+00  0.00000000000E+00  0.19661494002E+03  0.19661494002E+03  0.00000000000E+00 0. -1.
          1   -1    0    0  501    0 -0.00000000000E+00 -0.00000000000E+00 -0.35828338829E+04  0.35828338829E+04  0.00000000000E+00 0. -1.
         25    2    1    2    0    0  0.79547977667E+02  0.11779496980E+03 -0.70351799772E+03  0.72853625702E+03  0.12499587597E+03 0.  0.
          2    1    1    2  501    0 -0.28186545982E+02 -0.61058473708E+02 -0.28584407957E+04  0.28592317851E+04  0.00000000000E+00 0. -1.
          1    1    1    2  502    0 -0.51361431685E+02 -0.56736496096E+02  0.17573985053E+03  0.19168078078E+03  0.00000000000E+00 0. -1.
         22    1    3    3    0    0  0.23907324205E+02  0.74790158145E+02 -0.58856346467E+03  0.59377780343E+03  0.00000000000E+00 0.  1.
         22    1    3    3    0    0  0.55640653462E+02  0.43004811659E+02 -0.11495453306E+03  0.13475845359E+03  0.00000000000E+00 0.  1.
</event>
<event>
 7    1  0.6173324E-006  0.9812133E+02  0.7818608E-02  0.1340179E+00
          2   -1    0    0  502    0  0.00000000000E+00  0.00000000000E+00  0.42825785490E+03  0.42825785490E+03  0.00000000000E+00 0. -1.
          1   -1    0    0  501    0 -0.00000000000E+00 -0.00000000000E+00 -0.36766189030E+03  0.36766189030E+03  0.00000000000E+00 0. -1.
         25    2    1    2    0    0  0.59599823803E+02  0.10865189034E+02  0.17686694153E+03  0.22489252532E+03  0.12499816643E+03 0.  0.
          2    1    1    2  501    0 -0.72526361587E+02 -0.68620365367E+02 -0.33233228130E+03  0.34700658908E+03  0.00000000000E+00 0. -1.
          1    1    1    2  502    0  0.12926537784E+02  0.57755176333E+02  0.21606130438E+03  0.22402063080E+03  0.00000000000E+00 0. -1.
         22    1    3    3    0    0 -0.23648948421E+02  0.10668378529E+02 -0.35590235752E+01  0.26186899600E+02  0.00000000000E+00 0.  1.
         22    1    3    3    0    0  0.83248772223E+02  0.19681050490E+00  0.18042596510E+03  0.19870562572E+03  0.00000000000E+00 0.  1.
</event>
<event>
 7    1  0.6173324E-006  0.3764587E+02  0.7818608E-02  0.1548472E+00
          2   -1    0    0  502    0  0.00000000000E+00  0.00000000000E+00  0.23157663494E+03  0.23157663494E+03  0.00000000000E+00 0. -1.
          1   -1    0    0  501    0 -0.00000000000E+00 -0.00000000000E+00 -0.86043736431E+03  0.86043736431E+03  0.00000000000E+00 0. -1.
         25    2    1    2    0    0  0.89370678077E+00  0.36016731333E+02 -0.46363814038E+03  0.48154194128E+03  0.12499724938E+03 0.  0.
          2    1    1    2  501    0  0.29882420163E+02 -0.25365748447E+02 -0.38565756263E+03  0.38764434195E+03  0.00000000000E+00 0. -1.
          1    1    1    2  502    0 -0.30776126944E+02 -0.10650982886E+02  0.22043497364E+03  0.22282771602E+03  0.00000000000E+00 0. -1.
         22    1    3    3    0    0 -0.60596331987E+02  0.29833314975E+02 -0.21631291818E+03  0.22661249018E+03  0.00000000000E+00 0. -1.
         22    1    3    3    0    0  0.61490038767E+02  0.61834163586E+01 -0.24732522220E+03  0.25492945111E+03  0.00000000000E+00 0. -1.
</event>
<event>
 7    1  0.6173324E-006  0.7932352E+02  0.7818608E-02  0.1498365E+00
          2   -1    0    0  502    0  0.00000000000E+00  0.00000000000E+00  0.78543717724E+03  0.78543717724E+03  0.00000000000E+00 0. -1.
          1   -1    0    0  501    0 -0.00000000000E+00 -0.00000000000E+00 -0.23437305722E+03  0.23437305722E+03  0.00000000000E+00 0. -1.
         25    2    1    2    0    0  0.73229171908E+02 -0.62508195312E+02  0.33230283918E+03  0.36785818319E+03  0.12499871963E+03 0.  0.
          2    1    1    2  501    0 -0.10960866461E+02  0.18584376724E+02 -0.21271105597E+03  0.21380250930E+03  0.00000000000E+00 0. -1.
          1    1    1    2  502    0 -0.62268305447E+02  0.43923818589E+02  0.43147233680E+03  0.43814954197E+03  0.00000000000E+00 0. -1.
         22    1    3    3    0    0 -0.50359971558E+01 -0.60289593686E+02  0.62753694664E+02  0.87167784004E+02  0.00000000000E+00 0. -1.
         22    1    3    3    0    0  0.78265169064E+02 -0.22186016260E+01  0.26954914452E+03  0.28069039918E+03  0.00000000000E+00 0. -1.
</event>
<event>
 7    1  0.6173324E-006  0.1050104E+03  0.7818608E-02  0.1309366E+00
          2   -1    0    0  502    0  0.00000000000E+00  0.00000000000E+00  0.10922657868E+04  0.10922657868E+04  0.00000000000E+00 0. -1.
          1   -1    0    0  501    0 -0.00000000000E+00 -0.00000000000E+00 -0.17797981888E+03  0.17797981888E+03  0.00000000000E+00 0. -1.
         25    2    1    2    0    0  0.84344470011E+02 -0.95757493553E+01  0.38563868271E+03  0.41418644164E+03  0.12501012056E+03 0.  0.
          2    1    1    2  501    0 -0.86255206588E+02 -0.63080564178E+02 -0.14409907595E+03  0.17939805442E+03  0.00000000000E+00 0. -1.
          1    1    1    2  502    0  0.19107365764E+01  0.72656313534E+02  0.67274636116E+03  0.67666110962E+03  0.00000000000E+00 0. -1.
         22    1    3    3    0    0  0.46530872446E+02 -0.39419906133E+02  0.34731838231E+03  0.35263169140E+03  0.00000000000E+00 0.  1.
         22    1    3    3    0    0  0.37813597565E+02  0.29844156777E+02  0.38320300398E+02  0.61554750240E+02  0.00000000000E+00 0.  1.
</event>
<event>
 7    1  0.6173324E-006  0.5215028E+02  0.7818608E-02  0.1470412E+00
          2   -1    0    0  502    0  0.00000000000E+00  0.00000000000E+00  0.10288667521E+04  0.10288667521E+04  0.00000000000E+00 0. -1.
          1   -1    0    0  501    0 -0.00000000000E+00 -0.00000000000E+00 -0.12912475633E+03  0.12912475633E+03  0.00000000000E+00 0. -1.
         25    2    1    2    0    0  0.82675629094E+02 -0.14572920652E+02  0.55377209665E+02  0.16043449036E+03  0.12499984273E+03 0.  0.
          2    1    1    2  501    0 -0.38138743033E+02 -0.11841527906E+02 -0.70608693747E+02  0.81119499111E+02  0.00000000000E+00 0. -1.
          1    1    1    2  502    0 -0.44536886060E+02  0.26414448558E+02  0.91497347990E+03  0.91643751900E+03  0.00000000000E+00 0. -1.
         22    1    3    3    0    0  0.47856287239E+02 -0.41076724274E+02 -0.25858345925E+02  0.68162860558E+02  0.00000000000E+00 0.  1.
         22    1    3    3    0    0  0.34819341854E+02  0.26503803622E+02  0.81235555590E+02  0.92271629798E+02  0.00000000000E+00 0.  1.
</event>
<event>
 7    1  0.6173324E-006  0.1104694E+03  0.7818608E-02  0.1290239E+00
          2   -1    0    0  502    0  0.00000000000E+00  0.00000000000E+00  0.84221144826E+03  0.84221144826E+03  0.00000000000E+00 0. -1.
          1   -1    0    0  501    0 -0.00000000000E+00 -0.00000000000E+00 -0.59642473385E+03  0.59642473385E+03  0.00000000000E+00 0. -1.
         25    2    1    2    0    0 -0.27277365466E+02  0.17182283356E+03  0.38598695519E+01  0.21426184313E+03  0.12500439203E+03 0.  0.
          2    1    1    2  501    0  0.53102322742E+02 -0.93557719308E+02 -0.48297078201E+03  0.49480670953E+03  0.00000000000E+00 0. -1.
          1    1    1    2  502    0 -0.25824957275E+02 -0.78265114252E+02  0.72489762686E+03  0.72956762946E+03  0.00000000000E+00 0. -1.
         22    1    3    3    0    0  0.34318498259E+02  0.24123946234E+02  0.30720680825E+02  0.51995041446E+02  0.00000000000E+00 0.  1.
         22    1    3    3    0    0 -0.61595863725E+02  0.14769888733E+03 -0.26860811273E+02  0.16226680168E+03  0.00000000000E+00 0.  1.
</event>
<event>
 7    1  0.6173324E-006  0.2781347E+03  0.7818608E-02  0.1212600E+00
          2   -1    0    0  502    0  0.00000000000E+00  0.00000000000E+00  0.20047981737E+04  0.20047981737E+04  0.00000000000E+00 0. -1.
          1   -1    0    0  501    0 -0.00000000000E+00 -0.00000000000E+00 -0.32953249465E+04  0.32953249465E+04  0.00000000000E+00 0. -1.
         25    2    1    2    0    0  0.23880468101E+03  0.16277937153E+02 -0.74160837768E+03  0.78924026079E+03  0.12499822601E+03 0.  0.
          2    1    1    2  501    0 -0.28428089361E+03 -0.70824733657E+02 -0.25207775308E+04  0.25377452845E+04  0.00000000000E+00 0. -1.
          1    1    1    2  502    0  0.45476212604E+02  0.54546796504E+02  0.19718591356E+04  0.19731375749E+04  0.00000000000E+00 0. -1.
         22    1    3    3    0    0  0.74871566886E+02 -0.47073129927E+01 -0.90835736714E+02  0.11780934338E+03  0.00000000000E+00 0. -1.
         22    1    3    3    0    0  0.16393311412E+03  0.20985250146E+02 -0.65077264096E+03  0.67143091741E+03  0.00000000000E+00 0. -1.
</event>
<event>
 7    1  0.6173324E-006  0.9698354E+02  0.7818608E-02  0.1308737E+00
          2   -1    0    0  502    0  0.00000000000E+00  0.00000000000E+00  0.20818869286E+04  0.20818869286E+04  0.00000000000E+00 0. -1.
          1   -1    0    0  501    0 -0.00000000000E+00 -0.00000000000E+00 -0.11289531508E+04  0.11289531508E+04  0.00000000000E+00 0. -1.
         25    2    1    2    0    0  0.84296598632E+02 -0.89657463820E+02  0.13159904526E+03  0.21927313403E+03  0.12497208181E+03 0.  0.
          2    1    1    2  501    0 -0.54766885030E+01  0.96857471465E+02 -0.10821237642E+04  0.10864636234E+04  0.00000000000E+00 0. -1.
          1    1    1    2  502    0 -0.78819910129E+02 -0.72000076453E+01  0.19034584967E+04  0.19051033219E+04  0.00000000000E+00 0. -1.
         22    1    3    3    0    0  0.21942946766E+00  0.87618744907E+01 -0.18859222969E+02  0.20796367107E+02  0.00000000000E+00 0.  1.
         22    1    3    3    0    0  0.84077169165E+02 -0.98419338311E+02  0.15045826823E+03  0.19847676692E+03  0.00000000000E+00 0.  1.
</event>
<event>
 7    1  0.6173324E-006  0.7835132E+02  0.7818608E-02  0.1359101E+00
          2   -1    0    0  502    0  0.00000000000E+00  0.00000000000E+00  0.48664152234E+03  0.48664152234E+03  0.00000000000E+00 0. -1.
          1   -1    0    0  501    0 -0.00000000000E+00 -0.00000000000E+00 -0.20824791443E+03  0.20824791443E+03  0.00000000000E+00 0. -1.
         25    2    1    2    0    0  0.52401792712E+02 -0.38498838465E+02  0.61825494511E+02  0.15386764072E+03  0.12499900259E+03 0.  0.
          2    1    1    2  501    0 -0.46147692304E+02 -0.42980261240E+02 -0.15144213763E+03  0.16404765591E+03  0.00000000000E+00 0. -1.
          1    1    1    2  502    0 -0.62541004087E+01  0.81479099706E+02  0.36801025103E+03  0.37697414012E+03  0.00000000000E+00 0. -1.
         22    1    3    3    0    0  0.97444234069E+01  0.29647231813E+02  0.66372349732E+02  0.73343036143E+02  0.00000000000E+00 0. -1.
         22    1    3    3    0    0  0.42657369305E+02 -0.68146070279E+02 -0.45468552216E+01  0.80524604581E+02  0.00000000000E+00 0. -1.
</event>
<event>
 7    1  0.6173324E-006  0.4252600E+02  0.7818608E-02  0.1525842E+00
          2   -1    0    0  502    0  0.00000000000E+00  0.00000000000E+00  0.10896934021E+04  0.10896934021E+04  0.00000000000E+00 0. -1.
          1   -1    0    0  501    0 -0.00000000000E+00 -0.00000000000E+00 -0.67142493842E+03  0.67142493842E+03  0.00000000000E+00 0. -1.
         25    2    1    2    0    0 -0.54351154572E+02  0.82628372974E+01  0.25769358945E+03  0.29163878537E+03  0.12499949041E+03 0.  0.
          2    1    1    2  501    0  0.29505714066E+02 -0.30620637989E+02 -0.65341827533E+03  0.65480046821E+03  0.00000000000E+00 0. -1.
          1    1    1    2  502    0  0.24845440506E+02  0.22357800691E+02  0.81399314960E+03  0.81467908698E+03  0.00000000000E+00 0. -1.
         22    1    3    3    0    0 -0.73634750147E+02 -0.14476509629E+02  0.73481213329E+02  0.10502920771E+03  0.00000000000E+00 0. -1.
         22    1    3    3    0    0  0.19283595576E+02  0.22739346926E+02  0.18421237612E+03  0.18660957765E+03  0.00000000000E+00 0. -1.
</event>
<event>
 7    1  0.6173324E-006  0.9751743E+02  0.7818608E-02  0.1349667E+00
          2   -1    0    0  502    0  0.00000000000E+00  0.00000000000E+00  0.24624889485E+03  0.24624889485E+03  0.00000000000E+00 0. -1.
          1   -1    0    0  501    0 -0.00000000000E+00 -0.00000000000E+00 -0.27069746814E+03  0.27069746814E+03  0.00000000000E+00 0. -1.
         25    2    1    2    0    0 -0.13031279115E+03  0.60080635292E+02 -0.82227170425E+02  0.20731007856E+03  0.12500021937E+03 0.  0.
          2    1    1    2  501    0  0.39011807942E+02 -0.38607351377E+02 -0.10687400454E+03  0.12014367060E+03  0.00000000000E+00 0. -1.
          1    1    1    2  502    0  0.91300983203E+02 -0.21473283915E+02  0.16465260168E+03  0.18949261383E+03  0.00000000000E+00 0. -1.
         22    1    3    3    0    0 -0.71443634794E+01  0.56443651564E+02 -0.58915669991E+02  0.81902282641E+02  0.00000000000E+00 0. -1.
         22    1    3    3    0    0 -0.12316842767E+03  0.36369837283E+01 -0.23311500434E+02  0.12540779592E+03  0.00000000000E+00 0. -1.
</event>
<event>
 7    1  0.6173324E-006  0.4821040E+02  0.7818608E-02  0.1500497E+00
          2   -1    0    0  502    0  0.00000000000E+00  0.00000000000E+00  0.12193516433E+04  0.12193516433E+04  0.00000000000E+00 0. -1.
          1   -1    0    0  501    0 -0.00000000000E+00 -0.00000000000E+00 -0.29104183734E+03  0.29104183734E+03  0.00000000000E+00 0. -1.
         25    2    1    2    0    0  0.50053457642E+02 -0.39031192806E+02  0.11900886352E+03  0.18389273131E+03  0.12499857759E+03 0.  0.
          2    1    1    2  501    0 -0.47957965298E+02  0.41103926825E+01 -0.25607048887E+03  0.26055509405E+03  0.00000000000E+00 0. -1.
          1    1    1    2  502    0 -0.20954923446E+01  0.34920800123E+02  0.10653714313E+04  0.10659456553E+04  0.00000000000E+00 0. -1.
         22    1    3    3    0    0  0.15838972734E+02 -0.82806943025E+02  0.65580354853E+02  0.10681126258E+03  0.00000000000E+00 0.  1.
         22    1    3    3    0    0  0.34214484908E+02  0.43775750219E+02  0.53428508663E+02  0.77081468737E+02  0.00000000000E+00 0.  1.
</event>
<event>
 7    1  0.6173324E-006  0.4102428E+02  0.7818608E-02  0.1505106E+00
          2   -1    0    0  502    0  0.00000000000E+00  0.00000000000E+00  0.50595177719E+03  0.50595177719E+03  0.00000000000E+00 0. -1.
          1   -1    0    0  501    0 -0.00000000000E+00 -0.00000000000E+00 -0.91516727827E+03  0.91516727827E+03  0.00000000000E+00 0. -1.
         25    2    1    2    0    0 -0.78997845295E+02 -0.11386733254E+02  0.63830738214E+02  0.16146018941E+03  0.12499884946E+03 0.  0.
          2    1    1    2  501    0  0.39746073621E+02  0.26550873264E+01 -0.86486512333E+03  0.86578200571E+03  0.00000000000E+00 0. -1.
          1    1    1    2  502    0  0.39251771674E+02  0.87316459272E+01  0.39181888404E+03  0.39387686034E+03  0.00000000000E+00 0. -1.
         22    1    3    3    0    0 -0.82371050224E+02  0.43527523574E+02  0.43318527567E+02  0.10274302922E+03  0.00000000000E+00 0.  1.
         22    1    3    3    0    0  0.33732049297E+01 -0.54914256828E+02  0.20512210646E+02  0.58717160184E+02  0.00000000000E+00 0.  1.
</event>
<event>
 7    1  0.6173324E-006  0.1120828E+03  0.7818608E-02  0.1342146E+00
          2   -1    0    0  502    0  0.00000000000E+00  0.00000000000E+00  0.21175637274E+04  0.21175637274E+04  0.00000000000E+00 0. -1.
          1   -1    0    0  501    0 -0.00000000000E+00 -0.00000000000E+00 -0.58893363685E+03  0.58893363685E+03  0.00000000000E+00 0. -1.
         25    2    1    2    0    0 -0.10956439567E+03 -0.11794727382E+03 -0.32385422364E+03  0.38265153398E+03  0.12499888832E+03 0.  0.
          2    1    1    2  501    0  0.25549219349E+02  0.44067288423E+02 -0.23141025710E+03  0.23695019647E+03  0.00000000000E+00 0. -1.
          1    1    1    2  502    0  0.84015176325E+02  0.73879985392E+02  0.20838945713E+04  0.20868956338E+04  0.00000000000E+00 0. -1.
         22    1    3    3    0    0 -0.91727200968E+02 -0.14114368318E+03 -0.23474555244E+03  0.28886137348E+03  0.00000000000E+00 0.  1.
         22    1    3    3    0    0 -0.17837194706E+02  0.23196409360E+02 -0.89108671200E+02  0.93790160493E+02  0.00000000000E+00 0.  1.
</event>
<event>
 7    1  0.6173324E-006  0.4399751E+02  0.7818608E-02  0.1562002E+00
          2   -1    0    0  502    0  0.00000000000E+00  0.00000000000E+00  0.99171486489E+03  0.99171486489E+03  0.00000000000E+00 0. -1.
          1   -1    0    0  501    0 -0.00000000000E+00 -0.00000000000E+00 -0.13230773446E+04  0.13230773446E+04  0.00000000000E+00 0. -1.
         25    2    1    2    0    0 -0.75444692285E+01  0.17387981077E+02 -0.14439981386E+03  0.19192465353E+03  0.12499802193E+03 0.  0.
          2    1    1    2  501    0 -0.16366168338E+02  0.19635122726E+02 -0.11542718544E+04  0.11545548508E+04  0.00000000000E+00 0. -1.
          1    1    1    2  502    0  0.23910637566E+02 -0.37023103803E+02  0.96730918856E+03  0.96831270521E+03  0.00000000000E+00 0. -1.
         22    1    3    3    0    0  0.47284110729E+02  0.38695634298E+02 -0.43054691254E+02  0.74745205064E+02  0.00000000000E+00 0.  1.
         22    1    3    3    0    0 -0.54828579958E+02 -0.21307653221E+02 -0.10134512260E+03  0.11717944846E+03  0.00000000000E+00 0.  1.
</event>
<event>
 7    1  0.6173324E-006  0.4454799E+02  0.7818608E-02  0.1565843E+00
          2   -1    0    0  502    0  0.00000000000E+00  0.00000000000E+00  0.42397928779E+03  0.42397928779E+03  0.00000000000E+00 0. -1.
          1   -1    0    0  501    0 -0.00000000000E+00 -0.00000000000E+00 -0.75536263230E+03  0.75536263230E+03  0.00000000000E+00 0. -1.
         25    2    1    2    0    0  0.20234364443E+02 -0.36838680878E+02 -0.20576253828E+03  0.24440023253E+03  0.12500693415E+03 0.  0.
          2    1    1    2  501    0  0.19018923209E+02  0.15668106072E+02 -0.52876462558E+03  0.52933849119E+03  0.00000000000E+00 0. -1.
          1    1    1    2  502    0 -0.39253287652E+02  0.21170574806E+02  0.40314381935E+03  0.40560319637E+03  0.00000000000E+00 0. -1.
         22    1    3    3    0    0  0.66811966675E+02  0.18525245041E+01 -0.76024353495E+02  0.10122733357E+03  0.00000000000E+00 0.  1.
         22    1    3    3    0    0 -0.46577602232E+02 -0.38691205382E+02 -0.12973818479E+03  0.14317289896E+03  0.00000000000E+00 0.  1.
</event>
<event>
 7    1  0.6173324E-006  0.6313114E+02  0.7818608E-02  0.1389958E+00
          2   -1    0    0  502    0  0.00000000000E+00  0.00000000000E+00  0.26390115608E+03  0.26390115608E+03  0.00000000000E+00 0. -1.
          1   -1    0    0  501    0 -0.00000000000E+00 -0.00000000000E+00 -0.38626903756E+03  0.38626903756E+03  0.00000000000E+00 0. -1.
         25    2    1    2    0    0 -0.12785772105E+00  0.44387287780E+02 -0.22800648493E+02  0.13458807059E+03  0.12499532595E+03 0.  0.
          2    1    1    2  501    0  0.58967581987E+02 -0.14510277757E+02 -0.29921280718E+03  0.30531299983E+03  0.00000000000E+00 0. -1.
          1    1    1    2  502    0 -0.58839724266E+02 -0.29877010024E+02  0.19964557420E+03  0.21026912321E+03  0.00000000000E+00 0. -1.
         22    1    3    3    0    0 -0.28109003643E+02  0.27420692293E+02 -0.68156715464E+02  0.78659699430E+02  0.00000000000E+00 0. -1.
         22    1    3    3    0    0  0.27981145922E+02  0.16966595488E+02  0.45356066970E+02  0.55928371160E+02  0.00000000000E+00 0. -1.
</event>
<event>
 7    1  0.6173324E-006  0.7737876E+02  0.7818608E-02  0.1414189E+00
          2   -1    0    0  502    0  0.00000000000E+00  0.00000000000E+00  0.18365478849E+04  0.18365478849E+04  0.00000000000E+00 0. -1.
          1   -1    0    0  501    0 -0.00000000000E+00 -0.00000000000E+00 -0.39214181756E+03  0.39214181756E+03  0.00000000000E+00 0. -1.
         25    2    1    2    0    0  0.40291271435E+02  0.24033136976E+02  0.62494936017E+02  0.14741994084E+03  0.12500417475E+03 0.  0.
          2    1    1    2  501    0 -0.78331100055E+02 -0.89559200463E+01 -0.34498982424E+03  0.35388408917E+03  0.00000000000E+00 0. -1.
          1    1    1    2  502    0  0.38039828620E+02 -0.15077216929E+02  0.17269009556E+04  0.17273856724E+04  0.00000000000E+00 0. -1.
         22    1    3    3    0    0 -0.91803199358E+01 -0.17836201344E+02  0.78200988442E+02  0.80732911169E+02  0.00000000000E+00 0. -1.
         22    1    3    3    0    0  0.49471591371E+02  0.41869338319E+02 -0.15706052425E+02  0.66687029675E+02  0.00000000000E+00 0. -1.
</event>
<event>
 7    1  0.6173324E-006  0.9311922E+02  0.7818608E-02  0.1312093E+00
          2   -1    0    0  502    0  0.00000000000E+00  0.00000000000E+00  0.12076475675E+03  0.12076475675E+03  0.00000000000E+00 0. -1.
          1   -1    0    0  501    0 -0.00000000000E+00 -0.00000000000E+00 -0.15248362282E+04  0.15248362282E+04  0.00000000000E+00 0. -1.
         25    2    1    2    0    0  0.57176749468E+02 -0.15750727733E+03 -0.71520762714E+02  0.22094852105E+03  0.12500122544E+03 0.  0.
          2    1    1    2  501    0 -0.47956919935E+02  0.78078817175E+02 -0.13411074907E+04  0.13442341572E+04  0.00000000000E+00 0. -1.
          1    1    1    2  502    0 -0.92198295326E+01  0.79428460154E+02  0.85567819071E+01  0.80418306720E+02  0.00000000000E+00 0. -1.
         22    1    3    3    0    0  0.12393050571E+02  0.11431737111E+02 -0.39928190698E+02  0.43342043425E+02  0.00000000000E+00 0.  1.
         22    1    3    3    0    0  0.44783698897E+02 -0.16893901444E+03 -0.31592572016E+02  0.17760647762E+03  0.00000000000E+00 0.  1.
</event>
<event>
 7    1  0.6173324E-006  0.3168562E+02  0.7818608E-02  0.1653005E+00
          2   -1    0    0  502    0  0.00000000000E+00  0.00000000000E+00  0.12782185679E+03  0.12782185679E+03  0.00000000000E+00 0. -1.
          1   -1    0    0  501    0 -0.00000000000E+00 -0.00000000000E+00 -0.48238844923E+03  0.48238844923E+03  0.00000000000E+00 0. -1.
         25    2    1    2    0    0 -0.11735684332E+01 -0.29366451618E+02  0.82772110488E+01  0.12867413614E+03  0.12499902138E+03 0.  0.
          2    1    1    2  501    0 -0.19069843524E+02  0.25401654531E+02 -0.41977916975E+03  0.42097916141E+03  0.00000000000E+00 0. -1.
          1    1    1    2  502    0  0.20243411957E+02  0.39647970873E+01  0.56935366260E+02  0.60557008469E+02  0.00000000000E+00 0. -1.
         22    1    3    3    0    0 -0.26133325053E+02 -0.34847637401E+02  0.58138541102E+02  0.72645705119E+02  0.00000000000E+00 0.  1.
         22    1    3    3    0    0  0.24959756620E+02  0.54811857834E+01 -0.49861330053E+02  0.56028431022E+02  0.00000000000E+00 0.  1.
</event>
<event>
 7    1  0.6173324E-006  0.7278154E+02  0.7818608E-02  0.1473731E+00
          2   -1    0    0  502    0  0.00000000000E+00  0.00000000000E+00  0.65661450810E+03  0.65661450810E+03  0.00000000000E+00 0. -1.
          1   -1    0    0  501    0 -0.00000000000E+00 -0.00000000000E+00 -0.11503677825E+03  0.11503677825E+03  0.00000000000E+00 0. -1.
         25    2    1    2    0    0 -0.46309933414E+02  0.69742931094E+02  0.20643275961E+03  0.25542321632E+03  0.12497139202E+03 0.  0.
          2    1    1    2  501    0  0.57378303285E+02 -0.44084080046E+02 -0.75533968748E+02  0.10459950400E+03  0.00000000000E+00 0. -1.
          1    1    1    2  502    0 -0.11068369871E+02 -0.25658851049E+02  0.41067893899E+03  0.41162856604E+03  0.00000000000E+00 0. -1.
         22    1    3    3    0    0 -0.36726094613E+02 -0.10953068988E+02  0.55476312668E+01  0.38724048839E+02  0.00000000000E+00 0. -1.
         22    1    3    3    0    0 -0.95838388009E+01  0.80696000083E+02  0.20088512834E+03  0.21669916748E+03  0.00000000000E+00 0. -1.
</event>
<event>
 7    1  0.6173324E-006  0.1318741E+03  0.7818608E-02  0.1257656E+00
          2   -1    0    0  502    0  0.00000000000E+00  0.00000000000E+00  0.11820180397E+04  0.11820180397E+04  0.00000000000E+00 0. -1.
          1   -1    0    0  501    0 -0.00000000000E+00 -0.00000000000E+00 -0.48209644686E+03  0.48209644686E+03  0.00000000000E+00 0. -1.
         25    2    1    2    0    0 -0.91445941496E+02  0.13079829257E+01  0.13311094967E+03  0.20422418270E+03  0.12499968336E+03 0.  0.
          2    1    1    2  501    0 -0.11939420283E+02  0.93666064741E+02 -0.43660637720E+03  0.44670013438E+03  0.00000000000E+00 0. -1.
          1    1    1    2  502    0  0.10338536178E+03 -0.94974047667E+02  0.10034170204E+04  0.10131901695E+04  0.00000000000E+00 0. -1.
         22    1    3    3    0    0 -0.11748236766E+02 -0.52012134773E+02  0.22607390946E+02  0.57916986767E+02  0.00000000000E+00 0. -1.
         22    1    3    3    0    0 -0.79697704729E+02  0.53320117699E+02  0.11050355872E+03  0.14630719593E+03  0.00000000000E+00 0. -1.
</event>
<event>
 7    1  0.6173324E-006  0.7599429E+02  0.7818608E-02  0.1426640E+00
          2   -1    0    0  502    0  0.00000000000E+00  0.00000000000E+00  0.14041017235E+04  0.14041017235E+04  0.00000000000E+00 0. -1.
          1   -1    0    0  501    0 -0.00000000000E+00 -0.00000000000E+00 -0.23356064177E+03  0.23356064177E+03  0.00000000000E+00 0. -1.
         25    2    1    2    0    0  0.12136951661E+02  0.59321439325E+02 -0.34430899577E+01  0.13893752407E+03  0.12500176785E+03 0.  0.
          2    1    1    2  501    0  0.21851802212E+02 -0.76003435501E+02 -0.15245490234E+03  0.17174551149E+03  0.00000000000E+00 0. -1.
          1    1    1    2  502    0 -0.33988753873E+02  0.16681996176E+02  0.13264390740E+04  0.13269793297E+04  0.00000000000E+00 0. -1.
         22    1    3    3    0    0  0.33757202721E+02 -0.25787437518E+02 -0.23945187847E+02  0.48763846140E+02  0.00000000000E+00 0. -1.
         22    1    3    3    0    0 -0.21620251060E+02  0.85108876843E+02  0.20502097889E+02  0.90173677929E+02  0.00000000000E+00 0. -1.
</event>
<event>
 7    1  0.6173324E-006  0.1004583E+03  0.7818608E-02  0.1458207E+00
          2   -1    0    0  502    0  0.00000000000E+00  0.00000000000E+00  0.88958875490E+03  0.88958875490E+03  0.00000000000E+00 0. -1.
          1   -1    0    0  501    0 -0.00000000000E+00 -0.00000000000E+00 -0.11867995448E+04  0.11867995448E+04  0.00000000000E+00 0. -1.
         25    2    1    2    0    0 -0.46317174922E+02 -0.70437553837E+02 -0.12771709040E+03  0.19759337250E+03  0.12499902397E+03 0.  0.
          2    1    1    2  501    0 -0.22403233869E+02 -0.32720049992E+01 -0.10210476957E+04  0.10212986868E+04  0.00000000000E+00 0. -1.
          1    1    1    2  502    0  0.68720408791E+02  0.73709558836E+02  0.85155399622E+03  0.85749624030E+03  0.00000000000E+00 0. -1.
         22    1    3    3    0    0  0.32984585057E+02 -0.61509347107E+02 -0.47387374701E+02  0.84361993302E+02  0.00000000000E+00 0. -1.
         22    1    3    3    0    0 -0.79301759979E+02 -0.89282067302E+01 -0.80329715698E+02  0.11323137920E+03  0.00000000000E+00 0. -1.
</event>
<event>
 7    1  0.6173324E-006  0.4851156E+02  0.7818608E-02  0.1532979E+00
          2   -1    0    0  502    0  0.00000000000E+00  0.00000000000E+00  0.74409559292E+03  0.74409559292E+03  0.00000000000E+00 0. -1.
          1   -1    0    0  501    0 -0.00000000000E+00 -0.00000000000E+00 -0.51320779973E+02  0.51320779973E+02  0.00000000000E+00 0. -1.
         25    2    1    2    0    0 -0.25771356729E+02 -0.31085706308E+01  0.37849319467E+03  0.39944041776E+03  0.12498689088E+03 0.  0.
          2    1    1    2  501    0 -0.24438962292E+02 -0.13565508790E+02 -0.33820598762E+02  0.43876175850E+02  0.00000000000E+00 0. -1.
          1    1    1    2  502    0  0.50210319021E+02  0.16674079420E+02  0.34810221704E+03  0.35209977928E+03  0.00000000000E+00 0. -1.
         22    1    3    3    0    0  0.36395982824E+02  0.85547119732E+01  0.38699986287E+02  0.53810218372E+02  0.00000000000E+00 0. -1.
         22    1    3    3    0    0 -0.62167339553E+02 -0.11663282604E+02  0.33979320838E+03  0.34563019939E+03  0.00000000000E+00 0. -1.
</event>
<event>
 7    1  0.6173324E-006  0.1708600E+03  0.7818608E-02  0.1304230E+00
          2   -1    0    0  502    0  0.00000000000E+00  0.00000000000E+00  0.89927772789E+03  0.89927772789E+03  0.00000000000E+00 0. -1.
          1   -1    0    0  501    0 -0.00000000000E+00 -0.00000000000E+00 -0.23020622074E+03  0.23020622074E+03  0.00000000000E+00 0. -1.
         25    2    1    2    0    0 -0.29781420119E+02 -0.19210834968E+03  0.82375252982E+02  0.24536458509E+03  0.12500218523E+03 0.  0.
          2    1    1    2  501    0  0.40248250508E+02  0.23904635880E+02 -0.13506317008E+03  0.14294549030E+03  0.00000000000E+00 0. -1.
          1    1    1    2  502    0 -0.10466830390E+02  0.16820371380E+03  0.72175942425E+03  0.74117387324E+03  0.00000000000E+00 0. -1.
         22    1    3    3    0    0  0.53858834373E+01 -0.97490768785E+02  0.10344495640E+03  0.14224737869E+03  0.00000000000E+00 0. -1.
         22    1    3    3    0    0 -0.35167303556E+02 -0.94617580894E+02 -0.21069703421E+02  0.10311720640E+03  0.00000000000E+00 0. -1.
</event>
<event>
 7    1  0.6173324E-006  0.1095174E+03  0.7818608E-02  0.1340998E+00
          2   -1    0    0  502    0  0.00000000000E+00  0.00000000000E+00  0.27845580025E+03  0.27845580025E+03  0.00000000000E+00 0. -1.
          1   -1    0    0  501    0 -0.00000000000E+00 -0.00000000000E+00 -0.21649566444E+03  0.21649566444E+03  0.00000000000E+00 0. -1.
         25    2    1    2    0    0 -0.10727213104E+03 -0.39992316531E+02  0.64734223677E+02  0.18144179110E+03  0.12499563337E+03 0.  0.
          2    1    1    2  501    0  0.10973346416E+03 -0.12601122601E+02 -0.13309307080E+03  0.17295660422E+03  0.00000000000E+00 0. -1.
          1    1    1    2  502    0 -0.24613331174E+01  0.52593439132E+02  0.13031898292E+03  0.14055306937E+03  0.00000000000E+00 0. -1.
         22    1    3    3    0    0 -0.71882126710E+01 -0.53371939885E+02 -0.11318611890E+02  0.55030403811E+02  0.00000000000E+00 0.  1.
         22    1    3    3    0    0 -0.10008391837E+03  0.13379623354E+02  0.76052835567E+02  0.12641138729E+03  0.00000000000E+00 0.  1.
</event>
<event>
 7    1  0.6173324E-006  0.6346188E+02  0.7818608E-02  0.1535141E+00
          2   -1    0    0  502    0  0.00000000000E+00  0.00000000000E+00  0.46602863465E+03  0.46602863465E+03  0.00000000000E+00 0. -1.
          1   -1    0    0  501    0 -0.00000000000E+00 -0.00000000000E+00 -0.29938219203E+03  0.29938219203E+03  0.00000000000E+00 0. -1.
         25    2    1    2    0    0 -0.35121841353E+02  0.44699718190E+02  0.20026925622E+03  0.24282646193E+03  0.12500122831E+03 0.  0.
          2    1    1    2  501    0  0.53507892504E+02 -0.34417866242E+02 -0.27399825559E+03  0.28128762530E+03  0.00000000000E+00 0. -1.
          1    1    1    2  502    0 -0.18386051151E+02 -0.10281851948E+02  0.24037544199E+03  0.24129673945E+03  0.00000000000E+00 0. -1.
         22    1    3    3    0    0 -0.77596810306E+02  0.53057034478E+02  0.13476900077E+03  0.16431371655E+03  0.00000000000E+00 0. -1.
         22    1    3    3    0    0  0.42474968953E+02 -0.83573162880E+01  0.65500255449E+02  0.78512745379E+02  0.00000000000E+00 0. -1.
</event>
<event>
 7    1  0.6173324E-006  0.4807809E+02  0.7818608E-02  0.1585157E+00
          2   -1    0    0  502    0  0.00000000000E+00  0.00000000000E+00  0.29470377331E+03  0.29470377331E+03  0.00000000000E+00 0. -1.
          1   -1    0    0  501    0 -0.00000000000E+00 -0.00000000000E+00 -0.81272424065E+03  0.81272424065E+03  0.00000000000E+00 0. -1.
         25    2    1    2    0    0  0.28300909885E+02 -0.16461330088E+02  0.53217954499E+02  0.13974827413E+03  0.12500205019E+03 0.  0.
          2    1    1    2  501    0  0.53175176618E+01 -0.19540725178E+02 -0.76626307493E+03  0.76653063601E+03  0.00000000000E+00 0. -1.
          1    1    1    2  502    0 -0.33618427547E+02  0.36002055266E+02  0.19502465309E+03  0.20114910382E+03  0.00000000000E+00 0. -1.
         22    1    3    3    0    0 -0.39995959796E+02 -0.34603695898E+02  0.43377326575E+02  0.68400913960E+02  0.00000000000E+00 0.  1.
         22    1    3    3    0    0  0.68296869681E+02  0.18142365810E+02  0.98406279240E+01  0.71347360171E+02  0.00000000000E+00 0.  1.
</event>
<event>
 7    1  0.7175675E-006  0.1152704E+03  0.7818608E-02  0.1314472E+00
          2   -1    0    0  502    0  0.00000000000E+00  0.00000000000E+00  0.13569111981E+04  0.13569111981E+04  0.00000000000E+00 0. -1.
          1   -1    0    0  501    0 -0.00000000000E+00 -0.00000000000E+00 -0.10816018445E+04  0.10816018445E+04  0.00000000000E+00 0. -1.
         25    2    1    2    0    0 -0.49504541617E+02  0.86473643430E+02 -0.23741293443E+03  0.28621030201E+03  0.12499217933E+03 0.  0.
          2    1    1    2  501    0 -0.53395720693E+02 -0.33853147781E+02 -0.81605918025E+03  0.81850456582E+03  0.00000000000E+00 0. -1.
          1    1    1    2  502    0  0.10290026231E+03 -0.52620495650E+02  0.13287814683E+04  0.13337981748E+04  0.00000000000E+00 0. -1.
         22    1    3    3    0    0 -0.52969479006E+02  0.17206655695E+02 -0.21954972585E+02  0.59865311555E+02  0.00000000000E+00 0. -1.
         22    1    3    3    0    0  0.34649373888E+01  0.69266987735E+02 -0.21545796185E+03  0.22634499046E+03  0.00000000000E+00 0. -1.
</event>
<event>
 7    1  0.6173324E-006  0.8306695E+02  0.7818608E-02  0.1374586E+00
          2   -1    0    0  502    0  0.00000000000E+00  0.00000000000E+00  0.13440835737E+03  0.13440835737E+03  0.00000000000E+00 0. -1.
          1   -1    0    0  501    0 -0.00000000000E+00 -0.00000000000E+00 -0.48413411953E+03  0.48413411953E+03  0.00000000000E+00 0. -1.
         25    2    1    2    0    0  0.49835524626E+02  0.19460885002E+02 -0.12211985727E+03  0.18275961486E+03  0.12500204688E+03 0.  0.
          2    1    1    2  501    0  0.70248639786E+00  0.52289694449E+02 -0.31061266905E+03  0.31498402469E+03  0.00000000000E+00 0. -1.
          1    1    1    2  502    0 -0.50538011024E+02 -0.71750579451E+02  0.83006764158E+02  0.12079883735E+03  0.00000000000E+00 0. -1.
         22    1    3    3    0    0  0.86613565628E+02 -0.11589331030E+02 -0.85755693224E+02  0.12243472246E+03  0.00000000000E+00 0. -1.
         22    1    3    3    0    0 -0.36778041002E+02  0.31050216032E+02 -0.36364164049E+02  0.60324892396E+02  0.00000000000E+00 0. -1.
</event>
<event>
 7    1  0.6173324E-006  0.8804899E+02  0.7818608E-02  0.1368292E+00
          2   -1    0    0  502    0  0.00000000000E+00  0.00000000000E+00  0.22355711894E+04  0.22355711894E+04  0.00000000000E+00 0. -1.
          1   -1    0    0  501    0 -0.00000000000E+00 -0.00000000000E+00 -0.42263656495E+02  0.42263656495E+02  0.00000000000E+00 0. -1.
         25    2    1    2    0    0  0.30344386706E+02 -0.25874523203E+02  0.10140430018E+03  0.16582222294E+03  0.12499561901E+03 0.  0.
          2    1    1    2  501    0  0.20920110923E+02 -0.47571418214E+02  0.65411729712E+02  0.83542715157E+02  0.00000000000E+00 0. -1.
          1    1    1    2  502    0 -0.51264497629E+02  0.73445941417E+02  0.20264915030E+04  0.20284699078E+04  0.00000000000E+00 0. -1.
         22    1    3    3    0    0  0.22166700331E+02 -0.18250134516E+02 -0.25514932365E+02  0.38411479886E+02  0.00000000000E+00 0. -1.
         22    1    3    3    0    0  0.81776863750E+01 -0.76243886863E+01  0.12691923254E+03  0.12741074306E+03  0.00000000000E+00 0. -1.
</event>
<event>
 7    1  0.6173324E-006  0.5848187E+02  0.7818608E-02  0.1433962E+00
          2   -1    0    0  502    0  0.00000000000E+00  0.00000000000E+00  0.48218659540E+03  0.48218659540E+03  0.00000000000E+00 0. -1.
          1   -1    0    0  501    0 -0.00000000000E+00 -0.00000000000E+00 -0.14554282590E+04  0.14554282590E+04  0.00000000000E+00 0. -1.
         25    2    1    2    0    0 -0.25300054623E+02 -0.19655728601E+02  0.13419234881E+03  0.18616860286E+03  0.12499888712E+03 0.  0.
          2    1    1    2  501    0 -0.14737520306E+00  0.58627735931E+02 -0.14271531756E+04  0.14283568950E+04  0.00000000000E+00 0. -1.
          1    1    1    2  502    0  0.25447429826E+02 -0.38972007330E+02  0.31971916310E+03  0.32308935652E+03  0.00000000000E+00 0. -1.
         22    1    3    3    0    0 -0.11837390260E+02  0.53340138489E+02  0.61708675395E+02  0.82421203590E+02  0.00000000000E+00 0. -1.
         22    1    3    3    0    0 -0.13462664363E+02 -0.72995867090E+02  0.72483673418E+02  0.10374739927E+03  0.00000000000E+00 0. -1.
</event>
<event>
 7    1  0.6173324E-006  0.6070549E+02  0.7818608E-02  0.1468538E+00
          2   -1    0    0  502    0  0.00000000000E+00  0.00000000000E+00  0.74652013348E+03  0.74652013348E+03  0.00000000000E+00 0. -1.
          1   -1    0    0  501    0 -0.00000000000E+00 -0.00000000000E+00 -0.13834384387E+04  0.13834384387E+04  0.00000000000E+00 0. -1.
         25    2    1    2    0    0  0.25791538217E+01 -0.51298208593E+02 -0.17434721721E+02  0.13625940706E+03  0.12499799299E+03 0.  0.
          2    1    1    2  501    0  0.34646472752E+02  0.29366899307E+01 -0.13050041825E+04  0.13054673181E+04  0.00000000000E+00 0. -1.
          1    1    1    2  502    0 -0.37225626574E+02  0.48361518663E+02  0.68552059896E+03  0.68823184709E+03  0.00000000000E+00 0. -1.
         22    1    3    3    0    0 -0.56780080006E+02 -0.14298561367E+02  0.13000047706E+02  0.59978559361E+02  0.00000000000E+00 0. -1.
         22    1    3    3    0    0  0.59359233828E+02 -0.36999647227E+02 -0.30434769427E+02  0.76280847699E+02  0.00000000000E+00 0. -1.
</event>
<event>
 7    1  0.6173324E-006  0.1394694E+03  0.7818608E-02  0.1290127E+00
          2   -1    0    0  502    0  0.00000000000E+00  0.00000000000E+00  0.46694999558E+03  0.46694999558E+03  0.00000000000E+00 0. -1.
          1   -1    0    0  501    0 -0.00000000000E+00 -0.00000000000E+00 -0.10333050418E+04  0.10333050418E+04  0.00000000000E+00 0. -1.
         25    2    1    2    0    0 -0.55533783410E+02 -0.53491133036E+02 -0.21755837149E+03  0.26249200980E+03  0.12500043116E+03 0.  0.
          2    1    1    2  501    0 -0.46000363710E+02 -0.46414149582E+02 -0.78046693343E+03  0.78319789384E+03  0.00000000000E+00 0. -1.
          1    1    1    2  502    0  0.10153414712E+03  0.99905282618E+02  0.43167025872E+03  0.45456513371E+03  0.00000000000E+00 0. -1.
         22    1    3    3    0    0 -0.86778599723E+02 -0.47093533226E+02 -0.99389710786E+02  0.14009511359E+03  0.00000000000E+00 0.  1.
         22    1    3    3    0    0  0.31244816313E+02 -0.63975998101E+01 -0.11816866070E+03  0.12239689621E+03  0.00000000000E+00 0.  1.
</event>
<event>
 7    1  0.6173324E-006  0.1096280E+03  0.7818608E-02  0.1369002E+00
          2   -1    0    0  502    0  0.00000000000E+00  0.00000000000E+00  0.68830796653E+03  0.68830796653E+03  0.00000000000E+00 0. -1.
          1   -1    0    0  501    0 -0.00000000000E+00 -0.00000000000E+00 -0.49921301486E+02  0.49921301486E+02  0.00000000000E+00 0. -1.
         25    2    1    2    0    0 -0.84325094446E+02  0.30371040061E+02  0.34840673122E+03  0.38084821289E+03  0.12499995712E+03 0.  0.
          2    1    1    2  501    0 -0.25554021682E+02  0.32691323808E+02  0.61575844911E+00  0.41498311229E+02  0.00000000000E+00 0. -1.
          1    1    1    2  502    0  0.10987911613E+03 -0.63062363868E+02  0.28936417538E+03  0.31588274390E+03  0.00000000000E+00 0. -1.
         22    1    3    3    0    0  0.10112459314E+01 -0.40379176388E+02  0.12654643350E+03  0.13283636677E+03  0.00000000000E+00 0.  1.
         22    1    3    3    0    0 -0.85336340377E+02  0.70750216449E+02  0.22186029771E+03  0.24801184612E+03  0.00000000000E+00 0.  1.
</event>
<event>
 7    1  0.6173324E-006  0.6208689E+02  0.7818608E-02  0.1522160E+00
          2   -1    0    0  502    0  0.00000000000E+00  0.00000000000E+00  0.19529020587E+03  0.19529020587E+03  0.00000000000E+00 0. -1.
          1   -1    0    0  501    0 -0.00000000000E+00 -0.00000000000E+00 -0.75218280090E+02  0.75218280090E+02  0.00000000000E+00 0. -1.
         25    2    1    2    0    0  0.50668638325E+02 -0.20442232442E+02  0.12100865681E+03  0.18235393734E+03  0.12499867065E+03 0.  0.
          2    1    1    2  501    0 -0.64376043330E+02  0.14020806763E+01  0.25179400531E+01  0.64440521468E+02  0.00000000000E+00 0. -1.
          1    1    1    2  502    0  0.13707405004E+02  0.19040151766E+02 -0.34546710851E+01  0.23714027147E+02  0.00000000000E+00 0. -1.
         22    1    3    3    0    0  0.10397532709E+02 -0.19353043442E+02 -0.23597428563E+02  0.32241085770E+02  0.00000000000E+00 0.  1.
         22    1    3    3    0    0  0.40271105617E+02 -0.10891890003E+01  0.14460608537E+03  0.15011285157E+03  0.00000000000E+00 0.  1.
</event>
<event>
 7    1  0.6173324E-006  0.9087408E+02  0.7818608E-02  0.1378226E+00
          2   -1    0    0  502    0  0.00000000000E+00  0.00000000000E+00  0.81744080165E+02  0.81744080165E+02  0.00000000000E+00 0. -1.
          1   -1    0    0  501    0 -0.00000000000E+00 -0.00000000000E+00 -0.29306588873E+04  0.29306588873E+04  0.00000000000E+00 0. -1.
         25    2    1    2    0    0 -0.34705537037E+02  0.11507301476E+03 -0.23674983938E+03  0.29346319477E+03  0.12499554878E+03 0.  0.
          2    1    1    2  501    0  0.37358976061E+02 -0.27512436896E+02 -0.26292744644E+04  0.26296837902E+04  0.00000000000E+00 0. -1.
          1    1    1    2  502    0 -0.26534390233E+01 -0.87560577869E+02  0.17109496643E+02  0.89255982493E+02  0.00000000000E+00 0. -1.
         22    1    3    3    0    0  0.19539933217E+02  0.46366950551E+02 -0.18511264430E+03  0.19182907542E+03  0.00000000000E+00 0.  1.
         22    1    3    3    0    0 -0.54245470254E+02  0.68706064214E+02 -0.51637195073E+02  0.10163411936E+03  0.00000000000E+00 0.  1.
</event>
<event>
 7    1  0.6173324E-006  0.1216421E+03  0.7818608E-02  0.1408148E+00
          2   -1    0    0  502    0  0.00000000000E+00  0.00000000000E+00  0.30960836612E+03  0.30960836612E+03  0.00000000000E+00 0. -1.
          1   -1    0    0  501    0 -0.00000000000E+00 -0.00000000000E+00 -0.39045697094E+03  0.39045697094E+03  0.00000000000E+00 0. -1.
         25    2    1    2    0    0 -0.93345776526E+02 -0.86981474812E+02  0.12868114721E+03  0.22014303426E+03  0.12499962773E+03 0.  0.
          2    1    1    2  501    0  0.10440241224E+03  0.62038906308E+02 -0.33248818347E+03  0.35397327826E+03  0.00000000000E+00 0. -1.
          1    1    1    2  502    0 -0.11056635709E+02  0.24942568504E+02  0.12295843144E+03  0.12594902453E+03  0.00000000000E+00 0. -1.
         22    1    3    3    0    0 -0.11453948156E+03 -0.10083128263E+03  0.11684469161E+03  0.19219501125E+03  0.00000000000E+00 0.  1.
         22    1    3    3    0    0  0.21193705030E+02  0.13849807816E+02  0.11836455599E+02  0.27948023017E+02  0.00000000000E+00 0.  1.
</event>
<event>
 7    1  0.6173324E-006  0.1098925E+03  0.7818608E-02  0.1289128E+00
          2   -1    0    0  502    0  0.00000000000E+00  0.00000000000E+00  0.10848635377E+04  0.10848635377E+04  0.00000000000E+00 0. -1.
          1   -1    0    0  501    0 -0.00000000000E+00 -0.00000000000E+00 -0.69486166574E+03  0.69486166574E+03  0.00000000000E+00 0. -1.
         25    2    1    2    0    0  0.12229874240E+03  0.13141202638E+03 -0.80725021523E+02  0.23316897832E+03  0.12500056112E+03 0.  0.
          2    1    1    2  501    0 -0.77164389648E+02 -0.32464666280E+02 -0.53169845948E+03  0.53824859442E+03  0.00000000000E+00 0. -1.
          1    1    1    2  502    0 -0.45134352750E+02 -0.98947360096E+02  0.10024253530E+04  0.10083076307E+04  0.00000000000E+00 0. -1.
         22    1    3    3    0    0  0.38018790864E+02  0.10386893282E+03 -0.91895318436E+02  0.14380171492E+03  0.00000000000E+00 0. -1.
         22    1    3    3    0    0  0.84279951534E+02  0.27543093555E+02  0.11170296913E+02  0.89367263393E+02  0.00000000000E+00 0. -1.
</event>
<event>
 7    1  0.6173324E-006  0.3091979E+02  0.7818608E-02  0.1624296E+00
          2   -1    0    0  502    0  0.00000000000E+00  0.00000000000E+00  0.86917378086E+03  0.86917378086E+03  0.00000000000E+00 0. -1.
          1   -1    0    0  501    0 -0.00000000000E+00 -0.00000000000E+00 -0.20398154081E+03  0.20398154081E+03  0.00000000000E+00 0. -1.
         25    2    1    2    0    0 -0.65604050551E+01 -0.35896171550E+02  0.37585995182E+03  0.39777510473E+03  0.12499102574E+03 0.  0.
          2    1    1    2  501    0 -0.18161912576E+02  0.17059353724E+02 -0.19171620986E+03  0.19332868836E+03  0.00000000000E+00 0. -1.
          1    1    1    2  502    0  0.24722317631E+02  0.18836817827E+02  0.48104849809E+03  0.48205152858E+03  0.00000000000E+00 0. -1.
         22    1    3    3    0    0 -0.34875595155E+02  0.37694814084E+02  0.14989306947E+03  0.15844601106E+03  0.00000000000E+00 0. -1.
         22    1    3    3    0    0  0.28315190100E+02 -0.73590985635E+02  0.22596688235E+03  0.23932909367E+03  0.00000000000E+00 0. -1.
</event>
<event>
 7    1  0.6173324E-006  0.1680900E+03  0.7818608E-02  0.1382404E+00
          2   -1    0    0  502    0  0.00000000000E+00  0.00000000000E+00  0.44563411295E+03  0.44563411295E+03  0.00000000000E+00 0. -1.
          1   -1    0    0  501    0 -0.00000000000E+00 -0.00000000000E+00 -0.10155706983E+04  0.10155706983E+04  0.00000000000E+00 0. -1.
         25    2    1    2    0    0  0.99529183961E+01  0.18380461094E+03 -0.44773910741E+02  0.22696508836E+03  0.12500101065E+03 0.  0.
          2    1    1    2  501    0  0.14175313320E+02 -0.19667030543E+02 -0.86011320249E+03  0.86045479410E+03  0.00000000000E+00 0. -1.
          1    1    1    2  502    0 -0.24128231716E+02 -0.16413758040E+03  0.33495052788E+03  0.37378492879E+03  0.00000000000E+00 0. -1.
         22    1    3    3    0    0 -0.12999395456E+02  0.17972348441E+03 -0.42843663072E+01  0.18024392063E+03  0.00000000000E+00 0. -1.
         22    1    3    3    0    0  0.22952313852E+02  0.40811265272E+01 -0.40489544434E+02  0.46721167723E+02  0.00000000000E+00 0. -1.
</event>
<event>
 7    1  0.6173324E-006  0.8181767E+02  0.7818608E-02  0.1414368E+00
          2   -1    0    0  502    0  0.00000000000E+00  0.00000000000E+00  0.50932839415E+04  0.50932839415E+04  0.00000000000E+00 0. -1.
          1   -1    0    0  501    0 -0.00000000000E+00 -0.00000000000E+00 -0.85515501839E+03  0.85515501839E+03  0.00000000000E+00 0. -1.
         25    2    1    2    0    0 -0.30227425775E+02 -0.38902657119E+02  0.11553529842E+04  0.11631400044E+04  0.12500815076E+03 0.  0.
          2    1    1    2  501    0 -0.85009163027E+01 -0.37698539219E+02 -0.85035441932E+03  0.85123209755E+03  0.00000000000E+00 0. -1.
          1    1    1    2  502    0  0.38728342078E+02  0.76601196338E+02  0.39331303582E+04  0.39340668579E+04  0.00000000000E+00 0. -1.
         22    1    3    3    0    0 -0.42114652306E+02  0.30541258911E+02  0.26853614104E+03  0.27352892256E+03  0.00000000000E+00 0. -1.
         22    1    3    3    0    0  0.11887226531E+02 -0.69443916030E+02  0.88681684316E+03  0.88961108184E+03  0.00000000000E+00 0. -1.
</event>
<event>
 7    1  0.6173324E-006  0.1155143E+03  0.7818608E-02  0.1386477E+00
          2   -1    0    0  502    0  0.00000000000E+00  0.00000000000E+00  0.32794109187E+04  0.32794109187E+04  0.00000000000E+00 0. -1.
          1   -1    0    0  501    0 -0.00000000000E+00 -0.00000000000E+00 -0.11494729191E+04  0.11494729191E+04  0.00000000000E+00 0. -1.
         25    2    1    2    0    0  0.84092651855E+01 -0.14740051622E+03  0.14862337823E+04  0.14987669190E+04  0.12495516702E+03 0.  0.
          2    1    1    2  501    0 -0.16567779689E+02  0.11425773223E+03 -0.11401277782E+04  0.11459584074E+04  0.00000000000E+00 0. -1.
          1    1    1    2  502    0  0.81585145036E+01  0.33142783990E+02  0.17838319956E+04  0.17841585114E+04  0.00000000000E+00 0. -1.
         22    1    3    3    0    0  0.34653618539E+02 -0.60539835297E+02  0.26046293439E+03  0.26964214271E+03  0.00000000000E+00 0. -1.
         22    1    3    3    0    0 -0.26244353354E+02 -0.86860680920E+02  0.12257708479E+04  0.12291247763E+04  0.00000000000E+00 0. -1.
</event>
<event>
 7    1  0.6208321E-006  0.1024147E+03  0.7818608E-02  0.1288301E+00
          2   -1    0    0  502    0  0.00000000000E+00  0.00000000000E+00  0.12625740686E+04  0.12625740686E+04  0.00000000000E+00 0. -1.
          1   -1    0    0  501    0 -0.00000000000E+00 -0.00000000000E+00 -0.73233356702E+03  0.73233356702E+03  0.00000000000E+00 0. -1.
         25    2    1    2    0    0 -0.99336824195E+01  0.37426645295E+02 -0.13239453235E+02  0.13153612179E+03  0.12500814529E+03 0.  0.
          2    1    1    2  501    0  0.10040039659E+03 -0.40752860783E+02 -0.65377768181E+03  0.66269622945E+03  0.00000000000E+00 0. -1.
          1    1    1    2  502    0 -0.90466714170E+02  0.33262154885E+01  0.11972576366E+04  0.12006752844E+04  0.00000000000E+00 0. -1.
         22    1    3    3    0    0 -0.66811869007E+02  0.24985929357E+02  0.19743336188E+01  0.71358394736E+02  0.00000000000E+00 0.  1.
         22    1    3    3    0    0  0.56878186588E+02  0.12440715938E+02 -0.15213786853E+02  0.60177727051E+02  0.00000000000E+00 0.  1.
</event>
<event>
 7    1  0.6173324E-006  0.7849828E+02  0.7818608E-02  0.1437448E+00
          2   -1    0    0  502    0  0.00000000000E+00  0.00000000000E+00  0.18981306502E+04  0.18981306502E+04  0.00000000000E+00 0. -1.
          1   -1    0    0  501    0 -0.00000000000E+00 -0.00000000000E+00 -0.92621292121E+02  0.92621292121E+02  0.00000000000E+00 0. -1.
         25    2    1    2    0    0  0.10573457623E+03 -0.20162606826E+02  0.74041839833E+03  0.75857151453E+03  0.12500002693E+03 0.  0.
          2    1    1    2  501    0 -0.33777172508E+02  0.35826150063E+00 -0.78863894476E+02  0.85793587090E+02  0.00000000000E+00 0. -1.
          1    1    1    2  502    0 -0.71957403725E+02  0.19804345325E+02  0.11439548542E+04  0.11463868407E+04  0.00000000000E+00 0. -1.
         22    1    3    3    0    0  0.11034230426E+03 -0.50337957481E+02  0.68157688433E+03  0.69228345591E+03  0.00000000000E+00 0.  1.
         22    1    3    3    0    0 -0.46077280325E+01  0.30175350655E+02  0.58841514004E+02  0.66288058616E+02  0.00000000000E+00 0.  1.
</event>
<event>
 7    1  0.6173324E-006  0.3626665E+02  0.7818608E-02  0.1549697E+00
          2   -1    0    0  502    0  0.00000000000E+00  0.00000000000E+00  0.13852938226E+03  0.13852938226E+03  0.00000000000E+00 0. -1.
          1   -1    0    0  501    0 -0.00000000000E+00 -0.00000000000E+00 -0.21675818947E+04  0.21675818947E+04  0.00000000000E+00 0. -1.
         25    2    1    2    0    0 -0.15330919741E+02  0.14441698166E+02 -0.10067695253E+02  0.12716598546E+03  0.12500491840E+03 0.  0.
          2    1    1    2  501    0 -0.11594054914E+02 -0.34441440411E+02 -0.20952842346E+04  0.20955993555E+04  0.00000000000E+00 0. -1.
          1    1    1    2  502    0  0.26924974654E+02  0.19999742245E+02  0.76299417426E+02  0.83345936011E+02  0.00000000000E+00 0. -1.
         22    1    3    3    0    0 -0.46844274572E+02  0.32069574793E+02  0.37059692086E+02  0.67795755509E+02  0.00000000000E+00 0.  1.
         22    1    3    3    0    0  0.31513354831E+02 -0.17627876627E+02 -0.47127387339E+02  0.59370229951E+02  0.00000000000E+00 0.  1.
</event>
<event>
 7    1  0.6173324E-006  0.6103813E+02  0.7818608E-02  0.1425535E+00
          2   -1    0    0  502    0  0.00000000000E+00  0.00000000000E+00  0.42021683220E+02  0.42021683220E+02  0.00000000000E+00 0. -1.
          1   -1    0    0  501    0 -0.00000000000E+00 -0.00000000000E+00 -0.91970563501E+03  0.91970563501E+03  0.00000000000E+00 0. -1.
         25    2    1    2    0    0 -0.42420487878E+01 -0.51567859891E+02 -0.26955757814E+03  0.30160115556E+03  0.12499891981E+03 0.  0.
          2    1    1    2  501    0 -0.46180296987E+02  0.11280382294E+02 -0.59159511659E+03  0.59350202091E+03  0.00000000000E+00 0. -1.
          1    1    1    2  502    0  0.50422345774E+02  0.40287477597E+02 -0.16531257062E+02  0.66624141755E+02  0.00000000000E+00 0. -1.
         22    1    3    3    0    0  0.22294444774E+02 -0.28022775943E+02 -0.26312010203E+03  0.26554567654E+03  0.00000000000E+00 0.  1.
         22    1    3    3    0    0 -0.26536493562E+02 -0.23545083948E+02 -0.64374761108E+01  0.36055479020E+02  0.00000000000E+00 0.  1.
</event>
<event>
 7    1  0.6173324E-006  0.5432633E+02  0.7818608E-02  0.1482335E+00
          2   -1    0    0  502    0  0.00000000000E+00  0.00000000000E+00  0.12479388790E+04  0.12479388790E+04  0.00000000000E+00 0. -1.
          1   -1    0    0  501    0 -0.00000000000E+00 -0.00000000000E+00 -0.10205228670E+03  0.10205228670E+03  0.00000000000E+00 0. -1.
         25    2    1    2    0    0 -0.46842937456E+02 -0.57854015656E+02  0.61278347068E+02  0.15786423629E+03  0.12499893344E+03 0.  0.
          2    1    1    2  501    0  0.12244576945E+02  0.51245249657E+02 -0.40507786601E+02  0.66459657329E+02  0.00000000000E+00 0. -1.
          1    1    1    2  502    0  0.34598360512E+02  0.66087659989E+01  0.11251160318E+04  0.11256672721E+04  0.00000000000E+00 0. -1.
         22    1    3    3    0    0 -0.41851917729E+02 -0.73737870670E+02  0.90637365084E+02  0.12411280570E+03  0.00000000000E+00 0. -1.
         22    1    3    3    0    0 -0.49910197272E+01  0.15883855014E+02 -0.29359018016E+02  0.33751430590E+02  0.00000000000E+00 0. -1.
</event>
<event>
 7    1  0.6173324E-006  0.5585681E+02  0.7818608E-02  0.1478152E+00
          2   -1    0    0  502    0  0.00000000000E+00  0.00000000000E+00  0.78033596246E+03  0.78033596246E+03  0.00000000000E+00 0. -1.
          1   -1    0    0  501    0 -0.00000000000E+00 -0.00000000000E+00 -0.59268504400E+03  0.59268504400E+03  0.00000000000E+00 0. -1.
         25    2    1    2    0    0  0.59759370437E+01 -0.34354154354E+02  0.51703419332E+03  0.53307119015E+03  0.12499846784E+03 0.  0.
          2    1    1    2  501    0 -0.10281645066E+02 -0.33754611480E+02 -0.57955939635E+03  0.58063256877E+03  0.00000000000E+00 0. -1.
          1    1    1    2  502    0  0.43057080219E+01  0.68108765834E+02  0.25017612150E+03  0.25931724754E+03  0.00000000000E+00 0. -1.
         22    1    3    3    0    0  0.41575138357E+02 -0.45444162055E+02  0.46497353168E+03  0.46903523232E+03  0.00000000000E+00 0.  1.
         22    1    3    3    0    0 -0.35599201313E+02  0.11090007701E+02  0.52060661639E+02  0.64035957830E+02  0.00000000000E+00 0.  1.
</event>
<event>
 7    1  0.6173324E-006  0.6619758E+02  0.7818608E-02  0.1531610E+00
          2   -1    0    0  502    0  0.00000000000E+00  0.00000000000E+00  0.18612149268E+04  0.18612149268E+04  0.00000000000E+00 0. -1.
          1   -1    0    0  501    0 -0.00000000000E+00 -0.00000000000E+00 -0.17120546851E+03  0.17120546851E+03  0.00000000000E+00 0. -1.
         25    2    1    2    0    0  0.27627455284E+02 -0.39170168385E+02  0.86315234910E+03  0.87347211874E+03  0.12499594431E+03 0.  0.
          2    1    1    2  501    0 -0.28704034210E+02  0.59810990007E+02 -0.15930636388E+03  0.17256822905E+03  0.00000000000E+00 0. -1.
          1    1    1    2  502    0  0.10765789261E+01 -0.20640821622E+02  0.98616347303E+03  0.98638004749E+03  0.00000000000E+00 0. -1.
         22    1    3    3    0    0  0.47114909835E+01 -0.81400543007E+02  0.42992595403E+03  0.43758950227E+03  0.00000000000E+00 0.  1.
         22    1    3    3    0    0  0.22915964301E+02  0.42230374622E+02  0.43322639507E+03  0.43588261648E+03  0.00000000000E+00 0.  1.
</event>
<event>
 7    1  0.6173324E-006  0.1968102E+03  0.7818608E-02  0.1254850E+00
          2   -1    0    0  502    0  0.00000000000E+00  0.00000000000E+00  0.27512130684E+04  0.27512130684E+04  0.00000000000E+00 0. -1.
          1   -1    0    0  501    0 -0.00000000000E+00 -0.00000000000E+00 -0.32442953336E+04  0.32442953336E+04  0.00000000000E+00 0. -1.
         25    2    1    2    0    0 -0.25070951915E+03 -0.72985444773E+02  0.26857997746E+03  0.39489496491E+03  0.12499876352E+03 0.  0.
          2    1    1    2  501    0  0.18727512916E+03  0.58582475015E+02 -0.31776737045E+04  0.31837264412E+04  0.00000000000E+00 0. -1.
          1    1    1    2  502    0  0.63434389990E+02  0.14402969759E+02  0.24160114618E+04  0.24168869959E+04  0.00000000000E+00 0. -1.
         22    1    3    3    0    0 -0.66070550570E+02 -0.75231203291E+02  0.12966687633E+03  0.16382475520E+03  0.00000000000E+00 0. -1.
         22    1    3    3    0    0 -0.18463896858E+03  0.22457585173E+01  0.13891310114E+03  0.23107020971E+03  0.00000000000E+00 0. -1.
</event>
<event>
 7    1  0.6173324E-006  0.4493420E+02  0.7818608E-02  0.1525286E+00
          2   -1    0    0  502    0  0.00000000000E+00  0.00000000000E+00  0.42112832200E+03  0.42112832200E+03  0.00000000000E+00 0. -1.
          1   -1    0    0  501    0 -0.00000000000E+00 -0.00000000000E+00 -0.50430027522E+03  0.50430027522E+03  0.00000000000E+00 0. -1.
         25    2    1    2    0    0  0.69427347508E+02  0.30997630855E+02  0.47615853223E+01  0.14639004897E+03  0.12500545605E+03 0.  0.
          2    1    1    2  501    0 -0.39472921438E+02 -0.20472480847E+02 -0.43161208604E+03  0.43389656234E+03  0.00000000000E+00 0. -1.
          1    1    1    2  502    0 -0.29954426069E+02 -0.10525150008E+02  0.34367854749E+03  0.34514198590E+03  0.00000000000E+00 0. -1.
         22    1    3    3    0    0  0.94609762987E+02  0.27601665742E+02  0.37062303013E+02  0.10529232407E+03  0.00000000000E+00 0. -1.
         22    1    3    3    0    0 -0.25182415480E+02  0.33959651130E+01 -0.32300717691E+02  0.41097724898E+02  0.00000000000E+00 0. -1.
</event>
<event>
 7    1  0.6173324E-006  0.5205121E+02  0.7818608E-02  0.1551407E+00
          2   -1    0    0  502    0  0.00000000000E+00  0.00000000000E+00  0.33589855004E+04  0.33589855004E+04  0.00000000000E+00 0. -1.
          1   -1    0    0  501    0 -0.00000000000E+00 -0.00000000000E+00 -0.12939611859E+02  0.12939611859E+02  0.00000000000E+00 0. -1.
         25    2    1    2    0    0  0.26374495484E+02 -0.18170477824E+02  0.65186324971E+03  0.66451354903E+03  0.12500712080E+03 0.  0.
          2    1    1    2  501    0  0.23106833056E+02 -0.58169929568E+00  0.14670045273E+02  0.27376528930E+02  0.00000000000E+00 0. -1.
          1    1    1    2  502    0 -0.49481328539E+02  0.18752177120E+02  0.26795125935E+04  0.26800350343E+04  0.00000000000E+00 0. -1.
         22    1    3    3    0    0 -0.35102715500E+02 -0.47701469182E+02  0.35585634557E+03  0.36075111847E+03  0.00000000000E+00 0. -1.
         22    1    3    3    0    0  0.61477210983E+02  0.29530991357E+02  0.29600690414E+03  0.30376243056E+03  0.00000000000E+00 0. -1.
</event>
<event>
 7    1  0.6173324E-006  0.9115643E+02  0.7818608E-02  0.1397506E+00
          2   -1    0    0  502    0  0.00000000000E+00  0.00000000000E+00  0.93114941542E+03  0.93114941542E+03  0.00000000000E+00 0. -1.
          1   -1    0    0  501    0 -0.00000000000E+00 -0.00000000000E+00 -0.16646159291E+04  0.16646159291E+04  0.00000000000E+00 0. -1.
         25    2    1    2    0    0 -0.48186910314E+02 -0.27970216338E+02  0.15480495094E+03  0.20661747722E+03  0.12498759030E+03 0.  0.
          2    1    1    2  501    0 -0.33529413774E+02 -0.21060382087E+02 -0.16354436628E+04  0.16359229003E+04  0.00000000000E+00 0. -1.
          1    1    1    2  502    0  0.81716324089E+02  0.49030598424E+02  0.74717219821E+03  0.75322496705E+03  0.00000000000E+00 0. -1.
         22    1    3    3    0    0 -0.77658741681E+02 -0.48577296686E+02  0.14090694461E+03  0.16806368124E+03  0.00000000000E+00 0.  1.
         22    1    3    3    0    0  0.29471831367E+02  0.20607080348E+02  0.13898006336E+02  0.38553795983E+02  0.00000000000E+00 0.  1.
</event>
<event>
 7    1  0.6173324E-006  0.5320802E+02  0.7818608E-02  0.1454333E+00
          2   -1    0    0  502    0  0.00000000000E+00  0.00000000000E+00  0.33854879794E+04  0.33854879794E+04  0.00000000000E+00 0. -1.
          1   -1    0    0  501    0 -0.00000000000E+00 -0.00000000000E+00 -0.96614697639E+01  0.96614697639E+01  0.00000000000E+00 0. -1.
         25    2    1    2    0    0  0.36547740931E+02  0.20353387762E+02  0.63283300256E+03  0.64641662768E+03  0.12500739841E+03 0.  0.
          2    1    1    2  501    0  0.13373270341E+02 -0.41890256430E+02  0.18472709284E+03  0.18988874841E+03  0.00000000000E+00 0. -1.
          1    1    1    2  502    0 -0.49921011272E+02  0.21536868668E+02  0.25582664143E+04  0.25588440731E+04  0.00000000000E+00 0. -1.
         22    1    3    3    0    0 -0.21699850551E+02 -0.36822611078E+02  0.33079265965E+03  0.33354245889E+03  0.00000000000E+00 0.  1.
         22    1    3    3    0    0  0.58247591481E+02  0.57175998840E+02  0.30204034290E+03  0.31287416879E+03  0.00000000000E+00 0.  1.
</event>
<event>
 7    1  0.6173324E-006  0.7956972E+02  0.7818608E-02  0.1433719E+00
          2   -1    0    0  502    0  0.00000000000E+00  0.00000000000E+00  0.16380386922E+04  0.16380386922E+04  0.00000000000E+00 0. -1.
          1   -1    0    0  501    0 -0.00000000000E+00 -0.00000000000E+00 -0.30867773440E+03  0.30867773440E+03  0.00000000000E+00 0. -1.
         25    2    1    2    0    0 -0.10221250005E+03 -0.29573129679E+02  0.27192948221E+02  0.16639160276E+03  0.12499897547E+03 0.  0.
          2    1    1    2  501    0  0.33053549034E+02 -0.90568756090E+01 -0.23682623188E+03  0.23929318462E+03  0.00000000000E+00 0. -1.
          1    1    1    2  502    0  0.69158951013E+02  0.38630005288E+02  0.15389942415E+04  0.15410316392E+04  0.00000000000E+00 0. -1.
         22    1    3    3    0    0 -0.84419829084E+02  0.16179386946E+02  0.62197506804E+02  0.10609905729E+03  0.00000000000E+00 0.  1.
         22    1    3    3    0    0 -0.17792670963E+02 -0.45752516625E+02 -0.35004558583E+02  0.60292545468E+02  0.00000000000E+00 0.  1.
</event>
<event>
 7    1  0.6173324E-006  0.1256039E+03  0.7818608E-02  0.1248976E+00
          2   -1    0    0  502    0  0.00000000000E+00  0.00000000000E+00  0.26361166003E+04  0.26361166003E+04  0.00000000000E+00 0. -1.
          1   -1    0    0  501    0 -0.00000000000E+00 -0.00000000000E+00 -0.99446112378E+03  0.99446112378E+03  0.00000000000E+00 0. -1.
         25    2    1    2    0    0 -0.98024981067E+02 -0.14030047830E+01 -0.11925508637E+03  0.19863941913E+03  0.12499991148E+03 0.  0.
          2    1    1    2  501    0  0.79787637360E+02  0.10791854675E+03 -0.82899016286E+03  0.83978400195E+03  0.00000000000E+00 0. -1.
          1    1    1    2  502    0  0.18237343707E+02 -0.10651554197E+03  0.25899007258E+04  0.25921543030E+04  0.00000000000E+00 0. -1.
         22    1    3    3    0    0 -0.10992588295E+03 -0.13739584722E+02 -0.13550085671E+03  0.17502273595E+03  0.00000000000E+00 0.  1.
         22    1    3    3    0    0  0.11900901881E+02  0.12336579939E+02  0.16245770342E+02  0.23616683175E+02  0.00000000000E+00 0.  1.
</event>
<event>
 7    1  0.6173324E-006  0.6681882E+02  0.7818608E-02  0.1424136E+00
          2   -1    0    0  502    0  0.00000000000E+00  0.00000000000E+00  0.27235572519E+04  0.27235572519E+04  0.00000000000E+00 0. -1.
          1   -1    0    0  501    0 -0.00000000000E+00 -0.00000000000E+00 -0.13476598462E+03  0.13476598462E+03  0.00000000000E+00 0. -1.
         25    2    1    2    0    0 -0.71449676592E+01 -0.59709725668E+02  0.32370303183E+03  0.35217150469E+03  0.12499925598E+03 0.  0.
          2    1    1    2  501    0 -0.36633687316E+02  0.56557352397E+02 -0.11089500966E+03  0.12976310849E+03  0.00000000000E+00 0. -1.
          1    1    1    2  502    0  0.43778654975E+02  0.31523732705E+01  0.23759832451E+04  0.23763886234E+04  0.00000000000E+00 0. -1.
         22    1    3    3    0    0 -0.48469483922E+02 -0.78018344419E+02  0.19001237693E+03  0.21104704765E+03  0.00000000000E+00 0.  1.
         22    1    3    3    0    0  0.41324516263E+02  0.18308618751E+02  0.13369065491E+03  0.14112445704E+03  0.00000000000E+00 0.  1.
</event>
<event>
 7    1  0.6173324E-006  0.5671669E+02  0.7818608E-02  0.1415594E+00
          2   -1    0    0  502    0  0.00000000000E+00  0.00000000000E+00  0.31565647994E+03  0.31565647994E+03  0.00000000000E+00 0. -1.
          1   -1    0    0  501    0 -0.00000000000E+00 -0.00000000000E+00 -0.64452611597E+03  0.64452611597E+03  0.00000000000E+00 0. -1.
         25    2    1    2    0    0  0.38963360294E+02  0.69737206677E+02 -0.23398835683E+03  0.27704831801E+03  0.12499519168E+03 0.  0.
          2    1    1    2  501    0  0.15236729779E+02 -0.53077600619E+02 -0.38428280353E+03  0.38823016718E+03  0.00000000000E+00 0. -1.
          1    1    1    2  502    0 -0.54200090072E+02 -0.16659606059E+02  0.28940152432E+03  0.29490411072E+03  0.00000000000E+00 0. -1.
         22    1    3    3    0    0  0.18449354495E+02  0.10477315799E+03 -0.15165013081E+03  0.18524458289E+03  0.00000000000E+00 0. -1.
         22    1    3    3    0    0  0.20514005798E+02 -0.35035951314E+02 -0.82338226015E+02  0.91803735119E+02  0.00000000000E+00 0. -1.
</event>
<event>
 7    1  0.6173324E-006  0.1208598E+03  0.7818608E-02  0.1382602E+00
          2   -1    0    0  502    0  0.00000000000E+00  0.00000000000E+00  0.15287318486E+03  0.15287318486E+03  0.00000000000E+00 0. -1.
          1   -1    0    0  501    0 -0.00000000000E+00 -0.00000000000E+00 -0.18314661176E+03  0.18314661176E+03  0.00000000000E+00 0. -1.
         25    2    1    2    0    0  0.96679805028E+02  0.59286933710E+02 -0.43544835283E+01  0.16883707521E+03  0.12500028492E+03 0.  0.
          2    1    1    2  501    0 -0.87372736065E+02 -0.91637704076E+02 -0.36714614856E+02  0.13183105385E+03  0.00000000000E+00 0. -1.
          1    1    1    2  502    0 -0.93070689626E+01  0.32350770366E+02  0.10795671485E+02  0.35351667553E+02  0.00000000000E+00 0. -1.
         22    1    3    3    0    0  0.98465531202E+02  0.66234734538E+02  0.38983935909E+02  0.12490895946E+03  0.00000000000E+00 0.  1.
         22    1    3    3    0    0 -0.17857261740E+01 -0.69478008279E+01 -0.43338419437E+02  0.43928115753E+02  0.00000000000E+00 0.  1.
</event>
<event>
 7    1  0.6173324E-006  0.6458348E+02  0.7818608E-02  0.1400587E+00
          2   -1    0    0  502    0  0.00000000000E+00  0.00000000000E+00  0.37688706488E+03  0.37688706488E+03  0.00000000000E+00 0. -1.
          1   -1    0    0  501    0 -0.00000000000E+00 -0.00000000000E+00 -0.59606266842E+02  0.59606266842E+02  0.00000000000E+00 0. -1.
         25    2    1    2    0    0 -0.11504618763E+02  0.40456011626E+02  0.13523795297E+03  0.18890096143E+03  0.12500089669E+03 0.  0.
          2    1    1    2  501    0 -0.54161467425E+02 -0.63942349609E+01  0.38717989682E+01  0.54674871940E+02  0.00000000000E+00 0. -1.
          1    1    1    2  502    0  0.65666086188E+02 -0.34061776665E+02  0.17817104610E+03  0.19291749836E+03  0.00000000000E+00 0. -1.
         22    1    3    3    0    0 -0.23998886085E+02 -0.42060207319E+02  0.50474014554E+02  0.69947363913E+02  0.00000000000E+00 0. -1.
         22    1    3    3    0    0  0.12494267323E+02  0.82516218946E+02  0.84763938419E+02  0.11895359751E+03  0.00000000000E+00 0. -1.
</event>
<event>
 7    1  0.6173324E-006  0.3094997E+02  0.7818608E-02  0.1643618E+00
          2   -1    0    0  502    0  0.00000000000E+00  0.00000000000E+00  0.17719085107E+04  0.17719085107E+04  0.00000000000E+00 0. -1.
          1   -1    0    0  501    0 -0.00000000000E+00 -0.00000000000E+00 -0.64183819219E+03  0.64183819219E+03  0.00000000000E+00 0. -1.
         25    2    1    2    0    0  0.12156907714E+02  0.15300401971E+01  0.27776032377E+03  0.30483946962E+03  0.12500469330E+03 0.  0.
          2    1    1    2  501    0 -0.27126348314E+02  0.14958944697E+02 -0.62783297403E+03  0.62859673248E+03  0.00000000000E+00 0. -1.
          1    1    1    2  502    0  0.14969440599E+02 -0.16488984894E+02  0.14801429688E+04  0.14803105008E+04  0.00000000000E+00 0. -1.
         22    1    3    3    0    0  0.32362680750E+02 -0.52349888589E+02  0.94651433022E+02  0.11290149562E+03  0.00000000000E+00 0. -1.
         22    1    3    3    0    0 -0.20205773035E+02  0.53879928786E+02  0.18310889075E+03  0.19193797400E+03  0.00000000000E+00 0. -1.
</event>
<event>
 7    1  0.6173324E-006  0.1394758E+03  0.7818608E-02  0.1302506E+00
          2   -1    0    0  502    0  0.00000000000E+00  0.00000000000E+00  0.13434230393E+04  0.13434230393E+04  0.00000000000E+00 0. -1.
          1   -1    0    0  501    0 -0.00000000000E+00 -0.00000000000E+00 -0.23379652418E+04  0.23379652418E+04  0.00000000000E+00 0. -1.
         25    2    1    2    0    0  0.14707808984E+03  0.25157327186E+02 -0.96872452693E+03  0.98808755878E+03  0.12499983641E+03 0.  0.
          2    1    1    2  501    0 -0.11313294532E+02 -0.57150134526E+02 -0.13552848724E+04  0.13565364772E+04  0.00000000000E+00 0. -1.
          1    1    1    2  502    0 -0.13576479531E+03  0.31992807340E+02  0.13294671969E+04  0.13367642452E+04  0.00000000000E+00 0. -1.
         22    1    3    3    0    0  0.60041670889E+02  0.71954882605E+02 -0.54445959735E+03  0.55246607183E+03  0.00000000000E+00 0. -1.
         22    1    3    3    0    0  0.87036418950E+02 -0.46797555419E+02 -0.42426492958E+03  0.43562148695E+03  0.00000000000E+00 0. -1.
</event>
<event>
 7    1  0.6173324E-006  0.7231729E+02  0.7818608E-02  0.1519962E+00
          2   -1    0    0  502    0  0.00000000000E+00  0.00000000000E+00  0.10694004812E+04  0.10694004812E+04  0.00000000000E+00 0. -1.
          1   -1    0    0  501    0 -0.00000000000E+00 -0.00000000000E+00 -0.78081276208E+02  0.78081276208E+02  0.00000000000E+00 0. -1.
         25    2    1    2    0    0 -0.56520087141E+02  0.22751873928E+02  0.67337618213E+02  0.15450481488E+03  0.12500085990E+03 0.  0.
          2    1    1    2  501    0 -0.15590764944E+02 -0.13218144348E+02 -0.29958830863E+02  0.36267379809E+02  0.00000000000E+00 0. -1.
          1    1    1    2  502    0  0.72110852086E+02 -0.95337295799E+01  0.95394041765E+03  0.95670956273E+03  0.00000000000E+00 0. -1.
         22    1    3    3    0    0 -0.12816351417E+02 -0.33720178887E+02  0.74464302551E+02  0.82742018843E+02  0.00000000000E+00 0.  1.
         22    1    3    3    0    0 -0.43703735725E+02  0.56472052815E+02 -0.71266843376E+01  0.71762796037E+02  0.00000000000E+00 0.  1.
</event>
<event>
 7    1  0.6173324E-006  0.3268088E+03  0.7818608E-02  0.1169075E+00
          2   -1    0    0  502    0  0.00000000000E+00  0.00000000000E+00  0.51603386305E+03  0.51603386305E+03  0.00000000000E+00 0. -1.
          1   -1    0    0  501    0 -0.00000000000E+00 -0.00000000000E+00 -0.18799151464E+04  0.18799151464E+04  0.00000000000E+00 0. -1.
         25    2    1    2    0    0 -0.40140599278E+03 -0.10690706406E+03 -0.14497934700E+03  0.45738676048E+03  0.12501098443E+03 0.  0.
          2    1    1    2  501    0  0.30731963262E+03  0.80563497141E+02 -0.15557356228E+04  0.15878441869E+04  0.00000000000E+00 0. -1.
          1    1    1    2  502    0  0.94086360158E+02  0.26343566917E+02  0.33683368651E+03  0.35071806205E+03  0.00000000000E+00 0. -1.
         22    1    3    3    0    0 -0.31296663706E+03 -0.45116160475E+02 -0.14873072529E+03  0.34943441801E+03  0.00000000000E+00 0.  1.
         22    1    3    3    0    0 -0.88439355720E+02 -0.61790903583E+02  0.37513782926E+01  0.10795234247E+03  0.00000000000E+00 0.  1.
</event>
<event>
 7    1  0.6173324E-006  0.7868409E+02  0.7818608E-02  0.1455957E+00
          2   -1    0    0  502    0  0.00000000000E+00  0.00000000000E+00  0.21242357972E+04  0.21242357972E+04  0.00000000000E+00 0. -1.
          1   -1    0    0  501    0 -0.00000000000E+00 -0.00000000000E+00 -0.79032509616E+02  0.79032509616E+02  0.00000000000E+00 0. -1.
         25    2    1    2    0    0 -0.84368845589E+02 -0.53149674287E+02  0.31457180565E+03  0.35287858361E+03  0.12499953553E+03 0.  0.
          2    1    1    2  501    0  0.55005612879E+02  0.54266785684E+02 -0.34778544656E+02  0.84735167700E+02  0.00000000000E+00 0. -1.
          1    1    1    2  502    0  0.29363232709E+02 -0.11171113968E+01  0.17654100266E+04  0.17656545555E+04  0.00000000000E+00 0. -1.
         22    1    3    3    0    0 -0.29847308598E+02  0.19393566235E+02  0.12911096859E+02  0.37863817345E+02  0.00000000000E+00 0. -1.
         22    1    3    3    0    0 -0.54521536991E+02 -0.72543240522E+02  0.30166070879E+03  0.31501476627E+03  0.00000000000E+00 0. -1.
</event>
<event>
 7    1  0.6173324E-006  0.2817943E+02  0.7818608E-02  0.1621200E+00
          2   -1    0    0  502    0  0.00000000000E+00  0.00000000000E+00  0.23065532840E+03  0.23065532840E+03  0.00000000000E+00 0. -1.
          1   -1    0    0  501    0 -0.00000000000E+00 -0.00000000000E+00 -0.12950347407E+04  0.12950347407E+04  0.00000000000E+00 0. -1.
         25    2    1    2    0    0  0.56234613211E+00 -0.34438962358E+02 -0.43284645308E+03  0.45184974818E+03  0.12500313846E+03 0.  0.
          2    1    1    2  501    0  0.21817593094E+02  0.17292710337E+02 -0.85155970554E+03  0.85201465792E+03  0.00000000000E+00 0. -1.
          1    1    1    2  502    0 -0.22379939226E+02  0.17146252022E+02  0.22002674636E+03  0.22182566297E+03  0.00000000000E+00 0. -1.
         22    1    3    3    0    0  0.55941125710E+02 -0.46064362964E+02 -0.26452374974E+03  0.27427021212E+03  0.00000000000E+00 0. -1.
         22    1    3    3    0    0 -0.55378779578E+02  0.11625400606E+02 -0.16832270334E+03  0.17757953606E+03  0.00000000000E+00 0. -1.
</event>
<event>
 7    1  0.6173324E-006  0.8303390E+02  0.7818608E-02  0.1320800E+00
          2   -1    0    0  502    0  0.00000000000E+00  0.00000000000E+00  0.72975410150E+03  0.72975410150E+03  0.00000000000E+00 0. -1.
          1   -1    0    0  501    0 -0.00000000000E+00 -0.00000000000E+00 -0.11663837153E+04  0.11663837153E+04  0.00000000000E+00 0. -1.
         25    2    1    2    0    0  0.24931033527E+02 -0.24954363508E+02  0.13671409335E+03  0.18856517027E+03  0.12498721306E+03 0.  0.
          2    1    1    2  501    0 -0.71078012579E+02 -0.44075235962E+02 -0.11358731487E+04  0.11389479884E+04  0.00000000000E+00 0. -1.
          1    1    1    2  502    0  0.46146979052E+02  0.69029599470E+02  0.56252944154E+03  0.56862465817E+03  0.00000000000E+00 0. -1.
         22    1    3    3    0    0 -0.22200654071E+02 -0.64463923682E+02  0.66794815055E+02  0.95446392367E+02  0.00000000000E+00 0. -1.
         22    1    3    3    0    0  0.47131687598E+02  0.39509560174E+02  0.69919278296E+02  0.93118777905E+02  0.00000000000E+00 0. -1.
</event>
<event>
 7    1  0.6173324E-006  0.7555125E+02  0.7818608E-02  0.1404589E+00
          2   -1    0    0  502    0  0.00000000000E+00  0.00000000000E+00  0.16225718897E+04  0.16225718897E+04  0.00000000000E+00 0. -1.
          1   -1    0    0  501    0 -0.00000000000E+00 -0.00000000000E+00 -0.48990417976E+03  0.48990417976E+03  0.00000000000E+00 0. -1.
         25    2    1    2    0    0 -0.32621749268E+02 -0.53778303631E+01  0.17390579808E+03  0.21670619696E+03  0.12500099843E+03 0.  0.
          2    1    1    2  501    0  0.69361170796E+02  0.31659121454E+02 -0.46504137534E+03  0.47125020187E+03  0.00000000000E+00 0. -1.
          1    1    1    2  502    0 -0.36739421528E+02 -0.26281291090E+02  0.14238032872E+04  0.14245196707E+04  0.00000000000E+00 0. -1.
         22    1    3    3    0    0 -0.91239101482E+00  0.70380190433E+01 -0.19278601562E+02  0.20543384522E+02  0.00000000000E+00 0.  1.
         22    1    3    3    0    0 -0.31709358253E+02 -0.12415849406E+02  0.19318439964E+03  0.19616281243E+03  0.00000000000E+00 0.  1.
</event>
<event>
 7    1  0.6173324E-006  0.9485060E+02  0.7818608E-02  0.1300247E+00
          2   -1    0    0  502    0  0.00000000000E+00  0.00000000000E+00  0.16602090077E+04  0.16602090077E+04  0.00000000000E+00 0. -1.
          1   -1    0    0  501    0 -0.00000000000E+00 -0.00000000000E+00 -0.73699509926E+02  0.73699509926E+02  0.00000000000E+00 0. -1.
         25    2    1    2    0    0 -0.12315338045E+03  0.55243797881E+02  0.33101446606E+03  0.37869715555E+03  0.12498930578E+03 0.  0.
          2    1    1    2  501    0  0.82349807562E+02  0.29481061582E+02 -0.83565134545E+01  0.87866120403E+02  0.00000000000E+00 0. -1.
          1    1    1    2  502    0  0.40803572887E+02 -0.84724859463E+02  0.12638515452E+04  0.12673452417E+04  0.00000000000E+00 0. -1.
         22    1    3    3    0    0 -0.91095930102E+02  0.16450957276E+02  0.31109207114E+03  0.32457261006E+03  0.00000000000E+00 0. -1.
         22    1    3    3    0    0 -0.32057450347E+02  0.38792840604E+02  0.19922394923E+02  0.54124545489E+02  0.00000000000E+00 0. -1.
</event>
<event>
 7    1  0.6173324E-006  0.1687842E+03  0.7818608E-02  0.1220509E+00
          2   -1    0    0  502    0  0.00000000000E+00  0.00000000000E+00  0.69392617829E+03  0.69392617829E+03  0.00000000000E+00 0. -1.
          1   -1    0    0  501    0 -0.00000000000E+00 -0.00000000000E+00 -0.94092487615E+03  0.94092487615E+03  0.00000000000E+00 0. -1.
         25    2    1    2    0    0 -0.22177065440E+03 -0.15929079060E+02 -0.20739245883E+03  0.32874472067E+03  0.12500200269E+03 0.  0.
          2    1    1    2  501    0  0.68301940260E+02  0.83207867908E+02 -0.65731537674E+03  0.66607222494E+03  0.00000000000E+00 0. -1.
          1    1    1    2  502    0  0.15346871414E+03 -0.67278788848E+02  0.61770913772E+03  0.64003410883E+03  0.00000000000E+00 0. -1.
         22    1    3    3    0    0 -0.14919826107E+03 -0.41405957418E+02 -0.67099263064E+02  0.16875095710E+03  0.00000000000E+00 0. -1.
         22    1    3    3    0    0 -0.72572393325E+02  0.25476878358E+02 -0.14029319577E+03  0.15999376357E+03  0.00000000000E+00 0. -1.
</event>
<event>
 7    1  0.6173324E-006  0.8052838E+02  0.7818608E-02  0.1481934E+00
          2   -1    0    0  502    0  0.00000000000E+00  0.00000000000E+00  0.10476658007E+03  0.10476658007E+03  0.00000000000E+00 0. -1.
          1   -1    0    0  501    0 -0.00000000000E+00 -0.00000000000E+00 -0.17104985647E+04  0.17104985647E+04  0.00000000000E+00 0. -1.
         25    2    1    2    0    0 -0.65453412251E+02  0.32186428291E+02 -0.62983211155E+02  0.15783585366E+03  0.12500062589E+03 0.  0.
          2    1    1    2  501    0  0.79692009987E+02 -0.13077875834E+02 -0.15965476782E+04  0.15985888577E+04  0.00000000000E+00 0. -1.
          1    1    1    2  502    0 -0.14238597735E+02 -0.19108552457E+02  0.53798904761E+02  0.58840433343E+02  0.00000000000E+00 0. -1.
         22    1    3    3    0    0  0.14870595498E+02 -0.12126832704E+02 -0.63252344061E+02  0.66098817774E+02  0.00000000000E+00 0. -1.
         22    1    3    3    0    0 -0.80324007749E+02  0.44313260996E+02  0.26913290546E+00  0.91737035888E+02  0.00000000000E+00 0. -1.
</event>
<event>
 7    1  0.6173324E-006  0.2484498E+03  0.7818608E-02  0.1200342E+00
          2   -1    0    0  502    0  0.00000000000E+00  0.00000000000E+00  0.27290424809E+03  0.27290424809E+03  0.00000000000E+00 0. -1.
          1   -1    0    0  501    0 -0.00000000000E+00 -0.00000000000E+00 -0.18985630090E+04  0.18985630090E+04  0.00000000000E+00 0. -1.
         25    2    1    2    0    0 -0.11576679230E+03 -0.19124837636E+03 -0.91805865688E+03  0.95311879073E+03  0.12500336042E+03 0.  0.
          2    1    1    2  501    0  0.71451281341E+02 -0.55851489598E+02 -0.89843905974E+03  0.90300466143E+03  0.00000000000E+00 0. -1.
          1    1    1    2  502    0  0.44315510954E+02  0.24709986596E+03  0.19083895573E+03  0.31534380491E+03  0.00000000000E+00 0. -1.
         22    1    3    3    0    0 -0.26519304822E+02 -0.86762698521E+02 -0.17149591160E+03  0.19401517229E+03  0.00000000000E+00 0. -1.
         22    1    3    3    0    0 -0.89247487474E+02 -0.10448567784E+03 -0.74656274528E+03  0.75910361844E+03  0.00000000000E+00 0. -1.
</event>
<event>
 7    1  0.6173324E-006  0.4986877E+02  0.7818608E-02  0.1472707E+00
          2   -1    0    0  502    0  0.00000000000E+00  0.00000000000E+00  0.66685739731E+03  0.66685739731E+03  0.00000000000E+00 0. -1.
          1   -1    0    0  501    0 -0.00000000000E+00 -0.00000000000E+00 -0.18464983078E+03  0.18464983078E+03  0.00000000000E+00 0. -1.
         25    2    1    2    0    0 -0.27135435563E+02  0.28240578106E+02  0.49709689204E+03  0.51406663206E+03  0.12500128002E+03 0.  0.
          2    1    1    2  501    0  0.49683432535E+02  0.61012770570E+01 -0.16987804679E+03  0.17709946310E+03  0.00000000000E+00 0. -1.
          1    1    1    2  502    0 -0.22547996972E+02 -0.34341855163E+02  0.15498872129E+03  0.16034113293E+03  0.00000000000E+00 0. -1.
         22    1    3    3    0    0 -0.29983822569E+02  0.12601987764E+02  0.23314290445E+02  0.40017444326E+02  0.00000000000E+00 0. -1.
         22    1    3    3    0    0  0.28483870055E+01  0.15638590342E+02  0.47378260160E+03  0.47404918773E+03  0.00000000000E+00 0. -1.
</event>
<event>
 7    1  0.6173324E-006  0.5191729E+02  0.7818608E-02  0.1529090E+00
          2   -1    0    0  502    0  0.00000000000E+00  0.00000000000E+00  0.25867997510E+04  0.25867997510E+04  0.00000000000E+00 0. -1.
          1   -1    0    0  501    0 -0.00000000000E+00 -0.00000000000E+00 -0.10431498980E+03  0.10431498980E+03  0.00000000000E+00 0. -1.
         25    2    1    2    0    0 -0.42119154151E+02  0.17837523758E+02  0.83354053986E+03  0.84410032804E+03  0.12499332706E+03 0.  0.
          2    1    1    2  501    0 -0.10261878388E+02 -0.24752777747E+02 -0.96815570855E+02  0.10045526823E+03  0.00000000000E+00 0. -1.
          1    1    1    2  502    0  0.52381032538E+02  0.69152539893E+01  0.17457597922E+04  0.17465591446E+04  0.00000000000E+00 0. -1.
         22    1    3    3    0    0 -0.10289328745E+02  0.46441847382E+02  0.73659893908E+03  0.73813326204E+03  0.00000000000E+00 0. -1.
         22    1    3    3    0    0 -0.31829825406E+02 -0.28604323624E+02  0.96941600777E+02  0.10596706600E+03  0.00000000000E+00 0. -1.
</event>
<event>
 7    1  0.6173324E-006  0.6239132E+02  0.7818608E-02  0.1440229E+00
          2   -1    0    0  502    0  0.00000000000E+00  0.00000000000E+00  0.53691869208E+03  0.53691869208E+03  0.00000000000E+00 0. -1.
          1   -1    0    0  501    0 -0.00000000000E+00 -0.00000000000E+00 -0.44391010963E+03  0.44391010963E+03  0.00000000000E+00 0. -1.
         25    2    1    2    0    0  0.24283043590E+02  0.90648019923E+02  0.19208943140E+03  0.24764768000E+03  0.12499717610E+03 0.  0.
          2    1    1    2  501    0 -0.35917098584E+02 -0.50683234409E+02 -0.41242878232E+03  0.41708072205E+03  0.00000000000E+00 0. -1.
          1    1    1    2  502    0  0.11634054994E+02 -0.39964785515E+02  0.31334793336E+03  0.31610039965E+03  0.00000000000E+00 0. -1.
         22    1    3    3    0    0  0.61157869870E+02  0.74321724907E+02  0.18230056073E+03  0.20614921363E+03  0.00000000000E+00 0.  1.
         22    1    3    3    0    0 -0.36874826280E+02  0.16326295017E+02  0.97888706794E+01  0.41498466373E+02  0.00000000000E+00 0.  1.
</event>
<event>
 7    1  0.6173324E-006  0.8874951E+02  0.7818608E-02  0.1332582E+00
          2   -1    0    0  502    0  0.00000000000E+00  0.00000000000E+00  0.13276006730E+04  0.13276006730E+04  0.00000000000E+00 0. -1.
          1   -1    0    0  501    0 -0.00000000000E+00 -0.00000000000E+00 -0.92720588105E+03  0.92720588105E+03  0.00000000000E+00 0. -1.
         25    2    1    2    0    0 -0.63906124997E+02 -0.11567120770E+03  0.98726762782E+03  0.10038856561E+04  0.12500088225E+03 0.  0.
          2    1    1    2  501    0  0.52969331813E+02  0.45625910888E+02 -0.91376202102E+03  0.91643248792E+03  0.00000000000E+00 0. -1.
          1    1    1    2  502    0  0.10936793184E+02  0.70045296814E+02  0.32688918515E+03  0.33448840999E+03  0.00000000000E+00 0. -1.
         22    1    3    3    0    0 -0.89912833638E+02 -0.10736010297E+03  0.62062441831E+03  0.63622730055E+03  0.00000000000E+00 0.  1.
         22    1    3    3    0    0  0.26006708641E+02 -0.83111047288E+01  0.36664320952E+03  0.36765835560E+03  0.00000000000E+00 0.  1.
</event>
<event>
 7    1  0.6173324E-006  0.8320112E+02  0.7818608E-02  0.1478457E+00
          2   -1    0    0  502    0  0.00000000000E+00  0.00000000000E+00  0.56103967497E+03  0.56103967497E+03  0.00000000000E+00 0. -1.
          1   -1    0    0  501    0 -0.00000000000E+00 -0.00000000000E+00 -0.96288549766E+02  0.96288549766E+02  0.00000000000E+00 0. -1.
         25    2    1    2    0    0  0.19538814363E+02 -0.74544187801E+02  0.49129617651E+03  0.51277350566E+03  0.12500453533E+03 0.  0.
          2    1    1    2  501    0  0.23135551955E+01  0.83556477871E+02 -0.60497510994E+02  0.10318423508E+03  0.00000000000E+00 0. -1.
          1    1    1    2  502    0 -0.21852369559E+02 -0.90122900696E+01  0.33952459694E+02  0.41370484007E+02  0.00000000000E+00 0. -1.
         22    1    3    3    0    0  0.72543415338E+02 -0.39635451018E+02  0.30269101404E+03  0.31377598070E+03  0.00000000000E+00 0. -1.
         22    1    3    3    0    0 -0.53004600975E+02 -0.34908736783E+02  0.18860516247E+03  0.19899752495E+03  0.00000000000E+00 0. -1.
</event>
<event>
 7    1  0.6173324E-006  0.5230493E+02  0.7818608E-02  0.1441911E+00
          2   -1    0    0  502    0  0.00000000000E+00  0.00000000000E+00  0.30266330619E+04  0.30266330619E+04  0.00000000000E+00 0. -1.
          1   -1    0    0  501    0 -0.00000000000E+00 -0.00000000000E+00 -0.59626792308E+03  0.59626792308E+03  0.00000000000E+00 0. -1.
         25    2    1    2    0    0  0.15519472589E+02 -0.99872033776E+02  0.86273042021E+01  0.16098516125E+03  0.12500605828E+03 0.  0.
          2    1    1    2  501    0 -0.99286409756E+01  0.48015331769E+02 -0.51870161333E+03  0.52101383251E+03  0.00000000000E+00 0. -1.
          1    1    1    2  502    0 -0.55908316130E+01  0.51856702007E+02  0.29404394479E+04  0.29409019912E+04  0.00000000000E+00 0. -1.
         22    1    3    3    0    0  0.81872057613E+01  0.25598347822E+02 -0.18214421665E+02  0.32466458168E+02  0.00000000000E+00 0.  1.
         22    1    3    3    0    0  0.73322668273E+01 -0.12547038160E+03  0.26841725867E+02  0.12851870309E+03  0.00000000000E+00 0.  1.
</event>
<event>
 7    1  0.6173324E-006  0.3689744E+02  0.7818608E-02  0.1596665E+00
          2   -1    0    0  502    0  0.00000000000E+00  0.00000000000E+00  0.10439619183E+03  0.10439619183E+03  0.00000000000E+00 0. -1.
          1   -1    0    0  501    0 -0.00000000000E+00 -0.00000000000E+00 -0.16526941489E+04  0.16526941489E+04  0.00000000000E+00 0. -1.
         25    2    1    2    0    0 -0.17572732108E+02  0.46138843260E+02 -0.26675969445E+03  0.29870312480E+03  0.12500091366E+03 0.  0.
          2    1    1    2  501    0 -0.10450753166E+02 -0.22272398696E+02 -0.13660164345E+04  0.13662379651E+04  0.00000000000E+00 0. -1.
          1    1    1    2  502    0  0.28023485274E+02 -0.23866444564E+02  0.84478171877E+02  0.92149250820E+02  0.00000000000E+00 0. -1.
         22    1    3    3    0    0 -0.28048140339E+02 -0.23856953302E+02 -0.19812094945E+02  0.41813532540E+02  0.00000000000E+00 0.  1.
         22    1    3    3    0    0  0.10475408231E+02  0.69995796562E+02 -0.24694759950E+03  0.25688959226E+03  0.00000000000E+00 0.  1.
</event>
<event>
 7    1  0.6173324E-006  0.1332176E+03  0.7818608E-02  0.1429494E+00
          2   -1    0    0  502    0  0.00000000000E+00  0.00000000000E+00  0.18799939986E+04  0.18799939986E+04  0.00000000000E+00 0. -1.
          1   -1    0    0  501    0 -0.00000000000E+00 -0.00000000000E+00 -0.17918365900E+03  0.17918365900E+03  0.00000000000E+00 0. -1.
         25    2    1    2    0    0 -0.10539801063E+03 -0.84683529134E+02  0.93161054218E+03  0.94963314303E+03  0.12499945316E+03 0.  0.
          2    1    1    2  501    0  0.11560609350E+03  0.66177218390E+02 -0.14396336718E+03  0.19613679965E+03  0.00000000000E+00 0. -1.
          1    1    1    2  502    0 -0.10208082862E+02  0.18506310744E+02  0.91316316465E+03  0.91340771497E+03  0.00000000000E+00 0. -1.
         22    1    3    3    0    0 -0.92008563458E+02 -0.69107901094E+01  0.32275733497E+03  0.33568680649E+03  0.00000000000E+00 0. -1.
         22    1    3    3    0    0 -0.13389447176E+02 -0.77772739025E+02  0.60885320720E+03  0.61394633654E+03  0.00000000000E+00 0. -1.
</event>
<event>
 7    1  0.6173324E-006  0.1288277E+03  0.7818608E-02  0.1389495E+00
          2   -1    0    0  502    0  0.00000000000E+00  0.00000000000E+00  0.11562767350E+04  0.11562767350E+04  0.00000000000E+00 0. -1.
          1   -1    0    0  501    0 -0.00000000000E+00 -0.00000000000E+00 -0.15688860046E+03  0.15688860046E+03  0.00000000000E+00 0. -1.
         25    2    1    2    0    0 -0.69097669601E+02  0.10336561008E+03 -0.37975462729E+02  0.18035155605E+03  0.12500244281E+03 0.  0.
          2    1    1    2  501    0  0.24103120245E+02  0.17641558300E+02 -0.38782338895E+02  0.48951555593E+02  0.00000000000E+00 0. -1.
          1    1    1    2  502    0  0.44994549355E+02 -0.12100716838E+03  0.10761459362E+04  0.10838622238E+04  0.00000000000E+00 0. -1.
         22    1    3    3    0    0 -0.58806011825E+01  0.13650003953E+02 -0.65530020965E+02  0.67194402489E+02  0.00000000000E+00 0. -1.
         22    1    3    3    0    0 -0.63217068418E+02  0.89715606131E+02  0.27554558236E+02  0.11315715356E+03  0.00000000000E+00 0. -1.
</event>
<event>
 7    1  0.6173324E-006  0.8726035E+02  0.7818608E-02  0.1426189E+00
          2   -1    0    0  502    0  0.00000000000E+00  0.00000000000E+00  0.42365472538E+03  0.42365472538E+03  0.00000000000E+00 0. -1.
          1   -1    0    0  501    0 -0.00000000000E+00 -0.00000000000E+00 -0.38176205954E+03  0.38176205954E+03  0.00000000000E+00 0. -1.
         25    2    1    2    0    0 -0.60989529750E+02 -0.10819991966E+02 -0.12794565778E+03  0.18928325924E+03  0.12498506279E+03 0.  0.
          2    1    1    2  501    0 -0.26700343721E+02  0.19540950603E+02 -0.21693732361E+03  0.21944602863E+03  0.00000000000E+00 0. -1.
          1    1    1    2  502    0  0.87689873472E+02 -0.87209586371E+01  0.38677564723E+03  0.39668749705E+03  0.00000000000E+00 0. -1.
         22    1    3    3    0    0 -0.15083453989E+02  0.31159231374E+02  0.11592302210E+02  0.36507393150E+02  0.00000000000E+00 0.  1.
         22    1    3    3    0    0 -0.45906075761E+02 -0.41979223340E+02 -0.13953795999E+03  0.15277586609E+03  0.00000000000E+00 0.  1.
</event>
<event>
 7    1  0.6173324E-006  0.8353225E+02  0.7818608E-02  0.1389602E+00
          2   -1    0    0  502    0  0.00000000000E+00  0.00000000000E+00  0.26406612041E+04  0.26406612041E+04  0.00000000000E+00 0. -1.
          1   -1    0    0  501    0 -0.00000000000E+00 -0.00000000000E+00 -0.90713790592E+02  0.90713790592E+02  0.00000000000E+00 0. -1.
         25    2    1    2    0    0 -0.39343855365E+02  0.34087772633E+02  0.41217031444E+03  0.43384251345E+03  0.12500017268E+03 0.  0.
          2    1    1    2  501    0 -0.44300775818E+02 -0.12486317209E+02 -0.72332678779E+02  0.85734959468E+02  0.00000000000E+00 0. -1.
          1    1    1    2  502    0  0.83644631183E+02 -0.21601455424E+02  0.22101097779E+04  0.22117975218E+04  0.00000000000E+00 0. -1.
         22    1    3    3    0    0  0.25763181935E+02  0.50989930271E+02  0.10646407519E+03  0.12082348215E+03  0.00000000000E+00 0. -1.
         22    1    3    3    0    0 -0.65107037300E+02 -0.16902157638E+02  0.30570623925E+03  0.31301903130E+03  0.00000000000E+00 0. -1.
</event>
<event>
 7    1  0.6173324E-006  0.1362304E+03  0.7818608E-02  0.1351982E+00
          2   -1    0    0  502    0  0.00000000000E+00  0.00000000000E+00  0.24335244489E+04  0.24335244489E+04  0.00000000000E+00 0. -1.
          1   -1    0    0  501    0 -0.00000000000E+00 -0.00000000000E+00 -0.40625312868E+02  0.40625312868E+02  0.00000000000E+00 0. -1.
         25    2    1    2    0    0  0.11430914682E+03 -0.85158280534E+02  0.98100948369E+03  0.99916126131E+03  0.12500042088E+03 0.  0.
          2    1    1    2  501    0 -0.12692884561E+03  0.48762776418E+02  0.11658490345E+03  0.17911108264E+03  0.00000000000E+00 0. -1.
          1    1    1    2  502    0  0.12619698783E+02  0.36395504117E+02  0.12953047489E+04  0.12958774179E+04  0.00000000000E+00 0. -1.
         22    1    3    3    0    0  0.12837435000E+03 -0.10266321759E+03  0.90862023768E+03  0.92336907372E+03  0.00000000000E+00 0. -1.
         22    1    3    3    0    0 -0.14065203177E+02  0.17504937051E+02  0.72389246011E+02  0.75792187590E+02  0.00000000000E+00 0. -1.
</event>
<event>
 7    1  0.6173324E-006  0.6686596E+02  0.7818608E-02  0.1479060E+00
          2   -1    0    0  502    0  0.00000000000E+00  0.00000000000E+00  0.20463296473E+03  0.20463296473E+03  0.00000000000E+00 0. -1.
          1   -1    0    0  501    0 -0.00000000000E+00 -0.00000000000E+00 -0.95377894414E+03  0.95377894414E+03  0.00000000000E+00 0. -1.
         25    2    1    2    0    0 -0.52411658612E+02  0.28412179936E+02 -0.24332256647E+02  0.14061250561E+03  0.12500233635E+03 0.  0.
          2    1    1    2  501    0  0.67087959159E+02 -0.30676450928E+01 -0.86853341459E+03  0.87112599374E+03  0.00000000000E+00 0. -1.
          1    1    1    2  502    0 -0.14676300546E+02 -0.25344534844E+02  0.14371969183E+03  0.14667340953E+03  0.00000000000E+00 0. -1.
         22    1    3    3    0    0 -0.25444070832E+01 -0.47380666566E+02 -0.38655261259E+01  0.47606132629E+02  0.00000000000E+00 0.  1.
         22    1    3    3    0    0 -0.49867251529E+02  0.75792846502E+02 -0.20466730521E+02  0.93006372976E+02  0.00000000000E+00 0.  1.
</event>
<event>
 7    1  0.6173324E-006  0.1909254E+03  0.7818608E-02  0.1260859E+00
          2   -1    0    0  502    0  0.00000000000E+00  0.00000000000E+00  0.11126353941E+04  0.11126353941E+04  0.00000000000E+00 0. -1.
          1   -1    0    0  501    0 -0.00000000000E+00 -0.00000000000E+00 -0.99645217976E+03  0.99645217976E+03  0.00000000000E+00 0. -1.
         25    2    1    2    0    0 -0.47502407569E+02 -0.23654743549E+03  0.20301506503E+03  0.33919252039E+03  0.12500112517E+03 0.  0.
          2    1    1    2  501    0  0.56883565550E+01  0.18916246046E+03 -0.91750613604E+03  0.93682031549E+03  0.00000000000E+00 0. -1.
          1    1    1    2  502    0  0.41814051014E+02  0.47384975030E+02  0.83067428534E+03  0.83307473797E+03  0.00000000000E+00 0. -1.
         22    1    3    3    0    0 -0.57218863730E+02 -0.73947895126E+02  0.13136198839E+03  0.16123976418E+03  0.00000000000E+00 0.  1.
         22    1    3    3    0    0  0.97164561617E+01 -0.16259954037E+03  0.71653076644E+02  0.17795275620E+03  0.00000000000E+00 0.  1.
</event>
<event>
 7    1  0.6173324E-006  0.1827619E+03  0.7818608E-02  0.1315531E+00
          2   -1    0    0  502    0  0.00000000000E+00  0.00000000000E+00  0.13507690636E+04  0.13507690636E+04  0.00000000000E+00 0. -1.
          1   -1    0    0  501    0 -0.00000000000E+00 -0.00000000000E+00 -0.59585109756E+02  0.59585109756E+02  0.00000000000E+00 0. -1.
         25    2    1    2    0    0 -0.78169538467E+02  0.15442829483E+03  0.20768206933E+03  0.29784965097E+03  0.12499599062E+03 0.  0.
          2    1    1    2  501    0  0.30918603802E+02  0.24578247367E+02  0.56428861894E+02  0.68878637903E+02  0.00000000000E+00 0. -1.
          1    1    1    2  502    0  0.47250934665E+02 -0.17900654220E+03  0.10270730226E+04  0.10436258845E+04  0.00000000000E+00 0. -1.
         22    1    3    3    0    0 -0.23275886426E+02  0.15402392035E+03  0.13094361736E+03  0.20349782764E+03  0.00000000000E+00 0.  1.
         22    1    3    3    0    0 -0.54893652041E+02  0.40437448262E+00  0.76738451978E+02  0.94351823327E+02  0.00000000000E+00 0.  1.
</event>
<event>
 7    1  0.6173324E-006  0.2018980E+03  0.7818608E-02  0.1336122E+00
          2   -1    0    0  502    0  0.00000000000E+00  0.00000000000E+00  0.35962931594E+03  0.35962931594E+03  0.00000000000E+00 0. -1.
          1   -1    0    0  501    0 -0.00000000000E+00 -0.00000000000E+00 -0.67727582861E+03  0.67727582861E+03  0.00000000000E+00 0. -1.
         25    2    1    2    0    0 -0.11796488019E+03  0.19130537342E+03 -0.44762125893E+03  0.51623971189E+03  0.12500075931E+03 0.  0.
          2    1    1    2  501    0 -0.77885516877E+00 -0.29784722014E+02 -0.16298188385E+03  0.16568292231E+03  0.00000000000E+00 0. -1.
          1    1    1    2  502    0  0.11874373535E+03 -0.16152065141E+03  0.29295663012E+03  0.35498251034E+03  0.00000000000E+00 0. -1.
         22    1    3    3    0    0  0.18493843364E+02  0.74488715798E+01 -0.99192115744E+01  0.22268782824E+02  0.00000000000E+00 0.  1.
         22    1    3    3    0    0 -0.13645872355E+03  0.18385650184E+03 -0.43770204736E+03  0.49397092907E+03  0.00000000000E+00 0.  1.
</event>
<event>
 7    1  0.6173324E-006  0.6984056E+02  0.7818608E-02  0.1385178E+00
          2   -1    0    0  502    0  0.00000000000E+00  0.00000000000E+00  0.15658894866E+04  0.15658894866E+04  0.00000000000E+00 0. -1.
          1   -1    0    0  501    0 -0.00000000000E+00 -0.00000000000E+00 -0.74825144151E+02  0.74825144151E+02  0.00000000000E+00 0. -1.
         25    2    1    2    0    0 -0.36046711064E+02 -0.23804771057E+02  0.13951469993E+03  0.19223649305E+03  0.12499794102E+03 0.  0.
          2    1    1    2  501    0  0.31708321544E+02 -0.47426544781E+02 -0.30429319432E+02  0.64657855564E+02  0.00000000000E+00 0. -1.
          1    1    1    2  502    0  0.43383895200E+01  0.71231315838E+02  0.13819789619E+04  0.13838202821E+04  0.00000000000E+00 0. -1.
         22    1    3    3    0    0 -0.53858003500E+02 -0.64586527446E+02  0.68654917799E+02  0.10856151163E+03  0.00000000000E+00 0.  1.
         22    1    3    3    0    0  0.17811292436E+02  0.40781756390E+02  0.70859782133E+02  0.83674981424E+02  0.00000000000E+00 0.  1.
</event>
<event>
 7    1  0.6173324E-006  0.3300526E+02  0.7818608E-02  0.1637968E+00
          2   -1    0    0  502    0  0.00000000000E+00  0.00000000000E+00  0.57756747935E+02  0.57756747935E+02  0.00000000000E+00 0. -1.
          1   -1    0    0  501    0 -0.00000000000E+00 -0.00000000000E+00 -0.17012452550E+04  0.17012452550E+04  0.00000000000E+00 0. -1.
         25    2    1    2    0    0  0.10074274638E+01  0.39264668532E+02 -0.17076635605E+03  0.21524174403E+03  0.12500052363E+03 0.  0.
          2    1    1    2  501    0  0.17815696320E+02 -0.12157491827E+02 -0.15004812689E+04  0.15006362790E+04  0.00000000000E+00 0. -1.
          1    1    1    2  502    0 -0.18823123784E+02 -0.27107176706E+02  0.27759117860E+02  0.43123979899E+02  0.00000000000E+00 0. -1.
         22    1    3    3    0    0 -0.39113723265E+02  0.10096880954E+02 -0.32394513412E+01  0.40525601755E+02  0.00000000000E+00 0.  1.
         22    1    3    3    0    0  0.40121150729E+02  0.29167787579E+02 -0.16752690471E+03  0.17471614227E+03  0.00000000000E+00 0.  1.
</event>
<event>
 7    1  0.6173324E-006  0.7982985E+02  0.7818608E-02  0.1505969E+00
          2   -1    0    0  502    0  0.00000000000E+00  0.00000000000E+00  0.18381364706E+04  0.18381364706E+04  0.00000000000E+00 0. -1.
          1   -1    0    0  501    0 -0.00000000000E+00 -0.00000000000E+00 -0.84305840092E+03  0.84305840092E+03  0.00000000000E+00 0. -1.
         25    2    1    2    0    0  0.13795990773E+02 -0.87332765090E+02  0.14104328318E+04  0.14187187074E+04  0.12499862607E+03 0.  0.
          2    1    1    2  501    0  0.10182141180E+02  0.17620381967E+02 -0.83558284594E+03  0.83583063254E+03  0.00000000000E+00 0. -1.
          1    1    1    2  502    0 -0.23978131953E+02  0.69712383123E+02  0.42022808378E+03  0.42664553152E+03  0.00000000000E+00 0. -1.
         22    1    3    3    0    0 -0.33204742733E+02 -0.82732758640E+02  0.11873534344E+04  0.11906953609E+04  0.00000000000E+00 0.  1.
         22    1    3    3    0    0  0.47000733506E+02 -0.46000064495E+01  0.22307939745E+03  0.22802334656E+03  0.00000000000E+00 0.  1.
</event>
<event>
 7    1  0.6173324E-006  0.6684699E+02  0.7818608E-02  0.1438929E+00
          2   -1    0    0  502    0  0.00000000000E+00  0.00000000000E+00  0.55651029985E+03  0.55651029985E+03  0.00000000000E+00 0. -1.
          1   -1    0    0  501    0 -0.00000000000E+00 -0.00000000000E+00 -0.50625546491E+03  0.50625546491E+03  0.00000000000E+00 0. -1.
         25    2    1    2    0    0 -0.64345028100E+02 -0.61377999105E+02 -0.17185060371E+03  0.23035848895E+03  0.12499944809E+03 0.  0.
          2    1    1    2  501    0  0.39226804316E+02 -0.40751812469E+00 -0.30176704580E+03  0.30430619149E+03  0.00000000000E+00 0. -1.
          1    1    1    2  502    0  0.25118223785E+02  0.61785517230E+02  0.52387248444E+03  0.52810108432E+03  0.00000000000E+00 0. -1.
         22    1    3    3    0    0 -0.50445162505E+02 -0.63742864046E+02 -0.19041870213E+03  0.20704383414E+03  0.00000000000E+00 0.  1.
         22    1    3    3    0    0 -0.13899865596E+02  0.23648649409E+01  0.18568098423E+02  0.23314654808E+02  0.00000000000E+00 0.  1.
</event>
<event>
 7    1  0.6173324E-006  0.8451088E+02  0.7818608E-02  0.1389445E+00
          2   -1    0    0  502    0  0.00000000000E+00  0.00000000000E+00  0.11165986505E+03  0.11165986505E+03  0.00000000000E+00 0. -1.
          1   -1    0    0  501    0 -0.00000000000E+00 -0.00000000000E+00 -0.99085434736E+03  0.99085434736E+03  0.00000000000E+00 0. -1.
         25    2    1    2    0    0 -0.71284059364E+02 -0.93747868941E+02 -0.24338178956E+02  0.17345698993E+03  0.12499960140E+03 0.  0.
          2    1    1    2  501    0  0.68442451241E+02  0.48285394088E+02 -0.87517902547E+03  0.87917812475E+03  0.00000000000E+00 0. -1.
          1    1    1    2  502    0  0.28416081233E+01  0.45462474853E+02  0.20322722112E+02  0.49879097731E+02  0.00000000000E+00 0. -1.
         22    1    3    3    0    0 -0.61926592654E+02 -0.97415966911E+02  0.29130462128E+02  0.11905191015E+03  0.00000000000E+00 0. -1.
         22    1    3    3    0    0 -0.93574667101E+01  0.36680979704E+01 -0.53468641084E+02  0.54405079775E+02  0.00000000000E+00 0. -1.
</event>
<event>
 7    1  0.6173324E-006  0.2807484E+02  0.7818608E-02  0.1673591E+00
          2   -1    0    0  502    0  0.00000000000E+00  0.00000000000E+00  0.17812392780E+04  0.17812392780E+04  0.00000000000E+00 0. -1.
          1   -1    0    0  501    0 -0.00000000000E+00 -0.00000000000E+00 -0.61984763147E+03  0.61984763147E+03  0.00000000000E+00 0. -1.
         25    2    1    2    0    0 -0.13473425388E+02 -0.37289992042E+02  0.75665048998E+03  0.76793030636E+03  0.12499965897E+03 0.  0.
          2    1    1    2  501    0 -0.77586813898E+01  0.19261832624E+02 -0.61384177181E+03  0.61419291444E+03  0.00000000000E+00 0. -1.
          1    1    1    2  502    0  0.21232106778E+02  0.18028159417E+02  0.10185829284E+04  0.10189636887E+04  0.00000000000E+00 0. -1.
         22    1    3    3    0    0  0.41595369505E+02 -0.49802987487E+02  0.54596780434E+03  0.54981029065E+03  0.00000000000E+00 0. -1.
         22    1    3    3    0    0 -0.55068794893E+02  0.12512995445E+02  0.21068268564E+03  0.21812001572E+03  0.00000000000E+00 0. -1.
</event>
<event>
 7    1  0.6173324E-006  0.5468796E+02  0.7818608E-02  0.1467195E+00
          2   -1    0    0  502    0  0.00000000000E+00  0.00000000000E+00  0.33174430095E+03  0.33174430095E+03  0.00000000000E+00 0. -1.
          1   -1    0    0  501    0 -0.00000000000E+00 -0.00000000000E+00 -0.66729663224E+03  0.66729663224E+03  0.00000000000E+00 0. -1.
         25    2    1    2    0    0 -0.40633309717E+02  0.13223926988E+02 -0.31384268173E+03  0.34051230623E+03  0.12500185484E+03 0.  0.
          2    1    1    2  501    0 -0.82772326896E+01 -0.38081654509E+02 -0.33662318191E+03  0.33887149717E+03  0.00000000000E+00 0. -1.
          1    1    1    2  502    0  0.48910542406E+02  0.24857727521E+02  0.31491353235E+03  0.31965712980E+03  0.00000000000E+00 0. -1.
         22    1    3    3    0    0 -0.18155646997E+02 -0.17821930231E+02 -0.11371002136E+01  0.25466482127E+02  0.00000000000E+00 0. -1.
         22    1    3    3    0    0 -0.22477662720E+02  0.31045857220E+02 -0.31270558151E+03  0.31504582410E+03  0.00000000000E+00 0. -1.
</event>
<event>
 7    1  0.6173324E-006  0.1313597E+03  0.7818608E-02  0.1348675E+00
          2   -1    0    0  502    0  0.00000000000E+00  0.00000000000E+00  0.59483335007E+03  0.59483335007E+03  0.00000000000E+00 0. -1.
          1   -1    0    0  501    0 -0.00000000000E+00 -0.00000000000E+00 -0.25961017107E+03  0.25961017107E+03  0.00000000000E+00 0. -1.
         25    2    1    2    0    0 -0.92158700330E+02  0.10900097225E+03  0.37004266826E+03  0.41584980124E+03  0.12500017145E+03 0.  0.
          2    1    1    2  501    0 -0.10773072738E+02 -0.39654979883E+02 -0.21550524012E+03  0.21938797835E+03  0.00000000000E+00 0. -1.
          1    1    1    2  502    0  0.10293177307E+03 -0.69345992362E+02  0.18068575086E+03  0.21920574155E+03  0.00000000000E+00 0. -1.
         22    1    3    3    0    0  0.15886915626E+02  0.44168418168E+02  0.19248537393E+03  0.19812587521E+03  0.00000000000E+00 0. -1.
         22    1    3    3    0    0 -0.10804561596E+03  0.64832554077E+02  0.17755729433E+03  0.21772392603E+03  0.00000000000E+00 0. -1.
</event>
<event>
 7    1  0.6173324E-006  0.3947548E+02  0.7818608E-02  0.1535171E+00
          2   -1    0    0  502    0  0.00000000000E+00  0.00000000000E+00  0.62579010004E+03  0.62579010004E+03  0.00000000000E+00 0. -1.
          1   -1    0    0  501    0 -0.00000000000E+00 -0.00000000000E+00 -0.69889067583E+03  0.69889067583E+03  0.00000000000E+00 0. -1.
         25    2    1    2    0    0 -0.36898824831E+01 -0.65049542040E+01 -0.11546152114E+03  0.17032868011E+03  0.12499826696E+03 0.  0.
          2    1    1    2  501    0 -0.32370240221E+02 -0.99306972990E+01 -0.55482274747E+03  0.55585495619E+03  0.00000000000E+00 0. -1.
          1    1    1    2  502    0  0.36060122704E+02  0.16435651503E+02  0.59718369283E+03  0.59849713957E+03  0.00000000000E+00 0. -1.
         22    1    3    3    0    0  0.25008138459E+02 -0.57814779153E+02 -0.79428214421E+02  0.10137453785E+03  0.00000000000E+00 0.  1.
         22    1    3    3    0    0 -0.28698020942E+02  0.51309824949E+02 -0.36033306722E+02  0.68954142266E+02  0.00000000000E+00 0.  1.
</event>
<event>
 7    1  0.6173324E-006  0.1537896E+03  0.7818608E-02  0.1204131E+00
          2   -1    0    0  502    0  0.00000000000E+00  0.00000000000E+00  0.35445991465E+03  0.35445991465E+03  0.00000000000E+00 0. -1.
          1   -1    0    0  501    0 -0.00000000000E+00 -0.00000000000E+00 -0.24688322138E+04  0.24688322138E+04  0.00000000000E+00 0. -1.
         25    2    1    2    0    0 -0.25676250251E+03  0.11274899898E+03 -0.54379276943E+03  0.62447926024E+03  0.12499780364E+03 0.  0.
          2    1    1    2  501    0  0.14170521769E+03 -0.31891517115E+02 -0.18659917332E+04  0.18716363391E+04  0.00000000000E+00 0. -1.
          1    1    1    2  502    0  0.11505728482E+03 -0.80857481866E+02  0.29541220352E+03  0.32717652904E+03  0.00000000000E+00 0. -1.
         22    1    3    3    0    0 -0.18211577069E+03  0.14938255664E+02 -0.29686520705E+03  0.34859468810E+03  0.00000000000E+00 0.  1.
         22    1    3    3    0    0 -0.74646731825E+02  0.97810743317E+02 -0.24692756238E+03  0.27588457214E+03  0.00000000000E+00 0.  1.
</event>
<event>
 7    1  0.6173324E-006  0.1414690E+03  0.7818608E-02  0.1315799E+00
          2   -1    0    0  502    0  0.00000000000E+00  0.00000000000E+00  0.18727852816E+04  0.18727852816E+04  0.00000000000E+00 0. -1.
          1   -1    0    0  501    0 -0.00000000000E+00 -0.00000000000E+00 -0.20332404669E+04  0.20332404669E+04  0.00000000000E+00 0. -1.
         25    2    1    2    0    0 -0.27846944352E+02  0.93926565763E+02  0.26260018060E+03  0.30688977280E+03  0.12499930293E+03 0.  0.
          2    1    1    2  501    0  0.98213494668E+01 -0.14153139833E+03 -0.20081845351E+04  0.20131896887E+04  0.00000000000E+00 0. -1.
          1    1    1    2  502    0  0.18025594885E+02  0.47604832568E+02  0.15851291692E+04  0.15859462870E+04  0.00000000000E+00 0. -1.
         22    1    3    3    0    0  0.24224862130E+02 -0.14227483520E+01  0.17615290194E+01  0.24330457097E+02  0.00000000000E+00 0.  1.
         22    1    3    3    0    0 -0.52071806481E+02  0.95349314115E+02  0.26083865158E+03  0.28255931570E+03  0.00000000000E+00 0.  1.
</event>
<event>
 7    1  0.6173324E-006  0.7144513E+02  0.7818608E-02  0.1524855E+00
          2   -1    0    0  502    0  0.00000000000E+00  0.00000000000E+00  0.56450599791E+03  0.56450599791E+03  0.00000000000E+00 0. -1.
          1   -1    0    0  501    0 -0.00000000000E+00 -0.00000000000E+00 -0.22081905270E+03  0.22081905270E+03  0.00000000000E+00 0. -1.
         25    2    1    2    0    0 -0.37337875785E+02  0.54330954796E+02  0.18510606400E+03  0.23288589426E+03  0.12500246077E+03 0.  0.
          2    1    1    2  501    0  0.55347274245E+02 -0.45573690977E+02 -0.19010676593E+03  0.20317692912E+03  0.00000000000E+00 0. -1.
          1    1    1    2  502    0 -0.18009398461E+02 -0.87572638183E+01  0.34868764714E+03  0.34926222723E+03  0.00000000000E+00 0. -1.
         22    1    3    3    0    0 -0.59853148674E+02  0.15239413829E+02  0.17645509350E+03  0.18695197021E+03  0.00000000000E+00 0. -1.
         22    1    3    3    0    0  0.22515272889E+02  0.39091540966E+02  0.86509704971E+01  0.45933924053E+02  0.00000000000E+00 0. -1.
</event>
<event>
 7    1  0.6173324E-006  0.1965411E+03  0.7818608E-02  0.1266644E+00
          2   -1    0    0  502    0  0.00000000000E+00  0.00000000000E+00  0.95644168293E+03  0.95644168293E+03  0.00000000000E+00 0. -1.
          1   -1    0    0  501    0 -0.00000000000E+00 -0.00000000000E+00 -0.19130691018E+04  0.19130691018E+04  0.00000000000E+00 0. -1.
         25    2    1    2    0    0 -0.12243697950E+03  0.12356393706E+03 -0.31123598687E+03  0.37782233807E+03  0.12499207626E+03 0.  0.
          2    1    1    2  501    0  0.98475631804E+02 -0.17640223820E+03 -0.15611128082E+04  0.15741309983E+04  0.00000000000E+00 0. -1.
          1    1    1    2  502    0  0.23961347697E+02  0.52838301135E+02  0.91572137622E+03  0.91755744840E+03  0.00000000000E+00 0. -1.
         22    1    3    3    0    0 -0.26363763294E+02  0.19920113960E+02 -0.18625377251E+03  0.18916217045E+03  0.00000000000E+00 0.  1.
         22    1    3    3    0    0 -0.96073216206E+02  0.10364382310E+03 -0.12498221436E+03  0.18866016762E+03  0.00000000000E+00 0.  1.
</event>
<event>
 7    1  0.6173324E-006  0.8925434E+02  0.7818608E-02  0.1445132E+00
          2   -1    0    0  502    0  0.00000000000E+00  0.00000000000E+00  0.10623621111E+03  0.10623621111E+03  0.00000000000E+00 0. -1.
          1   -1    0    0  501    0 -0.00000000000E+00 -0.00000000000E+00 -0.52320178135E+03  0.52320178135E+03  0.00000000000E+00 0. -1.
         25    2    1    2    0    0  0.88884179693E+02 -0.69101942814E+02 -0.89128731485E+02  0.19036791772E+03  0.12498214841E+03 0.  0.
          2    1    1    2  501    0 -0.74459267025E+02  0.45041385453E+02 -0.37457952710E+03  0.38455523787E+03  0.00000000000E+00 0. -1.
          1    1    1    2  502    0 -0.14424912668E+02  0.24060557361E+02  0.46742688344E+02  0.54514836876E+02  0.00000000000E+00 0. -1.
         22    1    3    3    0    0  0.89696595998E+02 -0.88735935335E+02 -0.10575131511E+03  0.16462954231E+03  0.00000000000E+00 0.  1.
         22    1    3    3    0    0 -0.81241630505E+00  0.19633992521E+02  0.16622583621E+02  0.25738375412E+02  0.00000000000E+00 0.  1.
</event>
<event>
 7    1  0.6173324E-006  0.4706401E+02  0.7818608E-02  0.1466033E+00
          2   -1    0    0  502    0  0.00000000000E+00  0.00000000000E+00  0.20462257854E+03  0.20462257854E+03  0.00000000000E+00 0. -1.
          1   -1    0    0  501    0 -0.00000000000E+00 -0.00000000000E+00 -0.97818549856E+02  0.97818549856E+02  0.00000000000E+00 0. -1.
         25    2    1    2    0    0 -0.44968397741E+02 -0.39032781439E+02  0.87876187444E+01  0.13873680340E+03  0.12499985421E+03 0.  0.
          2    1    1    2  501    0  0.18221100642E+00  0.47944757538E+02 -0.76885057777E+01  0.48557657453E+02  0.00000000000E+00 0. -1.
          1    1    1    2  502    0  0.44786186735E+02 -0.89119760995E+01  0.10570491572E+03  0.11514666755E+03  0.00000000000E+00 0. -1.
         22    1    3    3    0    0  0.13970954155E+02  0.19848568864E+02 -0.36559306087E+02  0.43883209859E+02  0.00000000000E+00 0.  1.
         22    1    3    3    0    0 -0.58939351896E+02 -0.58881350302E+02  0.45346924832E+02  0.94853593538E+02  0.00000000000E+00 0.  1.
</event>
<event>
 7    1  0.6173324E-006  0.1492039E+03  0.7818608E-02  0.1329768E+00
          2   -1    0    0  502    0  0.00000000000E+00  0.00000000000E+00  0.19370524077E+04  0.19370524077E+04  0.00000000000E+00 0. -1.
          1   -1    0    0  501    0 -0.00000000000E+00 -0.00000000000E+00 -0.72902234902E+03  0.72902234902E+03  0.00000000000E+00 0. -1.
         25    2    1    2    0    0 -0.40171561152E+02 -0.10527997561E+03  0.11868459184E+03  0.20593370706E+03  0.12500012709E+03 0.  0.
          2    1    1    2  501    0  0.33489510303E+02  0.14737749127E+03 -0.67680598699E+03  0.69347531770E+03  0.00000000000E+00 0. -1.
          1    1    1    2  502    0  0.66820508487E+01 -0.42097515658E+02  0.17661514538E+04  0.17666657319E+04  0.00000000000E+00 0. -1.
         22    1    3    3    0    0  0.34890838677E+02 -0.47087217330E+02  0.65324813439E+01  0.58968211538E+02  0.00000000000E+00 0.  1.
         22    1    3    3    0    0 -0.75062399829E+02 -0.58192758279E+02  0.11215211050E+03  0.14696549552E+03  0.00000000000E+00 0.  1.
</event>
<event>
 7    1  0.6173324E-006  0.9452305E+02  0.7818608E-02  0.1359969E+00
          2   -1    0    0  502    0  0.00000000000E+00  0.00000000000E+00  0.10193123600E+04  0.10193123600E+04  0.00000000000E+00 0. -1.
          1   -1    0    0  501    0 -0.00000000000E+00 -0.00000000000E+00 -0.19893253445E+03  0.19893253445E+03  0.00000000000E+00 0. -1.
         25    2    1    2    0    0  0.11925491488E+03 -0.50416101372E+02  0.53224063352E+03  0.56184374197E+03  0.12499912168E+03 0.  0.
          2    1    1    2  501    0 -0.33889574204E+02  0.39298785317E+02 -0.17644024206E+03  0.18391317730E+03  0.00000000000E+00 0. -1.
          1    1    1    2  502    0 -0.85365340673E+02  0.11117316055E+02  0.46457943405E+03  0.47248797513E+03  0.00000000000E+00 0. -1.
         22    1    3    3    0    0  0.88529329896E+02 -0.73468288816E+02  0.22995203155E+03  0.25712442227E+03  0.00000000000E+00 0. -1.
         22    1    3    3    0    0  0.30725584982E+02  0.23052187444E+02  0.30228860197E+03  0.30471931970E+03  0.00000000000E+00 0. -1.
</event>
<event>
 7    1  0.6173324E-006  0.1354038E+03  0.7818608E-02  0.1360332E+00
          2   -1    0    0  502    0  0.00000000000E+00  0.00000000000E+00  0.23024964813E+04  0.23024964813E+04  0.00000000000E+00 0. -1.
          1   -1    0    0  501    0 -0.00000000000E+00 -0.00000000000E+00 -0.47783210916E+03  0.47783210916E+03  0.00000000000E+00 0. -1.
         25    2    1    2    0    0 -0.12812750650E+03 -0.95312683473E+02  0.29693260918E+03  0.35957520638E+03  0.12499675634E+03 0.  0.
          2    1    1    2  501    0  0.12063801684E+03  0.59982254515E+02 -0.43617809382E+03  0.45651148013E+03  0.00000000000E+00 0. -1.
          1    1    1    2  502    0  0.74894896580E+01  0.35330428958E+02  0.19639098568E+04  0.19642419040E+04  0.00000000000E+00 0. -1.
         22    1    3    3    0    0 -0.11633095030E+03 -0.38806706553E+02  0.26860403401E+03  0.29527441061E+03  0.00000000000E+00 0.  1.
         22    1    3    3    0    0 -0.11796556198E+02 -0.56505976920E+02  0.28328575169E+02  0.64300795772E+02  0.00000000000E+00 0.  1.
</event>
<event>
 7    1  0.7653363E-006  0.4554419E+02  0.7818608E-02  0.1504501E+00
          2   -1    0    0  502    0  0.00000000000E+00  0.00000000000E+00  0.21856524712E+04  0.21856524712E+04  0.00000000000E+00 0. -1.
          1   -1    0    0  501    0 -0.00000000000E+00 -0.00000000000E+00 -0.66805501637E+03  0.66805501637E+03  0.00000000000E+00 0. -1.
         25    2    1    2    0    0 -0.20267914977E+02  0.56414232747E+01 -0.37844819524E+03  0.39911561290E+03  0.12501048735E+03 0.  0.
          2    1    1    2  501    0  0.49763345041E+02  0.15051032014E+02 -0.27670285321E+03  0.28154465552E+03  0.00000000000E+00 0. -1.
          1    1    1    2  502    0 -0.29495430064E+02 -0.20692455289E+02  0.21727485033E+04  0.21730472192E+04  0.00000000000E+00 0. -1.
         22    1    3    3    0    0 -0.35479251337E+02  0.47454714741E+02 -0.93351486892E+02  0.11056774996E+03  0.00000000000E+00 0.  1.
         22    1    3    3    0    0  0.15211336360E+02 -0.41813291467E+02 -0.28509670835E+03  0.28854786294E+03  0.00000000000E+00 0.  1.
</event>
<event>
 7    1  0.6173324E-006  0.8513342E+02  0.7818608E-02  0.1374937E+00
          2   -1    0    0  502    0  0.00000000000E+00  0.00000000000E+00  0.12847559354E+04  0.12847559354E+04  0.00000000000E+00 0. -1.
          1   -1    0    0  501    0 -0.00000000000E+00 -0.00000000000E+00 -0.15436809963E+03  0.15436809963E+03  0.00000000000E+00 0. -1.
         25    2    1    2    0    0 -0.12464320756E+03 -0.35260161057E+02  0.33132235145E+03  0.37706570266E+03  0.12499934162E+03 0.  0.
          2    1    1    2  501    0  0.43337699224E+02  0.26653772746E+02 -0.12470097349E+03  0.13468078024E+03  0.00000000000E+00 0. -1.
          1    1    1    2  502    0  0.81305508334E+02  0.86063883110E+01  0.92376645786E+03  0.92737755217E+03  0.00000000000E+00 0. -1.
         22    1    3    3    0    0  0.56779302047E+01 -0.73613289370E+01  0.15874893715E+03  0.15902092033E+03  0.00000000000E+00 0. -1.
         22    1    3    3    0    0 -0.13032113776E+03 -0.27898832120E+02  0.17257341430E+03  0.21804478234E+03  0.00000000000E+00 0. -1.
</event>
<event>
 7    1  0.6173324E-006  0.1233573E+03  0.7818608E-02  0.1365895E+00
          2   -1    0    0  502    0  0.00000000000E+00  0.00000000000E+00  0.11546055250E+04  0.11546055250E+04  0.00000000000E+00 0. -1.
          1   -1    0    0  501    0 -0.00000000000E+00 -0.00000000000E+00 -0.52275526834E+02  0.52275526834E+02  0.00000000000E+00 0. -1.
         25    2    1    2    0    0 -0.15255935820E+03  0.16068628322E+02  0.36532677300E+03  0.41547682689E+03  0.12499913609E+03 0.  0.
          2    1    1    2  501    0  0.37063584882E+02  0.76262387293E+01 -0.66868858011E+01  0.38426335802E+02  0.00000000000E+00 0. -1.
          1    1    1    2  502    0  0.11549577332E+03 -0.23694867051E+02  0.74369011100E+03  0.75297788917E+03  0.00000000000E+00 0. -1.
         22    1    3    3    0    0 -0.46422296823E+02  0.65914669070E+02  0.14972435275E+03  0.17005044853E+03  0.00000000000E+00 0. -1.
         22    1    3    3    0    0 -0.10613706138E+03 -0.49846040748E+02  0.21560242025E+03  0.24542637836E+03  0.00000000000E+00 0. -1.
</event>
<event>
 7    1  0.6173324E-006  0.4467111E+02  0.7818608E-02  0.1578564E+00
          2   -1    0    0  502    0  0.00000000000E+00  0.00000000000E+00  0.13931915240E+03  0.13931915240E+03  0.00000000000E+00 0. -1.
          1   -1    0    0  501    0 -0.00000000000E+00 -0.00000000000E+00 -0.16876764665E+04  0.16876764665E+04  0.00000000000E+00 0. -1.
         25    2    1    2    0    0  0.48780012363E+02 -0.47294823588E+01  0.98956797371E+01  0.13462898899E+03  0.12500073036E+03 0.  0.
          2    1    1    2  501    0 -0.11289748098E+02 -0.19692441895E+02 -0.16177576846E+04  0.16179169252E+04  0.00000000000E+00 0. -1.
          1    1    1    2  502    0 -0.37490264264E+02  0.24421924254E+02  0.59504690815E+02  0.74449704686E+02  0.00000000000E+00 0. -1.
         22    1    3    3    0    0  0.39568230913E+02  0.57638233562E+02 -0.41609461753E+01  0.70036592855E+02  0.00000000000E+00 0.  1.
         22    1    3    3    0    0  0.92117814495E+01 -0.62367715920E+02  0.14056625912E+02  0.64592396136E+02  0.00000000000E+00 0.  1.
</event>
<event>
 7    1  0.6173324E-006  0.8199720E+02  0.7818608E-02  0.1372947E+00
          2   -1    0    0  502    0  0.00000000000E+00  0.00000000000E+00  0.98118896826E+02  0.98118896826E+02  0.00000000000E+00 0. -1.
          1   -1    0    0  501    0 -0.00000000000E+00 -0.00000000000E+00 -0.10415471617E+04  0.10415471617E+04  0.00000000000E+00 0. -1.
         25    2    1    2    0    0 -0.41867940574E+02  0.52785546421E+02 -0.30455022934E+03  0.33602574772E+03  0.12499289010E+03 0.  0.
          2    1    1    2  501    0 -0.40316124781E+02 -0.35466733114E+02 -0.69855058887E+03  0.70061130756E+03  0.00000000000E+00 0. -1.
          1    1    1    2  502    0  0.82184065356E+02 -0.17318813306E+02  0.59672553325E+02  0.10302900326E+03  0.00000000000E+00 0. -1.
         22    1    3    3    0    0  0.80081660308E+01  0.65290002133E+02 -0.70614428189E+02  0.96505505388E+02  0.00000000000E+00 0. -1.
         22    1    3    3    0    0 -0.49876106605E+02 -0.12504455712E+02 -0.23393580116E+03  0.23952024233E+03  0.00000000000E+00 0. -1.
</event>
<event>
 7    1  0.6173324E-006  0.5325653E+02  0.7818608E-02  0.1489177E+00
          2   -1    0    0  502    0  0.00000000000E+00  0.00000000000E+00  0.17205698093E+04  0.17205698093E+04  0.00000000000E+00 0. -1.
          1   -1    0    0  501    0 -0.00000000000E+00 -0.00000000000E+00 -0.64985777800E+03  0.64985777800E+03  0.00000000000E+00 0. -1.
         25    2    1    2    0    0 -0.31075256324E+02 -0.16768124592E+02  0.30771288952E+02  0.13345732307E+03  0.12496856924E+03 0.  0.
          2    1    1    2  501    0  0.10512564707E+02 -0.32596167092E+02 -0.59758796548E+03  0.59856862648E+03  0.00000000000E+00 0. -1.
          1    1    1    2  502    0  0.20562691617E+02  0.49364291683E+02  0.16375287078E+04  0.16384016378E+04  0.00000000000E+00 0. -1.
         22    1    3    3    0    0 -0.10738791151E+02  0.82621384150E+01  0.76394288163E+02  0.77586544133E+02  0.00000000000E+00 0.  1.
         22    1    3    3    0    0 -0.20336465173E+02 -0.25030263007E+02 -0.45622999211E+02  0.55870778936E+02  0.00000000000E+00 0.  1.
</event>
<event>
 7    1  0.6173324E-006  0.6596804E+02  0.7818608E-02  0.1432591E+00
          2   -1    0    0  502    0  0.00000000000E+00  0.00000000000E+00  0.11638673372E+03  0.11638673372E+03  0.00000000000E+00 0. -1.
          1   -1    0    0  501    0 -0.00000000000E+00 -0.00000000000E+00 -0.21876654032E+04  0.21876654032E+04  0.00000000000E+00 0. -1.
         25    2    1    2    0    0 -0.49073577113E+02 -0.86805012104E+02 -0.81241693908E+03  0.82800344373E+03  0.12500037533E+03 0.  0.
          2    1    1    2  501    0  0.43711566378E+02  0.45459575915E+02 -0.13626972646E+04  0.13641558228E+04  0.00000000000E+00 0. -1.
          1    1    1    2  502    0  0.53620107346E+01  0.41345436189E+02  0.10383553424E+03  0.11189287029E+03  0.00000000000E+00 0. -1.
         22    1    3    3    0    0 -0.63181356546E+02 -0.50975091588E+02 -0.75192816275E+03  0.75629776260E+03  0.00000000000E+00 0. -1.
         22    1    3    3    0    0  0.14107779433E+02 -0.35829920516E+02 -0.60488776324E+02  0.71705681127E+02  0.00000000000E+00 0. -1.
</event>
<event>
 7    1  0.6173324E-006  0.8783580E+02  0.7818608E-02  0.1377522E+00
          2   -1    0    0  502    0  0.00000000000E+00  0.00000000000E+00  0.43867477356E+03  0.43867477356E+03  0.00000000000E+00 0. -1.
          1   -1    0    0  501    0 -0.00000000000E+00 -0.00000000000E+00 -0.10970158846E+04  0.10970158846E+04  0.00000000000E+00 0. -1.
         25    2    1    2    0    0  0.74084879180E+01 -0.56958434784E+02 -0.97146427012E+02  0.16841102326E+03  0.12500278193E+03 0.  0.
          2    1    1    2  501    0  0.46051396544E+02 -0.14493761854E+02 -0.95868273675E+03  0.95989759350E+03  0.00000000000E+00 0. -1.
          1    1    1    2  502    0 -0.53459884462E+02  0.71452196638E+02  0.39748805269E+03  0.40738204143E+03  0.00000000000E+00 0. -1.
         22    1    3    3    0    0  0.32499592503E+02 -0.88249585926E+02 -0.49990366750E+02  0.10650469331E+03  0.00000000000E+00 0. -1.
         22    1    3    3    0    0 -0.25091104585E+02  0.31291151142E+02 -0.47156060262E+02  0.61906329955E+02  0.00000000000E+00 0. -1.
</event>
<event>
 7    1  0.6173324E-006  0.7585603E+02  0.7818608E-02  0.1468150E+00
          2   -1    0    0  502    0  0.00000000000E+00  0.00000000000E+00  0.70052269705E+03  0.70052269705E+03  0.00000000000E+00 0. -1.
          1   -1    0    0  501    0 -0.00000000000E+00 -0.00000000000E+00 -0.43623392966E+02  0.43623392966E+02  0.00000000000E+00 0. -1.
         25    2    1    2    0    0 -0.24272290286E+02  0.93504236459E+02  0.32955234267E+03  0.36546090747E+03  0.12499896807E+03 0.  0.
          2    1    1    2  501    0  0.16958468029E+02 -0.22159115512E+02 -0.13057425823E+02  0.30807667995E+02  0.00000000000E+00 0. -1.
          1    1    1    2  502    0  0.73138222569E+01 -0.71345120947E+02  0.34040438724E+03  0.34787751455E+03  0.00000000000E+00 0. -1.
         22    1    3    3    0    0 -0.17137452744E+02  0.95339827219E+02  0.33951880963E+03  0.35306712823E+03  0.00000000000E+00 0. -1.
         22    1    3    3    0    0 -0.71348375418E+01 -0.18355907602E+01 -0.99664669631E+01  0.12393779243E+02  0.00000000000E+00 0. -1.
</event>
<event>
 7    1  0.6173324E-006  0.6324456E+02  0.7818608E-02  0.1425533E+00
          2   -1    0    0  502    0  0.00000000000E+00  0.00000000000E+00  0.20402971419E+03  0.20402971419E+03  0.00000000000E+00 0. -1.
          1   -1    0    0  501    0 -0.00000000000E+00 -0.00000000000E+00 -0.13862899993E+04  0.13862899993E+04  0.00000000000E+00 0. -1.
         25    2    1    2    0    0  0.10512867766E+02  0.14486617115E+02 -0.54737225247E+03  0.56174885194E+03  0.12500002964E+03 0.  0.
          2    1    1    2  501    0  0.21828516938E+02  0.40355002626E+02 -0.82592779992E+03  0.82720114910E+03  0.00000000000E+00 0. -1.
          1    1    1    2  502    0 -0.32341384704E+02 -0.54841619741E+02  0.19103976727E+03  0.20136971246E+03  0.00000000000E+00 0. -1.
         22    1    3    3    0    0  0.52089041686E+01  0.70134320412E+02 -0.31261068671E+03  0.32042377725E+03  0.00000000000E+00 0. -1.
         22    1    3    3    0    0  0.53039635977E+01 -0.55647703297E+02 -0.23476156576E+03  0.24132507468E+03  0.00000000000E+00 0. -1.
</event>
<event>
 7    1  0.6173324E-006  0.1224251E+03  0.7818608E-02  0.1354247E+00
          2   -1    0    0  502    0  0.00000000000E+00  0.00000000000E+00  0.30839263089E+04  0.30839263089E+04  0.00000000000E+00 0. -1.
          1   -1    0    0  501    0 -0.00000000000E+00 -0.00000000000E+00 -0.43537601210E+03  0.43537601210E+03  0.00000000000E+00 0. -1.
         25    2    1    2    0    0 -0.38057902496E+02 -0.74261397977E+02 -0.30276572787E+03  0.33803445019E+03  0.12504816819E+03 0.  0.
          2    1    1    2  501    0 -0.65301082596E+00 -0.42043517772E+02 -0.10986340321E+03  0.11763524631E+03  0.00000000000E+00 0. -1.
          1    1    1    2  502    0  0.38710913322E+02  0.11630491575E+03  0.30611794279E+04  0.30636326245E+04  0.00000000000E+00 0. -1.
         22    1    3    3    0    0 -0.62441194008E+02 -0.13705958848E+02 -0.63817882021E+02  0.90329829419E+02  0.00000000000E+00 0.  1.
         22    1    3    3    0    0  0.24383291513E+02 -0.60555439129E+02 -0.23894784585E+03  0.24770462077E+03  0.00000000000E+00 0.  1.
</event>
<event>
 7    1  0.6173324E-006  0.7238844E+02  0.7818608E-02  0.1356917E+00
          2   -1    0    0  502    0  0.00000000000E+00  0.00000000000E+00  0.34403086830E+04  0.34403086830E+04  0.00000000000E+00 0. -1.
          1   -1    0    0  501    0 -0.00000000000E+00 -0.00000000000E+00 -0.52543857404E+03  0.52543857404E+03  0.00000000000E+00 0. -1.
         25    2    1    2    0    0  0.12356383536E+03  0.22947665292E+02  0.10202115299E+03  0.20451704604E+03  0.12499715882E+03 0.  0.
          2    1    1    2  501    0 -0.66322486671E+02  0.20859668949E+02 -0.47124458473E+03  0.47634573228E+03  0.00000000000E+00 0. -1.
          1    1    1    2  502    0 -0.57241348686E+02 -0.43807334240E+02  0.32840935407E+04  0.32848844787E+04  0.00000000000E+00 0. -1.
         22    1    3    3    0    0  0.11188037519E+03 -0.10975013550E+02  0.18915799932E+02  0.11399770508E+03  0.00000000000E+00 0. -1.
         22    1    3    3    0    0  0.11683460163E+02  0.33922678841E+02  0.83105353058E+02  0.90519340961E+02  0.00000000000E+00 0. -1.
</event>
<event>
 7    1  0.1072975E-005  0.9781090E+02  0.7818608E-02  0.1356103E+00
          2   -1    0    0  502    0  0.00000000000E+00  0.00000000000E+00  0.82498499159E+03  0.82498499159E+03  0.00000000000E+00 0. -1.
          1   -1    0    0  501    0 -0.00000000000E+00 -0.00000000000E+00 -0.24405352548E+04  0.24405352548E+04  0.00000000000E+00 0. -1.
         25    2    1    2    0    0 -0.86767127488E+02 -0.11851607529E+03 -0.50407662262E+03  0.53971556262E+03  0.12500021017E+03 0.  0.
          2    1    1    2  501    0  0.19283248946E+02  0.48087766034E+02 -0.19153407816E+04  0.19160413844E+04  0.00000000000E+00 0. -1.
          1    1    1    2  502    0  0.67483878543E+02  0.70428309254E+02  0.80386714103E+03  0.80976329939E+03  0.00000000000E+00 0. -1.
         22    1    3    3    0    0  0.96528111502E+01 -0.52688140417E+02 -0.29878699815E+03  0.30355046889E+03  0.00000000000E+00 0.  1.
         22    1    3    3    0    0 -0.96419938638E+02 -0.65827934871E+02 -0.20528962447E+03  0.23616509372E+03  0.00000000000E+00 0.  1.
</event>
<event>
 7    1  0.6173324E-006  0.1502219E+03  0.7818608E-02  0.1232956E+00
          2   -1    0    0  502    0  0.00000000000E+00  0.00000000000E+00  0.28739170007E+03  0.28739170007E+03  0.00000000000E+00 0. -1.
          1   -1    0    0  501    0 -0.00000000000E+00 -0.00000000000E+00 -0.65480554074E+03  0.65480554074E+03  0.00000000000E+00 0. -1.
         25    2    1    2    0    0  0.65293838888E+02  0.19750543287E+02 -0.23396410942E+02  0.14431094026E+03  0.12499954431E+03 0.  0.
          2    1    1    2  501    0 -0.13559081210E+03 -0.99477429881E+02 -0.54509337704E+03  0.57044492904E+03  0.00000000000E+00 0. -1.
          1    1    1    2  502    0  0.70296973212E+02  0.79726886594E+02  0.20107594730E+03  0.22744137150E+03  0.00000000000E+00 0. -1.
         22    1    3    3    0    0  0.81771020574E+02 -0.16866149071E+02  0.19306133993E+02  0.85695353432E+02  0.00000000000E+00 0. -1.
         22    1    3    3    0    0 -0.16477181685E+02  0.36616692359E+02 -0.42702544935E+02  0.58615586831E+02  0.00000000000E+00 0. -1.
</event>
<event>
 7    1  0.6173324E-006  0.3688240E+02  0.7818608E-02  0.1611316E+00
          2   -1    0    0  502    0  0.00000000000E+00  0.00000000000E+00  0.20827976872E+03  0.20827976872E+03  0.00000000000E+00 0. -1.
          1   -1    0    0  501    0 -0.00000000000E+00 -0.00000000000E+00 -0.34579556186E+03  0.34579556186E+03  0.00000000000E+00 0. -1.
         25    2    1    2    0    0  0.40892660756E+01 -0.16545924287E+02 -0.73110836785E+02  0.14581007767E+03  0.12499957835E+03 0.  0.
          2    1    1    2  501    0  0.18163781048E+02 -0.13356604696E+02 -0.23376610950E+03  0.23485083730E+03  0.00000000000E+00 0. -1.
          1    1    1    2  502    0 -0.22253047123E+02  0.29902528983E+02  0.16936115314E+03  0.17341441561E+03  0.00000000000E+00 0. -1.
         22    1    3    3    0    0  0.39861329184E+02 -0.54538453066E+02 -0.63572902858E+02  0.92762505384E+02  0.00000000000E+00 0.  1.
         22    1    3    3    0    0 -0.35772063109E+02  0.37992528779E+02 -0.95379339264E+01  0.53047572288E+02  0.00000000000E+00 0.  1.
</event>
<event>
 7    1  0.6173324E-006  0.2909116E+03  0.7818608E-02  0.1296020E+00
          2   -1    0    0  502    0  0.00000000000E+00  0.00000000000E+00  0.21300099065E+03  0.21300099065E+03  0.00000000000E+00 0. -1.
          1   -1    0    0  501    0 -0.00000000000E+00 -0.00000000000E+00 -0.93502720934E+03  0.93502720934E+03  0.00000000000E+00 0. -1.
         25    2    1    2    0    0 -0.33009690089E+00  0.27536603044E+03 -0.51233872818E+03  0.59493286797E+03  0.12501034082E+03 0.  0.
          2    1    1    2  501    0  0.23271165609E+02  0.18381128554E+02 -0.25348725068E+03  0.25521598557E+03  0.00000000000E+00 0. -1.
          1    1    1    2  502    0 -0.22941068708E+02 -0.29374715900E+03  0.43799760171E+02  0.29787934645E+03  0.00000000000E+00 0. -1.
         22    1    3    3    0    0  0.41970112884E+02  0.21676849258E+03 -0.31415873937E+03  0.38398669674E+03  0.00000000000E+00 0. -1.
         22    1    3    3    0    0 -0.42300209785E+02  0.58597537863E+02 -0.19817998881E+03  0.21094617123E+03  0.00000000000E+00 0. -1.
</event>
<event>
 7    1  0.6173324E-006  0.6139945E+02  0.7818608E-02  0.1406413E+00
          2   -1    0    0  502    0  0.00000000000E+00  0.00000000000E+00  0.12957657833E+04  0.12957657833E+04  0.00000000000E+00 0. -1.
          1   -1    0    0  501    0 -0.00000000000E+00 -0.00000000000E+00 -0.45259003657E+03  0.45259003657E+03  0.00000000000E+00 0. -1.
         25    2    1    2    0    0 -0.38799664627E+02  0.46858800833E+00  0.47620070153E+03  0.49385943557E+03  0.12499760161E+03 0.  0.
          2    1    1    2  501    0 -0.10952737898E+01 -0.54781737641E+02 -0.44066057244E+03  0.44405402656E+03  0.00000000000E+00 0. -1.
          1    1    1    2  502    0  0.39894938416E+02  0.54313149632E+02  0.80763561768E+03  0.81044235777E+03  0.00000000000E+00 0. -1.
         22    1    3    3    0    0 -0.45919581400E+02 -0.56703790364E+01  0.52197359184E+02  0.69751884994E+02  0.00000000000E+00 0.  1.
         22    1    3    3    0    0  0.71199167737E+01  0.61389670447E+01  0.42400334235E+03  0.42410755057E+03  0.00000000000E+00 0.  1.
</event>
<event>
 7    1  0.6173324E-006  0.6563765E+02  0.7818608E-02  0.1405885E+00
          2   -1    0    0  502    0  0.00000000000E+00  0.00000000000E+00  0.10494516458E+03  0.10494516458E+03  0.00000000000E+00 0. -1.
          1   -1    0    0  501    0 -0.00000000000E+00 -0.00000000000E+00 -0.16288660288E+04  0.16288660288E+04  0.00000000000E+00 0. -1.
         25    2    1    2    0    0 -0.80860547137E+02 -0.59042180099E+02 -0.54265312611E+03  0.56579156847E+03  0.12499310606E+03 0.  0.
          2    1    1    2  501    0  0.62625122465E+02  0.10913534213E+02 -0.10665326519E+04  0.10684254343E+04  0.00000000000E+00 0. -1.
          1    1    1    2  502    0  0.18235424672E+02  0.48128645886E+02  0.85264913796E+02  0.99594190556E+02  0.00000000000E+00 0. -1.
         22    1    3    3    0    0 -0.10962110898E+03 -0.62704543198E+02 -0.37617264783E+03  0.39680537830E+03  0.00000000000E+00 0.  1.
         22    1    3    3    0    0  0.28760561841E+02  0.36623630989E+01 -0.16648047828E+03  0.16898619018E+03  0.00000000000E+00 0.  1.
</event>
<event>
 7    1  0.6173324E-006  0.2639334E+03  0.7818608E-02  0.1188573E+00
          2   -1    0    0  502    0  0.00000000000E+00  0.00000000000E+00  0.16790800360E+04  0.16790800360E+04  0.00000000000E+00 0. -1.
          1   -1    0    0  501    0 -0.00000000000E+00 -0.00000000000E+00 -0.66295896623E+03  0.66295896623E+03  0.00000000000E+00 0. -1.
         25    2    1    2    0    0 -0.97410742802E+02  0.33923237071E+03  0.64598954881E+03  0.74665497238E+03  0.12499478573E+03 0.  0.
          2    1    1    2  501    0  0.95976197508E+02 -0.24211562372E+03 -0.58236398270E+03  0.63794922531E+03  0.00000000000E+00 0. -1.
          1    1    1    2  502    0  0.14345452946E+01 -0.97116746991E+02  0.95249550364E+03  0.95743480452E+03  0.00000000000E+00 0. -1.
         22    1    3    3    0    0 -0.11726407264E+03  0.20804205380E+03  0.36918898450E+03  0.43969633289E+03  0.00000000000E+00 0. -1.
         22    1    3    3    0    0  0.19853329833E+02  0.13119031691E+03  0.27680056431E+03  0.30695863949E+03  0.00000000000E+00 0. -1.
</event>
<event>
 7    1  0.7062714E-006  0.8448842E+02  0.7818608E-02  0.1324055E+00
          2   -1    0    0  502    0  0.00000000000E+00  0.00000000000E+00  0.35971634332E+04  0.35971634332E+04  0.00000000000E+00 0. -1.
          1   -1    0    0  501    0 -0.00000000000E+00 -0.00000000000E+00 -0.71547646954E+03  0.71547646954E+03  0.00000000000E+00 0. -1.
         25    2    1    2    0    0 -0.25756537235E+02 -0.26245387741E+02 -0.11467144410E+03  0.17356645740E+03  0.12499422168E+03 0.  0.
          2    1    1    2  501    0 -0.20762769226E+02  0.90309309879E+02 -0.56715770870E+03  0.57467793639E+03  0.00000000000E+00 0. -1.
          1    1    1    2  502    0  0.46519306461E+02 -0.64063922138E+02  0.35635161165E+04  0.35643955090E+04  0.00000000000E+00 0. -1.
         22    1    3    3    0    0 -0.28140012540E+02  0.14341049179E+02  0.16925068543E+02  0.35832721673E+02  0.00000000000E+00 0. -1.
         22    1    3    3    0    0  0.23834753053E+01 -0.40586436920E+02 -0.13159651264E+03  0.13773373572E+03  0.00000000000E+00 0. -1.
</event>
<event>
 7    1  0.6173324E-006  0.9657268E+02  0.7818608E-02  0.1333728E+00
          2   -1    0    0  502    0  0.00000000000E+00  0.00000000000E+00  0.71827926875E+03  0.71827926875E+03  0.00000000000E+00 0. -1.
          1   -1    0    0  501    0 -0.00000000000E+00 -0.00000000000E+00 -0.19848247985E+04  0.19848247985E+04  0.00000000000E+00 0. -1.
         25    2    1    2    0    0 -0.95034454147E+01 -0.14573326278E+03 -0.18965340516E+03  0.27003985632E+03  0.12499844221E+03 0.  0.
          2    1    1    2  501    0  0.34876531573E+02  0.53191367887E+02 -0.17510030655E+04  0.17521579351E+04  0.00000000000E+00 0. -1.
          1    1    1    2  502    0 -0.25373086159E+02  0.92541894895E+02  0.67411094092E+03  0.68090627584E+03  0.00000000000E+00 0. -1.
         22    1    3    3    0    0  0.39520558308E+01  0.72584155037E+01  0.13219069434E+02  0.15589969135E+02  0.00000000000E+00 0.  1.
         22    1    3    3    0    0 -0.13455501245E+02 -0.15299167829E+03 -0.20287247460E+03  0.25444988718E+03  0.00000000000E+00 0.  1.
</event>
<event>
 7    1  0.6173324E-006  0.5291130E+02  0.7818608E-02  0.1563451E+00
          2   -1    0    0  502    0  0.00000000000E+00  0.00000000000E+00  0.19693793706E+04  0.19693793706E+04  0.00000000000E+00 0. -1.
          1   -1    0    0  501    0 -0.00000000000E+00 -0.00000000000E+00 -0.95630316854E+02  0.95630316854E+02  0.00000000000E+00 0. -1.
         25    2    1    2    0    0 -0.20198671169E+02  0.66845915184E+02  0.86057353837E+03  0.87240433201E+03  0.12500456342E+03 0.  0.
          2    1    1    2  501    0  0.47220482751E+01 -0.52560718023E+02 -0.81844395208E+02  0.97382913522E+02  0.00000000000E+00 0. -1.
          1    1    1    2  502    0  0.15476622894E+02 -0.14285197161E+02  0.10950199106E+04  0.10952224420E+04  0.00000000000E+00 0. -1.
         22    1    3    3    0    0  0.24197716524E+02 -0.26532370857E+02  0.32196511409E+03  0.32396146512E+03  0.00000000000E+00 0. -1.
         22    1    3    3    0    0 -0.44396387694E+02  0.93378286041E+02  0.53860842427E+03  0.54844286689E+03  0.00000000000E+00 0. -1.
</event>
<event>
 7    1  0.6173324E-006  0.1320416E+03  0.7818608E-02  0.1324375E+00
          2   -1    0    0  502    0  0.00000000000E+00  0.00000000000E+00  0.11453087972E+04  0.11453087972E+04  0.00000000000E+00 0. -1.
          1   -1    0    0  501    0 -0.00000000000E+00 -0.00000000000E+00 -0.17931585528E+04  0.17931585528E+04  0.00000000000E+00 0. -1.
         25    2    1    2    0    0  0.78058268223E+02 -0.92189754725E+02 -0.14217480104E+03  0.22456702436E+03  0.12499852106E+03 0.  0.
          2    1    1    2  501    0 -0.37442711829E+02 -0.33910010019E+02 -0.16054149726E+04  0.16062095379E+04  0.00000000000E+00 0. -1.
          1    1    1    2  502    0 -0.40615556394E+02  0.12609976474E+03  0.10997400180E+04  0.11076907878E+04  0.00000000000E+00 0. -1.
         22    1    3    3    0    0  0.31215363111E+02 -0.47049746104E+02  0.11560724896E+02  0.57634432961E+02  0.00000000000E+00 0.  1.
         22    1    3    3    0    0  0.46842905112E+02 -0.45140008622E+02 -0.15373552593E+03  0.16693259140E+03  0.00000000000E+00 0.  1.
</event>
<event>
 7    1  0.6173324E-006  0.7648324E+02  0.7818608E-02  0.1508410E+00
          2   -1    0    0  502    0  0.00000000000E+00  0.00000000000E+00  0.96772192129E+03  0.96772192129E+03  0.00000000000E+00 0. -1.
          1   -1    0    0  501    0 -0.00000000000E+00 -0.00000000000E+00 -0.27610267619E+03  0.27610267619E+03  0.00000000000E+00 0. -1.
         25    2    1    2    0    0 -0.36278733519E+01  0.89610334537E+02  0.11488201925E+03  0.19200561725E+03  0.12500042075E+03 0.  0.
          2    1    1    2  501    0 -0.13796037858E+02 -0.15688240073E+02 -0.23530615946E+03  0.23623175107E+03  0.00000000000E+00 0. -1.
          1    1    1    2  502    0  0.17423911210E+02 -0.73922094463E+02  0.81204338532E+03  0.81558722916E+03  0.00000000000E+00 0. -1.
         22    1    3    3    0    0  0.22791371233E+02  0.30467960472E+02  0.12109626443E+03  0.12693324417E+03  0.00000000000E+00 0.  1.
         22    1    3    3    0    0 -0.26419244585E+02  0.59142374065E+02 -0.62142451787E+01  0.65072373075E+02  0.00000000000E+00 0.  1.
</event>
<event>
 7    1  0.6173324E-006  0.1865983E+03  0.7818608E-02  0.1185727E+00
          2   -1    0    0  502    0  0.00000000000E+00  0.00000000000E+00  0.15738387037E+04  0.15738387037E+04  0.00000000000E+00 0. -1.
          1   -1    0    0  501    0 -0.00000000000E+00 -0.00000000000E+00 -0.15093530076E+04  0.15093530076E+04  0.00000000000E+00 0. -1.
         25    2    1    2    0    0 -0.70894799811E+02 -0.12750363843E+03  0.14732932067E+03  0.24210353871E+03  0.12499977711E+03 0.  0.
          2    1    1    2  501    0  0.18450317983E+03  0.42664090357E+02 -0.14521572916E+04  0.14644529517E+04  0.00000000000E+00 0. -1.
          1    1    1    2  502    0 -0.11360838001E+03  0.84839548072E+02  0.13693136670E+04  0.13766352209E+04  0.00000000000E+00 0. -1.
         22    1    3    3    0    0 -0.50167578022E+02 -0.35801333003E+02 -0.63383958833E+01  0.61957215816E+02  0.00000000000E+00 0. -1.
         22    1    3    3    0    0 -0.20727221790E+02 -0.91702305426E+02  0.15366771655E+03  0.18014632290E+03  0.00000000000E+00 0. -1.
</event>
<event>
 7    1  0.6173324E-006  0.7002705E+02  0.7818608E-02  0.1499690E+00
          2   -1    0    0  502    0  0.00000000000E+00  0.00000000000E+00  0.19077617275E+04  0.19077617275E+04  0.00000000000E+00 0. -1.
          1   -1    0    0  501    0 -0.00000000000E+00 -0.00000000000E+00 -0.31707099040E+02  0.31707099040E+02  0.00000000000E+00 0. -1.
         25    2    1    2    0    0 -0.53332847167E+02 -0.21982177996E+02  0.25406898497E+03  0.28896964886E+03  0.12499920041E+03 0.  0.
          2    1    1    2  501    0  0.59895174423E+02  0.45294581606E+02  0.85388355954E+02  0.11371104772E+03  0.00000000000E+00 0. -1.
          1    1    1    2  502    0 -0.65623272563E+01 -0.23312403611E+02  0.15365972876E+04  0.15367881300E+04  0.00000000000E+00 0. -1.
         22    1    3    3    0    0  0.14136058796E+02 -0.57178493727E+02  0.13957034086E+03  0.15148956516E+03  0.00000000000E+00 0. -1.
         22    1    3    3    0    0 -0.67468905963E+02  0.35196315732E+02  0.11449864411E+03  0.13748008371E+03  0.00000000000E+00 0. -1.
</event>
<event>
 7    1  0.6173324E-006  0.1245642E+03  0.7818608E-02  0.1370496E+00
          2   -1    0    0  502    0  0.00000000000E+00  0.00000000000E+00  0.77476430290E+03  0.77476430290E+03  0.00000000000E+00 0. -1.
          1   -1    0    0  501    0 -0.00000000000E+00 -0.00000000000E+00 -0.79707205469E+02  0.79707205469E+02  0.00000000000E+00 0. -1.
         25    2    1    2    0    0 -0.98140294567E+02  0.99261684787E+02  0.30770780397E+03  0.36026875396E+03  0.12500033189E+03 0.  0.
          2    1    1    2  501    0  0.62507259018E+02 -0.10485488676E+03  0.18349107916E+02  0.12344389199E+03  0.00000000000E+00 0. -1.
          1    1    1    2  502    0  0.35633035549E+02  0.55932019742E+01  0.36900018554E+03  0.37075886241E+03  0.00000000000E+00 0. -1.
         22    1    3    3    0    0 -0.85237169117E+01  0.56303927949E+02  0.28052872017E+02  0.63480309395E+02  0.00000000000E+00 0. -1.
         22    1    3    3    0    0 -0.89616577656E+02  0.42957756838E+02  0.27965493195E+03  0.29678844457E+03  0.00000000000E+00 0. -1.
</event>
<event>
 7    1  0.6173324E-006  0.9198767E+02  0.7818608E-02  0.1389230E+00
          2   -1    0    0  502    0  0.00000000000E+00  0.00000000000E+00  0.12846846339E+04  0.12846846339E+04  0.00000000000E+00 0. -1.
          1   -1    0    0  501    0 -0.00000000000E+00 -0.00000000000E+00 -0.25803310813E+03  0.25803310813E+03  0.00000000000E+00 0. -1.
         25    2    1    2    0    0  0.49045937598E+02 -0.11775180803E+03  0.48911503969E+03  0.52070146931E+03  0.12500202319E+03 0.  0.
          2    1    1    2  501    0 -0.22711274316E+02  0.35236203066E+02 -0.23799702137E+03  0.24166086603E+03  0.00000000000E+00 0. -1.
          1    1    1    2  502    0 -0.26334663283E+02  0.82515604963E+02  0.77553350744E+03  0.78035540667E+03  0.00000000000E+00 0. -1.
         22    1    3    3    0    0  0.73763828619E+00 -0.72265398678E+02  0.86780664799E+02  0.11293235028E+03  0.00000000000E+00 0.  1.
         22    1    3    3    0    0  0.48308299312E+02 -0.45486409351E+02  0.40233437489E+03  0.40776911903E+03  0.00000000000E+00 0.  1.
</event>
<event>
 7    1  0.6173324E-006  0.4768843E+02  0.7818608E-02  0.1572861E+00
          2   -1    0    0  502    0  0.00000000000E+00  0.00000000000E+00  0.48451105705E+03  0.48451105705E+03  0.00000000000E+00 0. -1.
          1   -1    0    0  501    0 -0.00000000000E+00 -0.00000000000E+00 -0.42923427708E+03  0.42923427708E+03  0.00000000000E+00 0. -1.
         25    2    1    2    0    0 -0.19874943932E+02  0.39646947301E+02 -0.61634028603E+01  0.13278801940E+03  0.12501110645E+03 0.  0.
          2    1    1    2  501    0 -0.18803193112E+02 -0.11477450314E+02 -0.35806002851E+03  0.35873705685E+03  0.00000000000E+00 0. -1.
          1    1    1    2  502    0  0.38678137044E+02 -0.28169496987E+02  0.41950021135E+03  0.42222025788E+03  0.00000000000E+00 0. -1.
         22    1    3    3    0    0  0.24847785979E+02 -0.20274167294E+02  0.34971072061E+02  0.47449238230E+02  0.00000000000E+00 0. -1.
         22    1    3    3    0    0 -0.44722729911E+02  0.59921114595E+02 -0.41134474922E+02  0.85338781173E+02  0.00000000000E+00 0. -1.
</event>
<event>
 7    1  0.6173324E-006  0.1322282E+03  0.7818608E-02  0.1318045E+00
          2   -1    0    0  502    0  0.00000000000E+00  0.00000000000E+00  0.16256258572E+04  0.16256258572E+04  0.00000000000E+00 0. -1.
          1   -1    0    0  501    0 -0.00000000000E+00 -0.00000000000E+00 -0.17418191375E+03  0.17418191375E+03  0.00000000000E+00 0. -1.
         25    2    1    2    0    0 -0.10535138467E+03  0.13739967155E+03  0.10931809309E+04  0.11138441659E+04  0.12500677625E+03 0.  0.
          2    1    1    2  501    0  0.55181377094E+02 -0.11918734031E+03 -0.13585959209E+03  0.18896675695E+03  0.00000000000E+00 0. -1.
          1    1    1    2  502    0  0.50170007577E+02 -0.18212331239E+02  0.49412260462E+03  0.49699684815E+03  0.00000000000E+00 0. -1.
         22    1    3    3    0    0  0.27716746165E+02  0.14486444992E+02  0.12427311902E+03  0.12814789587E+03  0.00000000000E+00 0. -1.
         22    1    3    3    0    0 -0.13306813084E+03  0.12291322656E+03  0.96890781193E+03  0.98569627002E+03  0.00000000000E+00 0. -1.
</event>
<event>
 7    1  0.6173324E-006  0.3384831E+02  0.7818608E-02  0.1573323E+00
          2   -1    0    0  502    0  0.00000000000E+00  0.00000000000E+00  0.76599269056E+02  0.76599269056E+02  0.00000000000E+00 0. -1.
          1   -1    0    0  501    0 -0.00000000000E+00 -0.00000000000E+00 -0.45272853090E+03  0.45272853090E+03  0.00000000000E+00 0. -1.
         25    2    1    2    0    0  0.55546201681E+01 -0.55150548252E+01 -0.12036995289E+03  0.17371898638E+03  0.12501236353E+03 0.  0.
          2    1    1    2  501    0 -0.99947447207E+01 -0.29289170865E+02 -0.29861951819E+03  0.30021886532E+03  0.00000000000E+00 0. -1.
          1    1    1    2  502    0  0.44401245527E+01  0.34804225690E+02  0.42860209235E+02  0.55389948254E+02  0.00000000000E+00 0. -1.
         22    1    3    3    0    0  0.86299256205E+01 -0.33153685905E+02  0.13625185642E+02  0.36868525724E+02  0.00000000000E+00 0. -1.
         22    1    3    3    0    0 -0.30753054525E+01  0.27638631079E+02 -0.13399513853E+03  0.13685046066E+03  0.00000000000E+00 0. -1.
</event>
<event>
 7    1  0.6173324E-006  0.1056262E+03  0.7818608E-02  0.1337354E+00
          2   -1    0    0  502    0  0.00000000000E+00  0.00000000000E+00  0.29273976188E+04  0.29273976188E+04  0.00000000000E+00 0. -1.
          1   -1    0    0  501    0 -0.00000000000E+00 -0.00000000000E+00 -0.80202216253E+03  0.80202216253E+03  0.00000000000E+00 0. -1.
         25    2    1    2    0    0 -0.30279186812E+02 -0.14411905223E+03  0.26012925448E+03  0.32400538635E+03  0.12500052390E+03 0.  0.
          2    1    1    2  501    0  0.51294170387E+02  0.91841210154E+02 -0.76618868781E+03  0.77337636706E+03  0.00000000000E+00 0. -1.
          1    1    1    2  502    0 -0.21014983575E+02  0.52277842073E+02  0.26314348896E+04  0.26320380279E+04  0.00000000000E+00 0. -1.
         22    1    3    3    0    0 -0.39541802542E+02 -0.10496252278E+03  0.75894046727E+02  0.13542744059E+03  0.00000000000E+00 0. -1.
         22    1    3    3    0    0  0.92626157293E+01 -0.39156529445E+02  0.18423520776E+03  0.18857794575E+03  0.00000000000E+00 0. -1.
</event>
<event>
 7    1  0.6173324E-006  0.8402674E+02  0.7818608E-02  0.1355370E+00
          2   -1    0    0  502    0  0.00000000000E+00  0.00000000000E+00  0.17453854913E+04  0.17453854913E+04  0.00000000000E+00 0. -1.
          1   -1    0    0  501    0 -0.00000000000E+00 -0.00000000000E+00 -0.55086501389E+03  0.55086501389E+03  0.00000000000E+00 0. -1.
         25    2    1    2    0    0  0.11002708637E+03  0.86885693364E+02  0.30602206598E+03  0.35906833327E+03  0.12500191857E+03 0.  0.
          2    1    1    2  501    0 -0.74502838355E+02 -0.37686494933E+02 -0.52036091366E+03  0.52701653227E+03  0.00000000000E+00 0. -1.
          1    1    1    2  502    0 -0.35524248014E+02 -0.49199198430E+02  0.14088593251E+04  0.14101656396E+04  0.00000000000E+00 0. -1.
         22    1    3    3    0    0  0.85480116291E+02 -0.11406872360E+02  0.13094706344E+03  0.15679317728E+03  0.00000000000E+00 0. -1.
         22    1    3    3    0    0  0.24546970079E+02  0.98292565724E+02  0.17507500255E+03  0.20227515600E+03  0.00000000000E+00 0. -1.
</event>
<event>
 7    1  0.6173324E-006  0.1299792E+03  0.7818608E-02  0.1430503E+00
          2   -1    0    0  502    0  0.00000000000E+00  0.00000000000E+00  0.23949501309E+04  0.23949501309E+04  0.00000000000E+00 0. -1.
          1   -1    0    0  501    0 -0.00000000000E+00 -0.00000000000E+00 -0.12082872901E+04  0.12082872901E+04  0.00000000000E+00 0. -1.
         25    2    1    2    0    0  0.18620738347E+02  0.14080768845E+03  0.74223248863E+03  0.76596879520E+03  0.12500236407E+03 0.  0.
          2    1    1    2  501    0  0.12961318538E+02 -0.17149309596E+02 -0.11938404654E+04  0.11940339825E+04  0.00000000000E+00 0. -1.
          1    1    1    2  502    0 -0.31582056884E+02 -0.12365837885E+03  0.16382708176E+04  0.16432346433E+04  0.00000000000E+00 0. -1.
         22    1    3    3    0    0 -0.16181703126E+02 -0.16477672662E+02  0.16760208757E+03  0.16918575877E+03  0.00000000000E+00 0. -1.
         22    1    3    3    0    0  0.34802441473E+02  0.15728536111E+03  0.57463040107E+03  0.59678303644E+03  0.00000000000E+00 0. -1.
</event>
<event>
 7    1  0.6173324E-006  0.1095982E+03  0.7818608E-02  0.1295318E+00
          2   -1    0    0  502    0  0.00000000000E+00  0.00000000000E+00  0.86042778387E+03  0.86042778387E+03  0.00000000000E+00 0. -1.
          1   -1    0    0  501    0 -0.00000000000E+00 -0.00000000000E+00 -0.62944840491E+03  0.62944840491E+03  0.00000000000E+00 0. -1.
         25    2    1    2    0    0  0.80388102316E+02  0.56466536938E+01 -0.15372731049E+03  0.21389434841E+03  0.12499829838E+03 0.  0.
          2    1    1    2  501    0 -0.99191884629E+02  0.71318797387E+02 -0.43531919359E+03  0.45213736977E+03  0.00000000000E+00 0. -1.
          1    1    1    2  502    0  0.18803782313E+02 -0.76965451081E+02  0.82002588304E+03  0.82384447061E+03  0.00000000000E+00 0. -1.
         22    1    3    3    0    0  0.15857684276E+02  0.53142900236E+02 -0.21898294991E+02  0.59625240625E+02  0.00000000000E+00 0. -1.
         22    1    3    3    0    0  0.64530418040E+02 -0.47496246542E+02 -0.13182901550E+03  0.15426910778E+03  0.00000000000E+00 0. -1.
</event>
<event>
 7    1  0.6173324E-006  0.8975622E+02  0.7818608E-02  0.1429032E+00
          2   -1    0    0  502    0  0.00000000000E+00  0.00000000000E+00  0.88576162127E+03  0.88576162127E+03  0.00000000000E+00 0. -1.
          1   -1    0    0  501    0 -0.00000000000E+00 -0.00000000000E+00 -0.63144222034E+02  0.63144222034E+02  0.00000000000E+00 0. -1.
         25    2    1    2    0    0 -0.21931746705E+02 -0.58612728613E+02  0.20426539650E+03  0.24752337989E+03  0.12500807139E+03 0.  0.
          2    1    1    2  501    0 -0.89022567925E+01 -0.30193889468E+02 -0.31637438665E+02  0.44630131777E+02  0.00000000000E+00 0. -1.
          1    1    1    2  502    0  0.30834003498E+02  0.88806618081E+02  0.64998944140E+03  0.65675233164E+03  0.00000000000E+00 0. -1.
         22    1    3    3    0    0 -0.16624775453E+02 -0.62441211952E+02  0.26826587627E+02  0.69963947234E+02  0.00000000000E+00 0. -1.
         22    1    3    3    0    0 -0.53069712522E+01  0.38284833390E+01  0.17743880888E+03  0.17755943265E+03  0.00000000000E+00 0. -1.
</event>
<event>
 7    1  0.6173324E-006  0.2526377E+03  0.7818608E-02  0.1303663E+00
          2   -1    0    0  502    0  0.00000000000E+00  0.00000000000E+00  0.76121976238E+03  0.76121976238E+03  0.00000000000E+00 0. -1.
          1   -1    0    0  501    0 -0.00000000000E+00 -0.00000000000E+00 -0.19932373684E+04  0.19932373684E+04  0.00000000000E+00 0. -1.
         25    2    1    2    0    0 -0.22449197536E+03  0.42316014929E+02  0.11194737221E+03  0.28345035798E+03  0.12499839668E+03 0.  0.
          2    1    1    2  501    0  0.24472691383E+03 -0.66878507109E+02 -0.18985920132E+04  0.19154674702E+04  0.00000000000E+00 0. -1.
          1    1    1    2  502    0 -0.20234938473E+02  0.24562492180E+02  0.55462703496E+03  0.55553930254E+03  0.00000000000E+00 0. -1.
         22    1    3    3    0    0 -0.11529464100E+03  0.48147163201E+02  0.12073260259E+03  0.17374511474E+03  0.00000000000E+00 0.  1.
         22    1    3    3    0    0 -0.10919733435E+03 -0.58311482721E+01 -0.87852303797E+01  0.10970524323E+03  0.00000000000E+00 0.  1.
</event>
<event>
 7    1  0.6173324E-006  0.1348072E+03  0.7818608E-02  0.1393052E+00
          2   -1    0    0  502    0  0.00000000000E+00  0.00000000000E+00  0.30442572591E+04  0.30442572591E+04  0.00000000000E+00 0. -1.
          1   -1    0    0  501    0 -0.00000000000E+00 -0.00000000000E+00 -0.41278587049E+02  0.41278587049E+02  0.00000000000E+00 0. -1.
         25    2    1    2    0    0  0.90203129304E+02 -0.65596162290E+02  0.27929086644E+03  0.32568010339E+03  0.12499872250E+03 0.  0.
          2    1    1    2  501    0  0.11936623668E+02 -0.25042429976E+02 -0.46275207265E+01  0.28125081898E+02  0.00000000000E+00 0. -1.
          1    1    1    2  502    0 -0.10213975297E+03  0.90638592265E+02  0.27283153264E+04  0.27317306609E+04  0.00000000000E+00 0. -1.
         22    1    3    3    0    0  0.91062219674E+01 -0.78979955149E+02  0.94913200359E+02  0.12381143807E+03  0.00000000000E+00 0. -1.
         22    1    3    3    0    0  0.81096907337E+02  0.13383792859E+02  0.18437766608E+03  0.20186866532E+03  0.00000000000E+00 0. -1.
</event>
<event>
 7    1  0.6173324E-006  0.2067067E+03  0.7818608E-02  0.1158867E+00
          2   -1    0    0  502    0  0.00000000000E+00  0.00000000000E+00  0.46182786298E+03  0.46182786298E+03  0.00000000000E+00 0. -1.
          1   -1    0    0  501    0 -0.00000000000E+00 -0.00000000000E+00 -0.13460185041E+04  0.13460185041E+04  0.00000000000E+00 0. -1.
         25    2    1    2    0    0  0.21558059029E+03  0.93565047170E+02 -0.51913855750E+02  0.27120722359E+03  0.12501560202E+03 0.  0.
          2    1    1    2  501    0 -0.75132929483E+02 -0.19597288555E+03 -0.11529442295E+04  0.11718919427E+04  0.00000000000E+00 0. -1.
          1    1    1    2  502    0 -0.14044766080E+03  0.10240783838E+03  0.32066744413E+03  0.36474720083E+03  0.00000000000E+00 0. -1.
         22    1    3    3    0    0  0.19260635781E+03  0.12093540951E+03 -0.58596141434E+02  0.23485333749E+03  0.00000000000E+00 0.  1.
         22    1    3    3    0    0  0.22974232480E+02 -0.27370362336E+02  0.66822856839E+01  0.36353886098E+02  0.00000000000E+00 0.  1.
</event>
<event>
 7    1  0.7353368E-006  0.4643117E+02  0.7818608E-02  0.1488305E+00
          2   -1    0    0  502    0  0.00000000000E+00  0.00000000000E+00  0.94358495546E+03  0.94358495546E+03  0.00000000000E+00 0. -1.
          1   -1    0    0  501    0 -0.00000000000E+00 -0.00000000000E+00 -0.93949247992E+03  0.93949247992E+03  0.00000000000E+00 0. -1.
         25    2    1    2    0    0  0.91086567354E+01  0.29797699799E+01 -0.11571453355E+03  0.17060814091E+03  0.12500175125E+03 0.  0.
          2    1    1    2  501    0  0.16645393156E+02  0.35847643702E+02 -0.79524765891E+03  0.79622921428E+03  0.00000000000E+00 0. -1.
          1    1    1    2  502    0 -0.25754049892E+02 -0.38827413682E+02  0.91505466799E+03  0.91624008019E+03  0.00000000000E+00 0. -1.
         22    1    3    3    0    0 -0.29100372042E+02  0.49130428092E+02 -0.26039248768E+02  0.62758848730E+02  0.00000000000E+00 0. -1.
         22    1    3    3    0    0  0.38209028778E+02 -0.46150658112E+02 -0.89675284777E+02  0.10784929218E+03  0.00000000000E+00 0. -1.
</event>
<event>
 7    1  0.6173324E-006  0.1602764E+03  0.7818608E-02  0.1265672E+00
          2   -1    0    0  502    0  0.00000000000E+00  0.00000000000E+00  0.52675374996E+03  0.52675374996E+03  0.00000000000E+00 0. -1.
          1   -1    0    0  501    0 -0.00000000000E+00 -0.00000000000E+00 -0.46503541027E+03  0.46503541027E+03  0.00000000000E+00 0. -1.
         25    2    1    2    0    0  0.13591917466E+03 -0.10816849962E+02  0.15077925321E+03  0.23863214741E+03  0.12497956751E+03 0.  0.
          2    1    1    2  501    0 -0.14093421454E+03  0.82462373946E+02 -0.40104531430E+03  0.43301251722E+03  0.00000000000E+00 0. -1.
          1    1    1    2  502    0  0.50150398813E+01 -0.71645523984E+02  0.31198440078E+03  0.32014449560E+03  0.00000000000E+00 0. -1.
         22    1    3    3    0    0  0.86617159213E+02 -0.13653211369E+02  0.16533458787E+03  0.18714825245E+03  0.00000000000E+00 0. -1.
         22    1    3    3    0    0  0.49302015449E+02  0.28363614067E+01 -0.14555334652E+02  0.51483894959E+02  0.00000000000E+00 0. -1.
</event>
<event>
 7    1  0.6173324E-006  0.7077095E+02  0.7818608E-02  0.1386346E+00
          2   -1    0    0  502    0  0.00000000000E+00  0.00000000000E+00  0.51985431974E+03  0.51985431974E+03  0.00000000000E+00 0. -1.
          1   -1    0    0  501    0 -0.00000000000E+00 -0.00000000000E+00 -0.44278049055E+03  0.44278049055E+03  0.00000000000E+00 0. -1.
         25    2    1    2    0    0  0.86488628766E+02  0.12636747774E+01  0.23122325733E+03  0.27671371727E+03  0.12499762723E+03 0.  0.
          2    1    1    2  501    0 -0.53591700047E+02 -0.46298678150E+02 -0.41407086894E+03  0.42008370883E+03  0.00000000000E+00 0. -1.
          1    1    1    2  502    0 -0.32896928718E+02  0.45035003373E+02  0.25992144080E+03  0.26583738420E+03  0.00000000000E+00 0. -1.
         22    1    3    3    0    0 -0.21572224533E+02  0.94947346701E+01  0.11664237441E+03  0.11899980826E+03  0.00000000000E+00 0.  1.
         22    1    3    3    0    0  0.10806085330E+03 -0.82310598927E+01  0.11458088292E+03  0.15771390900E+03  0.00000000000E+00 0.  1.
</event>
<event>
 7    1  0.6173324E-006  0.3116066E+03  0.7818608E-02  0.1195207E+00
          2   -1    0    0  502    0  0.00000000000E+00  0.00000000000E+00  0.27463908939E+04  0.27463908939E+04  0.00000000000E+00 0. -1.
          1   -1    0    0  501    0 -0.00000000000E+00 -0.00000000000E+00 -0.85080094393E+03  0.85080094393E+03  0.00000000000E+00 0. -1.
         25    2    1    2    0    0  0.23301573249E+03  0.65021043889E+02 -0.25333261572E+03  0.37192289638E+03  0.12500063571E+03 0.  0.
          2    1    1    2  501    0  0.75809826404E+02 -0.10042120914E+02 -0.52624563389E+03  0.53177292255E+03  0.00000000000E+00 0. -1.
          1    1    1    2  502    0 -0.30882555890E+03 -0.54978922976E+02  0.26751681996E+04  0.26934960189E+04  0.00000000000E+00 0. -1.
         22    1    3    3    0    0  0.65325653633E+02  0.33905981538E+02 -0.16317753930E+03  0.17900828455E+03  0.00000000000E+00 0.  1.
         22    1    3    3    0    0  0.16769007886E+03  0.31115062351E+02 -0.90155076419E+02  0.19291461183E+03  0.00000000000E+00 0.  1.
</event>
<event>
 7    1  0.6173324E-006  0.3589173E+02  0.7818608E-02  0.1591936E+00
          2   -1    0    0  502    0  0.00000000000E+00  0.00000000000E+00  0.58020174534E+03  0.58020174534E+03  0.00000000000E+00 0. -1.
          1   -1    0    0  501    0 -0.00000000000E+00 -0.00000000000E+00 -0.63673296963E+03  0.63673296963E+03  0.00000000000E+00 0. -1.
         25    2    1    2    0    0 -0.35936668298E+02  0.25449308701E+02 -0.11983510776E+02  0.13306870753E+03  0.12499825980E+03 0.  0.
          2    1    1    2  501    0  0.35889733363E+02  0.57782100850E+00 -0.56330938533E+03  0.56445183182E+03  0.00000000000E+00 0. -1.
          1    1    1    2  502    0  0.46934934829E-01 -0.26027129710E+02  0.51876167182E+03  0.51941417562E+03  0.00000000000E+00 0. -1.
         22    1    3    3    0    0 -0.38157552653E+02 -0.44455479968E+00  0.51716395427E+02  0.64271160013E+02  0.00000000000E+00 0.  1.
         22    1    3    3    0    0  0.22208843555E+01  0.25893863501E+02 -0.63699906203E+02  0.68797547519E+02  0.00000000000E+00 0.  1.
</event>
<event>
 7    1  0.6173324E-006  0.3152253E+02  0.7818608E-02  0.1592539E+00
          2   -1    0    0  502    0  0.00000000000E+00  0.00000000000E+00  0.19638918821E+04  0.19638918821E+04  0.00000000000E+00 0. -1.
          1   -1    0    0  501    0 -0.00000000000E+00 -0.00000000000E+00 -0.49695896654E+03  0.49695896654E+03  0.00000000000E+00 0. -1.
         25    2    1    2    0    0  0.52855259282E+01 -0.17100931012E+02  0.14171555394E+03  0.18981457226E+03  0.12500357989E+03 0.  0.
          2    1    1    2  501    0  0.24043886091E+02  0.20505467765E+02 -0.47226018304E+03  0.47331624011E+03  0.00000000000E+00 0. -1.
          1    1    1    2  502    0 -0.29329412019E+02 -0.34045367533E+01  0.17974775447E+04  0.17977200363E+04  0.00000000000E+00 0. -1.
         22    1    3    3    0    0  0.43817986283E+02 -0.43187297208E+02  0.12682131055E+03  0.14095674291E+03  0.00000000000E+00 0.  1.
         22    1    3    3    0    0 -0.38532460355E+02  0.26086366196E+02  0.14894243393E+02  0.48857829348E+02  0.00000000000E+00 0.  1.
</event>
<event>
 7    1  0.6173324E-006  0.1687581E+03  0.7818608E-02  0.1235730E+00
          2   -1    0    0  502    0  0.00000000000E+00  0.00000000000E+00  0.20209674728E+03  0.20209674728E+03  0.00000000000E+00 0. -1.
          1   -1    0    0  501    0 -0.00000000000E+00 -0.00000000000E+00 -0.64452505234E+03  0.64452505234E+03  0.00000000000E+00 0. -1.
         25    2    1    2    0    0 -0.32134610123E+02  0.10606469614E+03 -0.13743947249E+03  0.21632146034E+03  0.12499205043E+03 0.  0.
          2    1    1    2  501    0  0.73663043174E+02 -0.18811801391E+03 -0.43000706776E+03  0.47510073606E+03  0.00000000000E+00 0. -1.
          1    1    1    2  502    0 -0.41528433051E+02  0.82053317770E+02  0.12501823518E+03  0.15519960321E+03  0.00000000000E+00 0. -1.
         22    1    3    3    0    0 -0.24689441568E+01  0.24693914823E+02 -0.12663094828E+03  0.12903984725E+03  0.00000000000E+00 0.  1.
         22    1    3    3    0    0 -0.29665665966E+02  0.81370781316E+02 -0.10808524209E+02  0.87281613097E+02  0.00000000000E+00 0.  1.
</event>
<event>
 7    1  0.6173324E-006  0.3703332E+02  0.7818608E-02  0.1551359E+00
          2   -1    0    0  502    0  0.00000000000E+00  0.00000000000E+00  0.16479328445E+03  0.16479328445E+03  0.00000000000E+00 0. -1.
          1   -1    0    0  501    0 -0.00000000000E+00 -0.00000000000E+00 -0.19529926976E+04  0.19529926976E+04  0.00000000000E+00 0. -1.
         25    2    1    2    0    0  0.80099209270E-01  0.54961717652E+02  0.23510891279E+02  0.13855829793E+03  0.12499937238E+03 0.  0.
          2    1    1    2  501    0  0.20694229278E+02 -0.25056526789E+02 -0.18913653268E+04  0.18916444909E+04  0.00000000000E+00 0. -1.
          1    1    1    2  502    0 -0.20774328487E+02 -0.29905190862E+02  0.79655022293E+02  0.87583193257E+02  0.00000000000E+00 0. -1.
         22    1    3    3    0    0 -0.48989601703E+02  0.62675218155E+02 -0.76567515205E+01  0.79917394162E+02  0.00000000000E+00 0. -1.
         22    1    3    3    0    0  0.49069700912E+02 -0.77135005028E+01  0.31167642799E+02  0.58640903772E+02  0.00000000000E+00 0. -1.
</event>
<event>
 7    1  0.6173324E-006  0.8092847E+02  0.7818608E-02  0.1378773E+00
          2   -1    0    0  502    0  0.00000000000E+00  0.00000000000E+00  0.25457202921E+03  0.25457202921E+03  0.00000000000E+00 0. -1.
          1   -1    0    0  501    0 -0.00000000000E+00 -0.00000000000E+00 -0.19484555728E+03  0.19484555728E+03  0.00000000000E+00 0. -1.
         25    2    1    2    0    0 -0.24681223766E+02 -0.28097251178E+02 -0.12527269924E+02  0.13106795027E+03  0.12499302687E+03 0.  0.
          2    1    1    2  501    0 -0.14386789853E+02 -0.49830230655E+02 -0.10706438625E+03  0.11896560180E+03  0.00000000000E+00 0. -1.
          1    1    1    2  502    0  0.39068013619E+02  0.77927481834E+02  0.17931812810E+03  0.19938403441E+03  0.00000000000E+00 0. -1.
         22    1    3    3    0    0 -0.53947526964E+02 -0.64204372682E+02 -0.10851067120E+02  0.84559344810E+02  0.00000000000E+00 0. -1.
         22    1    3    3    0    0  0.29266303198E+02  0.36107121504E+02 -0.16762028047E+01  0.46508605462E+02  0.00000000000E+00 0. -1.
</event>
<event>
 7    1  0.1211082E-005  0.9560505E+02  0.7818608E-02  0.1312581E+00
          2   -1    0    0  502    0  0.00000000000E+00  0.00000000000E+00  0.90716322369E+03  0.90716322369E+03  0.00000000000E+00 0. -1.
          1   -1    0    0  501    0 -0.00000000000E+00 -0.00000000000E+00 -0.99982808154E+03  0.99982808154E+03  0.00000000000E+00 0. -1.
         25    2    1    2    0    0 -0.53767681304E+01 -0.20739856216E+02 -0.33724831963E+03  0.36030483301E+03  0.12499636924E+03 0.  0.
          2    1    1    2  501    0 -0.57457894379E+02 -0.52067079704E+02 -0.64614516741E+03  0.65078104442E+03  0.00000000000E+00 0. -1.
          1    1    1    2  502    0  0.62834662510E+02  0.72806935920E+02  0.89072862918E+03  0.89590542781E+03  0.00000000000E+00 0. -1.
         22    1    3    3    0    0  0.27504019022E+02  0.26047287913E+02 -0.26723049725E+03  0.26990196541E+03  0.00000000000E+00 0.  1.
         22    1    3    3    0    0 -0.32880787152E+02 -0.46787144129E+02 -0.70017822378E+02  0.90402867598E+02  0.00000000000E+00 0.  1.
</event>
<event>
 7    1  0.6173324E-006  0.8634574E+02  0.7818608E-02  0.1343149E+00
          2   -1    0    0  502    0  0.00000000000E+00  0.00000000000E+00  0.25842165087E+02  0.25842165087E+02  0.00000000000E+00 0. -1.
          1   -1    0    0  501    0 -0.00000000000E+00 -0.00000000000E+00 -0.30500895037E+04  0.30500895037E+04  0.00000000000E+00 0. -1.
         25    2    1    2    0    0  0.10970137181E+03  0.88872308744E+02 -0.62600360198E+03  0.65378862197E+03  0.12500549704E+03 0.  0.
          2    1    1    2  501    0 -0.49957968384E+02 -0.42440459625E+02 -0.22850418473E+04  0.22859818974E+04  0.00000000000E+00 0. -1.
          1    1    1    2  502    0 -0.59743403429E+02 -0.46431849119E+02 -0.11320188930E+03  0.13616114940E+03  0.00000000000E+00 0. -1.
         22    1    3    3    0    0  0.11760256369E+03  0.38843282865E+02 -0.53962796803E+03  0.55365829488E+03  0.00000000000E+00 0.  1.
         22    1    3    3    0    0 -0.79011918749E+01  0.50029025879E+02 -0.86375633948E+02  0.10013032709E+03  0.00000000000E+00 0.  1.
</event>
<event>
 7    1  0.6173324E-006  0.1400484E+03  0.7818608E-02  0.1252791E+00
          2   -1    0    0  502    0  0.00000000000E+00  0.00000000000E+00  0.65938682905E+03  0.65938682905E+03  0.00000000000E+00 0. -1.
          1   -1    0    0  501    0 -0.00000000000E+00 -0.00000000000E+00 -0.20885870503E+03  0.20885870503E+03  0.00000000000E+00 0. -1.
         25    2    1    2    0    0 -0.87564844395E+02 -0.15262483617E+03  0.65500554947E+02  0.22555974655E+03  0.12499973591E+03 0.  0.
          2    1    1    2  501    0  0.11944874762E+03  0.64940773153E+02 -0.87073778292E+02  0.16145324460E+03  0.00000000000E+00 0. -1.
          1    1    1    2  502    0 -0.31883903226E+02  0.87684063016E+02  0.47210134736E+03  0.48123254292E+03  0.00000000000E+00 0. -1.
         22    1    3    3    0    0  0.21966357235E+01 -0.10629135146E+03  0.64871966613E+02  0.12454336055E+03  0.00000000000E+00 0.  1.
         22    1    3    3    0    0 -0.89761480119E+02 -0.46333484708E+02  0.62858833365E+00  0.10101638601E+03  0.00000000000E+00 0.  1.
</event>
<event>
 7    1  0.6173324E-006  0.6384412E+02  0.7818608E-02  0.1401940E+00
          2   -1    0    0  502    0  0.00000000000E+00  0.00000000000E+00  0.18692417596E+03  0.18692417596E+03  0.00000000000E+00 0. -1.
          1   -1    0    0  501    0 -0.00000000000E+00 -0.00000000000E+00 -0.18114727054E+04  0.18114727054E+04  0.00000000000E+00 0. -1.
         25    2    1    2    0    0 -0.12347977065E+02  0.79055001125E+02 -0.14878666663E+04  0.14952506014E+04  0.12499991405E+03 0.  0.
          2    1    1    2  501    0 -0.33576890485E+02 -0.49556705415E+02 -0.31294850745E+03  0.31862210053E+03  0.00000000000E+00 0. -1.
          1    1    1    2  502    0  0.45924867551E+02 -0.29498295710E+02  0.17626664431E+03  0.18452417946E+03  0.00000000000E+00 0. -1.
         22    1    3    3    0    0  0.48834239428E+02  0.31592934802E+02 -0.95706398685E+03  0.95882968842E+03  0.00000000000E+00 0. -1.
         22    1    3    3    0    0 -0.61182216493E+02  0.47462066323E+02 -0.53080267947E+03  0.53642091298E+03  0.00000000000E+00 0. -1.
</event>
<event>
 7    1  0.6173324E-006  0.4297178E+02  0.7818608E-02  0.1515623E+00
          2   -1    0    0  502    0  0.00000000000E+00  0.00000000000E+00  0.18498054783E+04  0.18498054783E+04  0.00000000000E+00 0. -1.
          1   -1    0    0  501    0 -0.00000000000E+00 -0.00000000000E+00 -0.13928659718E+03  0.13928659718E+03  0.00000000000E+00 0. -1.
         25    2    1    2    0    0 -0.26347286996E+02 -0.14348704540E+02  0.15972620227E+03  0.20502473404E+03  0.12499046773E+03 0.  0.
          2    1    1    2  501    0  0.57427931778E+01  0.43151776976E+02 -0.11238040355E+03  0.12051726280E+03  0.00000000000E+00 0. -1.
          1    1    1    2  502    0  0.20604493819E+02 -0.28803072436E+02  0.16631730824E+04  0.16635500786E+04  0.00000000000E+00 0. -1.
         22    1    3    3    0    0 -0.35416666585E-01  0.25228942537E+01 -0.21234806701E+02  0.21384182598E+02  0.00000000000E+00 0.  1.
         22    1    3    3    0    0 -0.26311870330E+02 -0.16871598794E+02  0.18096100897E+03  0.18364055144E+03  0.00000000000E+00 0.  1.
</event>
<event>
 7    1  0.6173324E-006  0.4191944E+02  0.7818608E-02  0.1584495E+00
          2   -1    0    0  502    0  0.00000000000E+00  0.00000000000E+00  0.21341600115E+03  0.21341600115E+03  0.00000000000E+00 0. -1.
          1   -1    0    0  501    0 -0.00000000000E+00 -0.00000000000E+00 -0.49174187344E+03  0.49174187344E+03  0.00000000000E+00 0. -1.
         25    2    1    2    0    0 -0.53572384591E+01  0.58286029929E+02  0.44464960274E+02  0.14502427039E+03  0.12501577909E+03 0.  0.
          2    1    1    2  501    0  0.17081709323E+02 -0.38126497727E+02 -0.43931580002E+03  0.44129784360E+03  0.00000000000E+00 0. -1.
          1    1    1    2  502    0 -0.11724470864E+02 -0.20159532202E+02  0.11652496746E+03  0.11883576060E+03  0.00000000000E+00 0. -1.
         22    1    3    3    0    0  0.51861175655E+02  0.61185272142E+02  0.32229466243E+02  0.86440485664E+02  0.00000000000E+00 0. -1.
         22    1    3    3    0    0 -0.57218414114E+02 -0.28992422137E+01  0.12235494031E+02  0.58583784730E+02  0.00000000000E+00 0. -1.
</event>
<event>
 7    1  0.6173324E-006  0.1074525E+03  0.7818608E-02  0.1456846E+00
          2   -1    0    0  502    0  0.00000000000E+00  0.00000000000E+00  0.14748034493E+04  0.14748034493E+04  0.00000000000E+00 0. -1.
          1   -1    0    0  501    0 -0.00000000000E+00 -0.00000000000E+00 -0.35545381019E+02  0.35545381019E+02  0.00000000000E+00 0. -1.
         25    2    1    2    0    0 -0.12550184916E+03  0.23309451981E+01  0.95674551624E+03  0.97300756059E+03  0.12500233070E+03 0.  0.
          2    1    1    2  501    0  0.10543540405E+03  0.50422185100E+01  0.75524510722E+02  0.12979214196E+03  0.00000000000E+00 0. -1.
          1    1    1    2  502    0  0.20066445102E+02 -0.73731637081E+01  0.40698804132E+03  0.40754912776E+03  0.00000000000E+00 0. -1.
         22    1    3    3    0    0  0.25897545752E+01 -0.41102984721E+02  0.18851006758E+03  0.19295649189E+03  0.00000000000E+00 0.  1.
         22    1    3    3    0    0 -0.12809160373E+03  0.43433929919E+02  0.76823544865E+03  0.78005106870E+03  0.00000000000E+00 0.  1.
</event>
<event>
 7    1  0.6173324E-006  0.5141972E+02  0.7818608E-02  0.1477932E+00
          2   -1    0    0  502    0  0.00000000000E+00  0.00000000000E+00  0.59999592725E+03  0.59999592725E+03  0.00000000000E+00 0. -1.
          1   -1    0    0  501    0 -0.00000000000E+00 -0.00000000000E+00 -0.84313669998E+03  0.84313669998E+03  0.00000000000E+00 0. -1.
         25    2    1    2    0    0 -0.96278897814E+01 -0.87962010654E+02  0.15972540847E+03  0.22128716492E+03  0.12500316663E+03 0.  0.
          2    1    1    2  501    0  0.12619455797E+02  0.49688355304E+02 -0.81064453296E+03  0.81226396087E+03  0.00000000000E+00 0. -1.
          1    1    1    2  502    0 -0.29915660158E+01  0.38273655351E+02  0.40777835176E+03  0.40958150144E+03  0.00000000000E+00 0. -1.
         22    1    3    3    0    0  0.32116011447E+02  0.13038094014E+02  0.76278817161E+02  0.83784772091E+02  0.00000000000E+00 0.  1.
         22    1    3    3    0    0 -0.41743901228E+02 -0.10100010467E+03  0.83446591311E+02  0.13750239283E+03  0.00000000000E+00 0.  1.
</event>
<event>
 7    1  0.6173324E-006  0.3730111E+02  0.7818608E-02  0.1572542E+00
          2   -1    0    0  502    0  0.00000000000E+00  0.00000000000E+00  0.16096366320E+04  0.16096366320E+04  0.00000000000E+00 0. -1.
          1   -1    0    0  501    0 -0.00000000000E+00 -0.00000000000E+00 -0.17190085375E+03  0.17190085375E+03  0.00000000000E+00 0. -1.
         25    2    1    2    0    0 -0.33583620815E+02  0.34502492738E+01  0.87709422805E+03  0.88659964910E+03  0.12499955646E+03 0.  0.
          2    1    1    2  501    0  0.92835188598E+01  0.26649238100E+02 -0.16543846240E+03  0.16782803834E+03  0.00000000000E+00 0. -1.
          1    1    1    2  502    0  0.24300101956E+02 -0.30099487374E+02  0.72608001259E+03  0.72710979830E+03  0.00000000000E+00 0. -1.
         22    1    3    3    0    0  0.27461051760E+02  0.28362616404E+02  0.11360860931E+03  0.12027245521E+03  0.00000000000E+00 0.  1.
         22    1    3    3    0    0 -0.61044672576E+02 -0.24912367130E+02  0.76348561874E+03  0.76632719390E+03  0.00000000000E+00 0.  1.
</event>
<event>
 7    1  0.6173324E-006  0.1094417E+03  0.7818608E-02  0.1278307E+00
          2   -1    0    0  502    0  0.00000000000E+00  0.00000000000E+00  0.93694015591E+03  0.93694015591E+03  0.00000000000E+00 0. -1.
          1   -1    0    0  501    0 -0.00000000000E+00 -0.00000000000E+00 -0.21027033335E+03  0.21027033335E+03  0.00000000000E+00 0. -1.
         25    2    1    2    0    0 -0.42519294101E+02 -0.19150139839E+03  0.35485872609E+02  0.23529748054E+03  0.12499992495E+03 0.  0.
          2    1    1    2  501    0  0.20626998890E+01  0.93098110093E+02 -0.86432600245E+02  0.12705159274E+03  0.00000000000E+00 0. -1.
          1    1    1    2  502    0  0.40456594212E+02  0.98403288300E+02  0.77761655019E+03  0.78486141598E+03  0.00000000000E+00 0. -1.
         22    1    3    3    0    0  0.38814998058E+02 -0.10214907954E+03  0.34067634853E+02  0.11446240548E+03  0.00000000000E+00 0.  1.
         22    1    3    3    0    0 -0.81334292158E+02 -0.89352318854E+02  0.14182377558E+01  0.12083507506E+03  0.00000000000E+00 0.  1.
</event>
<event>
 7    1  0.6173324E-006  0.2643867E+02  0.7818608E-02  0.1675586E+00
          2   -1    0    0  502    0  0.00000000000E+00  0.00000000000E+00  0.56120515469E+03  0.56120515469E+03  0.00000000000E+00 0. -1.
          1   -1    0    0  501    0 -0.00000000000E+00 -0.00000000000E+00 -0.15406383918E+03  0.15406383918E+03  0.00000000000E+00 0. -1.
         25    2    1    2    0    0 -0.12953137372E+01  0.14113250949E+02  0.16096072573E+02  0.12682415141E+03  0.12499768053E+03 0.  0.
          2    1    1    2  501    0  0.23103975088E+02 -0.13782158426E+02 -0.96618313032E+02  0.10029376835E+03  0.00000000000E+00 0. -1.
          1    1    1    2  502    0 -0.21808661350E+02 -0.33109252281E+00  0.48766355598E+03  0.48815107412E+03  0.00000000000E+00 0. -1.
         22    1    3    3    0    0  0.25123002442E+02 -0.29243323389E+02 -0.36947066028E+02  0.53398716301E+02  0.00000000000E+00 0.  1.
         22    1    3    3    0    0 -0.26418316179E+02  0.43356574337E+02  0.53043138601E+02  0.73425435107E+02  0.00000000000E+00 0.  1.
</event>
<event>
 7    1  0.6173324E-006  0.1118406E+03  0.7818608E-02  0.1271274E+00
          2   -1    0    0  502    0  0.00000000000E+00  0.00000000000E+00  0.43250312547E+02  0.43250312547E+02  0.00000000000E+00 0. -1.
          1   -1    0    0  501    0 -0.00000000000E+00 -0.00000000000E+00 -0.24586481315E+04  0.24586481315E+04  0.00000000000E+00 0. -1.
         25    2    1    2    0    0  0.82300349874E+02 -0.17334024599E+03 -0.41998647806E+03  0.47835230818E+03  0.12494839140E+03 0.  0.
          2    1    1    2  501    0 -0.76740902725E+02  0.76014372686E+02 -0.18172574082E+04  0.18204647315E+04  0.00000000000E+00 0. -1.
          1    1    1    2  502    0 -0.55594471487E+01  0.97325873307E+02 -0.17815393276E+03  0.20308140443E+03  0.00000000000E+00 0. -1.
         22    1    3    3    0    0  0.44184413921E+02 -0.13450224922E+03 -0.39277504542E+03  0.41751090260E+03  0.00000000000E+00 0.  1.
         22    1    3    3    0    0  0.38115935953E+02 -0.38837996773E+02 -0.27211432638E+02  0.60841405582E+02  0.00000000000E+00 0.  1.
</event>
<event>
 7    1  0.6173324E-006  0.3970852E+02  0.7818608E-02  0.1585467E+00
          2   -1    0    0  502    0  0.00000000000E+00  0.00000000000E+00  0.70659159314E+03  0.70659159314E+03  0.00000000000E+00 0. -1.
          1   -1    0    0  501    0 -0.00000000000E+00 -0.00000000000E+00 -0.16519531987E+04  0.16519531987E+04  0.00000000000E+00 0. -1.
         25    2    1    2    0    0  0.47204583740E+02 -0.39271081120E+02  0.17833286174E+03  0.22627039376E+03  0.12500076390E+03 0.  0.
          2    1    1    2  501    0 -0.35471714022E+02  0.17793714757E+02 -0.16274454831E+04  0.16279292549E+04  0.00000000000E+00 0. -1.
          1    1    1    2  502    0 -0.11732869717E+02  0.21477366363E+02  0.50375101577E+03  0.50434514312E+03  0.00000000000E+00 0. -1.
         22    1    3    3    0    0  0.56052512622E+02  0.16981687003E+02  0.15322380812E+03  0.16403596325E+03  0.00000000000E+00 0.  1.
         22    1    3    3    0    0 -0.88479288819E+01 -0.56252768123E+02  0.25109053628E+02  0.62234430512E+02  0.00000000000E+00 0.  1.
</event>
<event>
 7    1  0.6173324E-006  0.4273318E+02  0.7818608E-02  0.1522429E+00
          2   -1    0    0  502    0  0.00000000000E+00  0.00000000000E+00  0.24210123333E+04  0.24210123333E+04  0.00000000000E+00 0. -1.
          1   -1    0    0  501    0 -0.00000000000E+00 -0.00000000000E+00 -0.56972333348E+03  0.56972333348E+03  0.00000000000E+00 0. -1.
         25    2    1    2    0    0  0.69245804751E+02 -0.32427109980E+02  0.22125646513E+02  0.14819368761E+03  0.12500130350E+03 0.  0.
          2    1    1    2  501    0 -0.29572873467E+02  0.16827844123E+02 -0.50592332411E+03  0.50706620974E+03  0.00000000000E+00 0. -1.
          1    1    1    2  502    0 -0.39672931284E+02  0.15599265857E+02  0.23350866774E+04  0.23354757694E+04  0.00000000000E+00 0. -1.
         22    1    3    3    0    0  0.10452050305E+03 -0.24212443754E+02  0.29417824922E+02  0.11124830972E+03  0.00000000000E+00 0. -1.
         22    1    3    3    0    0 -0.35274698303E+02 -0.82146662261E+01 -0.72921784084E+01  0.36945377892E+02  0.00000000000E+00 0. -1.
</event>
<event>
 7    1  0.6173324E-006  0.2106584E+03  0.7818608E-02  0.1225750E+00
          2   -1    0    0  502    0  0.00000000000E+00  0.00000000000E+00  0.46992883624E+03  0.46992883624E+03  0.00000000000E+00 0. -1.
          1   -1    0    0  501    0 -0.00000000000E+00 -0.00000000000E+00 -0.33984427539E+04  0.33984427539E+04  0.00000000000E+00 0. -1.
         25    2    1    2    0    0  0.69952979294E+02 -0.12785583798E+03 -0.93937029392E+03  0.95879188185E+03  0.12499915596E+03 0.  0.
          2    1    1    2  501    0  0.77787418574E+02 -0.24842030700E+02 -0.24241144138E+04  0.24254893733E+04  0.00000000000E+00 0. -1.
          1    1    1    2  502    0 -0.14774039787E+03  0.15269786868E+03  0.43497079002E+03  0.48409033499E+03  0.00000000000E+00 0. -1.
         22    1    3    3    0    0 -0.18790071147E+02 -0.11246444334E+02 -0.37726239684E+03  0.37789742703E+03  0.00000000000E+00 0. -1.
         22    1    3    3    0    0  0.88743050441E+02 -0.11660939365E+03 -0.56210789708E+03  0.58089445482E+03  0.00000000000E+00 0. -1.
</event>
<event>
 7    1  0.6173324E-006  0.3485852E+02  0.7818608E-02  0.1556999E+00
          2   -1    0    0  502    0  0.00000000000E+00  0.00000000000E+00  0.11017710522E+04  0.11017710522E+04  0.00000000000E+00 0. -1.
          1   -1    0    0  501    0 -0.00000000000E+00 -0.00000000000E+00 -0.13850991088E+03  0.13850991088E+03  0.00000000000E+00 0. -1.
         25    2    1    2    0    0  0.56204324255E+02  0.30391987119E+02  0.13475404752E+02  0.14103071957E+03  0.12500191352E+03 0.  0.
          2    1    1    2  501    0 -0.21865625661E+02 -0.25119682446E+02 -0.70711671400E+02  0.78161656225E+02  0.00000000000E+00 0. -1.
          1    1    1    2  502    0 -0.34338698594E+02 -0.52723046729E+01  0.10204974079E+04  0.10210885872E+04  0.00000000000E+00 0. -1.
         22    1    3    3    0    0  0.99192335562E+01  0.74117968779E+02  0.18889880742E+02  0.77127764681E+02  0.00000000000E+00 0.  1.
         22    1    3    3    0    0  0.46285090699E+02 -0.43725981660E+02 -0.54144759893E+01  0.63902954888E+02  0.00000000000E+00 0.  1.
</event>
<event>
 7    1  0.6173324E-006  0.8963265E+02  0.7818608E-02  0.1365819E+00
          2   -1    0    0  502    0  0.00000000000E+00  0.00000000000E+00  0.62468008736E+03  0.62468008736E+03  0.00000000000E+00 0. -1.
          1   -1    0    0  501    0 -0.00000000000E+00 -0.00000000000E+00 -0.19811194571E+03  0.19811194571E+03  0.00000000000E+00 0. -1.
         25    2    1    2    0    0  0.96811212202E+02  0.74980361391E+02 -0.88689114337E+02  0.19617755315E+03  0.12500163182E+03 0.  0.
          2    1    1    2  501    0 -0.52072517971E+02  0.19933811279E+01 -0.39103107760E+02  0.65150393188E+02  0.00000000000E+00 0. -1.
          1    1    1    2  502    0 -0.44738694231E+02 -0.76973742519E+02  0.55436036375E+03  0.56146408674E+03  0.00000000000E+00 0. -1.
         22    1    3    3    0    0  0.11492259500E+03  0.23715423726E+02 -0.77617615772E+02  0.14069157203E+03  0.00000000000E+00 0.  1.
         22    1    3    3    0    0 -0.18111382794E+02  0.51264937665E+02 -0.11071498566E+02  0.55485981121E+02  0.00000000000E+00 0.  1.
</event>
<event>
 7    1  0.6173324E-006  0.5301040E+02  0.7818608E-02  0.1480931E+00
          2   -1    0    0  502    0  0.00000000000E+00  0.00000000000E+00  0.80963754922E+02  0.80963754922E+02  0.00000000000E+00 0. -1.
          1   -1    0    0  501    0 -0.00000000000E+00 -0.00000000000E+00 -0.83036766774E+03  0.83036766774E+03  0.00000000000E+00 0. -1.
         25    2    1    2    0    0 -0.66258651056E+02 -0.54917194921E+02 -0.10680573595E+03  0.18557586635E+03  0.12499931920E+03 0.  0.
          2    1    1    2  501    0  0.28680298405E+02  0.22506944817E+02 -0.66869476104E+03  0.66968784185E+03  0.00000000000E+00 0. -1.
          1    1    1    2  502    0  0.37578352651E+02  0.32410250104E+02  0.26096584172E+02  0.56067714464E+02  0.00000000000E+00 0. -1.
         22    1    3    3    0    0 -0.50525775467E+01 -0.83363470454E+02 -0.68172339577E+02  0.10780753512E+03  0.00000000000E+00 0. -1.
         22    1    3    3    0    0 -0.61206073509E+02  0.28446275533E+02 -0.38633396377E+02  0.77768331226E+02  0.00000000000E+00 0. -1.
</event>
<event>
 7    1  0.6173324E-006  0.1599304E+03  0.7818608E-02  0.1189767E+00
          2   -1    0    0  502    0  0.00000000000E+00  0.00000000000E+00  0.24839834747E+04  0.24839834747E+04  0.00000000000E+00 0. -1.
          1   -1    0    0  501    0 -0.00000000000E+00 -0.00000000000E+00 -0.18477952357E+04  0.18477952357E+04  0.00000000000E+00 0. -1.
         25    2    1    2    0    0  0.72486894158E+02  0.24039483129E+03 -0.10710436740E+03  0.30023615009E+03  0.12500550215E+03 0.  0.
          2    1    1    2  501    0 -0.12846272396E+03 -0.92443971850E+02 -0.16376856220E+04  0.16453153971E+04  0.00000000000E+00 0. -1.
          1    1    1    2  502    0  0.55975829798E+02 -0.14795085944E+03  0.23809782284E+04  0.23862271632E+04  0.00000000000E+00 0. -1.
         22    1    3    3    0    0 -0.12539344124E+02  0.10494852163E+03  0.35650615842E+01  0.10575508030E+03  0.00000000000E+00 0. -1.
         22    1    3    3    0    0  0.85026238281E+02  0.13544630965E+03 -0.11066942899E+03  0.19448106979E+03  0.00000000000E+00 0. -1.
</event>
<event>
 7    1  0.6173324E-006  0.1800149E+03  0.7818608E-02  0.1334749E+00
          2   -1    0    0  502    0  0.00000000000E+00  0.00000000000E+00  0.12443157133E+04  0.12443157133E+04  0.00000000000E+00 0. -1.
          1   -1    0    0  501    0 -0.00000000000E+00 -0.00000000000E+00 -0.48868306988E+03  0.48868306988E+03  0.00000000000E+00 0. -1.
         25    2    1    2    0    0 -0.16001247359E+03  0.59624231862E+02 -0.13903697871E+03  0.25322088452E+03  0.12502197478E+03 0.  0.
          2    1    1    2  501    0  0.18246268706E+03 -0.34330841793E+02 -0.26282512107E+03  0.32178919052E+03  0.00000000000E+00 0. -1.
          1    1    1    2  502    0 -0.22450213470E+02 -0.25293390070E+02  0.11574947432E+04  0.11579887082E+04  0.00000000000E+00 0. -1.
         22    1    3    3    0    0 -0.13763966567E+03  0.68669585751E+02 -0.51179805199E+02  0.16210972220E+03  0.00000000000E+00 0. -1.
         22    1    3    3    0    0 -0.22372807921E+02 -0.90453538884E+01 -0.87857173513E+02  0.91111162318E+02  0.00000000000E+00 0. -1.
</event>
<event>
 7    1  0.6173324E-006  0.5442600E+02  0.7818608E-02  0.1424486E+00
          2   -1    0    0  502    0  0.00000000000E+00  0.00000000000E+00  0.27729114510E+02  0.27729114510E+02  0.00000000000E+00 0. -1.
          1   -1    0    0  501    0 -0.00000000000E+00 -0.00000000000E+00 -0.92982484420E+03  0.92982484420E+03  0.00000000000E+00 0. -1.
         25    2    1    2    0    0 -0.10441199711E+02 -0.50511705817E+02 -0.24068412124E+03  0.27606890907E+03  0.12499898105E+03 0.  0.
          2    1    1    2  501    0 -0.47390688828E+02  0.25343987737E+02 -0.55639419612E+03  0.55898362818E+03  0.00000000000E+00 0. -1.
          1    1    1    2  502    0  0.57831888539E+02  0.25167718080E+02 -0.10501741233E+03  0.12250142146E+03  0.00000000000E+00 0. -1.
         22    1    3    3    0    0  0.19570865417E+02 -0.83374505837E+02 -0.19126970973E+03  0.20956724185E+03  0.00000000000E+00 0.  1.
         22    1    3    3    0    0 -0.30012065128E+02  0.32862800020E+02 -0.49414411505E+02  0.66501667218E+02  0.00000000000E+00 0.  1.
</event>
<event>
 7    1  0.6173324E-006  0.7858198E+02  0.7818608E-02  0.1353136E+00
          2   -1    0    0  502    0  0.00000000000E+00  0.00000000000E+00  0.12394497422E+03  0.12394497422E+03  0.00000000000E+00 0. -1.
          1   -1    0    0  501    0 -0.00000000000E+00 -0.00000000000E+00 -0.50936036321E+03  0.50936036321E+03  0.00000000000E+00 0. -1.
         25    2    1    2    0    0 -0.67619298339E+02 -0.54509030555E+02 -0.16576742749E+02  0.15311177557E+03  0.12499929398E+03 0.  0.
          2    1    1    2  501    0  0.59924502613E+02 -0.27966194892E+02 -0.38929493697E+03  0.39487162727E+03  0.00000000000E+00 0. -1.
          1    1    1    2  502    0  0.76947957266E+01  0.82475225447E+02  0.20456290732E+02  0.85321934603E+02  0.00000000000E+00 0. -1.
         22    1    3    3    0    0 -0.10278656923E+03 -0.53598463176E+02 -0.20479250708E+02  0.11771692222E+03  0.00000000000E+00 0.  1.
         22    1    3    3    0    0  0.35167270888E+02 -0.91056737905E+00  0.39025079591E+01  0.35394853341E+02  0.00000000000E+00 0.  1.
</event>
<event>
 7    1  0.6173324E-006  0.1315559E+03  0.7818608E-02  0.1388467E+00
          2   -1    0    0  502    0  0.00000000000E+00  0.00000000000E+00  0.18241286100E+04  0.18241286100E+04  0.00000000000E+00 0. -1.
          1   -1    0    0  501    0 -0.00000000000E+00 -0.00000000000E+00 -0.28029942200E+03  0.28029942200E+03  0.00000000000E+00 0. -1.
         25    2    1    2    0    0  0.34094156881E+02 -0.10224473901E+03  0.18593187448E+03  0.24862154074E+03  0.12500244153E+03 0.  0.
          2    1    1    2  501    0 -0.57024300996E+02  0.12079329778E+03 -0.23089015620E+03  0.26674530159E+03  0.00000000000E+00 0. -1.
          1    1    1    2  502    0  0.22930144115E+02 -0.18548558768E+02  0.15887874697E+04  0.15890611896E+04  0.00000000000E+00 0. -1.
         22    1    3    3    0    0  0.10940363316E+02  0.29250221455E+02  0.29535354120E+02  0.42983766094E+02  0.00000000000E+00 0. -1.
         22    1    3    3    0    0  0.23153793565E+02 -0.13149496046E+03  0.15639652036E+03  0.20563777465E+03  0.00000000000E+00 0. -1.
</event>
<event>
 7    1  0.6173324E-006  0.9230484E+02  0.7818608E-02  0.1365873E+00
          2   -1    0    0  502    0  0.00000000000E+00  0.00000000000E+00  0.14846061608E+04  0.14846061608E+04  0.00000000000E+00 0. -1.
          1   -1    0    0  501    0 -0.00000000000E+00 -0.00000000000E+00 -0.47378853007E+03  0.47378853007E+03  0.00000000000E+00 0. -1.
         25    2    1    2    0    0  0.30789452882E+02  0.10137037902E+03 -0.12679276560E+02  0.16434553073E+03  0.12499898105E+03 0.  0.
          2    1    1    2  501    0 -0.49374465055E+02 -0.10973710361E+02 -0.38209635890E+03  0.38542948461E+03  0.00000000000E+00 0. -1.
          1    1    1    2  502    0  0.18585012173E+02 -0.90396668657E+02  0.14055932662E+04  0.14086196755E+04  0.00000000000E+00 0. -1.
         22    1    3    3    0    0 -0.37069827461E+02  0.51342648813E+02  0.29747058118E+02  0.69965185355E+02  0.00000000000E+00 0. -1.
         22    1    3    3    0    0  0.67859280343E+02  0.50027730205E+02 -0.42426334678E+02  0.94380345371E+02  0.00000000000E+00 0. -1.
</event>
<event>
 7    1  0.6173324E-006  0.3459458E+03  0.7818608E-02  0.1223570E+00
          2   -1    0    0  502    0  0.00000000000E+00  0.00000000000E+00  0.12810174450E+04  0.12810174450E+04  0.00000000000E+00 0. -1.
          1   -1    0    0  501    0 -0.00000000000E+00 -0.00000000000E+00 -0.45089826941E+03  0.45089826941E+03  0.00000000000E+00 0. -1.
         25    2    1    2    0    0  0.51872908754E+02  0.35740835557E+03  0.54384792724E+03  0.66469939490E+03  0.12499274510E+03 0.  0.
          2    1    1    2  501    0 -0.95316428116E+02 -0.33094970334E+03 -0.31324355412E+03  0.46554747535E+03  0.00000000000E+00 0. -1.
          1    1    1    2  502    0  0.43443519362E+02 -0.26458652227E+02  0.59951480245E+03  0.60166884414E+03  0.00000000000E+00 0. -1.
         22    1    3    3    0    0  0.66272772888E+02  0.34102830488E+03  0.54066405083E+03  0.64265854154E+03  0.00000000000E+00 0.  1.
         22    1    3    3    0    0 -0.14399864134E+02  0.16380050691E+02  0.31838764029E+01  0.22040853357E+02  0.00000000000E+00 0.  1.
</event>
<event>
 7    1  0.6173324E-006  0.6677090E+02  0.7818608E-02  0.1413766E+00
          2   -1    0    0  502    0  0.00000000000E+00  0.00000000000E+00  0.17889200257E+04  0.17889200257E+04  0.00000000000E+00 0. -1.
          1   -1    0    0  501    0 -0.00000000000E+00 -0.00000000000E+00 -0.80879008337E+02  0.80879008337E+02  0.00000000000E+00 0. -1.
         25    2    1    2    0    0  0.23102303317E+02  0.19966233456E+02  0.90403953429E+02  0.15726541385E+03  0.12500867450E+03 0.  0.
          2    1    1    2  501    0 -0.40952696593E+02 -0.64066210442E+02 -0.16415487149E+02  0.77788629612E+02  0.00000000000E+00 0. -1.
          1    1    1    2  502    0  0.17850393276E+02  0.44099976986E+02  0.16340525510E+04  0.16347449905E+04  0.00000000000E+00 0. -1.
         22    1    3    3    0    0 -0.39119100065E+01 -0.49260507776E+02  0.58000844524E+02  0.76197103828E+02  0.00000000000E+00 0.  1.
         22    1    3    3    0    0  0.27014213323E+02  0.69226741232E+02  0.32403108904E+02  0.81068310021E+02  0.00000000000E+00 0.  1.
</event>
<event>
 7    1  0.6173324E-006  0.6930113E+02  0.7818608E-02  0.1453525E+00
          2   -1    0    0  502    0  0.00000000000E+00  0.00000000000E+00  0.10523566253E+04  0.10523566253E+04  0.00000000000E+00 0. -1.
          1   -1    0    0  501    0 -0.00000000000E+00 -0.00000000000E+00 -0.20194305657E+04  0.20194305657E+04  0.00000000000E+00 0. -1.
         25    2    1    2    0    0  0.93933558185E+02 -0.41145150769E+02 -0.82661140132E+02  0.18158762442E+03  0.12499905787E+03 0.  0.
          2    1    1    2  501    0 -0.64467732458E+02  0.24257405054E+02 -0.18863899050E+04  0.18876470497E+04  0.00000000000E+00 0. -1.
          1    1    1    2  502    0 -0.29465825727E+02  0.16887745714E+02  0.10019771047E+04  0.10025525169E+04  0.00000000000E+00 0. -1.
         22    1    3    3    0    0  0.78497044583E+02 -0.83635761748E+02 -0.71004343180E+02  0.13490123573E+03  0.00000000000E+00 0.  1.
         22    1    3    3    0    0  0.15436513602E+02  0.42490610979E+02 -0.11656796953E+02  0.46686388688E+02  0.00000000000E+00 0.  1.
</event>
<event>
 7    1  0.6173324E-006  0.3385322E+02  0.7818608E-02  0.1571568E+00
          2   -1    0    0  502    0  0.00000000000E+00  0.00000000000E+00  0.50109556660E+03  0.50109556660E+03  0.00000000000E+00 0. -1.
          1   -1    0    0  501    0 -0.00000000000E+00 -0.00000000000E+00 -0.66231806402E+03  0.66231806402E+03  0.00000000000E+00 0. -1.
         25    2    1    2    0    0 -0.29290799531E+02 -0.67486034378E+01  0.15918490295E+03  0.20461720446E+03  0.12499948979E+03 0.  0.
          2    1    1    2  501    0  0.10939338979E+02  0.32084015069E+02 -0.63838465711E+03  0.63928399291E+03  0.00000000000E+00 0. -1.
          1    1    1    2  502    0  0.18351460552E+02 -0.25335411632E+02  0.31797725675E+03  0.31951243325E+03  0.00000000000E+00 0. -1.
         22    1    3    3    0    0 -0.21641524465E+01  0.49273120516E+02  0.22065401123E+02  0.54031526796E+02  0.00000000000E+00 0. -1.
         22    1    3    3    0    0 -0.27126647085E+02 -0.56021723953E+02  0.13711950183E+03  0.15058567766E+03  0.00000000000E+00 0. -1.
</event>
<event>
 7    1  0.6173324E-006  0.1307679E+03  0.7818608E-02  0.1412186E+00
          2   -1    0    0  502    0  0.00000000000E+00  0.00000000000E+00  0.55366785436E+03  0.55366785436E+03  0.00000000000E+00 0. -1.
          1   -1    0    0  501    0 -0.00000000000E+00 -0.00000000000E+00 -0.60681481726E+03  0.60681481726E+03  0.00000000000E+00 0. -1.
         25    2    1    2    0    0  0.12923702463E+02 -0.10652860178E+03  0.11840826956E+03  0.20288138633E+03  0.12499989414E+03 0.  0.
          2    1    1    2  501    0 -0.16592967334E+02  0.13084566573E+03 -0.55647744835E+03  0.57189427811E+03  0.00000000000E+00 0. -1.
          1    1    1    2  502    0  0.36692648709E+01 -0.24317063948E+02  0.38492221589E+03  0.38570700718E+03  0.00000000000E+00 0. -1.
         22    1    3    3    0    0 -0.43059151982E+02 -0.39164541261E+02  0.96333424644E+02  0.11255256801E+03  0.00000000000E+00 0. -1.
         22    1    3    3    0    0  0.55982854445E+02 -0.67364060516E+02  0.22074844917E+02  0.90328818320E+02  0.00000000000E+00 0. -1.
</event>
<event>
 7    1  0.6173324E-006  0.1052013E+03  0.7818608E-02  0.1315075E+00
          2   -1    0    0  502    0  0.00000000000E+00  0.00000000000E+00  0.11560795264E+04  0.11560795264E+04  0.00000000000E+00 0. -1.
          1   -1    0    0  501    0 -0.00000000000E+00 -0.00000000000E+00 -0.31375586054E+04  0.31375586054E+04  0.00000000000E+00 0. -1.
         25    2    1    2    0    0  0.22719642932E+02 -0.97772359176E+02 -0.10893200570E+04  0.11010534016E+04  0.12499916102E+03 0.  0.
          2    1    1    2  501    0  0.46112132026E+02  0.10082034755E+03 -0.20398334651E+04  0.20428440069E+04  0.00000000000E+00 0. -1.
          1    1    1    2  502    0 -0.68831774958E+02 -0.30479883784E+01  0.11476744431E+04  0.11497407233E+04  0.00000000000E+00 0. -1.
         22    1    3    3    0    0  0.30427946884E+02  0.22672211840E+02 -0.33449263485E+03  0.33663810229E+03  0.00000000000E+00 0.  1.
         22    1    3    3    0    0 -0.77083039523E+01 -0.12044457102E+03 -0.75482742212E+03  0.76441529931E+03  0.00000000000E+00 0.  1.
</event>
<event>
 7    1  0.6173324E-006  0.2117394E+03  0.7818608E-02  0.1267340E+00
          2   -1    0    0  502    0  0.00000000000E+00  0.00000000000E+00  0.10940576362E+04  0.10940576362E+04  0.00000000000E+00 0. -1.
          1   -1    0    0  501    0 -0.00000000000E+00 -0.00000000000E+00 -0.16578365470E+04  0.16578365470E+04  0.00000000000E+00 0. -1.
         25    2    1    2    0    0  0.14174819778E+03 -0.72754214859E+02 -0.49504719946E+03  0.53486722078E+03  0.12500194725E+03 0.  0.
          2    1    1    2  501    0  0.47146678965E+02 -0.25266496369E+02 -0.11317006669E+04  0.11329640791E+04  0.00000000000E+00 0. -1.
          1    1    1    2  502    0 -0.18889487675E+03  0.98020711227E+02  0.10629689556E+04  0.10840628833E+04  0.00000000000E+00 0. -1.
         22    1    3    3    0    0  0.48876787792E+02 -0.54411193880E+02 -0.76859218504E+02  0.10609834058E+03  0.00000000000E+00 0.  1.
         22    1    3    3    0    0  0.92871409990E+02 -0.18343020979E+02 -0.41818798096E+03  0.42876888020E+03  0.00000000000E+00 0.  1.
</event>
<event>
 7    1  0.6173324E-006  0.7043060E+02  0.7818608E-02  0.1375976E+00
          2   -1    0    0  502    0  0.00000000000E+00  0.00000000000E+00  0.14285277201E+04  0.14285277201E+04  0.00000000000E+00 0. -1.
          1   -1    0    0  501    0 -0.00000000000E+00 -0.00000000000E+00 -0.94587209030E+02  0.94587209030E+02  0.00000000000E+00 0. -1.
         25    2    1    2    0    0 -0.10975426881E+02  0.64868121940E+02  0.38444174092E+03  0.40957088023E+03  0.12499808209E+03 0.  0.
          2    1    1    2  501    0  0.63279010166E+02 -0.33522671809E+02 -0.65301273933E+02  0.96913667922E+02  0.00000000000E+00 0. -1.
          1    1    1    2  502    0 -0.52303583285E+02 -0.31345450132E+02  0.10148000441E+04  0.10166303810E+04  0.00000000000E+00 0. -1.
         22    1    3    3    0    0 -0.85749143297E+01 -0.20259336277E+02  0.24635468984E+03  0.24733500171E+03  0.00000000000E+00 0.  1.
         22    1    3    3    0    0 -0.24005125517E+01  0.85127458217E+02  0.13808705108E+03  0.16223587852E+03  0.00000000000E+00 0.  1.
</event>
<event>
 7    1  0.6173324E-006  0.1092159E+03  0.7818608E-02  0.1308608E+00
          2   -1    0    0  502    0  0.00000000000E+00  0.00000000000E+00  0.27524507924E+03  0.27524507924E+03  0.00000000000E+00 0. -1.
          1   -1    0    0  501    0 -0.00000000000E+00 -0.00000000000E+00 -0.22794239444E+04  0.22794239444E+04  0.00000000000E+00 0. -1.
         25    2    1    2    0    0 -0.54483469912E+02  0.27289283226E+02 -0.44910957078E+02  0.14612039799E+03  0.12498409167E+03 0.  0.
          2    1    1    2  501    0  0.52537444107E+02 -0.97627913014E+02 -0.21769525612E+04  0.21797738061E+04  0.00000000000E+00 0. -1.
          1    1    1    2  502    0  0.19460258049E+01  0.70338629788E+02  0.21768465307E+03  0.22877481951E+03  0.00000000000E+00 0. -1.
         22    1    3    3    0    0 -0.44753038646E+02  0.57971306402E+02  0.18033311311E+02  0.75423518552E+02  0.00000000000E+00 0. -1.
         22    1    3    3    0    0 -0.97304312659E+01 -0.30682023176E+02 -0.62944268389E+02  0.70696879435E+02  0.00000000000E+00 0. -1.
</event>
<event>
 7    1  0.6173324E-006  0.8660868E+02  0.7818608E-02  0.1333129E+00
          2   -1    0    0  502    0  0.00000000000E+00  0.00000000000E+00  0.30219710132E+03  0.30219710132E+03  0.00000000000E+00 0. -1.
          1   -1    0    0  501    0 -0.00000000000E+00 -0.00000000000E+00 -0.18248028853E+04  0.18248028853E+04  0.00000000000E+00 0. -1.
         25    2    1    2    0    0 -0.14757115104E+03 -0.49999599245E+02 -0.29023426385E+03  0.35232940118E+03  0.12499149764E+03 0.  0.
          2    1    1    2  501    0  0.64892571360E+02  0.29531545468E+02 -0.14959622192E+04  0.14976602149E+04  0.00000000000E+00 0. -1.
          1    1    1    2  502    0  0.82678579683E+02  0.20468053777E+02  0.26359069906E+03  0.27701037055E+03  0.00000000000E+00 0. -1.
         22    1    3    3    0    0 -0.15187229980E+03 -0.44327874084E+02 -0.30063693767E+03  0.33972448272E+03  0.00000000000E+00 0. -1.
         22    1    3    3    0    0  0.43011487574E+01 -0.56717251603E+01  0.10402673820E+02  0.12604918466E+02  0.00000000000E+00 0. -1.
</event>
<event>
 7    1  0.6173324E-006  0.1288271E+03  0.7818608E-02  0.1271985E+00
          2   -1    0    0  502    0  0.00000000000E+00  0.00000000000E+00  0.20474623503E+04  0.20474623503E+04  0.00000000000E+00 0. -1.
          1   -1    0    0  501    0 -0.00000000000E+00 -0.00000000000E+00 -0.58295388988E+02  0.58295388988E+02  0.00000000000E+00 0. -1.
         25    2    1    2    0    0 -0.11263061026E+03  0.15326995006E+03  0.33293598366E+03  0.40329734116E+03  0.12500017683E+03 0.  0.
          2    1    1    2  501    0  0.55188802863E+02 -0.91908419079E+02  0.10878104859E+03  0.15272942739E+03  0.00000000000E+00 0. -1.
          1    1    1    2  502    0  0.57441807397E+02 -0.61361530985E+02  0.15474499291E+04  0.15497309708E+04  0.00000000000E+00 0. -1.
         22    1    3    3    0    0 -0.76268711781E+02  0.72019695939E+01  0.12473264105E+03  0.14637969977E+03  0.00000000000E+00 0. -1.
         22    1    3    3    0    0 -0.36361898479E+02  0.14606798047E+03  0.20820334261E+03  0.25691764139E+03  0.00000000000E+00 0. -1.
</event>
<event>
 7    1  0.6173324E-006  0.3683950E+02  0.7818608E-02  0.1574642E+00
          2   -1    0    0  502    0  0.00000000000E+00  0.00000000000E+00  0.19672398371E+04  0.19672398371E+04  0.00000000000E+00 0. -1.
          1   -1    0    0  501    0 -0.00000000000E+00 -0.00000000000E+00 -0.27599994679E+03  0.27599994679E+03  0.00000000000E+00 0. -1.
         25    2    1    2    0    0 -0.10855198959E+02  0.78475071992E+01 -0.11611811837E+03  0.17113948704E+03  0.12500355154E+03 0.  0.
          2    1    1    2  501    0  0.39010209963E+02 -0.62150062758E+01 -0.12931913013E+03  0.13521782502E+03  0.00000000000E+00 0. -1.
          1    1    1    2  502    0 -0.28155011004E+02 -0.16325009234E+01  0.19366771388E+04  0.19368824718E+04  0.00000000000E+00 0. -1.
         22    1    3    3    0    0 -0.15937924695E+02  0.30304176950E+02  0.15455556813E+02  0.37566405479E+02  0.00000000000E+00 0.  1.
         22    1    3    3    0    0  0.50827257351E+01 -0.22456669751E+02 -0.13157367518E+03  0.13357308156E+03  0.00000000000E+00 0.  1.
</event>
<event>
 7    1  0.6173324E-006  0.4424192E+02  0.7818608E-02  0.1537907E+00
          2   -1    0    0  502    0  0.00000000000E+00  0.00000000000E+00  0.47488341111E+03  0.47488341111E+03  0.00000000000E+00 0. -1.
          1   -1    0    0  501    0 -0.00000000000E+00 -0.00000000000E+00 -0.88501977995E+03  0.88501977995E+03  0.00000000000E+00 0. -1.
         25    2    1    2    0    0  0.73651541873E+02  0.28642386241E+01  0.88095008070E+02  0.16979782950E+03  0.12505126538E+03 0.  0.
          2    1    1    2  501    0 -0.43980375397E+02 -0.33842061394E+01 -0.84295422273E+03  0.84410754521E+03  0.00000000000E+00 0. -1.
          1    1    1    2  502    0 -0.29671166476E+02  0.51996751534E+00  0.34472284582E+03  0.34599781634E+03  0.00000000000E+00 0. -1.
         22    1    3    3    0    0  0.11020562412E+02  0.67637670227E+01 -0.31880065358E+02  0.34402614834E+02  0.00000000000E+00 0. -1.
         22    1    3    3    0    0  0.62630979461E+02 -0.38995283987E+01  0.11997507343E+03  0.13539521466E+03  0.00000000000E+00 0. -1.
</event>
<event>
 7    1  0.6173324E-006  0.8125671E+02  0.7818608E-02  0.1397581E+00
          2   -1    0    0  502    0  0.00000000000E+00  0.00000000000E+00  0.17275771842E+04  0.17275771842E+04  0.00000000000E+00 0. -1.
          1   -1    0    0  501    0 -0.00000000000E+00 -0.00000000000E+00 -0.30968130496E+02  0.30968130496E+02  0.00000000000E+00 0. -1.
         25    2    1    2    0    0  0.23133336567E+02  0.58303401007E+02  0.47424931268E+03  0.49444104372E+03  0.12500038923E+03 0.  0.
          2    1    1    2  501    0  0.12157288823E+02 -0.85234138501E+02  0.70197452482E+02  0.11108708463E+03  0.00000000000E+00 0. -1.
          1    1    1    2  502    0 -0.35290625390E+02  0.26930737494E+02  0.11521622885E+04  0.11530171863E+04  0.00000000000E+00 0. -1.
         22    1    3    3    0    0  0.29128968288E+00 -0.37763958678E+02  0.18457064229E+03  0.18839459499E+03  0.00000000000E+00 0.  1.
         22    1    3    3    0    0  0.22842046884E+02  0.96067359685E+02  0.28967867039E+03  0.30604644873E+03  0.00000000000E+00 0.  1.
</event>
<event>
 7    1  0.6173324E-006  0.7537093E+02  0.7818608E-02  0.1366283E+00
          2   -1    0    0  502    0  0.00000000000E+00  0.00000000000E+00  0.12463054231E+03  0.12463054231E+03  0.00000000000E+00 0. -1.
          1   -1    0    0  501    0 -0.00000000000E+00 -0.00000000000E+00 -0.15273524897E+04  0.15273524897E+04  0.00000000000E+00 0. -1.
         25    2    1    2    0    0 -0.10950050496E+03 -0.59865219715E+02 -0.12350553820E+04  0.12476221394E+04  0.12500000385E+03 0.  0.
          2    1    1    2  501    0  0.61695534809E+02  0.21144118809E+01 -0.27030141102E+03  0.27726100078E+03  0.00000000000E+00 0. -1.
          1    1    1    2  502    0  0.47804970150E+02  0.57750807834E+02  0.10263484562E+03  0.12709989186E+03  0.00000000000E+00 0. -1.
         22    1    3    3    0    0 -0.95070801703E+01 -0.69672615670E+02 -0.35882395890E+03  0.36564913705E+03  0.00000000000E+00 0.  1.
         22    1    3    3    0    0 -0.99993424788E+02  0.98073959548E+01 -0.87623142313E+03  0.88197300236E+03  0.00000000000E+00 0.  1.
</event>
<event>
 7    1  0.6173324E-006  0.1512775E+03  0.7818608E-02  0.1288155E+00
          2   -1    0    0  502    0  0.00000000000E+00  0.00000000000E+00  0.26302152304E+03  0.26302152304E+03  0.00000000000E+00 0. -1.
          1   -1    0    0  501    0 -0.00000000000E+00 -0.00000000000E+00 -0.11991519766E+04  0.11991519766E+04  0.00000000000E+00 0. -1.
         25    2    1    2    0    0 -0.88524711244E+02 -0.98460572498E+02 -0.14795504135E+03  0.23461765748E+03  0.12499456829E+03 0.  0.
          2    1    1    2  501    0  0.50599090423E+02  0.14671096964E+03 -0.99745884106E+03  0.10094595169E+04  0.00000000000E+00 0. -1.
          1    1    1    2  502    0  0.37925620821E+02 -0.48250397139E+02  0.20928342883E+03  0.21809632533E+03  0.00000000000E+00 0. -1.
         22    1    3    3    0    0 -0.14399275290E+02 -0.30879472863E+02  0.19618439024E+02  0.39316206874E+02  0.00000000000E+00 0. -1.
         22    1    3    3    0    0 -0.74125435954E+02 -0.67581099635E+02 -0.16757348038E+03  0.19530145061E+03  0.00000000000E+00 0. -1.
</event>
<event>
 7    1  0.6173324E-006  0.8097990E+02  0.7818608E-02  0.1475285E+00
          2   -1    0    0  502    0  0.00000000000E+00  0.00000000000E+00  0.27067220203E+03  0.27067220203E+03  0.00000000000E+00 0. -1.
          1   -1    0    0  501    0 -0.00000000000E+00 -0.00000000000E+00 -0.51191494420E+03  0.51191494420E+03  0.00000000000E+00 0. -1.
         25    2    1    2    0    0 -0.18617299442E+02 -0.55350727821E+02 -0.13176827221E+03  0.19078328660E+03  0.12500031191E+03 0.  0.
          2    1    1    2  501    0  0.14218739143E+01 -0.24798177721E+02 -0.34321164738E+03  0.34410929403E+03  0.00000000000E+00 0. -1.
          1    1    1    2  502    0  0.17195425528E+02  0.80148905542E+02  0.23373717742E+03  0.24769456559E+03  0.00000000000E+00 0. -1.
         22    1    3    3    0    0 -0.70006111641E+02 -0.13554484064E+02 -0.60840953056E+02  0.93734738886E+02  0.00000000000E+00 0.  1.
         22    1    3    3    0    0  0.51388812199E+02 -0.41796243757E+02 -0.70927319154E+02  0.97048547716E+02  0.00000000000E+00 0.  1.
</event>
<event>
 7    1  0.6173324E-006  0.7871648E+02  0.7818608E-02  0.1385071E+00
          2   -1    0    0  502    0  0.00000000000E+00  0.00000000000E+00  0.10679238763E+04  0.10679238763E+04  0.00000000000E+00 0. -1.
          1   -1    0    0  501    0 -0.00000000000E+00 -0.00000000000E+00 -0.29455507990E+03  0.29455507990E+03  0.00000000000E+00 0. -1.
         25    2    1    2    0    0 -0.17048798295E+02  0.24980801036E+02  0.88948679420E+03  0.89873659069E+03  0.12500400172E+03 0.  0.
          2    1    1    2  501    0  0.24696680862E+02 -0.75060988749E+02 -0.28066320700E+03  0.29157488548E+03  0.00000000000E+00 0. -1.
          1    1    1    2  502    0 -0.76478825677E+01  0.50080187713E+02  0.16454520922E+03  0.17216748005E+03  0.00000000000E+00 0. -1.
         22    1    3    3    0    0 -0.21101951301E+02  0.40714957203E+02  0.87711936862E+03  0.87831736115E+03  0.00000000000E+00 0.  1.
         22    1    3    3    0    0  0.40531530067E+01 -0.15734156167E+02  0.12367425583E+02  0.20419229543E+02  0.00000000000E+00 0.  1.
</event>
<event>
 7    1  0.6173324E-006  0.1025072E+03  0.7818608E-02  0.1376097E+00
          2   -1    0    0  502    0  0.00000000000E+00  0.00000000000E+00  0.20690467025E+04  0.20690467025E+04  0.00000000000E+00 0. -1.
          1   -1    0    0  501    0 -0.00000000000E+00 -0.00000000000E+00 -0.16656452447E+04  0.16656452447E+04  0.00000000000E+00 0. -1.
         25    2    1    2    0    0  0.31445229754E+02  0.64845532296E+02  0.10269287187E+04  0.10370156702E+04  0.12500064607E+03 0.  0.
          2    1    1    2  501    0 -0.72605453937E+02 -0.72436264892E+02 -0.16585948828E+04  0.16617627838E+04  0.00000000000E+00 0. -1.
          1    1    1    2  502    0  0.41160224183E+02  0.75907325960E+01  0.10350676219E+04  0.10359134931E+04  0.00000000000E+00 0. -1.
         22    1    3    3    0    0 -0.45412473770E+02  0.22488003830E+02  0.24556151977E+03  0.25073584324E+03  0.00000000000E+00 0. -1.
         22    1    3    3    0    0  0.76857703524E+02  0.42357528466E+02  0.78136719889E+03  0.78627982698E+03  0.00000000000E+00 0. -1.
</event>
<event>
 7    1  0.6173324E-006  0.1401271E+03  0.7818608E-02  0.1315566E+00
          2   -1    0    0  502    0  0.00000000000E+00  0.00000000000E+00  0.71532708014E+03  0.71532708014E+03  0.00000000000E+00 0. -1.
          1   -1    0    0  501    0 -0.00000000000E+00 -0.00000000000E+00 -0.23002430629E+04  0.23002430629E+04  0.00000000000E+00 0. -1.
         25    2    1    2    0    0 -0.11087003978E+03 -0.15478487452E+03 -0.33261828257E+02  0.23017809789E+03  0.12500033770E+03 0.  0.
          2    1    1    2  501    0  0.83072412716E+02  0.11143278251E+03 -0.21652161416E+04  0.21696726091E+04  0.00000000000E+00 0. -1.
          1    1    1    2  502    0  0.27797627068E+02  0.43352092010E+02  0.61356198709E+03  0.61571943607E+03  0.00000000000E+00 0. -1.
         22    1    3    3    0    0  0.25691835535E+02 -0.17360048125E+02 -0.17966975505E+02  0.35836488289E+02  0.00000000000E+00 0. -1.
         22    1    3    3    0    0 -0.13656187532E+03 -0.13742482640E+03 -0.15294852752E+02  0.19434160960E+03  0.00000000000E+00 0. -1.
</event>
<event>
 7    1  0.6173324E-006  0.7521251E+02  0.7818608E-02  0.1460191E+00
          2   -1    0    0  502    0  0.00000000000E+00  0.00000000000E+00  0.10225610054E+04  0.10225610054E+04  0.00000000000E+00 0. -1.
          1   -1    0    0  501    0 -0.00000000000E+00 -0.00000000000E+00 -0.26267798364E+02  0.26267798364E+02  0.00000000000E+00 0. -1.
         25    2    1    2    0    0  0.46455177123E+02  0.17441139478E+02  0.63044392886E+03  0.64463003774E+03  0.12500424513E+03 0.  0.
          2    1    1    2  501    0 -0.70086298206E+02 -0.35608282951E+02  0.65360403434E+02  0.10223512776E+03  0.00000000000E+00 0. -1.
          1    1    1    2  502    0  0.23631121083E+02  0.18167143472E+02  0.30048887471E+03  0.30196363822E+03  0.00000000000E+00 0. -1.
         22    1    3    3    0    0  0.74637103226E+02  0.50737046016E+02  0.39495944809E+03  0.40513937188E+03  0.00000000000E+00 0. -1.
         22    1    3    3    0    0 -0.28181926103E+02 -0.33295906537E+02  0.23548448077E+03  0.23949066586E+03  0.00000000000E+00 0. -1.
</event>
<event>
 7    1  0.6173324E-006  0.1148970E+03  0.7818608E-02  0.1409908E+00
          2   -1    0    0  502    0  0.00000000000E+00  0.00000000000E+00  0.13744822700E+04  0.13744822700E+04  0.00000000000E+00 0. -1.
          1   -1    0    0  501    0 -0.00000000000E+00 -0.00000000000E+00 -0.29072451276E+03  0.29072451276E+03  0.00000000000E+00 0. -1.
         25    2    1    2    0    0  0.41501913498E+02  0.10629417205E+03 -0.12422550956E+03  0.20994001813E+03  0.12498789602E+03 0.  0.
          2    1    1    2  501    0 -0.14660724155E+02 -0.11584753609E+03 -0.95880624900E+02  0.15109163670E+03  0.00000000000E+00 0. -1.
          1    1    1    2  502    0 -0.26841189343E+02  0.95533640365E+01  0.13038638917E+04  0.13041751279E+04  0.00000000000E+00 0. -1.
         22    1    3    3    0    0  0.82736226169E+02  0.41819340814E+02 -0.68812520823E+02  0.11545260243E+03  0.00000000000E+00 0.  1.
         22    1    3    3    0    0 -0.41234312670E+02  0.64474831235E+02 -0.55412988741E+02  0.94487415699E+02  0.00000000000E+00 0.  1.
</event>
<event>
 7    1  0.6173324E-006  0.8137061E+02  0.7818608E-02  0.1376280E+00
          2   -1    0    0  502    0  0.00000000000E+00  0.00000000000E+00  0.22233474603E+04  0.22233474603E+04  0.00000000000E+00 0. -1.
          1   -1    0    0  501    0 -0.00000000000E+00 -0.00000000000E+00 -0.22848091003E+03  0.22848091003E+03  0.00000000000E+00 0. -1.
         25    2    1    2    0    0  0.85256219637E+00  0.13136282108E+03  0.40484160079E+03  0.44359714894E+03  0.12499916476E+03 0.  0.
          2    1    1    2  501    0 -0.11055473487E+02 -0.79713469280E+02 -0.20095882343E+03  0.21647380764E+03  0.00000000000E+00 0. -1.
          1    1    1    2  502    0  0.10202911290E+02 -0.51649351803E+02  0.17909837729E+04  0.17917574138E+04  0.00000000000E+00 0. -1.
         22    1    3    3    0    0 -0.28521452282E+02  0.77701843624E+02  0.35548581874E+03  0.36499481786E+03  0.00000000000E+00 0. -1.
         22    1    3    3    0    0  0.29374014478E+02  0.53660977460E+02  0.49355782051E+02  0.78602331075E+02  0.00000000000E+00 0. -1.
</event>
<event>
 7    1  0.6173324E-006  0.1209727E+03  0.7818608E-02  0.1305954E+00
          2   -1    0    0  502    0  0.00000000000E+00  0.00000000000E+00  0.89159252745E+03  0.89159252745E+03  0.00000000000E+00 0. -1.
          1   -1    0    0  501    0 -0.00000000000E+00 -0.00000000000E+00 -0.56281224468E+03  0.56281224468E+03  0.00000000000E+00 0. -1.
         25    2    1    2    0    0  0.70907962181E+02  0.33890266334E+02 -0.10510547715E+02  0.14802161405E+03  0.12499374929E+03 0.  0.
          2    1    1    2  501    0  0.53008618728E+02 -0.37759784231E+02 -0.47665233527E+03  0.48107500838E+03  0.00000000000E+00 0. -1.
          1    1    1    2  502    0 -0.12391658091E+03  0.38695178971E+01  0.81594316576E+03  0.82530814969E+03  0.00000000000E+00 0. -1.
         22    1    3    3    0    0  0.12530004133E+02 -0.19774799152E+02  0.45342596445E+02  0.51029351724E+02  0.00000000000E+00 0. -1.
         22    1    3    3    0    0  0.58377958048E+02  0.53665065485E+02 -0.55853144160E+02  0.96992262331E+02  0.00000000000E+00 0. -1.
</event>
<event>
 7    1  0.6173324E-006  0.4060463E+02  0.7818608E-02  0.1520914E+00
          2   -1    0    0  502    0  0.00000000000E+00  0.00000000000E+00  0.12077869449E+04  0.12077869449E+04  0.00000000000E+00 0. -1.
          1   -1    0    0  501    0 -0.00000000000E+00 -0.00000000000E+00 -0.90877368074E+02  0.90877368074E+02  0.00000000000E+00 0. -1.
         25    2    1    2    0    0 -0.51107057509E+02 -0.48686452984E+02  0.19847848206E+03  0.24494878056E+03  0.12499558082E+03 0.  0.
          2    1    1    2  501    0  0.17226604780E+02  0.36013930759E+02 -0.61388867960E+02  0.73228083618E+02  0.00000000000E+00 0. -1.
          1    1    1    2  502    0  0.33880452729E+02  0.12672522226E+02  0.97981996275E+03  0.98048744882E+03  0.00000000000E+00 0. -1.
         22    1    3    3    0    0 -0.56077632060E+01 -0.77434078589E+02  0.65800186814E+02  0.10177007478E+03  0.00000000000E+00 0.  1.
         22    1    3    3    0    0 -0.45499294303E+02  0.28747625605E+02  0.13267829525E+03  0.14317870578E+03  0.00000000000E+00 0.  1.
</event>
<event>
 7    1  0.6173324E-006  0.1116101E+03  0.7818608E-02  0.1333525E+00
          2   -1    0    0  502    0  0.00000000000E+00  0.00000000000E+00  0.10114992399E+04  0.10114992399E+04  0.00000000000E+00 0. -1.
          1   -1    0    0  501    0 -0.00000000000E+00 -0.00000000000E+00 -0.32254159272E+03  0.32254159272E+03  0.00000000000E+00 0. -1.
         25    2    1    2    0    0  0.68840438560E+02  0.64563860787E+02  0.55292519013E+02  0.16610494692E+03  0.12500437045E+03 0.  0.
          2    1    1    2  501    0 -0.36059068065E+02 -0.10889355560E+03 -0.25392643117E+03  0.27863362196E+03  0.00000000000E+00 0. -1.
          1    1    1    2  502    0 -0.32781370495E+02  0.44329694815E+02  0.88759155930E+03  0.88930226370E+03  0.00000000000E+00 0. -1.
         22    1    3    3    0    0  0.86321729069E+02  0.40207597608E+02 -0.85136640591E+01  0.95606350681E+02  0.00000000000E+00 0.  1.
         22    1    3    3    0    0 -0.17481290508E+02  0.24356263179E+02  0.63806183072E+02  0.70498596242E+02  0.00000000000E+00 0.  1.
</event>
<event>
 7    1  0.6173324E-006  0.9446162E+02  0.7818608E-02  0.1427545E+00
          2   -1    0    0  502    0  0.00000000000E+00  0.00000000000E+00  0.70169646892E+03  0.70169646892E+03  0.00000000000E+00 0. -1.
          1   -1    0    0  501    0 -0.00000000000E+00 -0.00000000000E+00 -0.70887721754E+03  0.70887721754E+03  0.00000000000E+00 0. -1.
         25    2    1    2    0    0 -0.35094640537E+02  0.11068275602E+03 -0.46620012252E+03  0.49643705068E+03  0.12499953911E+03 0.  0.
          2    1    1    2  501    0  0.25101881674E+02 -0.16882259922E+02 -0.22329378215E+03  0.22533359339E+03  0.00000000000E+00 0. -1.
          1    1    1    2  502    0  0.99927588629E+01 -0.93800496095E+02  0.68231315605E+03  0.68880304240E+03  0.00000000000E+00 0. -1.
         22    1    3    3    0    0  0.38774676973E+02  0.81992085484E+02 -0.27052627239E+03  0.28532550133E+03  0.00000000000E+00 0. -1.
         22    1    3    3    0    0 -0.73869317510E+02  0.28690670533E+02 -0.19567385013E+03  0.21111154935E+03  0.00000000000E+00 0. -1.
</event>
<event>
 7    1  0.6173324E-006  0.8759827E+02  0.7818608E-02  0.1315571E+00
          2   -1    0    0  502    0  0.00000000000E+00  0.00000000000E+00  0.59821612578E+03  0.59821612578E+03  0.00000000000E+00 0. -1.
          1   -1    0    0  501    0 -0.00000000000E+00 -0.00000000000E+00 -0.75980513267E+03  0.75980513267E+03  0.00000000000E+00 0. -1.
         25    2    1    2    0    0  0.35773564913E+02 -0.59772454092E+02 -0.21337997257E+03  0.25692023899E+03  0.12499800917E+03 0.  0.
          2    1    1    2  501    0  0.52530964622E+02  0.63453068716E+02 -0.51799353164E+03  0.52450271019E+03  0.00000000000E+00 0. -1.
          1    1    1    2  502    0 -0.88304529535E+02 -0.36806146239E+01  0.56978449732E+03  0.57659830926E+03  0.00000000000E+00 0. -1.
         22    1    3    3    0    0 -0.17703948664E+02 -0.25229303172E+02  0.33785182348E+01  0.31005836907E+02  0.00000000000E+00 0.  1.
         22    1    3    3    0    0  0.53477513577E+02 -0.34543150920E+02 -0.21675849081E+03  0.22591440209E+03  0.00000000000E+00 0.  1.
</event>
<event>
 7    1  0.6173324E-006  0.1313193E+03  0.7818608E-02  0.1407883E+00
          2   -1    0    0  502    0  0.00000000000E+00  0.00000000000E+00  0.84518622545E+03  0.84518622545E+03  0.00000000000E+00 0. -1.
          1   -1    0    0  501    0 -0.00000000000E+00 -0.00000000000E+00 -0.13918228422E+03  0.13918228422E+03  0.00000000000E+00 0. -1.
         25    2    1    2    0    0  0.13067950150E+03 -0.55384505248E+02  0.67372894899E+03  0.69977488723E+03  0.12501848090E+03 0.  0.
          2    1    1    2  501    0 -0.12733220963E+03  0.30281309889E+02 -0.90570435966E+02  0.15916486172E+03  0.00000000000E+00 0. -1.
          1    1    1    2  502    0 -0.33472918729E+01  0.25103195359E+02  0.12284542821E+03  0.12542876071E+03  0.00000000000E+00 0. -1.
         22    1    3    3    0    0  0.97422505981E+02  0.15035336525E+02  0.49648380787E+03  0.50617524386E+03  0.00000000000E+00 0.  1.
         22    1    3    3    0    0  0.33256995518E+02 -0.70419841773E+02  0.17724514112E+03  0.19359964338E+03  0.00000000000E+00 0.  1.
</event>
<event>
 7    1  0.6173324E-006  0.6144967E+02  0.7818608E-02  0.1497086E+00
          2   -1    0    0  502    0  0.00000000000E+00  0.00000000000E+00  0.11943750284E+04  0.11943750284E+04  0.00000000000E+00 0. -1.
          1   -1    0    0  501    0 -0.00000000000E+00 -0.00000000000E+00 -0.67006747996E+02  0.67006747996E+02  0.00000000000E+00 0. -1.
         25    2    1    2    0    0 -0.66205557686E+02  0.17708644587E+02  0.39235578010E+03  0.41744982034E+03  0.12499808944E+03 0.  0.
          2    1    1    2  501    0  0.47603549385E+02 -0.38767725123E+02 -0.36820548467E+02  0.71587619143E+02  0.00000000000E+00 0. -1.
          1    1    1    2  502    0  0.18602008301E+02  0.21059080535E+02  0.77183304878E+03  0.77234433692E+03  0.00000000000E+00 0. -1.
         22    1    3    3    0    0  0.36628385203E+02  0.14946721619E+02  0.11683319486E+03  0.12334925420E+03  0.00000000000E+00 0. -1.
         22    1    3    3    0    0 -0.10283394289E+03  0.27619229681E+01  0.27552258524E+03  0.29410056614E+03  0.00000000000E+00 0. -1.
</event>
<event>
 7    1  0.6173324E-006  0.1492181E+03  0.7818608E-02  0.1282548E+00
          2   -1    0    0  502    0  0.00000000000E+00  0.00000000000E+00  0.42911982147E+03  0.42911982147E+03  0.00000000000E+00 0. -1.
          1   -1    0    0  501    0 -0.00000000000E+00 -0.00000000000E+00 -0.25293852566E+03  0.25293852566E+03  0.00000000000E+00 0. -1.
         25    2    1    2    0    0 -0.67628805405E+02 -0.13827034706E+03 -0.26234838279E+02  0.20001451536E+03  0.12500078167E+03 0.  0.
          2    1    1    2  501    0  0.64477922132E+02 -0.12073219698E+02 -0.11410500259E+03  0.13161731153E+03  0.00000000000E+00 0. -1.
          1    1    1    2  502    0  0.31508832728E+01  0.15034356676E+03  0.31652113668E+03  0.35042652025E+03  0.00000000000E+00 0. -1.
         22    1    3    3    0    0 -0.69785709059E+02 -0.92115169601E+02  0.37317448247E+02  0.12144069171E+03  0.00000000000E+00 0.  1.
         22    1    3    3    0    0  0.21569036543E+01 -0.46155177460E+02 -0.63552286526E+02  0.78573823646E+02  0.00000000000E+00 0.  1.
</event>
<event>
 7    1  0.6173324E-006  0.3453295E+02  0.7818608E-02  0.1555247E+00
          2   -1    0    0  502    0  0.00000000000E+00  0.00000000000E+00  0.18232088390E+03  0.18232088390E+03  0.00000000000E+00 0. -1.
          1   -1    0    0  501    0 -0.00000000000E+00 -0.00000000000E+00 -0.56980262607E+02  0.56980262607E+02  0.00000000000E+00 0. -1.
         25    2    1    2    0    0 -0.73428887302E+01 -0.18509964664E+02  0.76673272224E+02  0.14799260869E+03  0.12500593885E+03 0.  0.
          2    1    1    2  501    0 -0.32025384634E+02  0.11402197913E+02  0.94416762344E+01  0.35281448785E+02  0.00000000000E+00 0. -1.
          1    1    1    2  502    0  0.39368273365E+02  0.71077667510E+01  0.39225672836E+02  0.56027089031E+02  0.00000000000E+00 0. -1.
         22    1    3    3    0    0  0.41107491794E+02 -0.50620424242E+02  0.23798986806E+02  0.69416460620E+02  0.00000000000E+00 0.  1.
         22    1    3    3    0    0 -0.48450380524E+02  0.32110459578E+02  0.52874285418E+02  0.78576148072E+02  0.00000000000E+00 0.  1.
</event>
<event>
 7    1  0.7466335E-006  0.9221638E+02  0.7818608E-02  0.1343647E+00
          2   -1    0    0  502    0  0.00000000000E+00  0.00000000000E+00  0.15376056874E+04  0.15376056874E+04  0.00000000000E+00 0. -1.
          1   -1    0    0  501    0 -0.00000000000E+00 -0.00000000000E+00 -0.64015481458E+03  0.64015481458E+03  0.00000000000E+00 0. -1.
         25    2    1    2    0    0 -0.97837711153E+02 -0.32149484094E+02 -0.10864443377E+03  0.19502473509E+03  0.12500090902E+03 0.  0.
          2    1    1    2  501    0  0.99383035812E+01  0.60302214885E+02 -0.48497544293E+03  0.48881111612E+03  0.00000000000E+00 0. -1.
          1    1    1    2  502    0  0.87899407572E+02 -0.28152730791E+02  0.14910707496E+04  0.14939246508E+04  0.00000000000E+00 0. -1.
         22    1    3    3    0    0 -0.36494113314E+02 -0.10228843990E+01 -0.11988755947E+03  0.12532315634E+03  0.00000000000E+00 0. -1.
         22    1    3    3    0    0 -0.61343597840E+02 -0.31126599695E+02  0.11243125701E+02  0.69701578748E+02  0.00000000000E+00 0. -1.
</event>
<event>
 7    1  0.6173324E-006  0.8549413E+02  0.7818608E-02  0.1367870E+00
          2   -1    0    0  502    0  0.00000000000E+00  0.00000000000E+00  0.98757910200E+03  0.98757910200E+03  0.00000000000E+00 0. -1.
          1   -1    0    0  501    0 -0.00000000000E+00 -0.00000000000E+00 -0.13211290210E+04  0.13211290210E+04  0.00000000000E+00 0. -1.
         25    2    1    2    0    0 -0.53345411413E+02 -0.84319167132E+00  0.10910000128E+03  0.17428066269E+03  0.12499798085E+03 0.  0.
          2    1    1    2  501    0 -0.20335361100E+02  0.49710651747E+02 -0.12856662144E+04  0.12867875857E+04  0.00000000000E+00 0. -1.
          1    1    1    2  502    0  0.73680772513E+02 -0.48867460075E+02  0.84301629413E+03  0.84763987463E+03  0.00000000000E+00 0. -1.
         22    1    3    3    0    0 -0.68761107739E+02  0.21368304778E+02  0.11391360580E+02  0.72900325667E+02  0.00000000000E+00 0. -1.
         22    1    3    3    0    0  0.15415696325E+02 -0.22211496449E+02  0.97708640695E+02  0.10138033702E+03  0.00000000000E+00 0. -1.
</event>
<event>
 7    1  0.6173324E-006  0.7769121E+02  0.7818608E-02  0.1351595E+00
          2   -1    0    0  502    0  0.00000000000E+00  0.00000000000E+00  0.73370891539E+03  0.73370891539E+03  0.00000000000E+00 0. -1.
          1   -1    0    0  501    0 -0.00000000000E+00 -0.00000000000E+00 -0.35308207985E+03  0.35308207985E+03  0.00000000000E+00 0. -1.
         25    2    1    2    0    0 -0.19545506770E+02  0.19562908705E+02  0.22537402577E+03  0.25919722048E+03  0.12500005353E+03 0.  0.
          2    1    1    2  501    0 -0.16022326366E+02 -0.77248382153E+02 -0.32915035728E+03  0.33847301988E+03  0.00000000000E+00 0. -1.
          1    1    1    2  502    0  0.35567833136E+02  0.57685473448E+02  0.48440316705E+03  0.48912075487E+03  0.00000000000E+00 0. -1.
         22    1    3    3    0    0 -0.17490460505E+02  0.63174294406E+02  0.62493747970E+02  0.90566970898E+02  0.00000000000E+00 0.  1.
         22    1    3    3    0    0 -0.20550462648E+01 -0.43611385701E+02  0.16288027780E+03  0.16863024959E+03  0.00000000000E+00 0.  1.
</event>
<event>
 7    1  0.6173324E-006  0.6239809E+02  0.7818608E-02  0.1524122E+00
          2   -1    0    0  502    0  0.00000000000E+00  0.00000000000E+00  0.93839743066E+03  0.93839743066E+03  0.00000000000E+00 0. -1.
          1   -1    0    0  501    0 -0.00000000000E+00 -0.00000000000E+00 -0.19803339107E+02  0.19803339107E+02  0.00000000000E+00 0. -1.
         25    2    1    2    0    0 -0.30027608155E+02  0.47225268766E+02  0.31021357086E+03  0.33910165685E+03  0.12500236346E+03 0.  0.
          2    1    1    2  501    0 -0.21055037384E+02 -0.93583817128E+01  0.33186243537E+02  0.40400750830E+02  0.00000000000E+00 0. -1.
          1    1    1    2  502    0  0.51082645539E+02 -0.37866887053E+02  0.57519427716E+03  0.57869836209E+03  0.00000000000E+00 0. -1.
         22    1    3    3    0    0 -0.17445383273E+02 -0.42662355114E+02  0.11075380125E+03  0.11996175404E+03  0.00000000000E+00 0.  1.
         22    1    3    3    0    0 -0.12582224882E+02  0.89887623880E+02  0.19945976961E+03  0.21913990281E+03  0.00000000000E+00 0.  1.
</event>
<event>
 7    1  0.6173324E-006  0.1503510E+03  0.7818608E-02  0.1312248E+00
          2   -1    0    0  502    0  0.00000000000E+00  0.00000000000E+00  0.12476850156E+04  0.12476850156E+04  0.00000000000E+00 0. -1.
          1   -1    0    0  501    0 -0.00000000000E+00 -0.00000000000E+00 -0.12048669356E+03  0.12048669356E+03  0.00000000000E+00 0. -1.
         25    2    1    2    0    0 -0.70532921646E+01 -0.14290389937E+03  0.26207289213E+03  0.32368389032E+03  0.12497114337E+03 0.  0.
          2    1    1    2  501    0  0.49269493043E+02 -0.42718554888E+01 -0.76172689696E+02  0.90818557297E+02  0.00000000000E+00 0. -1.
          1    1    1    2  502    0 -0.42216200879E+02  0.14717575486E+03  0.94129811963E+03  0.95366926157E+03  0.00000000000E+00 0. -1.
         22    1    3    3    0    0 -0.28175961148E+02 -0.10836800750E+03  0.81145573828E+02  0.13828273207E+03  0.00000000000E+00 0. -1.
         22    1    3    3    0    0  0.21122668983E+02 -0.34535891869E+02  0.18092731830E+03  0.18540115825E+03  0.00000000000E+00 0. -1.
</event>
<event>
 7    1  0.6173324E-006  0.8843266E+02  0.7818608E-02  0.1307157E+00
          2   -1    0    0  502    0  0.00000000000E+00  0.00000000000E+00  0.70550468519E+03  0.70550468519E+03  0.00000000000E+00 0. -1.
          1   -1    0    0  501    0 -0.00000000000E+00 -0.00000000000E+00 -0.49193927245E+03  0.49193927245E+03  0.00000000000E+00 0. -1.
         25    2    1    2    0    0  0.11534569495E+03  0.28762032504E+02  0.28478001458E+03  0.33295092515E+03  0.12499911197E+03 0.  0.
          2    1    1    2  501    0 -0.73111954102E+02  0.49081290236E+02 -0.45866918497E+03  0.46704577091E+03  0.00000000000E+00 0. -1.
          1    1    1    2  502    0 -0.42233740844E+02 -0.77843322740E+02  0.38745458312E+03  0.39744726158E+03  0.00000000000E+00 0. -1.
         22    1    3    3    0    0  0.34544007395E+02 -0.42826525952E+02  0.49185625945E+02  0.73801257250E+02  0.00000000000E+00 0. -1.
         22    1    3    3    0    0  0.80801687551E+02  0.71588558456E+02  0.23559438864E+03  0.25914966790E+03  0.00000000000E+00 0. -1.
</event>
<event>
 7    1  0.6173324E-006  0.1339675E+03  0.7818608E-02  0.1292238E+00
          2   -1    0    0  502    0  0.00000000000E+00  0.00000000000E+00  0.14806979377E+03  0.14806979377E+03  0.00000000000E+00 0. -1.
          1   -1    0    0  501    0 -0.00000000000E+00 -0.00000000000E+00 -0.13846274599E+04  0.13846274599E+04  0.00000000000E+00 0. -1.
         25    2    1    2    0    0 -0.91684326447E+02  0.16595534020E+03 -0.35711103982E+03  0.42320155001E+03  0.12499626597E+03 0.  0.
          2    1    1    2  501    0  0.10236099641E+02 -0.65911930540E+02 -0.95676953720E+03  0.95909181397E+03  0.00000000000E+00 0. -1.
          1    1    1    2  502    0  0.81448226805E+02 -0.10004340967E+03  0.77322910924E+02  0.15040388965E+03  0.00000000000E+00 0. -1.
         22    1    3    3    0    0 -0.92180508284E+01 -0.13311953396E+02 -0.11838687925E+01  0.16235212029E+02  0.00000000000E+00 0. -1.
         22    1    3    3    0    0 -0.82466275618E+02  0.17926729360E+03 -0.35592717103E+03  0.40696633798E+03  0.00000000000E+00 0. -1.
</event>
<event>
 7    1  0.6173324E-006  0.5474336E+02  0.7818608E-02  0.1485821E+00
          2   -1    0    0  502    0  0.00000000000E+00  0.00000000000E+00  0.12874856595E+04  0.12874856595E+04  0.00000000000E+00 0. -1.
          1   -1    0    0  501    0 -0.00000000000E+00 -0.00000000000E+00 -0.22798304862E+03  0.22798304862E+03  0.00000000000E+00 0. -1.
         25    2    1    2    0    0  0.16457418338E+02  0.51517157060E+02  0.63047353552E+03  0.64501677451E+03  0.12499958525E+03 0.  0.
          2    1    1    2  501    0 -0.44460824943E+02 -0.32041243768E+02 -0.21685247704E+03  0.22367029989E+03  0.00000000000E+00 0. -1.
          1    1    1    2  502    0  0.28003406605E+02 -0.19475913292E+02  0.64588155240E+03  0.64678163371E+03  0.00000000000E+00 0. -1.
         22    1    3    3    0    0  0.32276165200E+02  0.48013545806E+02  0.10995676252E+03  0.12424790157E+03  0.00000000000E+00 0.  1.
         22    1    3    3    0    0 -0.15818746861E+02  0.35036112543E+01  0.52051677301E+03  0.52076887294E+03  0.00000000000E+00 0.  1.
</event>
<event>
 7    1  0.6173324E-006  0.6407211E+02  0.7818608E-02  0.1395454E+00
          2   -1    0    0  502    0  0.00000000000E+00  0.00000000000E+00  0.22436616339E+03  0.22436616339E+03  0.00000000000E+00 0. -1.
          1   -1    0    0  501    0 -0.00000000000E+00 -0.00000000000E+00 -0.65934243197E+03  0.65934243197E+03  0.00000000000E+00 0. -1.
         25    2    1    2    0    0  0.42980264634E+02 -0.56795607964E+02 -0.21550941632E+03  0.25911952741E+03  0.12500230690E+03 0.  0.
          2    1    1    2  501    0  0.13770313222E+02  0.64413979440E+02 -0.41533351576E+03  0.42052432936E+03  0.00000000000E+00 0. -1.
          1    1    1    2  502    0 -0.56750577856E+02 -0.76183714758E+01  0.19586666349E+03  0.20406473860E+03  0.00000000000E+00 0. -1.
         22    1    3    3    0    0 -0.43873378064E+02 -0.15148366038E+02 -0.85886853185E+02  0.97626317387E+02  0.00000000000E+00 0. -1.
         22    1    3    3    0    0  0.86853642698E+02 -0.41647241926E+02 -0.12962256313E+03  0.16149321002E+03  0.00000000000E+00 0. -1.
</event>
<event>
 7    1  0.6173324E-006  0.6010787E+02  0.7818608E-02  0.1465200E+00
          2   -1    0    0  502    0  0.00000000000E+00  0.00000000000E+00  0.21045322341E+04  0.21045322341E+04  0.00000000000E+00 0. -1.
          1   -1    0    0  501    0 -0.00000000000E+00 -0.00000000000E+00 -0.12163344168E+04  0.12163344168E+04  0.00000000000E+00 0. -1.
         25    2    1    2    0    0 -0.15813296512E+02 -0.24190204884E+02  0.67979153125E+03  0.69179248782E+03  0.12500037554E+03 0.  0.
          2    1    1    2  501    0 -0.82999844354E+01 -0.34999156387E+02 -0.12093465982E+04  0.12098814096E+04  0.00000000000E+00 0. -1.
          1    1    1    2  502    0  0.24113280947E+02  0.59189361271E+02  0.14177528842E+04  0.14191927534E+04  0.00000000000E+00 0. -1.
         22    1    3    3    0    0  0.39713523136E+02  0.26202940223E+02  0.17064213290E+03  0.17715105282E+03  0.00000000000E+00 0.  1.
         22    1    3    3    0    0 -0.55526819648E+02 -0.50393145107E+02  0.50914939835E+03  0.51464143500E+03  0.00000000000E+00 0.  1.
</event>
<event>
 7    1  0.6173324E-006  0.8177280E+02  0.7818608E-02  0.1459604E+00
          2   -1    0    0  502    0  0.00000000000E+00  0.00000000000E+00  0.18141168687E+04  0.18141168687E+04  0.00000000000E+00 0. -1.
          1   -1    0    0  501    0 -0.00000000000E+00 -0.00000000000E+00 -0.82163147436E+02  0.82163147436E+02  0.00000000000E+00 0. -1.
         25    2    1    2    0    0 -0.44097155884E+02 -0.39904552552E+02  0.44601043637E+03  0.46699806024E+03  0.12499978579E+03 0.  0.
          2    1    1    2  501    0 -0.90534269679E+01 -0.26002146980E+02 -0.67652547162E+02  0.73040696361E+02  0.00000000000E+00 0. -1.
          1    1    1    2  502    0  0.53150582852E+02  0.65906699532E+02  0.13535958321E+04  0.13562412596E+04  0.00000000000E+00 0. -1.
         22    1    3    3    0    0  0.33990546733E+02 -0.48938701709E+02  0.20582424078E+03  0.21427545796E+03  0.00000000000E+00 0. -1.
         22    1    3    3    0    0 -0.78087702617E+02  0.90341491575E+01  0.24018619559E+03  0.25272260228E+03  0.00000000000E+00 0. -1.
</event>
<event>
 7    1  0.6173324E-006  0.6999275E+02  0.7818608E-02  0.1440897E+00
          2   -1    0    0  502    0  0.00000000000E+00  0.00000000000E+00  0.15325275194E+04  0.15325275194E+04  0.00000000000E+00 0. -1.
          1   -1    0    0  501    0 -0.00000000000E+00 -0.00000000000E+00 -0.16206399618E+04  0.16206399618E+04  0.00000000000E+00 0. -1.
         25    2    1    2    0    0 -0.74298988764E+02  0.39657295445E+02 -0.20193616264E+01  0.15074045112E+03  0.12500225985E+03 0.  0.
          2    1    1    2  501    0  0.69863777965E+02 -0.30058843282E+01 -0.15432344868E+04  0.15448180035E+04  0.00000000000E+00 0. -1.
          1    1    1    2  502    0  0.44352107995E+01 -0.36651411117E+02  0.14571414061E+04  0.14576090266E+04  0.00000000000E+00 0. -1.
         22    1    3    3    0    0 -0.17828073913E+02  0.77963943070E+02 -0.14751029845E+02  0.81325331354E+02  0.00000000000E+00 0.  1.
         22    1    3    3    0    0 -0.56470914851E+02 -0.38306647624E+02  0.12731668219E+02  0.69415119765E+02  0.00000000000E+00 0.  1.
</event>
<event>
 7    1  0.6173324E-006  0.1074135E+03  0.7818608E-02  0.1407889E+00
          2   -1    0    0  502    0  0.00000000000E+00  0.00000000000E+00  0.12622791229E+03  0.12622791229E+03  0.00000000000E+00 0. -1.
          1   -1    0    0  501    0 -0.00000000000E+00 -0.00000000000E+00 -0.14159816610E+04  0.14159816610E+04  0.00000000000E+00 0. -1.
         25    2    1    2    0    0  0.91837997952E+02  0.76526982510E+00 -0.10388693203E+04  0.10503854950E+04  0.12500167998E+03 0.  0.
          2    1    1    2  501    0  0.11947625751E+02  0.28561966889E+02 -0.34638681154E+03  0.34776767378E+03  0.00000000000E+00 0. -1.
          1    1    1    2  502    0 -0.10378562370E+03 -0.29327236715E+02  0.95502383112E+02  0.14405640451E+03  0.00000000000E+00 0. -1.
         22    1    3    3    0    0  0.76857176561E+02 -0.13133246792E+02 -0.26466042160E+03  0.27590695265E+03  0.00000000000E+00 0.  1.
         22    1    3    3    0    0  0.14980821391E+02  0.13898516617E+02 -0.77420889866E+03  0.77447854234E+03  0.00000000000E+00 0.  1.
</event>
<event>
 7    1  0.6173324E-006  0.8698135E+02  0.7818608E-02  0.1332202E+00
          2   -1    0    0  502    0  0.00000000000E+00  0.00000000000E+00  0.17270067882E+04  0.17270067882E+04  0.00000000000E+00 0. -1.
          1   -1    0    0  501    0 -0.00000000000E+00 -0.00000000000E+00 -0.91969970311E+03  0.91969970311E+03  0.00000000000E+00 0. -1.
         25    2    1    2    0    0  0.75261038858E+02 -0.13204954967E+03  0.94134350893E+02  0.21814664258E+03  0.12500149644E+03 0.  0.
          2    1    1    2  501    0 -0.59574222204E+02  0.62219859985E+02 -0.85471228133E+03  0.85904218917E+03  0.00000000000E+00 0. -1.
          1    1    1    2  502    0 -0.15686816654E+02  0.69829689685E+02  0.15678850155E+04  0.15695176596E+04  0.00000000000E+00 0. -1.
         22    1    3    3    0    0  0.94508212106E+02 -0.79388862423E+02  0.10377445598E+03  0.16125610483E+03  0.00000000000E+00 0. -1.
         22    1    3    3    0    0 -0.19247173248E+02 -0.52660687247E+02 -0.96401050838E+01  0.56890537749E+02  0.00000000000E+00 0. -1.
</event>
<event>
 7    1  0.6173324E-006  0.3117630E+02  0.7818608E-02  0.1589331E+00
          2   -1    0    0  502    0  0.00000000000E+00  0.00000000000E+00  0.72827727851E+02  0.72827727851E+02  0.00000000000E+00 0. -1.
          1   -1    0    0  501    0 -0.00000000000E+00 -0.00000000000E+00 -0.60353011939E+03  0.60353011939E+03  0.00000000000E+00 0. -1.
         25    2    1    2    0    0  0.26239533482E+02 -0.40847608675E+02 -0.53826819916E+03  0.55472103293E+03  0.12500291957E+03 0.  0.
          2    1    1    2  501    0 -0.28811432392E+02  0.98326784995E+01 -0.48645058083E+02  0.57385728878E+02  0.00000000000E+00 0. -1.
          1    1    1    2  502    0  0.25718989102E+01  0.31014930175E+02  0.56210865695E+02  0.64251085438E+02  0.00000000000E+00 0. -1.
         22    1    3    3    0    0  0.16797163109E+02  0.12310975389E+02 -0.45502900614E+03  0.45550532514E+03  0.00000000000E+00 0.  1.
         22    1    3    3    0    0  0.94423703730E+01 -0.53158584064E+02 -0.83239193013E+02  0.99215707785E+02  0.00000000000E+00 0.  1.
</event>
<event>
 7    1  0.6173324E-006  0.2318243E+03  0.7818608E-02  0.1215457E+00
          2   -1    0    0  502    0  0.00000000000E+00  0.00000000000E+00  0.73953826722E+03  0.73953826722E+03  0.00000000000E+00 0. -1.
          1   -1    0    0  501    0 -0.00000000000E+00 -0.00000000000E+00 -0.98123636619E+03  0.98123636619E+03  0.00000000000E+00 0. -1.
         25    2    1    2    0    0 -0.14566277960E+03  0.10707555781E+03  0.58909389735E+02  0.22754796212E+03  0.12499975371E+03 0.  0.
          2    1    1    2  501    0 -0.17242405305E+02  0.80843323693E+02 -0.86893904812E+03  0.87286196668E+03  0.00000000000E+00 0. -1.
          1    1    1    2  502    0  0.16290518490E+03 -0.18791888150E+03  0.56833155941E+03  0.62036470461E+03  0.00000000000E+00 0. -1.
         22    1    3    3    0    0 -0.56232493679E+02 -0.12173288438E+02  0.53231091114E+02  0.78382596014E+02  0.00000000000E+00 0. -1.
         22    1    3    3    0    0 -0.89430285921E+02  0.11924884625E+03  0.56782986207E+01  0.14916536611E+03  0.00000000000E+00 0. -1.
</event>
<event>
 7    1  0.6173324E-006  0.4048768E+02  0.7818608E-02  0.1522908E+00
          2   -1    0    0  502    0  0.00000000000E+00  0.00000000000E+00  0.16983823168E+04  0.16983823168E+04  0.00000000000E+00 0. -1.
          1   -1    0    0  501    0 -0.00000000000E+00 -0.00000000000E+00 -0.33504580961E+03  0.33504580961E+03  0.00000000000E+00 0. -1.
         25    2    1    2    0    0  0.32283537207E+02 -0.48147784858E+01  0.42327387318E+03  0.44255120627E+03  0.12500155834E+03 0.  0.
          2    1    1    2  501    0 -0.14838714570E+02 -0.32577919304E+02 -0.32408497462E+03  0.32605609801E+03  0.00000000000E+00 0. -1.
          1    1    1    2  502    0 -0.17444822637E+02  0.37392697789E+02  0.12641476087E+04  0.12648208222E+04  0.00000000000E+00 0. -1.
         22    1    3    3    0    0  0.36825708862E+02  0.27343057623E+02  0.49938269523E+02  0.67805651655E+02  0.00000000000E+00 0.  1.
         22    1    3    3    0    0 -0.45421716552E+01 -0.32157836109E+02  0.37333560365E+03  0.37474555461E+03  0.00000000000E+00 0.  1.
</event>
<event>
 7    1  0.6173324E-006  0.1073872E+03  0.7818608E-02  0.1443229E+00
          2   -1    0    0  502    0  0.00000000000E+00  0.00000000000E+00  0.86355052797E+02  0.86355052797E+02  0.00000000000E+00 0. -1.
          1   -1    0    0  501    0 -0.00000000000E+00 -0.00000000000E+00 -0.35105916867E+03  0.35105916867E+03  0.00000000000E+00 0. -1.
         25    2    1    2    0    0 -0.53624457051E+02 -0.82009535217E+02 -0.12676920004E+03  0.20321954912E+03  0.12500643506E+03 0.  0.
          2    1    1    2  501    0  0.77262612722E+02  0.81315502150E+02 -0.16419805766E+03  0.19885352487E+03  0.00000000000E+00 0. -1.
          1    1    1    2  502    0 -0.23638155671E+02  0.69403306698E+00  0.26263141831E+02  0.35341147467E+02  0.00000000000E+00 0. -1.
         22    1    3    3    0    0 -0.66064332883E+02 -0.95817404833E+02 -0.54343351778E+02  0.12844715268E+03  0.00000000000E+00 0. -1.
         22    1    3    3    0    0  0.12439875832E+02  0.13807869616E+02 -0.72425848262E+02  0.74772396448E+02  0.00000000000E+00 0. -1.
</event>
<event>
 7    1  0.6173324E-006  0.3542049E+02  0.7818608E-02  0.1564809E+00
          2   -1    0    0  502    0  0.00000000000E+00  0.00000000000E+00  0.10944729732E+04  0.10944729732E+04  0.00000000000E+00 0. -1.
          1   -1    0    0  501    0 -0.00000000000E+00 -0.00000000000E+00 -0.13220671520E+02  0.13220671520E+02  0.00000000000E+00 0. -1.
         25    2    1    2    0    0  0.35906233348E+02 -0.24245075051E+01  0.78575893847E+03  0.79645367208E+03  0.12500482614E+03 0.  0.
          2    1    1    2  501    0 -0.13420748937E+02 -0.28159108367E+02  0.30795041665E+02  0.43833622679E+02  0.00000000000E+00 0. -1.
          1    1    1    2  502    0 -0.22485484411E+02  0.30583615872E+02  0.26469832159E+03  0.26740635000E+03  0.00000000000E+00 0. -1.
         22    1    3    3    0    0 -0.32517751130E+02 -0.37863063962E+02  0.22813058728E+03  0.23352640237E+03  0.00000000000E+00 0. -1.
         22    1    3    3    0    0  0.68423984478E+02  0.35438556457E+02  0.55762835119E+03  0.56292726971E+03  0.00000000000E+00 0. -1.
</event>
<event>
 7    1  0.6173324E-006  0.6832477E+02  0.7818608E-02  0.1489362E+00
          2   -1    0    0  502    0  0.00000000000E+00  0.00000000000E+00  0.28856384588E+02  0.28856384588E+02  0.00000000000E+00 0. -1.
          1   -1    0    0  501    0 -0.00000000000E+00 -0.00000000000E+00 -0.88871465599E+03  0.88871465599E+03  0.00000000000E+00 0. -1.
         25    2    1    2    0    0 -0.15165491582E+01 -0.46688980578E+02 -0.25958640008E+03  0.29187513846E+03  0.12499534600E+03 0.  0.
          2    1    1    2  501    0  0.15049910796E+02  0.69660591908E+02 -0.59406062092E+03  0.59832024804E+03  0.00000000000E+00 0. -1.
          1    1    1    2  502    0 -0.13533361638E+02 -0.22971611330E+02 -0.62112503984E+01  0.27375654071E+02  0.00000000000E+00 0. -1.
         22    1    3    3    0    0 -0.32866736531E+02 -0.31685093691E+00 -0.75852299444E+01  0.33732157922E+02  0.00000000000E+00 0. -1.
         22    1    3    3    0    0  0.31350187373E+02 -0.46372129641E+02 -0.25200117013E+03  0.25814298054E+03  0.00000000000E+00 0. -1.
</event>
<event>
 7    1  0.6173324E-006  0.5035407E+02  0.7818608E-02  0.1449495E+00
          2   -1    0    0  502    0  0.00000000000E+00  0.00000000000E+00  0.59715451120E+03  0.59715451120E+03  0.00000000000E+00 0. -1.
          1   -1    0    0  501    0 -0.00000000000E+00 -0.00000000000E+00 -0.12275363785E+03  0.12275363785E+03  0.00000000000E+00 0. -1.
         25    2    1    2    0    0 -0.50643281019E+02 -0.23312567719E+02  0.20163782716E+03  0.24370017902E+03  0.12499498464E+03 0.  0.
          2    1    1    2  501    0  0.10409577105E+02  0.49757902095E+02 -0.93696823777E+02  0.10659879409E+03  0.00000000000E+00 0. -1.
          1    1    1    2  502    0  0.40233703914E+02 -0.26445334376E+02  0.36645986997E+03  0.36960917594E+03  0.00000000000E+00 0. -1.
         22    1    3    3    0    0  0.29561706781E+02  0.21142348524E+02  0.23312358626E+02  0.43178229162E+02  0.00000000000E+00 0. -1.
         22    1    3    3    0    0 -0.80204987799E+02 -0.44454916243E+02  0.17832546853E+03  0.20052194986E+03  0.00000000000E+00 0. -1.
</event>
<event>
 7    1  0.6173324E-006  0.1141504E+03  0.7818608E-02  0.1326248E+00
          2   -1    0    0  502    0  0.00000000000E+00  0.00000000000E+00  0.15119255256E+04  0.15119255256E+04  0.00000000000E+00 0. -1.
          1   -1    0    0  501    0 -0.00000000000E+00 -0.00000000000E+00 -0.12560433015E+04  0.12560433015E+04  0.00000000000E+00 0. -1.
         25    2    1    2    0    0 -0.11662711464E+03 -0.63204716623E+02  0.10141584794E+03  0.20858411555E+03  0.12500175588E+03 0.  0.
          2    1    1    2  501    0  0.67043252962E+02  0.92263120342E+02 -0.11991437359E+04  0.12045550965E+04  0.00000000000E+00 0. -1.
          1    1    1    2  502    0  0.49583861676E+02 -0.29058403719E+02  0.13536101121E+04  0.13548296150E+04  0.00000000000E+00 0. -1.
         22    1    3    3    0    0 -0.43519782534E+02 -0.50778865105E+02 -0.16873508135E+02  0.68972312488E+02  0.00000000000E+00 0. -1.
         22    1    3    3    0    0 -0.73107332104E+02 -0.12425851518E+02  0.11828935607E+03  0.13961180306E+03  0.00000000000E+00 0. -1.
</event>
<event>
 7    1  0.6173324E-006  0.2955021E+03  0.7818608E-02  0.1278024E+00
          2   -1    0    0  502    0  0.00000000000E+00  0.00000000000E+00  0.75214474653E+03  0.75214474653E+03  0.00000000000E+00 0. -1.
          1   -1    0    0  501    0 -0.00000000000E+00 -0.00000000000E+00 -0.57915166861E+03  0.57915166861E+03  0.00000000000E+00 0. -1.
         25    2    1    2    0    0  0.13426082313E+03  0.23137889982E+03 -0.20440217259E+02  0.29600634000E+03  0.12505913373E+03 0.  0.
          2    1    1    2  501    0  0.16494831190E+02  0.30393910722E+02 -0.38296921045E+03  0.38452735328E+03  0.00000000000E+00 0. -1.
          1    1    1    2  502    0 -0.15075565432E+03 -0.26177281055E+03  0.57640250564E+03  0.65076272185E+03  0.00000000000E+00 0. -1.
         22    1    3    3    0    0  0.11643291728E+03  0.19561934775E+03 -0.64418640861E+02  0.23658680169E+03  0.00000000000E+00 0.  1.
         22    1    3    3    0    0  0.17827905848E+02  0.35759552072E+02  0.43978423602E+02  0.59419538318E+02  0.00000000000E+00 0.  1.
</event>
<event>
 7    1  0.6173324E-006  0.3818587E+02  0.7818608E-02  0.1594327E+00
          2   -1    0    0  502    0  0.00000000000E+00  0.00000000000E+00  0.75643710669E+03  0.75643710669E+03  0.00000000000E+00 0. -1.
          1   -1    0    0  501    0 -0.00000000000E+00 -0.00000000000E+00 -0.10217018654E+04  0.10217018654E+04  0.00000000000E+00 0. -1.
         25    2    1    2    0    0 -0.40701880972E+02 -0.19221440271E+02 -0.27466769128E+03  0.30511433041E+03  0.12500522833E+03 0.  0.
          2    1    1    2  501    0  0.20278141382E+02 -0.13043903561E+02 -0.73112016824E+03  0.73151763262E+03  0.00000000000E+00 0. -1.
          1    1    1    2  502    0  0.20423739590E+02  0.32265343832E+02  0.74052310084E+03  0.74150700902E+03  0.00000000000E+00 0. -1.
         22    1    3    3    0    0  0.42056888237E+02 -0.14680768983E+02 -0.14067186130E+03  0.14755636004E+03  0.00000000000E+00 0. -1.
         22    1    3    3    0    0 -0.82758769209E+02 -0.45406712883E+01 -0.13399582997E+03  0.15755797037E+03  0.00000000000E+00 0. -1.
</event>
<event>
 7    1  0.6173324E-006  0.9715753E+02  0.7818608E-02  0.1371167E+00
          2   -1    0    0  502    0  0.00000000000E+00  0.00000000000E+00  0.24415887335E+04  0.24415887335E+04  0.00000000000E+00 0. -1.
          1   -1    0    0  501    0 -0.00000000000E+00 -0.00000000000E+00 -0.28842580950E+04  0.28842580950E+04  0.00000000000E+00 0. -1.
         25    2    1    2    0    0 -0.14178251431E+03  0.80410314388E+01  0.15232591896E+03  0.24288900715E+03  0.12499977862E+03 0.  0.
          2    1    1    2  501    0  0.45683248155E+02 -0.52875185874E+01 -0.28377604428E+04  0.28381330567E+04  0.00000000000E+00 0. -1.
          1    1    1    2  502    0  0.96099266159E+02 -0.27535128514E+01  0.22427651623E+04  0.22448247647E+04  0.00000000000E+00 0. -1.
         22    1    3    3    0    0 -0.11389464026E+03  0.52421780189E+02  0.14206332573E+03  0.18947828539E+03  0.00000000000E+00 0.  1.
         22    1    3    3    0    0 -0.27887874053E+02 -0.44380748750E+02  0.10262593233E+02  0.53410721758E+02  0.00000000000E+00 0.  1.
</event>
<event>
 7    1  0.6173324E-006  0.6870587E+02  0.7818608E-02  0.1475372E+00
          2   -1    0    0  502    0  0.00000000000E+00  0.00000000000E+00  0.20590289767E+04  0.20590289767E+04  0.00000000000E+00 0. -1.
          1   -1    0    0  501    0 -0.00000000000E+00 -0.00000000000E+00 -0.20315257824E+03  0.20315257824E+03  0.00000000000E+00 0. -1.
         25    2    1    2    0    0 -0.25043852529E+02  0.50857035974E+02  0.91465244827E+02  0.16493519834E+03  0.12499638387E+03 0.  0.
          2    1    1    2  501    0  0.22984278301E+02  0.18104454669E+02 -0.16451010503E+03  0.16709166043E+03  0.00000000000E+00 0. -1.
          1    1    1    2  502    0  0.20595742275E+01 -0.68961490643E+02  0.19289212586E+04  0.19301546961E+04  0.00000000000E+00 0. -1.
         22    1    3    3    0    0 -0.62668039333E+02  0.86150452394E+01  0.87845520765E+02  0.10825127102E+03  0.00000000000E+00 0.  1.
         22    1    3    3    0    0  0.37624186804E+02  0.42241990735E+02  0.36197240620E+01  0.56683927318E+02  0.00000000000E+00 0.  1.
</event>
<event>
 7    1  0.6173324E-006  0.8970070E+02  0.7818608E-02  0.1342185E+00
          2   -1    0    0  502    0  0.00000000000E+00  0.00000000000E+00  0.12984528999E+04  0.12984528999E+04  0.00000000000E+00 0. -1.
          1   -1    0    0  501    0 -0.00000000000E+00 -0.00000000000E+00 -0.42345929095E+03  0.42345929095E+03  0.00000000000E+00 0. -1.
         25    2    1    2    0    0  0.13936145442E+03  0.46663880514E+02  0.15179962783E+03  0.24549596986E+03  0.12500404589E+03 0.  0.
          2    1    1    2  501    0 -0.52320641915E+02 -0.36206601301E+02 -0.37215989517E+03  0.37755973716E+03  0.00000000000E+00 0. -1.
          1    1    1    2  502    0 -0.87040812503E+02 -0.10457279214E+02  0.10953538763E+04  0.10988564838E+04  0.00000000000E+00 0. -1.
         22    1    3    3    0    0 -0.18576366316E+02  0.19970801663E+02  0.46171515664E+02  0.53625769582E+02  0.00000000000E+00 0. -1.
         22    1    3    3    0    0  0.15793782073E+03  0.26693078852E+02  0.10562811216E+03  0.19187020028E+03  0.00000000000E+00 0. -1.
</event>
<event>
 7    1  0.6173324E-006  0.5767981E+02  0.7818608E-02  0.1470563E+00
          2   -1    0    0  502    0  0.00000000000E+00  0.00000000000E+00  0.14496960634E+04  0.14496960634E+04  0.00000000000E+00 0. -1.
          1   -1    0    0  501    0 -0.00000000000E+00 -0.00000000000E+00 -0.34383400034E+03  0.34383400034E+03  0.00000000000E+00 0. -1.
         25    2    1    2    0    0  0.51821243994E+02 -0.74015274243E+02  0.59844178915E+02  0.16543929284E+03  0.12500052686E+03 0.  0.
          2    1    1    2  501    0 -0.40803469972E+02  0.39671863526E+02 -0.28800826261E+03  0.29357714360E+03  0.00000000000E+00 0. -1.
          1    1    1    2  502    0 -0.11017774022E+02  0.34343410717E+02  0.13340261468E+04  0.13345136273E+04  0.00000000000E+00 0. -1.
         22    1    3    3    0    0  0.86890166607E+02 -0.39826623876E+02  0.65887429175E+02  0.11609140513E+03  0.00000000000E+00 0.  1.
         22    1    3    3    0    0 -0.35068922613E+02 -0.34188650367E+02 -0.60432502600E+01  0.49347887704E+02  0.00000000000E+00 0.  1.
</event>
<event>
 7    1  0.6173324E-006  0.1067845E+03  0.7818608E-02  0.1320111E+00
          2   -1    0    0  502    0  0.00000000000E+00  0.00000000000E+00  0.42561311278E+03  0.42561311278E+03  0.00000000000E+00 0. -1.
          1   -1    0    0  501    0 -0.00000000000E+00 -0.00000000000E+00 -0.63699991182E+03  0.63699991182E+03  0.00000000000E+00 0. -1.
         25    2    1    2    0    0 -0.15121296102E+03 -0.36756328070E+02  0.95641195987E+02  0.22133031543E+03  0.12499393157E+03 0.  0.
          2    1    1    2  501    0  0.63758945590E+02 -0.12011153525E+02 -0.56284225446E+03  0.56656939059E+03  0.00000000000E+00 0. -1.
          1    1    1    2  502    0  0.87454015426E+02  0.48767481596E+02  0.25581425943E+03  0.27471331857E+03  0.00000000000E+00 0. -1.
         22    1    3    3    0    0 -0.16417597186E+03 -0.26940997259E+02  0.51299024088E+02  0.17410099639E+03  0.00000000000E+00 0. -1.
         22    1    3    3    0    0  0.12963010846E+02 -0.98153308108E+01  0.44342171898E+02  0.47229319048E+02  0.00000000000E+00 0. -1.
</event>
<event>
 7    1  0.6173324E-006  0.6115355E+02  0.7818608E-02  0.1394139E+00
          2   -1    0    0  502    0  0.00000000000E+00  0.00000000000E+00  0.61872286711E+02  0.61872286711E+02  0.00000000000E+00 0. -1.
          1   -1    0    0  501    0 -0.00000000000E+00 -0.00000000000E+00 -0.77849365867E+03  0.77849365867E+03  0.00000000000E+00 0. -1.
         25    2    1    2    0    0  0.35862471221E+02 -0.41628899448E+00 -0.25672421085E+03  0.28778529677E+03  0.12500706566E+03 0.  0.
          2    1    1    2  501    0 -0.11106129075E+02  0.60136596264E+02 -0.48077202422E+03  0.48464574236E+03  0.00000000000E+00 0. -1.
          1    1    1    2  502    0 -0.24756342146E+02 -0.59720307269E+02  0.20874863113E+02  0.67934906247E+02  0.00000000000E+00 0. -1.
         22    1    3    3    0    0  0.35237517081E+02  0.12019896315E+02 -0.26824790294E+03  0.27081930868E+03  0.00000000000E+00 0.  1.
         22    1    3    3    0    0  0.62495414009E+00 -0.12436185309E+02  0.11523692093E+02  0.16965988099E+02  0.00000000000E+00 0.  1.
</event>
<event>
 7    1  0.8699622E-006  0.4494129E+02  0.7818608E-02  0.1475638E+00
          2   -1    0    0  502    0  0.00000000000E+00  0.00000000000E+00  0.17970879402E+04  0.17970879402E+04  0.00000000000E+00 0. -1.
          1   -1    0    0  501    0 -0.00000000000E+00 -0.00000000000E+00 -0.88530385472E+03  0.88530385472E+03  0.00000000000E+00 0. -1.
         25    2    1    2    0    0 -0.16575029711E+02 -0.33376975231E+00 -0.11507092234E+03  0.17070840055E+03  0.12500079136E+03 0.  0.
          2    1    1    2  501    0  0.94016688773E+01  0.44698872042E+02 -0.74142585442E+03  0.74283152743E+03  0.00000000000E+00 0. -1.
          1    1    1    2  502    0  0.71733608336E+01 -0.44365102289E+02  0.17682808622E+04  0.17688518669E+04  0.00000000000E+00 0. -1.
         22    1    3    3    0    0 -0.69332789528E+02 -0.84011402459E+01 -0.46881632468E+02  0.84116005160E+02  0.00000000000E+00 0. -1.
         22    1    3    3    0    0  0.52757759817E+02  0.80673704936E+01 -0.68189289867E+02  0.86592395395E+02  0.00000000000E+00 0. -1.
</event>
<event>
 7    1  0.6173324E-006  0.1605642E+03  0.7818608E-02  0.1403151E+00
          2   -1    0    0  502    0  0.00000000000E+00  0.00000000000E+00  0.13940937374E+04  0.13940937374E+04  0.00000000000E+00 0. -1.
          1   -1    0    0  501    0 -0.00000000000E+00 -0.00000000000E+00 -0.99222373220E+03  0.99222373220E+03  0.00000000000E+00 0. -1.
         25    2    1    2    0    0 -0.57407379023E+02 -0.17135950498E+03 -0.35471054863E+03  0.41725703130E+03  0.12499667894E+03 0.  0.
          2    1    1    2  501    0  0.12573295506E+02  0.17436497463E+02 -0.60133229066E+03  0.60171641410E+03  0.00000000000E+00 0. -1.
          1    1    1    2  502    0  0.44834083517E+02  0.15392300752E+03  0.13579128445E+04  0.13673440242E+04  0.00000000000E+00 0. -1.
         22    1    3    3    0    0  0.24190965903E+02 -0.62780259424E+02 -0.20187309862E+03  0.21278936005E+03  0.00000000000E+00 0.  1.
         22    1    3    3    0    0 -0.81598344926E+02 -0.10857924556E+03 -0.15283745002E+03  0.20446767125E+03  0.00000000000E+00 0.  1.
</event>
<event>
 7    1  0.6173324E-006  0.1358160E+03  0.7818608E-02  0.1421299E+00
          2   -1    0    0  502    0  0.00000000000E+00  0.00000000000E+00  0.74273235062E+03  0.74273235062E+03  0.00000000000E+00 0. -1.
          1   -1    0    0  501    0 -0.00000000000E+00 -0.00000000000E+00 -0.23871458660E+03  0.23871458660E+03  0.00000000000E+00 0. -1.
         25    2    1    2    0    0  0.43219221572E+02 -0.14982455182E+03 -0.14276426108E+01  0.19985501952E+03  0.12499877288E+03 0.  0.
          2    1    1    2  501    0 -0.10357547862E+02  0.19486696543E+02 -0.13011484812E+03  0.13197304210E+03  0.00000000000E+00 0. -1.
          1    1    1    2  502    0 -0.32861673710E+02  0.13033785528E+03  0.63556025475E+03  0.64961887560E+03  0.00000000000E+00 0. -1.
         22    1    3    3    0    0  0.51672988084E+02 -0.12608392684E+03  0.47922179041E+02  0.14444303219E+03  0.00000000000E+00 0.  1.
         22    1    3    3    0    0 -0.84537665128E+01 -0.23740624982E+02 -0.49349821651E+02  0.55411987329E+02  0.00000000000E+00 0.  1.
</event>
<event>
 7    1  0.6173324E-006  0.1196258E+03  0.7818608E-02  0.1271450E+00
          2   -1    0    0  502    0  0.00000000000E+00  0.00000000000E+00  0.21556750403E+03  0.21556750403E+03  0.00000000000E+00 0. -1.
          1   -1    0    0  501    0 -0.00000000000E+00 -0.00000000000E+00 -0.82556232920E+03  0.82556232920E+03  0.00000000000E+00 0. -1.
         25    2    1    2    0    0 -0.64975121451E+02 -0.63269750513E+02 -0.32423021453E+03  0.35913094638E+03  0.12499990760E+03 0.  0.
          2    1    1    2  501    0  0.24506426450E+02  0.14476021631E+03 -0.46139954258E+03  0.48419585196E+03  0.00000000000E+00 0. -1.
          1    1    1    2  502    0  0.40468695000E+02 -0.81490465797E+02  0.17563493194E+03  0.19780303488E+03  0.00000000000E+00 0. -1.
         22    1    3    3    0    0 -0.13359516841E+02 -0.77938072294E+02 -0.94511664356E+02  0.12322854581E+03  0.00000000000E+00 0.  1.
         22    1    3    3    0    0 -0.51615604610E+02  0.14668321781E+02 -0.22971855017E+03  0.23590240057E+03  0.00000000000E+00 0.  1.
</event>
<event>
 7    1  0.6173324E-006  0.1286435E+03  0.7818608E-02  0.1317039E+00
          2   -1    0    0  502    0  0.00000000000E+00  0.00000000000E+00  0.20525037923E+04  0.20525037923E+04  0.00000000000E+00 0. -1.
          1   -1    0    0  501    0 -0.00000000000E+00 -0.00000000000E+00 -0.39791353760E+02  0.39791353760E+02  0.00000000000E+00 0. -1.
         25    2    1    2    0    0 -0.27129752902E+02 -0.81482580181E+02  0.46798795108E+03  0.49194891442E+03  0.12500231069E+03 0.  0.
          2    1    1    2  501    0 -0.34384339675E+01 -0.55251008162E+02  0.64819946865E+01  0.55736101282E+02  0.00000000000E+00 0. -1.
          1    1    1    2  502    0  0.30568186869E+02  0.13673358834E+03  0.15382424928E+04  0.15446101304E+04  0.00000000000E+00 0. -1.
         22    1    3    3    0    0 -0.68976435983E+01  0.33627415339E+02  0.12305780677E+03  0.12775603452E+03  0.00000000000E+00 0.  1.
         22    1    3    3    0    0 -0.20232109304E+02 -0.11510999552E+03  0.34493014431E+03  0.36419287990E+03  0.00000000000E+00 0.  1.
</event>
<event>
 7    1  0.6173324E-006  0.8999573E+02  0.7818608E-02  0.1386386E+00
          2   -1    0    0  502    0  0.00000000000E+00  0.00000000000E+00  0.13382959579E+04  0.13382959579E+04  0.00000000000E+00 0. -1.
          1   -1    0    0  501    0 -0.00000000000E+00 -0.00000000000E+00 -0.44363880078E+03  0.44363880078E+03  0.00000000000E+00 0. -1.
         25    2    1    2    0    0  0.11067365621E+02  0.84928923274E+02  0.47819936115E+03  0.50163397901E+03  0.12500644506E+03 0.  0.
          2    1    1    2  501    0 -0.43802669281E+02  0.18789539118E+01 -0.42826260398E+03  0.43050094340E+03  0.00000000000E+00 0. -1.
          1    1    1    2  502    0  0.32735303661E+02 -0.86807877186E+02  0.84472039998E+03  0.84979983631E+03  0.00000000000E+00 0. -1.
         22    1    3    3    0    0 -0.27088572762E+02  0.93389538060E+02  0.22051451077E+03  0.24100217023E+03  0.00000000000E+00 0. -1.
         22    1    3    3    0    0  0.38155938382E+02 -0.84606147859E+01  0.25768485038E+03  0.26063180879E+03  0.00000000000E+00 0. -1.
</event>
<event>
 7    1  0.6173324E-006  0.5568456E+02  0.7818608E-02  0.1465847E+00
          2   -1    0    0  502    0  0.00000000000E+00  0.00000000000E+00  0.83319913842E+03  0.83319913842E+03  0.00000000000E+00 0. -1.
          1   -1    0    0  501    0 -0.00000000000E+00 -0.00000000000E+00 -0.26645071917E+03  0.26645071917E+03  0.00000000000E+00 0. -1.
         25    2    1    2    0    0 -0.20629621960E+02 -0.58706630844E+01  0.36045784872E+02  0.13184844097E+03  0.12499866716E+03 0.  0.
          2    1    1    2  501    0 -0.34801629237E+02  0.16805086664E+02 -0.21576493671E+03  0.21919870495E+03  0.00000000000E+00 0. -1.
          1    1    1    2  502    0  0.55431251197E+02 -0.10934423580E+02  0.74646757110E+03  0.74860271168E+03  0.00000000000E+00 0. -1.
         22    1    3    3    0    0  0.13784407001E+02  0.54743380561E+02  0.22886350808E+02  0.60914962406E+02  0.00000000000E+00 0.  1.
         22    1    3    3    0    0 -0.34414028961E+02 -0.60614043646E+02  0.13159434064E+02  0.70933478565E+02  0.00000000000E+00 0.  1.
</event>
<event>
 7    1  0.6173324E-006  0.1148926E+03  0.7818608E-02  0.1286826E+00
          2   -1    0    0  502    0  0.00000000000E+00  0.00000000000E+00  0.11040807644E+03  0.11040807644E+03  0.00000000000E+00 0. -1.
          1   -1    0    0  501    0 -0.00000000000E+00 -0.00000000000E+00 -0.16977685026E+04  0.16977685026E+04  0.00000000000E+00 0. -1.
         25    2    1    2    0    0 -0.79645878758E+02 -0.12928442806E+03 -0.38932309147E+03  0.43618825601E+03  0.12501918166E+03 0.  0.
          2    1    1    2  501    0 -0.55813136804E+00  0.11308693348E+03 -0.12626658345E+04  0.12677199910E+04  0.00000000000E+00 0. -1.
          1    1    1    2  502    0  0.80204010126E+02  0.16197494586E+02  0.64628499808E+02  0.10426833200E+03  0.00000000000E+00 0. -1.
         22    1    3    3    0    0 -0.67841152621E+02 -0.91062313078E+02 -0.12509174783E+03  0.16894588550E+03  0.00000000000E+00 0.  1.
         22    1    3    3    0    0 -0.11804726137E+02 -0.38222114987E+02 -0.26423134364E+03  0.26724237051E+03  0.00000000000E+00 0.  1.
</event>
<event>
 7    1  0.6173324E-006  0.1813535E+03  0.7818608E-02  0.1277142E+00
          2   -1    0    0  502    0  0.00000000000E+00  0.00000000000E+00  0.17241103802E+04  0.17241103802E+04  0.00000000000E+00 0. -1.
          1   -1    0    0  501    0 -0.00000000000E+00 -0.00000000000E+00 -0.14852395647E+04  0.14852395647E+04  0.00000000000E+00 0. -1.
         25    2    1    2    0    0  0.72147207407E+02  0.10780898381E+03  0.28878038275E+02  0.18244732313E+03  0.12500035238E+03 0.  0.
          2    1    1    2  501    0  0.17017506195E+02  0.54216300668E+02 -0.14025945065E+04  0.14037451166E+04  0.00000000000E+00 0. -1.
          1    1    1    2  502    0 -0.89164713602E+02 -0.16202528448E+03  0.16125872837E+04  0.16231575051E+04  0.00000000000E+00 0. -1.
         22    1    3    3    0    0 -0.10406102982E+02  0.91687951246E+02 -0.34374067556E+01  0.92340582347E+02  0.00000000000E+00 0. -1.
         22    1    3    3    0    0  0.82553310389E+02  0.16121032567E+02  0.32315445030E+02  0.90106740784E+02  0.00000000000E+00 0. -1.
</event>
<event>
 7    1  0.6173324E-006  0.9202759E+02  0.7818608E-02  0.1379755E+00
          2   -1    0    0  502    0  0.00000000000E+00  0.00000000000E+00  0.85936157052E+03  0.85936157052E+03  0.00000000000E+00 0. -1.
          1   -1    0    0  501    0 -0.00000000000E+00 -0.00000000000E+00 -0.16175396674E+03  0.16175396674E+03  0.00000000000E+00 0. -1.
         25    2    1    2    0    0  0.40560725074E+02 -0.11176266121E+03  0.10036932965E+03  0.19958736700E+03  0.12500019949E+03 0.  0.
          2    1    1    2  501    0 -0.40108458615E+02  0.20940749355E+02 -0.10453255230E+03  0.11390460011E+03  0.00000000000E+00 0. -1.
          1    1    1    2  502    0 -0.45226645877E+00  0.90821911855E+02  0.70177082643E+03  0.70762357016E+03  0.00000000000E+00 0. -1.
         22    1    3    3    0    0  0.72273351709E+02 -0.11409860768E+03  0.58943700083E+02  0.14736447816E+03  0.00000000000E+00 0. -1.
         22    1    3    3    0    0 -0.31712626635E+02  0.23359464734E+01  0.41425629566E+02  0.52222888842E+02  0.00000000000E+00 0. -1.
</event>
<event>
 7    1  0.6173324E-006  0.5106857E+02  0.7818608E-02  0.1459168E+00
          2   -1    0    0  502    0  0.00000000000E+00  0.00000000000E+00  0.51079593928E+03  0.51079593928E+03  0.00000000000E+00 0. -1.
          1   -1    0    0  501    0 -0.00000000000E+00 -0.00000000000E+00 -0.52493421048E+03  0.52493421048E+03  0.00000000000E+00 0. -1.
         25    2    1    2    0    0  0.70283707292E+01 -0.44792545869E+02 -0.28883981247E+03  0.31797725279E+03  0.12500130345E+03 0.  0.
          2    1    1    2  501    0 -0.48122784006E+02  0.28443896921E+02 -0.21699075212E+03  0.22407553217E+03  0.00000000000E+00 0. -1.
          1    1    1    2  502    0  0.41094413276E+02  0.16348648948E+02  0.49169229339E+03  0.49367736479E+03  0.00000000000E+00 0. -1.
         22    1    3    3    0    0  0.14181175005E+02 -0.17311402564E+00  0.89553266518E+01  0.16773001176E+02  0.00000000000E+00 0.  1.
         22    1    3    3    0    0 -0.71528042760E+01 -0.44619431843E+02 -0.29779513912E+03  0.30120425162E+03  0.00000000000E+00 0.  1.
</event>
<event>
 7    1  0.6173324E-006  0.7813899E+02  0.7818608E-02  0.1339395E+00
          2   -1    0    0  502    0  0.00000000000E+00  0.00000000000E+00  0.22629812315E+03  0.22629812315E+03  0.00000000000E+00 0. -1.
          1   -1    0    0  501    0 -0.00000000000E+00 -0.00000000000E+00 -0.12964023096E+04  0.12964023096E+04  0.00000000000E+00 0. -1.
         25    2    1    2    0    0 -0.70013731383E+01 -0.16611108714E+02 -0.12568320174E+03  0.17817388003E+03  0.12499886466E+03 0.  0.
          2    1    1    2  501    0  0.74547958978E+02 -0.23415895738E+02 -0.11353750272E+04  0.11380606991E+04  0.00000000000E+00 0. -1.
          1    1    1    2  502    0 -0.67546585840E+02  0.40027004452E+02  0.19095404255E+03  0.20646585361E+03  0.00000000000E+00 0. -1.
         22    1    3    3    0    0  0.96276012765E+01  0.48711138683E+02 -0.21549324006E+02  0.54127988170E+02  0.00000000000E+00 0. -1.
         22    1    3    3    0    0 -0.16628974415E+02 -0.65322247398E+02 -0.10413387773E+03  0.12404589186E+03  0.00000000000E+00 0. -1.
</event>
<event>
 7    1  0.6173324E-006  0.1162547E+03  0.7818608E-02  0.1255535E+00
          2   -1    0    0  502    0  0.00000000000E+00  0.00000000000E+00  0.82871970298E+03  0.82871970298E+03  0.00000000000E+00 0. -1.
          1   -1    0    0  501    0 -0.00000000000E+00 -0.00000000000E+00 -0.40946260432E+03  0.40946260432E+03  0.00000000000E+00 0. -1.
         25    2    1    2    0    0 -0.47565055970E+02  0.54327297318E+02 -0.32677994456E+02  0.14799993856E+03  0.12498896234E+03 0.  0.
          2    1    1    2  501    0 -0.51690735515E+02 -0.11485366161E+03 -0.30206564279E+03  0.32727197907E+03  0.00000000000E+00 0. -1.
          1    1    1    2  502    0  0.99255791484E+02  0.60526364296E+02  0.75400073591E+03  0.76291038968E+03  0.00000000000E+00 0. -1.
         22    1    3    3    0    0  0.46596588749E+01  0.14029685464E+02  0.44255027581E+02  0.46658889413E+02  0.00000000000E+00 0. -1.
         22    1    3    3    0    0 -0.52224714845E+02  0.40297611854E+02 -0.76933022037E+02  0.10134104914E+03  0.00000000000E+00 0. -1.
</event>
<event>
 7    1  0.6173324E-006  0.5675009E+02  0.7818608E-02  0.1526813E+00
          2   -1    0    0  502    0  0.00000000000E+00  0.00000000000E+00  0.18360117214E+04  0.18360117214E+04  0.00000000000E+00 0. -1.
          1   -1    0    0  501    0 -0.00000000000E+00 -0.00000000000E+00 -0.12519267524E+02  0.12519267524E+02  0.00000000000E+00 0. -1.
         25    2    1    2    0    0  0.43541425398E+02 -0.87499095244E+01  0.94875412781E+03  0.95798259694E+03  0.12499537736E+03 0.  0.
          2    1    1    2  501    0  0.70125374908E+01 -0.23877352193E+02  0.15740724058E+02  0.29446120690E+02  0.00000000000E+00 0. -1.
          1    1    1    2  502    0 -0.50553962888E+02  0.32627261718E+02  0.85899760199E+03  0.86110227128E+03  0.00000000000E+00 0. -1.
         22    1    3    3    0    0 -0.20492760615E+02  0.42837514840E+02  0.25618185171E+03  0.26054586364E+03  0.00000000000E+00 0. -1.
         22    1    3    3    0    0  0.64034186012E+02 -0.51587424365E+02  0.69257227610E+03  0.69743673330E+03  0.00000000000E+00 0. -1.
</event>
<event>
 7    1  0.6173324E-006  0.1106320E+03  0.7818608E-02  0.1286345E+00
          2   -1    0    0  502    0  0.00000000000E+00  0.00000000000E+00  0.12411596513E+04  0.12411596513E+04  0.00000000000E+00 0. -1.
          1   -1    0    0  501    0 -0.00000000000E+00 -0.00000000000E+00 -0.26253577632E+03  0.26253577632E+03  0.00000000000E+00 0. -1.
         25    2    1    2    0    0  0.95880935877E+02  0.15691025800E+03 -0.15581699860E+02  0.22289514826E+03  0.12500189926E+03 0.  0.
          2    1    1    2  501    0 -0.51218932688E+02 -0.84166761741E+02 -0.12454132112E+03  0.15880164834E+03  0.00000000000E+00 0. -1.
          1    1    1    2  502    0 -0.44662003188E+02 -0.72743496256E+02  0.11187468960E+04  0.11219986310E+04  0.00000000000E+00 0. -1.
         22    1    3    3    0    0 -0.15013039463E+02  0.44582378314E+01 -0.29984038190E+02  0.33827648228E+02  0.00000000000E+00 0. -1.
         22    1    3    3    0    0  0.11089397534E+03  0.15245202017E+03  0.14402338330E+02  0.18906750003E+03  0.00000000000E+00 0. -1.
</event>
<event>
 7    1  0.6173324E-006  0.5399675E+02  0.7818608E-02  0.1450221E+00
          2   -1    0    0  502    0  0.00000000000E+00  0.00000000000E+00  0.36402466832E+03  0.36402466832E+03  0.00000000000E+00 0. -1.
          1   -1    0    0  501    0 -0.00000000000E+00 -0.00000000000E+00 -0.19540932208E+04  0.19540932208E+04  0.00000000000E+00 0. -1.
         25    2    1    2    0    0  0.39651329307E+01  0.51671228734E+02 -0.23819663385E+03  0.27394866781E+03  0.12499839223E+03 0.  0.
          2    1    1    2  501    0 -0.42527282142E+02 -0.13633138918E+02 -0.16956057754E+04  0.16961937913E+04  0.00000000000E+00 0. -1.
          1    1    1    2  502    0  0.38562149211E+02 -0.38038089816E+02  0.34373385673E+03  0.34797543001E+03  0.00000000000E+00 0. -1.
         22    1    3    3    0    0 -0.78639193782E+01  0.40325729817E+02 -0.64089689197E+01  0.41582214899E+02  0.00000000000E+00 0.  1.
         22    1    3    3    0    0  0.11829052309E+02  0.11345498917E+02 -0.23178766493E+03  0.23236645291E+03  0.00000000000E+00 0.  1.
</event>
<event>
 7    1  0.6173324E-006  0.2300255E+03  0.7818608E-02  0.1226642E+00
          2   -1    0    0  502    0  0.00000000000E+00  0.00000000000E+00  0.25701633464E+04  0.25701633464E+04  0.00000000000E+00 0. -1.
          1   -1    0    0  501    0 -0.00000000000E+00 -0.00000000000E+00 -0.46659394247E+02  0.46659394247E+02  0.00000000000E+00 0. -1.
         25    2    1    2    0    0  0.11104601545E+03 -0.14676941794E+03  0.76273586397E+03  0.79452040687E+03  0.12499679659E+03 0.  0.
          2    1    1    2  501    0  0.49876258201E+02 -0.54791410788E+02  0.43801299843E+02  0.86071445301E+02  0.00000000000E+00 0. -1.
          1    1    1    2  502    0 -0.16092227365E+03  0.20156082873E+03  0.17169667883E+04  0.17362308884E+04  0.00000000000E+00 0. -1.
         22    1    3    3    0    0  0.12509278429E+02 -0.40339370005E+02  0.42321104884E+03  0.42531322420E+03  0.00000000000E+00 0.  1.
         22    1    3    3    0    0  0.98536737020E+02 -0.10643004793E+03  0.33952481513E+03  0.36920718267E+03  0.00000000000E+00 0.  1.
</event>
<event>
 7    1  0.6173324E-006  0.1062488E+03  0.7818608E-02  0.1389588E+00
          2   -1    0    0  502    0  0.00000000000E+00  0.00000000000E+00  0.56262239831E+03  0.56262239831E+03  0.00000000000E+00 0. -1.
          1   -1    0    0  501    0 -0.00000000000E+00 -0.00000000000E+00 -0.59391186700E+03  0.59391186700E+03  0.00000000000E+00 0. -1.
         25    2    1    2    0    0  0.77778646117E+02 -0.22251520788E+02 -0.21289761838E+03  0.25979956053E+03  0.12500307104E+03 0.  0.
          2    1    1    2  501    0  0.29102300583E+02  0.21512097395E+02 -0.35132755856E+03  0.35318659040E+03  0.00000000000E+00 0. -1.
          1    1    1    2  502    0 -0.10688094670E+03  0.73942339311E+00  0.53293570826E+03  0.54354811438E+03  0.00000000000E+00 0. -1.
         22    1    3    3    0    0  0.10197726757E+03 -0.26326868424E+01 -0.10063910939E+03  0.14329872462E+03  0.00000000000E+00 0. -1.
         22    1    3    3    0    0 -0.24198621449E+02 -0.19618833946E+02 -0.11225850900E+03  0.11650083591E+03  0.00000000000E+00 0. -1.
</event>
<event>
 7    1  0.6173324E-006  0.1730232E+03  0.7818608E-02  0.1333537E+00
          2   -1    0    0  502    0  0.00000000000E+00  0.00000000000E+00  0.27090204242E+03  0.27090204242E+03  0.00000000000E+00 0. -1.
          1   -1    0    0  501    0 -0.00000000000E+00 -0.00000000000E+00 -0.10349125767E+04  0.10349125767E+04  0.00000000000E+00 0. -1.
         25    2    1    2    0    0 -0.41055556421E+02  0.16194643878E+03  0.10875245805E+03  0.23529590597E+03  0.12499943395E+03 0.  0.
          2    1    1    2  501    0  0.29167407347E+02  0.20342896306E+02 -0.88660555634E+03  0.88731842290E+03  0.00000000000E+00 0. -1.
          1    1    1    2  502    0  0.11888149074E+02 -0.18228933508E+03  0.13842563997E+02  0.18320029026E+03  0.00000000000E+00 0. -1.
         22    1    3    3    0    0  0.30725359720E+02 -0.47710178528E+00  0.11342876106E+02  0.32755704760E+02  0.00000000000E+00 0.  1.
         22    1    3    3    0    0 -0.71780916141E+02  0.16242354056E+03  0.97409581946E+02  0.20254020121E+03  0.00000000000E+00 0.  1.
</event>
<event>
 7    1  0.6173324E-006  0.5991864E+02  0.7818608E-02  0.1492632E+00
          2   -1    0    0  502    0  0.00000000000E+00  0.00000000000E+00  0.13893818119E+04  0.13893818119E+04  0.00000000000E+00 0. -1.
          1   -1    0    0  501    0 -0.00000000000E+00 -0.00000000000E+00 -0.64031400739E+03  0.64031400739E+03  0.00000000000E+00 0. -1.
         25    2    1    2    0    0 -0.47024991883E+02  0.52802515429E+01  0.13016868021E+03  0.18657286287E+03  0.12500526762E+03 0.  0.
          2    1    1    2  501    0 -0.22650896041E+01  0.29631793929E+02 -0.61100962551E+03  0.61173191540E+03  0.00000000000E+00 0. -1.
          1    1    1    2  502    0  0.49290081487E+02 -0.34912045471E+02  0.12299087498E+04  0.12313910410E+04  0.00000000000E+00 0. -1.
         22    1    3    3    0    0  0.20120011966E+02  0.20018970865E+02 -0.10293001561E+02  0.30191388791E+02  0.00000000000E+00 0.  1.
         22    1    3    3    0    0 -0.67145003849E+02 -0.14738719322E+02  0.14046168177E+03  0.15638147408E+03  0.00000000000E+00 0.  1.
</event>
<event>
 7    1  0.6173324E-006  0.2192015E+03  0.7818608E-02  0.1298509E+00
          2   -1    0    0  502    0  0.00000000000E+00  0.00000000000E+00  0.14029299963E+04  0.14029299963E+04  0.00000000000E+00 0. -1.
          1   -1    0    0  501    0 -0.00000000000E+00 -0.00000000000E+00 -0.26620842869E+03  0.26620842869E+03  0.00000000000E+00 0. -1.
         25    2    1    2    0    0  0.20622195681E+03  0.82519284302E+02 -0.55239584897E+02  0.26079336971E+03  0.12499936876E+03 0.  0.
          2    1    1    2  501    0 -0.19869499439E+02  0.32929835405E+02 -0.95186791782E+02  0.10266302352E+03  0.00000000000E+00 0. -1.
          1    1    1    2  502    0 -0.18635245737E+03 -0.11544911971E+03  0.12871479443E+04  0.13056820318E+04  0.00000000000E+00 0. -1.
         22    1    3    3    0    0  0.13967821641E+03  0.13079433112E+02  0.15869153360E+02  0.14118394292E+03  0.00000000000E+00 0.  1.
         22    1    3    3    0    0  0.66543740399E+02  0.69439851191E+02 -0.71108738257E+02  0.11960942679E+03  0.00000000000E+00 0.  1.
</event>
<event>
 7    1  0.6173324E-006  0.8851020E+02  0.7818608E-02  0.1422142E+00
          2   -1    0    0  502    0  0.00000000000E+00  0.00000000000E+00  0.17070470116E+04  0.17070470116E+04  0.00000000000E+00 0. -1.
          1   -1    0    0  501    0 -0.00000000000E+00 -0.00000000000E+00 -0.58124433033E+03  0.58124433033E+03  0.00000000000E+00 0. -1.
         25    2    1    2    0    0  0.55848125845E+02  0.24624258850E+02 -0.36104937599E+03  0.38691741388E+03  0.12499226369E+03 0.  0.
          2    1    1    2  501    0  0.31729386645E+02 -0.11190306474E+02 -0.20472844764E+03  0.20747461100E+03  0.00000000000E+00 0. -1.
          1    1    1    2  502    0 -0.87577512490E+02 -0.13433952376E+02  0.16915805049E+04  0.16938993170E+04  0.00000000000E+00 0. -1.
         22    1    3    3    0    0  0.51635549236E+02  0.52190843997E+02 -0.98291505756E+02  0.12268387932E+03  0.00000000000E+00 0. -1.
         22    1    3    3    0    0  0.42125766093E+01 -0.27566585148E+02 -0.26275787023E+03  0.26423353456E+03  0.00000000000E+00 0. -1.
</event>
<event>
 7    1  0.6173324E-006  0.1796985E+03  0.7818608E-02  0.1170684E+00
          2   -1    0    0  502    0  0.00000000000E+00  0.00000000000E+00  0.43682444128E+04  0.43682444128E+04  0.00000000000E+00 0. -1.
          1   -1    0    0  501    0 -0.00000000000E+00 -0.00000000000E+00 -0.27743207387E+03  0.27743207387E+03  0.00000000000E+00 0. -1.
         25    2    1    2    0    0  0.11082954688E+03 -0.29415474278E+03  0.51709207218E+03  0.61791531808E+03  0.12499971219E+03 0.  0.
          2    1    1    2  501    0 -0.12712366077E+03  0.11946736413E+03 -0.19115991646E+03  0.25879526634E+03  0.00000000000E+00 0. -1.
          1    1    1    2  502    0  0.16294113891E+02  0.17468737865E+03  0.37648801832E+04  0.37689659023E+04  0.00000000000E+00 0. -1.
         22    1    3    3    0    0  0.12814612576E+03 -0.16985150645E+03  0.32303287720E+03  0.38680900137E+03  0.00000000000E+00 0.  1.
         22    1    3    3    0    0 -0.17316578884E+02 -0.12430323633E+03  0.19405919498E+03  0.23110631671E+03  0.00000000000E+00 0.  1.
</event>
<event>
 7    1  0.6173324E-006  0.9983128E+02  0.7818608E-02  0.1462036E+00
          2   -1    0    0  502    0  0.00000000000E+00  0.00000000000E+00  0.10450481555E+04  0.10450481555E+04  0.00000000000E+00 0. -1.
          1   -1    0    0  501    0 -0.00000000000E+00 -0.00000000000E+00 -0.25764696109E+04  0.25764696109E+04  0.00000000000E+00 0. -1.
         25    2    1    2    0    0 -0.12174793452E+03 -0.71470823158E+01  0.69490054973E+03  0.71650901347E+03  0.12499900811E+03 0.  0.
          2    1    1    2  501    0  0.99615457830E+02  0.60801857492E+01 -0.25643319586E+04  0.25662732906E+04  0.00000000000E+00 0. -1.
          1    1    1    2  502    0  0.22132476689E+02  0.10668965666E+01  0.33800995346E+03  0.33873546232E+03  0.00000000000E+00 0. -1.
         22    1    3    3    0    0 -0.67637105981E+02  0.28413663617E+02  0.57998974401E+03  0.58461116782E+03  0.00000000000E+00 0. -1.
         22    1    3    3    0    0 -0.54110828538E+02 -0.35560745933E+02  0.11491080572E+03  0.13189784565E+03  0.00000000000E+00 0. -1.
</event>
<event>
 7    1  0.6173324E-006  0.9860256E+02  0.7818608E-02  0.1449040E+00
          2   -1    0    0  502    0  0.00000000000E+00  0.00000000000E+00  0.56740836242E+03  0.56740836242E+03  0.00000000000E+00 0. -1.
          1   -1    0    0  501    0 -0.00000000000E+00 -0.00000000000E+00 -0.10972376445E+03  0.10972376445E+03  0.00000000000E+00 0. -1.
         25    2    1    2    0    0  0.94483547028E+02  0.27731976778E+02  0.23935420435E+03  0.28742124346E+03  0.12499733139E+03 0.  0.
          2    1    1    2  501    0 -0.85043861337E+02 -0.50524601035E+02 -0.56404051399E+02  0.11387102650E+03  0.00000000000E+00 0. -1.
          1    1    1    2  502    0 -0.94396856910E+01  0.22792624258E+02  0.27473444501E+03  0.27583985692E+03  0.00000000000E+00 0. -1.
         22    1    3    3    0    0  0.57316870283E+02  0.60593377422E+02  0.21799743762E+03  0.23340879121E+03  0.00000000000E+00 0.  1.
         22    1    3    3    0    0  0.37166676745E+02 -0.32861400645E+02  0.21356766734E+02  0.54012452249E+02  0.00000000000E+00 0.  1.
</event>
<event>
 7    1  0.6173324E-006  0.1695975E+03  0.7818608E-02  0.1322323E+00
          2   -1    0    0  502    0  0.00000000000E+00  0.00000000000E+00  0.29348426515E+03  0.29348426515E+03  0.00000000000E+00 0. -1.
          1   -1    0    0  501    0 -0.00000000000E+00 -0.00000000000E+00 -0.71380264890E+03  0.71380264890E+03  0.00000000000E+00 0. -1.
         25    2    1    2    0    0  0.11510569249E+03  0.74047224217E+02  0.88295631403E+02  0.20531055140E+03  0.12499596847E+03 0.  0.
          2    1    1    2  501    0 -0.13231839281E+03 -0.11021342578E+03 -0.64096618847E+03  0.66369632443E+03  0.00000000000E+00 0. -1.
          1    1    1    2  502    0  0.17212700322E+02  0.36166201558E+02  0.13235217332E+03  0.13828003822E+03  0.00000000000E+00 0. -1.
         22    1    3    3    0    0  0.49259200234E+02 -0.32295988220E+02  0.40154787960E+02  0.71287493005E+02  0.00000000000E+00 0. -1.
         22    1    3    3    0    0  0.65846492257E+02  0.10634321244E+03  0.48140843443E+02  0.13402305839E+03  0.00000000000E+00 0. -1.
</event>
<event>
 7    1  0.6173324E-006  0.1064684E+03  0.7818608E-02  0.1405903E+00
          2   -1    0    0  502    0  0.00000000000E+00  0.00000000000E+00  0.76437100946E+03  0.76437100946E+03  0.00000000000E+00 0. -1.
          1   -1    0    0  501    0 -0.00000000000E+00 -0.00000000000E+00 -0.76707857836E+03  0.76707857836E+03  0.00000000000E+00 0. -1.
         25    2    1    2    0    0  0.23710258518E+02  0.12305828213E+03 -0.30190116720E+03  0.34996357557E+03  0.12499868922E+03 0.  0.
          2    1    1    2  501    0 -0.38219298884E+02 -0.94845297186E+02 -0.43487331545E+03  0.44673386450E+03  0.00000000000E+00 0. -1.
          1    1    1    2  502    0  0.14509040366E+02 -0.28212984940E+02  0.73406691374E+03  0.73475214775E+03  0.00000000000E+00 0. -1.
         22    1    3    3    0    0 -0.59537315204E+01 -0.10265414586E+02  0.58753565457E+01  0.13241807663E+02  0.00000000000E+00 0. -1.
         22    1    3    3    0    0  0.29663990038E+02  0.13332369671E+03 -0.30777652375E+03  0.33672176790E+03  0.00000000000E+00 0. -1.
</event>
<event>
 7    1  0.6173324E-006  0.8034786E+02  0.7818608E-02  0.1482538E+00
          2   -1    0    0  502    0  0.00000000000E+00  0.00000000000E+00  0.29907258240E+03  0.29907258240E+03  0.00000000000E+00 0. -1.
          1   -1    0    0  501    0 -0.00000000000E+00 -0.00000000000E+00 -0.13394545554E+04  0.13394545554E+04  0.00000000000E+00 0. -1.
         25    2    1    2    0    0  0.16259425200E+02  0.83485739908E+02 -0.57465290043E+02  0.16174771292E+03  0.12500330155E+03 0.  0.
          2    1    1    2  501    0  0.20461085873E+02 -0.12121739147E+02 -0.12232081529E+04  0.12234393234E+04  0.00000000000E+00 0. -1.
          1    1    1    2  502    0 -0.36720511073E+02 -0.71364000761E+02  0.24029146992E+03  0.25334010155E+03  0.00000000000E+00 0. -1.
         22    1    3    3    0    0  0.24579714878E+02 -0.13198651295E+02 -0.58377578094E+02  0.64701687796E+02  0.00000000000E+00 0.  1.
         22    1    3    3    0    0 -0.83202896776E+01  0.96684391204E+02  0.91228805084E+00  0.97046025123E+02  0.00000000000E+00 0.  1.
</event>
<event>
 7    1  0.6173324E-006  0.6243819E+02  0.7818608E-02  0.1405479E+00
          2   -1    0    0  502    0  0.00000000000E+00  0.00000000000E+00  0.16582921250E+03  0.16582921250E+03  0.00000000000E+00 0. -1.
          1   -1    0    0  501    0 -0.00000000000E+00 -0.00000000000E+00 -0.13293223694E+04  0.13293223694E+04  0.00000000000E+00 0. -1.
         25    2    1    2    0    0 -0.53710755420E+01  0.24776014544E+02  0.31447249002E+02  0.13136667859E+03  0.12500230168E+03 0.  0.
          2    1    1    2  501    0  0.23043462571E+02  0.49142985365E+02 -0.12615545770E+04  0.12627216577E+04  0.00000000000E+00 0. -1.
          1    1    1    2  502    0 -0.17672387029E+02 -0.73918999909E+02  0.66614171114E+02  0.10106324556E+03  0.00000000000E+00 0. -1.
         22    1    3    3    0    0 -0.64854277758E+02  0.19995082776E+02  0.16125647418E+02  0.69756126493E+02  0.00000000000E+00 0.  1.
         22    1    3    3    0    0  0.59483202216E+02  0.47809317680E+01  0.15321601584E+02  0.61610552095E+02  0.00000000000E+00 0.  1.
</event>
<event>
 7    1  0.6173324E-006  0.4503955E+02  0.7818608E-02  0.1514324E+00
          2   -1    0    0  502    0  0.00000000000E+00  0.00000000000E+00  0.52332838944E+03  0.52332838944E+03  0.00000000000E+00 0. -1.
          1   -1    0    0  501    0 -0.00000000000E+00 -0.00000000000E+00 -0.11481473818E+03  0.11481473818E+03  0.00000000000E+00 0. -1.
         25    2    1    2    0    0 -0.38726709172E+02 -0.15459971982E+02  0.26732159537E+02  0.13445383569E+03  0.12499782734E+03 0.  0.
          2    1    1    2  501    0  0.42903861311E+02 -0.18368101444E+02 -0.51251460235E+02  0.69316957826E+02  0.00000000000E+00 0. -1.
          1    1    1    2  502    0 -0.41771521395E+01  0.33828073426E+02  0.43303295196E+03  0.43437233411E+03  0.00000000000E+00 0. -1.
         22    1    3    3    0    0 -0.78976068804E+02  0.15640684974E+01 -0.69239146030E+01  0.79294428225E+02  0.00000000000E+00 0.  1.
         22    1    3    3    0    0  0.40249359632E+02 -0.17024040479E+02  0.33656074140E+02  0.55159407462E+02  0.00000000000E+00 0.  1.
</event>
<event>
 7    1  0.6173324E-006  0.3639854E+03  0.7818608E-02  0.1210893E+00
          2   -1    0    0  502    0  0.00000000000E+00  0.00000000000E+00  0.41215187702E+03  0.41215187702E+03  0.00000000000E+00 0. -1.
          1   -1    0    0  501    0 -0.00000000000E+00 -0.00000000000E+00 -0.38009735107E+04  0.38009735107E+04  0.00000000000E+00 0. -1.
         25    2    1    2    0    0 -0.40910388288E+03  0.30786839385E+02 -0.65090374660E+03  0.77949367135E+03  0.12498351843E+03 0.  0.
          2    1    1    2  501    0  0.35445749456E+03 -0.39014499394E+02 -0.30732031008E+04  0.30938228044E+04  0.00000000000E+00 0. -1.
          1    1    1    2  502    0  0.54646388321E+02  0.82276600097E+01  0.33528521367E+03  0.33980891197E+03  0.00000000000E+00 0. -1.
         22    1    3    3    0    0 -0.18291995015E+03 -0.33565898927E+01 -0.18351289913E+03  0.25912923225E+03  0.00000000000E+00 0.  1.
         22    1    3    3    0    0 -0.22618393273E+03  0.34143429277E+02 -0.46739084747E+03  0.52036443911E+03  0.00000000000E+00 0.  1.
</event>
<event>
 7    1  0.6173324E-006  0.7743845E+02  0.7818608E-02  0.1426455E+00
          2   -1    0    0  502    0  0.00000000000E+00  0.00000000000E+00  0.47012111222E+03  0.47012111222E+03  0.00000000000E+00 0. -1.
          1   -1    0    0  501    0 -0.00000000000E+00 -0.00000000000E+00 -0.14314842816E+04  0.14314842816E+04  0.00000000000E+00 0. -1.
         25    2    1    2    0    0  0.30637428614E+02 -0.10962113347E+03 -0.19303060997E+03  0.25659545486E+03  0.12499986455E+03 0.  0.
          2    1    1    2  501    0 -0.13574251318E+02  0.34643908572E+02 -0.12030091539E+04  0.12035844321E+04  0.00000000000E+00 0. -1.
          1    1    1    2  502    0 -0.17063177297E+02  0.74977224903E+02  0.43467659453E+03  0.44142550686E+03  0.00000000000E+00 0. -1.
         22    1    3    3    0    0  0.30782721577E+02 -0.68837783092E+02 -0.18882060042E+02  0.77735117676E+02  0.00000000000E+00 0. -1.
         22    1    3    3    0    0 -0.14529296232E+00 -0.40783350382E+02 -0.17414854992E+03  0.17886033719E+03  0.00000000000E+00 0. -1.
</event>
<event>
 7    1  0.6173324E-006  0.6264266E+02  0.7818608E-02  0.1447662E+00
          2   -1    0    0  502    0  0.00000000000E+00  0.00000000000E+00  0.15090588619E+04  0.15090588619E+04  0.00000000000E+00 0. -1.
          1   -1    0    0  501    0 -0.00000000000E+00 -0.00000000000E+00 -0.67824483479E+03  0.67824483479E+03  0.00000000000E+00 0. -1.
         25    2    1    2    0    0  0.49528735172E+02 -0.36315359774E+02  0.27377320622E+03  0.30716321666E+03  0.12500228903E+03 0.  0.
          2    1    1    2  501    0 -0.18253377581E+02  0.59996114505E+02 -0.65974683834E+03  0.66272061251E+03  0.00000000000E+00 0. -1.
          1    1    1    2  502    0 -0.31275357591E+02 -0.23680754731E+02  0.12167876593E+04  0.12174198675E+04  0.00000000000E+00 0. -1.
         22    1    3    3    0    0 -0.91242396049E+01 -0.36580257818E+02  0.13006540628E+02  0.39881538455E+02  0.00000000000E+00 0. -1.
         22    1    3    3    0    0  0.58652974777E+02  0.26489804441E+00  0.26076666559E+03  0.26728167821E+03  0.00000000000E+00 0. -1.
</event>
<event>
 7    1  0.6173324E-006  0.1167241E+03  0.7818608E-02  0.1410475E+00
          2   -1    0    0  502    0  0.00000000000E+00  0.00000000000E+00  0.26626562144E+03  0.26626562144E+03  0.00000000000E+00 0. -1.
          1   -1    0    0  501    0 -0.00000000000E+00 -0.00000000000E+00 -0.13680913197E+04  0.13680913197E+04  0.00000000000E+00 0. -1.
         25    2    1    2    0    0 -0.13621017243E+03  0.25928275396E+02 -0.44862000662E+03  0.48591270627E+03  0.12500304493E+03 0.  0.
          2    1    1    2  501    0  0.25917193525E+02  0.10386339253E+02 -0.88698027538E+03  0.88741962220E+03  0.00000000000E+00 0. -1.
          1    1    1    2  502    0  0.11029297891E+03 -0.36314614649E+02  0.23377458372E+03  0.26102461268E+03  0.00000000000E+00 0. -1.
         22    1    3    3    0    0 -0.12522266834E+03  0.18765534196E+02 -0.45430289061E+03  0.47161846694E+03  0.00000000000E+00 0.  1.
         22    1    3    3    0    0 -0.10987504088E+02  0.71627412002E+01  0.56828839947E+01  0.14294239332E+02  0.00000000000E+00 0.  1.
</event>
<event>
 7    1  0.6173324E-006  0.9209713E+02  0.7818608E-02  0.1453415E+00
          2   -1    0    0  502    0  0.00000000000E+00  0.00000000000E+00  0.77613646162E+03  0.77613646162E+03  0.00000000000E+00 0. -1.
          1   -1    0    0  501    0 -0.00000000000E+00 -0.00000000000E+00 -0.15664923621E+03  0.15664923621E+03  0.00000000000E+00 0. -1.
         25    2    1    2    0    0 -0.47564128804E+02 -0.10493659668E+03  0.76822402504E+02  0.18654966955E+03  0.12500024804E+03 0.  0.
          2    1    1    2  501    0  0.16261904882E+02  0.19741026393E+02 -0.96922639394E+02  0.10024048933E+03  0.00000000000E+00 0. -1.
          1    1    1    2  502    0  0.31302223922E+02  0.85195570286E+02  0.63958746231E+03  0.64599553896E+03  0.00000000000E+00 0. -1.
         22    1    3    3    0    0 -0.36387143239E+02 -0.78356831274E+02 -0.17301008847E+02  0.88108694846E+02  0.00000000000E+00 0. -1.
         22    1    3    3    0    0 -0.11176985566E+02 -0.26579765405E+02  0.94123411351E+02  0.98440974699E+02  0.00000000000E+00 0. -1.
</event>
<event>
 7    1  0.6173324E-006  0.1326315E+03  0.7818608E-02  0.1329195E+00
          2   -1    0    0  502    0  0.00000000000E+00  0.00000000000E+00  0.11824320956E+04  0.11824320956E+04  0.00000000000E+00 0. -1.
          1   -1    0    0  501    0 -0.00000000000E+00 -0.00000000000E+00 -0.44029184402E+03  0.44029184402E+03  0.00000000000E+00 0. -1.
         25    2    1    2    0    0  0.97543527421E+01  0.12026464112E+03 -0.23943031776E+03  0.29582152258E+03  0.12499905943E+03 0.  0.
          2    1    1    2  501    0 -0.47661841341E+02  0.71342217388E+01 -0.16538860927E+03  0.17226706103E+03  0.00000000000E+00 0. -1.
          1    1    1    2  502    0  0.37907488599E+02 -0.12739886286E+03  0.11469591786E+04  0.11546353560E+04  0.00000000000E+00 0. -1.
         22    1    3    3    0    0  0.18050904443E+02  0.49719230330E+01 -0.14599246464E+03  0.14718816156E+03  0.00000000000E+00 0. -1.
         22    1    3    3    0    0 -0.82965517013E+01  0.11529271809E+03 -0.93437853114E+02  0.14863336103E+03  0.00000000000E+00 0. -1.
</event>
<event>
 7    1  0.6173324E-006  0.1284777E+03  0.7818608E-02  0.1266192E+00
          2   -1    0    0  502    0  0.00000000000E+00  0.00000000000E+00  0.15702911817E+04  0.15702911817E+04  0.00000000000E+00 0. -1.
          1   -1    0    0  501    0 -0.00000000000E+00 -0.00000000000E+00 -0.78255592619E+02  0.78255592619E+02  0.00000000000E+00 0. -1.
         25    2    1    2    0    0 -0.97355652671E+02 -0.40964116597E+02  0.18167326668E+03  0.24451182142E+03  0.12499869213E+03 0.  0.
          2    1    1    2  501    0  0.14648548657E+03 -0.33420014438E+02  0.79569846629E+02  0.17001839793E+03  0.00000000000E+00 0. -1.
          1    1    1    2  502    0 -0.49129833899E+02  0.74384131035E+02  0.12307924757E+04  0.12340165549E+04  0.00000000000E+00 0. -1.
         22    1    3    3    0    0  0.13117633286E+02 -0.47087478414E+02  0.82678148909E+02  0.96046755455E+02  0.00000000000E+00 0. -1.
         22    1    3    3    0    0 -0.11047328596E+03  0.61233618173E+01  0.98995117770E+02  0.14846506597E+03  0.00000000000E+00 0. -1.
</event>
<event>
 7    1  0.6173324E-006  0.3270499E+02  0.7818608E-02  0.1630572E+00
          2   -1    0    0  502    0  0.00000000000E+00  0.00000000000E+00  0.22849222624E+04  0.22849222624E+04  0.00000000000E+00 0. -1.
          1   -1    0    0  501    0 -0.00000000000E+00 -0.00000000000E+00 -0.24999236397E+02  0.24999236397E+02  0.00000000000E+00 0. -1.
         25    2    1    2    0    0 -0.42564842011E+02 -0.25956783876E+02  0.77729735986E+03  0.78886627223E+03  0.12503315326E+03 0.  0.
          2    1    1    2  501    0  0.22708205904E+02  0.50554762687E+00 -0.12266585149E+02  0.25814478593E+02  0.00000000000E+00 0. -1.
          1    1    1    2  502    0  0.19856636107E+02  0.25451236249E+02  0.14948922513E+04  0.14952407480E+04  0.00000000000E+00 0. -1.
         22    1    3    3    0    0 -0.29752261048E+02  0.45526525827E+02  0.20953244765E+03  0.21647565270E+03  0.00000000000E+00 0. -1.
         22    1    3    3    0    0 -0.12812580963E+02 -0.71483309703E+02  0.56776491221E+03  0.57239061954E+03  0.00000000000E+00 0. -1.
</event>
<event>
 7    1  0.6173324E-006  0.1308896E+03  0.7818608E-02  0.1315681E+00
          2   -1    0    0  502    0  0.00000000000E+00  0.00000000000E+00  0.40485354544E+03  0.40485354544E+03  0.00000000000E+00 0. -1.
          1   -1    0    0  501    0 -0.00000000000E+00 -0.00000000000E+00 -0.12782585434E+03  0.12782585434E+03  0.00000000000E+00 0. -1.
         25    2    1    2    0    0  0.97562910004E+02 -0.26757753616E+02  0.16686727834E+03  0.23174180860E+03  0.12500031394E+03 0.  0.
          2    1    1    2  501    0 -0.13998290152E+03 -0.83692599259E+01 -0.35970141558E+02  0.14477260899E+03  0.00000000000E+00 0. -1.
          1    1    1    2  502    0  0.42419991518E+02  0.35127013542E+02  0.14613055431E+03  0.15616498219E+03  0.00000000000E+00 0. -1.
         22    1    3    3    0    0  0.12192555294E+03 -0.11535615458E+01  0.14773208638E+03  0.19155140435E+03  0.00000000000E+00 0.  1.
         22    1    3    3    0    0 -0.24362642933E+02 -0.25604192070E+02  0.19135191967E+02  0.40190404251E+02  0.00000000000E+00 0.  1.
</event>
<event>
 7    1  0.6173324E-006  0.4159942E+02  0.7818608E-02  0.1577088E+00
          2   -1    0    0  502    0  0.00000000000E+00  0.00000000000E+00  0.76210759804E+02  0.76210759804E+02  0.00000000000E+00 0. -1.
          1   -1    0    0  501    0 -0.00000000000E+00 -0.00000000000E+00 -0.17252451517E+03  0.17252451517E+03  0.00000000000E+00 0. -1.
         25    2    1    2    0    0  0.34426955111E+02 -0.82629836492E+00 -0.10428498282E+03  0.16639337580E+03  0.12500199943E+03 0.  0.
          2    1    1    2  501    0 -0.40753029800E+02  0.24598016486E+02 -0.13726636272E+02  0.49540815458E+02  0.00000000000E+00 0. -1.
          1    1    1    2  502    0  0.63260746893E+01 -0.23771718121E+02  0.21697863719E+02  0.32801083722E+02  0.00000000000E+00 0. -1.
         22    1    3    3    0    0  0.15160884851E+02 -0.28290372047E+02  0.19894400305E+02  0.37762213170E+02  0.00000000000E+00 0. -1.
         22    1    3    3    0    0  0.19266070259E+02  0.27464073682E+02 -0.12417938312E+03  0.12863116263E+03  0.00000000000E+00 0. -1.
</event>
<event>
 7    1  0.6173324E-006  0.1151991E+03  0.7818608E-02  0.1274545E+00
          2   -1    0    0  502    0  0.00000000000E+00  0.00000000000E+00  0.56428542151E+02  0.56428542151E+02  0.00000000000E+00 0. -1.
          1   -1    0    0  501    0 -0.00000000000E+00 -0.00000000000E+00 -0.16742346384E+04  0.16742346384E+04  0.00000000000E+00 0. -1.
         25    2    1    2    0    0  0.98017143289E+02  0.33686358581E+02 -0.79935774239E+03  0.81568378791E+03  0.12500044160E+03 0.  0.
          2    1    1    2  501    0 -0.51134248940E+02  0.76131342258E+02 -0.78587712476E+03  0.79121017935E+03  0.00000000000E+00 0. -1.
          1    1    1    2  502    0 -0.46882894349E+02 -0.10981770084E+03 -0.32571229131E+02  0.12376921333E+03  0.00000000000E+00 0. -1.
         22    1    3    3    0    0 -0.11091082440E+02  0.50594201856E+02 -0.23796641616E+03  0.24353808859E+03  0.00000000000E+00 0.  1.
         22    1    3    3    0    0  0.10910822573E+03 -0.16907843275E+02 -0.56139132623E+03  0.57214569932E+03  0.00000000000E+00 0.  1.
</event>
<event>
 7    1  0.6173324E-006  0.2803411E+03  0.7818608E-02  0.1326569E+00
          2   -1    0    0  502    0  0.00000000000E+00  0.00000000000E+00  0.58485945956E+03  0.58485945956E+03  0.00000000000E+00 0. -1.
          1   -1    0    0  501    0 -0.00000000000E+00 -0.00000000000E+00 -0.21776024403E+04  0.21776024403E+04  0.00000000000E+00 0. -1.
         25    2    1    2    0    0  0.19422959459E+03 -0.19189307056E+03 -0.93255211466E+02  0.31443514016E+03  0.12499934784E+03 0.  0.
          2    1    1    2  501    0 -0.18371350578E+03  0.21272411788E+03 -0.19634559836E+04  0.19834721078E+04  0.00000000000E+00 0. -1.
          1    1    1    2  502    0 -0.10516088814E+02 -0.20831047325E+02  0.46396821439E+03  0.46455465192E+03  0.00000000000E+00 0. -1.
         22    1    3    3    0    0  0.10947570266E+03 -0.13577445148E+03 -0.11703704404E+03  0.21004118840E+03  0.00000000000E+00 0.  1.
         22    1    3    3    0    0  0.84753891928E+02 -0.56118619080E+02  0.23781832569E+02  0.10439395176E+03  0.00000000000E+00 0.  1.
</event>
<event>
 7    1  0.6173324E-006  0.1355359E+03  0.7818608E-02  0.1309575E+00
          2   -1    0    0  502    0  0.00000000000E+00  0.00000000000E+00  0.18276199142E+04  0.18276199142E+04  0.00000000000E+00 0. -1.
          1   -1    0    0  501    0 -0.00000000000E+00 -0.00000000000E+00 -0.18336279124E+03  0.18336279124E+03  0.00000000000E+00 0. -1.
         25    2    1    2    0    0 -0.42005122600E+02 -0.14670276777E+03  0.20776387777E+02  0.19831245339E+03  0.12494013961E+03 0.  0.
          2    1    1    2  501    0 -0.40244371898E+02  0.39235622387E+02 -0.83324278036E+02  0.10050860084E+03  0.00000000000E+00 0. -1.
          1    1    1    2  502    0  0.82249494498E+02  0.10746714539E+03  0.17068050133E+04  0.17121616512E+04  0.00000000000E+00 0. -1.
         22    1    3    3    0    0 -0.63201797594E+02 -0.95347671871E+02  0.61077570295E+02  0.12967696535E+03  0.00000000000E+00 0.  1.
         22    1    3    3    0    0  0.21196674993E+02 -0.51355095901E+02 -0.40301182518E+02  0.68635488038E+02  0.00000000000E+00 0.  1.
</event>
<event>
 7    1  0.6173324E-006  0.2225599E+03  0.7818608E-02  0.1263617E+00
          2   -1    0    0  502    0  0.00000000000E+00  0.00000000000E+00  0.48698233812E+03  0.48698233812E+03  0.00000000000E+00 0. -1.
          1   -1    0    0  501    0 -0.00000000000E+00 -0.00000000000E+00 -0.26742773989E+04  0.26742773989E+04  0.00000000000E+00 0. -1.
         25    2    1    2    0    0  0.15854117901E+03 -0.21675627598E+03 -0.23418469106E+03  0.37760498561E+03  0.12499786802E+03 0.  0.
          2    1    1    2  501    0 -0.18248999203E+02  0.49513039069E+02 -0.23393771272E+04  0.23399722028E+04  0.00000000000E+00 0. -1.
          1    1    1    2  502    0 -0.14029217980E+03  0.16724323691E+03  0.38626675744E+03  0.44368254858E+03  0.00000000000E+00 0. -1.
         22    1    3    3    0    0  0.75763376854E+02 -0.17015369480E+03 -0.94984258629E+02  0.20907983766E+03  0.00000000000E+00 0.  1.
         22    1    3    3    0    0  0.82777802151E+02 -0.46602581179E+02 -0.13920043244E+03  0.16852514795E+03  0.00000000000E+00 0.  1.
</event>
<event>
 7    1  0.6173324E-006  0.1033609E+03  0.7818608E-02  0.1305841E+00
          2   -1    0    0  502    0  0.00000000000E+00  0.00000000000E+00  0.43221792187E+03  0.43221792187E+03  0.00000000000E+00 0. -1.
          1   -1    0    0  501    0 -0.00000000000E+00 -0.00000000000E+00 -0.36092926476E+03  0.36092926476E+03  0.00000000000E+00 0. -1.
         25    2    1    2    0    0  0.49508748643E+02  0.13388207662E+03 -0.94995140272E+02  0.21218982245E+03  0.12499966977E+03 0.  0.
          2    1    1    2  501    0 -0.76137288730E+02 -0.62432104359E+02 -0.19139758940E+03  0.21523868523E+03  0.00000000000E+00 0. -1.
          1    1    1    2  502    0  0.26628540087E+02 -0.71449972265E+02  0.35768138678E+03  0.36571867895E+03  0.00000000000E+00 0. -1.
         22    1    3    3    0    0  0.77351685091E+02  0.34210872474E+02 -0.56787265435E+02  0.10187472944E+03  0.00000000000E+00 0. -1.
         22    1    3    3    0    0 -0.27842936448E+02  0.99671204149E+02 -0.38207874837E+02  0.11031509301E+03  0.00000000000E+00 0. -1.
</event>
<event>
 7    1  0.6173324E-006  0.1397551E+03  0.7818608E-02  0.1232853E+00
          2   -1    0    0  502    0  0.00000000000E+00  0.00000000000E+00  0.13227701264E+04  0.13227701264E+04  0.00000000000E+00 0. -1.
          1   -1    0    0  501    0 -0.00000000000E+00 -0.00000000000E+00 -0.19887547533E+03  0.19887547533E+03  0.00000000000E+00 0. -1.
         25    2    1    2    0    0  0.58786753900E+02 -0.46975812217E+01  0.18130113336E+03  0.22797000538E+03  0.12498909029E+03 0.  0.
          2    1    1    2  501    0  0.76232938217E+02 -0.85263687547E+02 -0.15026408055E+03  0.18884027956E+03  0.00000000000E+00 0. -1.
          1    1    1    2  502    0 -0.13501969212E+03  0.89961268769E+02  0.10928575982E+04  0.11048353168E+04  0.00000000000E+00 0. -1.
         22    1    3    3    0    0  0.30428301761E+01  0.16725994179E+02  0.16526274899E+03  0.16613486660E+03  0.00000000000E+00 0.  1.
         22    1    3    3    0    0  0.55743923724E+02 -0.21423575401E+02  0.16038384377E+02  0.61835138785E+02  0.00000000000E+00 0.  1.
</event>
<event>
 7    1  0.6173324E-006  0.1459647E+03  0.7818608E-02  0.1223880E+00
          2   -1    0    0  502    0  0.00000000000E+00  0.00000000000E+00  0.49662800135E+03  0.49662800135E+03  0.00000000000E+00 0. -1.
          1   -1    0    0  501    0 -0.00000000000E+00 -0.00000000000E+00 -0.20242603226E+04  0.20242603226E+04  0.00000000000E+00 0. -1.
         25    2    1    2    0    0  0.75832989329E+02 -0.38065675687E+01 -0.22734422934E+03  0.27032685685E+03  0.12500431470E+03 0.  0.
          2    1    1    2  501    0  0.10571307558E+02 -0.11970251357E+03 -0.17613712672E+04  0.17654657134E+04  0.00000000000E+00 0. -1.
          1    1    1    2  502    0 -0.86404296887E+02  0.12350908113E+03  0.46108317533E+03  0.48509575366E+03  0.00000000000E+00 0. -1.
         22    1    3    3    0    0  0.48715368899E+02  0.25488510884E+02 -0.22356788879E+03  0.23022912989E+03  0.00000000000E+00 0.  1.
         22    1    3    3    0    0  0.27117620430E+02 -0.29295078453E+02 -0.37763405518E+01  0.40097726959E+02  0.00000000000E+00 0.  1.
</event>
<event>
 7    1  0.6173324E-006  0.2922305E+02  0.7818608E-02  0.1629900E+00
          2   -1    0    0  502    0  0.00000000000E+00  0.00000000000E+00  0.14666730643E+03  0.14666730643E+03  0.00000000000E+00 0. -1.
          1   -1    0    0  501    0 -0.00000000000E+00 -0.00000000000E+00 -0.90415676255E+03  0.90415676255E+03  0.00000000000E+00 0. -1.
         25    2    1    2    0    0  0.40439802069E+02 -0.22038210404E+02 -0.45744241043E+03  0.47644506918E+03  0.12500113912E+03 0.  0.
          2    1    1    2  501    0 -0.15031239771E+02  0.24412642240E+02 -0.43555072947E+03  0.43649324533E+03  0.00000000000E+00 0. -1.
          1    1    1    2  502    0 -0.25408562299E+02 -0.23744318362E+01  0.13550368379E+03  0.13788575447E+03  0.00000000000E+00 0. -1.
         22    1    3    3    0    0  0.26261122943E+02 -0.74126162079E+02 -0.29290713429E+03  0.30328027268E+03  0.00000000000E+00 0.  1.
         22    1    3    3    0    0  0.14178679126E+02  0.52087951675E+02 -0.16453527614E+03  0.17316479650E+03  0.00000000000E+00 0.  1.
</event>
<event>
 7    1  0.6173324E-006  0.1659328E+03  0.7818608E-02  0.1315546E+00
          2   -1    0    0  502    0  0.00000000000E+00  0.00000000000E+00  0.17351083546E+03  0.17351083546E+03  0.00000000000E+00 0. -1.
          1   -1    0    0  501    0 -0.00000000000E+00 -0.00000000000E+00 -0.10490506752E+04  0.10490506752E+04  0.00000000000E+00 0. -1.
         25    2    1    2    0    0  0.30381784610E+02  0.14911358902E+03 -0.19797931349E+03  0.27925024345E+03  0.12500789827E+03 0.  0.
          2    1    1    2  501    0 -0.73706239288E+02 -0.15298577384E+03 -0.79768176877E+03  0.81555714756E+03  0.00000000000E+00 0. -1.
          1    1    1    2  502    0  0.43324454678E+02  0.38721848256E+01  0.12012124251E+03  0.12775411966E+03  0.00000000000E+00 0. -1.
         22    1    3    3    0    0 -0.26391720553E+02  0.73493806908E+02 -0.15867095482E+03  0.17684551018E+03  0.00000000000E+00 0. -1.
         22    1    3    3    0    0  0.56773505163E+02  0.75619782108E+02 -0.39308358674E+02  0.10240473327E+03  0.00000000000E+00 0. -1.
</event>
<event>
 7    1  0.6173324E-006  0.1555418E+03  0.7818608E-02  0.1306844E+00
          2   -1    0    0  502    0  0.00000000000E+00  0.00000000000E+00  0.11809749570E+03  0.11809749570E+03  0.00000000000E+00 0. -1.
          1   -1    0    0  501    0 -0.00000000000E+00 -0.00000000000E+00 -0.18772503089E+04  0.18772503089E+04  0.00000000000E+00 0. -1.
         25    2    1    2    0    0 -0.94960076877E+02  0.12179648508E+03 -0.95532398293E+03  0.97576632944E+03  0.12499686931E+03 0.  0.
          2    1    1    2  501    0  0.53607177192E+02 -0.15027125262E+03 -0.89842768563E+03  0.91248423829E+03  0.00000000000E+00 0. -1.
          1    1    1    2  502    0  0.41352899685E+02  0.28474767541E+02  0.94598855392E+02  0.10709723685E+03  0.00000000000E+00 0. -1.
         22    1    3    3    0    0 -0.43495140381E+01  0.10658155181E+03 -0.53121968788E+03  0.54182368188E+03  0.00000000000E+00 0. -1.
         22    1    3    3    0    0 -0.90610562839E+02  0.15214933270E+02 -0.42410429504E+03  0.43394264756E+03  0.00000000000E+00 0. -1.
</event>
<event>
 7    1  0.6173324E-006  0.4969223E+02  0.7818608E-02  0.1453754E+00
          2   -1    0    0  502    0  0.00000000000E+00  0.00000000000E+00  0.32471859424E+04  0.32471859424E+04  0.00000000000E+00 0. -1.
          1   -1    0    0  501    0 -0.00000000000E+00 -0.00000000000E+00 -0.35823324606E+02  0.35823324606E+02  0.00000000000E+00 0. -1.
         25    2    1    2    0    0  0.51932092880E+02 -0.69167786315E+02  0.91572415708E+03  0.92825511060E+03  0.12500277420E+03 0.  0.
          2    1    1    2  501    0 -0.91023425846E+01  0.46400145071E+02 -0.10227596164E+02  0.48377989070E+02  0.00000000000E+00 0. -1.
          1    1    1    2  502    0 -0.42829750296E+02  0.22767641244E+02  0.23058660569E+04  0.23063761673E+04  0.00000000000E+00 0. -1.
         22    1    3    3    0    0 -0.24122810999E+02  0.22422193012E+02  0.20535444479E+03  0.20797863531E+03  0.00000000000E+00 0. -1.
         22    1    3    3    0    0  0.76054903879E+02 -0.91589979326E+02  0.71036971229E+03  0.72027647529E+03  0.00000000000E+00 0. -1.
</event>
<event>
 7    1  0.6173324E-006  0.4483353E+02  0.7818608E-02  0.1484883E+00
          2   -1    0    0  502    0  0.00000000000E+00  0.00000000000E+00  0.19481480628E+04  0.19481480628E+04  0.00000000000E+00 0. -1.
          1   -1    0    0  501    0 -0.00000000000E+00 -0.00000000000E+00 -0.52724911597E+03  0.52724911597E+03  0.00000000000E+00 0. -1.
         25    2    1    2    0    0 -0.62900486341E+02 -0.87747732312E+01  0.96317019755E+02  0.17010470866E+03  0.12500070315E+03 0.  0.
          2    1    1    2  501    0  0.33575134591E+02 -0.25107038211E+02 -0.48918192961E+03  0.49097516565E+03  0.00000000000E+00 0. -1.
          1    1    1    2  502    0  0.29325351750E+02  0.33881811442E+02  0.18137638567E+04  0.18143173044E+04  0.00000000000E+00 0. -1.
         22    1    3    3    0    0 -0.60934260818E+02 -0.56855883170E+02  0.88124555766E+02  0.12129102572E+03  0.00000000000E+00 0.  1.
         22    1    3    3    0    0 -0.19662255234E+01  0.48081109939E+02  0.81924639893E+01  0.48813682938E+02  0.00000000000E+00 0.  1.
</event>
<event>
 7    1  0.6173324E-006  0.5854748E+02  0.7818608E-02  0.1420946E+00
          2   -1    0    0  502    0  0.00000000000E+00  0.00000000000E+00  0.31280889635E+02  0.31280889635E+02  0.00000000000E+00 0. -1.
          1   -1    0    0  501    0 -0.00000000000E+00 -0.00000000000E+00 -0.21971538559E+04  0.21971538559E+04  0.00000000000E+00 0. -1.
         25    2    1    2    0    0 -0.44813212283E+02  0.14249958907E+02 -0.24302258672E+03  0.27729709347E+03  0.12498965983E+03 0.  0.
          2    1    1    2  501    0  0.19776901476E+02  0.47369552508E+02 -0.18564335120E+04  0.18571430706E+04  0.00000000000E+00 0. -1.
          1    1    1    2  502    0  0.25036310807E+02 -0.61619511415E+02 -0.66416867580E+02  0.93994581466E+02  0.00000000000E+00 0. -1.
         22    1    3    3    0    0 -0.16803874711E+02  0.42133037156E+01  0.11659974234E+02  0.20882459928E+02  0.00000000000E+00 0.  1.
         22    1    3    3    0    0 -0.28009337572E+02  0.10036655192E+02 -0.25468256095E+03  0.25641463354E+03  0.00000000000E+00 0.  1.
</event>
<event>
 7    1  0.6173324E-006  0.7543886E+02  0.7818608E-02  0.1463190E+00
          2   -1    0    0  502    0  0.00000000000E+00  0.00000000000E+00  0.10258068094E+04  0.10258068094E+04  0.00000000000E+00 0. -1.
          1   -1    0    0  501    0 -0.00000000000E+00 -0.00000000000E+00 -0.73653248367E+02  0.73653248367E+02  0.00000000000E+00 0. -1.
         25    2    1    2    0    0 -0.14624902620E+02 -0.10179024873E+03  0.60398180853E+03  0.62529563011E+03  0.12500182994E+03 0.  0.
          2    1    1    2  501    0  0.52142335758E+01  0.74276149778E+02 -0.40259591044E+02  0.84646141842E+02  0.00000000000E+00 0. -1.
          1    1    1    2  502    0  0.94106690444E+01  0.27514098948E+02  0.38843134350E+03  0.38951828577E+03  0.00000000000E+00 0. -1.
         22    1    3    3    0    0 -0.49211295134E+02 -0.68548511998E+02  0.53290840219E+03  0.53954797302E+03  0.00000000000E+00 0.  1.
         22    1    3    3    0    0  0.34586392514E+02 -0.33241736728E+02  0.71073406340E+02  0.85747657091E+02  0.00000000000E+00 0.  1.
</event>
<event>
 7    1  0.6173324E-006  0.1498002E+03  0.7818608E-02  0.1209192E+00
          2   -1    0    0  502    0  0.00000000000E+00  0.00000000000E+00  0.39597991918E+03  0.39597991918E+03  0.00000000000E+00 0. -1.
          1   -1    0    0  501    0 -0.00000000000E+00 -0.00000000000E+00 -0.15059294079E+04  0.15059294079E+04  0.00000000000E+00 0. -1.
         25    2    1    2    0    0  0.31729523474E+02 -0.20971729589E+02 -0.55417527531E+02  0.14192349055E+03  0.12499839483E+03 0.  0.
          2    1    1    2  501    0  0.98162070608E+02  0.11315617743E+03 -0.13850307470E+04  0.13931081375E+04  0.00000000000E+00 0. -1.
          1    1    1    2  502    0 -0.12989159408E+03 -0.92184447840E+02  0.33049878581E+03  0.36687769905E+03  0.00000000000E+00 0. -1.
         22    1    3    3    0    0 -0.17195414245E+02 -0.46851325059E+02 -0.68786098227E+02  0.84983858704E+02  0.00000000000E+00 0.  1.
         22    1    3    3    0    0  0.48924937719E+02  0.25879595469E+02  0.13368570696E+02  0.56939631847E+02  0.00000000000E+00 0.  1.
</event>
<event>
 7    1  0.6173324E-006  0.1529737E+03  0.7818608E-02  0.1381154E+00
          2   -1    0    0  502    0  0.00000000000E+00  0.00000000000E+00  0.22538266724E+04  0.22538266724E+04  0.00000000000E+00 0. -1.
          1   -1    0    0  501    0 -0.00000000000E+00 -0.00000000000E+00 -0.53128472812E+02  0.53128472812E+02  0.00000000000E+00 0. -1.
         25    2    1    2    0    0 -0.54761542942E+02  0.13343649567E+03  0.37516754939E+03  0.42092711163E+03  0.12499927293E+03 0.  0.
          2    1    1    2  501    0  0.20685802256E+02  0.17213305864E+02 -0.20323439584E+02  0.33723026410E+02  0.00000000000E+00 0. -1.
          1    1    1    2  502    0  0.34075740686E+02 -0.15064980153E+03  0.18458540898E+04  0.18523050071E+04  0.00000000000E+00 0. -1.
         22    1    3    3    0    0 -0.47488807085E+02  0.14191116874E+03  0.22424458245E+03  0.26959154172E+03  0.00000000000E+00 0.  1.
         22    1    3    3    0    0 -0.72727358571E+01 -0.84746730676E+01  0.15092296694E+03  0.15133556991E+03  0.00000000000E+00 0.  1.
</event>
<event>
 7    1  0.6173324E-006  0.5816348E+02  0.7818608E-02  0.1483263E+00
          2   -1    0    0  502    0  0.00000000000E+00  0.00000000000E+00  0.71928078189E+03  0.71928078189E+03  0.00000000000E+00 0. -1.
          1   -1    0    0  501    0 -0.00000000000E+00 -0.00000000000E+00 -0.12044803829E+04  0.12044803829E+04  0.00000000000E+00 0. -1.
         25    2    1    2    0    0 -0.35709273620E+02  0.77684618822E+01 -0.64076118743E+03  0.65386203027E+03  0.12500061640E+03 0.  0.
          2    1    1    2  501    0  0.55371588222E+02 -0.33879158485E+02 -0.55490102910E+03  0.55868502956E+03  0.00000000000E+00 0. -1.
          1    1    1    2  502    0 -0.19662314601E+02  0.26110696603E+02  0.71046261550E+03  0.71121410498E+03  0.00000000000E+00 0. -1.
         22    1    3    3    0    0 -0.68636369665E+02  0.43800021197E+02 -0.40210992803E+03  0.41027038318E+03  0.00000000000E+00 0. -1.
         22    1    3    3    0    0  0.32927096044E+02 -0.36031559315E+02 -0.23865125939E+03  0.24359164709E+03  0.00000000000E+00 0. -1.
</event>
<event>
 7    1  0.6173324E-006  0.5914572E+02  0.7818608E-02  0.1407086E+00
          2   -1    0    0  502    0  0.00000000000E+00  0.00000000000E+00  0.37565801898E+03  0.37565801898E+03  0.00000000000E+00 0. -1.
          1   -1    0    0  501    0 -0.00000000000E+00 -0.00000000000E+00 -0.12261338882E+04  0.12261338882E+04  0.00000000000E+00 0. -1.
         25    2    1    2    0    0 -0.97171199294E+02  0.39469382518E+02 -0.18261067570E+03  0.24489211340E+03  0.12500165677E+03 0.  0.
          2    1    1    2  501    0  0.38491308100E+02 -0.41470957610E+02 -0.10090826273E+04  0.10106676851E+04  0.00000000000E+00 0. -1.
          1    1    1    2  502    0  0.58679891193E+02  0.20015750923E+01  0.34121743377E+03  0.34623210862E+03  0.00000000000E+00 0. -1.
         22    1    3    3    0    0  0.24616897142E+02 -0.99912253158E+01 -0.11075633481E+02  0.28783430393E+02  0.00000000000E+00 0.  1.
         22    1    3    3    0    0 -0.12178809644E+03  0.49460607833E+02 -0.17153504222E+03  0.21610868300E+03  0.00000000000E+00 0.  1.
</event>
<event>
 7    1  0.6173324E-006  0.8228223E+02  0.7818608E-02  0.1329630E+00
          2   -1    0    0  502    0  0.00000000000E+00  0.00000000000E+00  0.35302429005E+03  0.35302429005E+03  0.00000000000E+00 0. -1.
          1   -1    0    0  501    0 -0.00000000000E+00 -0.00000000000E+00 -0.14203387503E+04  0.14203387503E+04  0.00000000000E+00 0. -1.
         25    2    1    2    0    0 -0.10973604602E+02 -0.15789144978E+02 -0.23174562693E+02  0.12857792494E+03  0.12500202130E+03 0.  0.
          2    1    1    2  501    0 -0.40021188452E+02  0.73996775675E+02 -0.13381344331E+04  0.13407762600E+04  0.00000000000E+00 0. -1.
          1    1    1    2  502    0  0.50994793055E+02 -0.58207630698E+02  0.29399453558E+03  0.30400885537E+03  0.00000000000E+00 0. -1.
         22    1    3    3    0    0  0.49497754558E+02 -0.12238051967E+01  0.19425967783E+02  0.53187344639E+02  0.00000000000E+00 0.  1.
         22    1    3    3    0    0 -0.60471359160E+02 -0.14565339781E+02 -0.42600530476E+02  0.75390580303E+02  0.00000000000E+00 0.  1.
</event>
<event>
 7    1  0.6173324E-006  0.5432530E+02  0.7818608E-02  0.1550320E+00
          2   -1    0    0  502    0  0.00000000000E+00  0.00000000000E+00  0.96538586559E+03  0.96538586559E+03  0.00000000000E+00 0. -1.
          1   -1    0    0  501    0 -0.00000000000E+00 -0.00000000000E+00 -0.19036871044E+04  0.19036871044E+04  0.00000000000E+00 0. -1.
         25    2    1    2    0    0 -0.50372929945E+02 -0.24010107961E+02 -0.34633291294E+03  0.37240541720E+03  0.12500156326E+03 0.  0.
          2    1    1    2  501    0  0.54393033482E+02  0.20739016131E+01 -0.15437076262E+04  0.15446669992E+04  0.00000000000E+00 0. -1.
          1    1    1    2  502    0 -0.40201035368E+01  0.21936206348E+02  0.95173930030E+03  0.95200055363E+03  0.00000000000E+00 0. -1.
         22    1    3    3    0    0 -0.69774657843E+02 -0.58981985920E+02 -0.28410221926E+03  0.29843164800E+03  0.00000000000E+00 0.  1.
         22    1    3    3    0    0  0.19401727898E+02  0.34971877959E+02 -0.62230693682E+02  0.73973769199E+02  0.00000000000E+00 0.  1.
</event>
<event>
 7    1  0.6173324E-006  0.5584402E+02  0.7818608E-02  0.1426177E+00
          2   -1    0    0  502    0  0.00000000000E+00  0.00000000000E+00  0.29625319844E+03  0.29625319844E+03  0.00000000000E+00 0. -1.
          1   -1    0    0  501    0 -0.00000000000E+00 -0.00000000000E+00 -0.18631062304E+03  0.18631062304E+03  0.00000000000E+00 0. -1.
         25    2    1    2    0    0 -0.57293805337E+02 -0.36587559039E+02 -0.82490000692E+02  0.16447159777E+03  0.12500030661E+03 0.  0.
          2    1    1    2  501    0  0.95831495696E+01  0.56517271397E+02 -0.46385777490E+02  0.73740620253E+02  0.00000000000E+00 0. -1.
          1    1    1    2  502    0  0.47710655768E+02 -0.19929712358E+02  0.23881835358E+03  0.24435160346E+03  0.00000000000E+00 0. -1.
         22    1    3    3    0    0 -0.71691551215E+02 -0.88242250284E+01  0.41580967495E+01  0.72352161209E+02  0.00000000000E+00 0.  1.
         22    1    3    3    0    0  0.14397745878E+02 -0.27763334010E+02 -0.86648097442E+02  0.92119436559E+02  0.00000000000E+00 0.  1.
</event>
<event>
 7    1  0.6173324E-006  0.1498885E+03  0.7818608E-02  0.1258921E+00
          2   -1    0    0  502    0  0.00000000000E+00  0.00000000000E+00  0.19465581960E+04  0.19465581960E+04  0.00000000000E+00 0. -1.
          1   -1    0    0  501    0 -0.00000000000E+00 -0.00000000000E+00 -0.20415317234E+04  0.20415317234E+04  0.00000000000E+00 0. -1.
         25    2    1    2    0    0 -0.74992336660E+02  0.39544992036E+02  0.38331114146E+01  0.15108643199E+03  0.12499904094E+03 0.  0.
          2    1    1    2  501    0 -0.77440535434E+02 -0.27102221485E+02 -0.19639185029E+04  0.19656315659E+04  0.00000000000E+00 0. -1.
          1    1    1    2  502    0  0.15243287209E+03 -0.12442770551E+02  0.18651118641E+04  0.18713719215E+04  0.00000000000E+00 0. -1.
         22    1    3    3    0    0 -0.92778081831E+02 -0.14569513896E+02 -0.98920958378E+00  0.93920294606E+02  0.00000000000E+00 0.  1.
         22    1    3    3    0    0  0.17785745170E+02  0.54114505933E+02  0.48223209984E+01  0.57166137384E+02  0.00000000000E+00 0.  1.
</event>
<event>
 7    1  0.6173324E-006  0.7322215E+02  0.7818608E-02  0.1376378E+00
          2   -1    0    0  502    0  0.00000000000E+00  0.00000000000E+00  0.63599031310E+03  0.63599031310E+03  0.00000000000E+00 0. -1.
          1   -1    0    0  501    0 -0.00000000000E+00 -0.00000000000E+00 -0.90419713007E+03  0.90419713007E+03  0.00000000000E+00 0. -1.
         25    2    1    2    0    0  0.52260125505E+02 -0.51752452160E+02  0.18528736147E+02  0.14621453412E+03  0.12500375555E+03 0.  0.
          2    1    1    2  501    0 -0.54036651255E+02 -0.22304143395E+02 -0.83685195102E+03  0.83889130548E+03  0.00000000000E+00 0. -1.
          1    1    1    2  502    0  0.17765257506E+01  0.74056595556E+02  0.55011639790E+03  0.55508160358E+03  0.00000000000E+00 0. -1.
         22    1    3    3    0    0  0.91682673839E+02 -0.31230500951E+02  0.27897723918E+02  0.10079355074E+03  0.00000000000E+00 0. -1.
         22    1    3    3    0    0 -0.39422548334E+02 -0.20521951209E+02 -0.93689877711E+01  0.45420983372E+02  0.00000000000E+00 0. -1.
</event>
<event>
 7    1  0.6173324E-006  0.6115287E+02  0.7818608E-02  0.1434591E+00
          2   -1    0    0  502    0  0.00000000000E+00  0.00000000000E+00  0.26013755591E+04  0.26013755591E+04  0.00000000000E+00 0. -1.
          1   -1    0    0  501    0 -0.00000000000E+00 -0.00000000000E+00 -0.22372797324E+02  0.22372797324E+02  0.00000000000E+00 0. -1.
         25    2    1    2    0    0  0.50211375710E+02 -0.40568904946E+00  0.11987170073E+04  0.12062622260E+04  0.12499899046E+03 0.  0.
          2    1    1    2  501    0 -0.18429908938E+01 -0.44262866303E+02  0.97392520116E+01  0.45359133353E+02  0.00000000000E+00 0. -1.
          1    1    1    2  502    0 -0.48368384816E+02  0.44668555353E+02  0.13705465025E+04  0.13721269971E+04  0.00000000000E+00 0. -1.
         22    1    3    3    0    0 -0.13610968367E+02 -0.24566484083E+02  0.87403149815E+03  0.87448260724E+03  0.00000000000E+00 0.  1.
         22    1    3    3    0    0  0.63822344077E+02  0.24160795033E+02  0.32468550910E+03  0.33177961879E+03  0.00000000000E+00 0.  1.
</event>
<event>
 7    1  0.6173324E-006  0.3497296E+02  0.7818608E-02  0.1549188E+00
          2   -1    0    0  502    0  0.00000000000E+00  0.00000000000E+00  0.39344600240E+03  0.39344600240E+03  0.00000000000E+00 0. -1.
          1   -1    0    0  501    0 -0.00000000000E+00 -0.00000000000E+00 -0.10025245340E+04  0.10025245340E+04  0.00000000000E+00 0. -1.
         25    2    1    2    0    0 -0.99820030441E+01  0.18320851140E+01 -0.88381631388E+02  0.15343799312E+03  0.12501563120E+03 0.  0.
          2    1    1    2  501    0  0.10716215001E+02  0.33290695447E+02 -0.88041185603E+03  0.88110620467E+03  0.00000000000E+00 0. -1.
          1    1    1    2  502    0 -0.73421195719E+00 -0.35122780561E+02  0.35971495584E+03  0.36142633860E+03  0.00000000000E+00 0. -1.
         22    1    3    3    0    0 -0.26360260585E+02 -0.46231952046E+02 -0.20233533333E+01  0.53257400301E+02  0.00000000000E+00 0. -1.
         22    1    3    3    0    0  0.16378257541E+02  0.48064037160E+02 -0.86358278055E+02  0.10018059282E+03  0.00000000000E+00 0. -1.
</event>
<event>
 7    1  0.6173324E-006  0.5846685E+02  0.7818608E-02  0.1485698E+00
          2   -1    0    0  502    0  0.00000000000E+00  0.00000000000E+00  0.48729621380E+03  0.48729621380E+03  0.00000000000E+00 0. -1.
          1   -1    0    0  501    0 -0.00000000000E+00 -0.00000000000E+00 -0.43491331377E+03  0.43491331377E+03  0.00000000000E+00 0. -1.
         25    2    1    2    0    0 -0.14492131107E+01 -0.47324222500E+02  0.37548127765E+03  0.39856351385E+03  0.12500000983E+03 0.  0.
          2    1    1    2  501    0 -0.24011558623E+02 -0.21100502619E+02 -0.40937697194E+03  0.41062305259E+03  0.00000000000E+00 0. -1.
          1    1    1    2  502    0  0.25460771733E+02  0.68424725120E+02  0.86278594317E+02  0.11302296113E+03  0.00000000000E+00 0. -1.
         22    1    3    3    0    0 -0.59331682432E+02 -0.22288918062E+02  0.12354409406E+03  0.13885311515E+03  0.00000000000E+00 0.  1.
         22    1    3    3    0    0  0.57882469321E+02 -0.25035304438E+02  0.25193718358E+03  0.25971039870E+03  0.00000000000E+00 0.  1.
</event>
<event>
 7    1  0.6173324E-006  0.4386225E+02  0.7818608E-02  0.1494164E+00
          2   -1    0    0  502    0  0.00000000000E+00  0.00000000000E+00  0.15187776708E+04  0.15187776708E+04  0.00000000000E+00 0. -1.
          1   -1    0    0  501    0 -0.00000000000E+00 -0.00000000000E+00 -0.55148478904E+02  0.55148478904E+02  0.00000000000E+00 0. -1.
         25    2    1    2    0    0  0.70465334362E+02 -0.14027682424E+02  0.35339904020E+03  0.38167813235E+03  0.12500070350E+03 0.  0.
          2    1    1    2  501    0 -0.32857955028E+02  0.28139711889E+02 -0.29146670400E+02  0.52163368270E+02  0.00000000000E+00 0. -1.
          1    1    1    2  502    0 -0.37607379334E+02 -0.14112029465E+02  0.11393768221E+04  0.11400846491E+04  0.00000000000E+00 0. -1.
         22    1    3    3    0    0  0.43051806110E+02 -0.69795565588E+02  0.19710225829E+03  0.21348109801E+03  0.00000000000E+00 0. -1.
         22    1    3    3    0    0  0.27413528252E+02  0.55767883164E+02  0.15629678191E+03  0.16819703434E+03  0.00000000000E+00 0. -1.
</event>
<event>
 7    1  0.6173324E-006  0.1904510E+03  0.7818608E-02  0.1190123E+00
          2   -1    0    0  502    0  0.00000000000E+00  0.00000000000E+00  0.18486038594E+04  0.18486038594E+04  0.00000000000E+00 0. -1.
          1   -1    0    0  501    0 -0.00000000000E+00 -0.00000000000E+00 -0.33845639104E+03  0.33845639104E+03  0.00000000000E+00 0. -1.
         25    2    1    2    0    0 -0.16897046152E+03 -0.57060890437E+02  0.14156545703E+03  0.25975651035E+03  0.12500281581E+03 0.  0.
          2    1    1    2  501    0  0.70430078807E+02 -0.11201199177E+03 -0.25749109571E+03  0.28949740357E+03  0.00000000000E+00 0. -1.
          1    1    1    2  502    0  0.98540382717E+02  0.16907288221E+03  0.16260731070E+04  0.16378063365E+04  0.00000000000E+00 0. -1.
         22    1    3    3    0    0 -0.15647895437E+03 -0.60393819945E+02  0.16353966598E+03  0.23426117688E+03  0.00000000000E+00 0. -1.
         22    1    3    3    0    0 -0.12491507157E+02  0.33329295078E+01 -0.21974208941E+02  0.25495333470E+02  0.00000000000E+00 0. -1.
</event>
<event>
 7    1  0.6173324E-006  0.1026694E+03  0.7818608E-02  0.1280563E+00
          2   -1    0    0  502    0  0.00000000000E+00  0.00000000000E+00  0.80974271321E+03  0.80974271321E+03  0.00000000000E+00 0. -1.
          1   -1    0    0  501    0 -0.00000000000E+00 -0.00000000000E+00 -0.14701136402E+03  0.14701136402E+03  0.00000000000E+00 0. -1.
         25    2    1    2    0    0 -0.10643850236E+02 -0.87428948099E+02 -0.17507141555E+02  0.15391221736E+03  0.12500143252E+03 0.  0.
          2    1    1    2  501    0  0.10779157298E+03  0.86420417798E+02  0.24952196391E+02  0.14039274883E+03  0.00000000000E+00 0. -1.
          1    1    1    2  502    0 -0.97147722748E+02  0.10085303009E+01  0.65528629435E+03  0.66244911105E+03  0.00000000000E+00 0. -1.
         22    1    3    3    0    0 -0.46328959908E+02 -0.57274128036E+02  0.36740012519E+02  0.82319662222E+02  0.00000000000E+00 0. -1.
         22    1    3    3    0    0  0.35685109673E+02 -0.30154820063E+02 -0.54247154074E+02  0.71592555133E+02  0.00000000000E+00 0. -1.
</event>
<event>
 7    1  0.6173324E-006  0.2836781E+03  0.7818608E-02  0.1293474E+00
          2   -1    0    0  502    0  0.00000000000E+00  0.00000000000E+00  0.10440292668E+04  0.10440292668E+04  0.00000000000E+00 0. -1.
          1   -1    0    0  501    0 -0.00000000000E+00 -0.00000000000E+00 -0.34698525941E+03  0.34698525941E+03  0.00000000000E+00 0. -1.
         25    2    1    2    0    0 -0.28102756808E+03 -0.90982447068E+02  0.22458207169E+03  0.39155640458E+03  0.12500004540E+03 0.  0.
          2    1    1    2  501    0  0.25788920273E+03  0.11182166585E+03 -0.18806332691E+03  0.33819926192E+03  0.00000000000E+00 0. -1.
          1    1    1    2  502    0  0.23138365350E+02 -0.20839218779E+02  0.66052526264E+03  0.66125885973E+03  0.00000000000E+00 0. -1.
         22    1    3    3    0    0 -0.24294954638E+03 -0.68722039879E+02  0.12307789475E+03  0.28088319463E+03  0.00000000000E+00 0.  1.
         22    1    3    3    0    0 -0.38078021699E+02 -0.22260407189E+02  0.10150417694E+03  0.11067320995E+03  0.00000000000E+00 0.  1.
</event>
<event>
 7    1  0.6173324E-006  0.2377619E+03  0.7818608E-02  0.1175163E+00
          2   -1    0    0  502    0  0.00000000000E+00  0.00000000000E+00  0.17871285897E+04  0.17871285897E+04  0.00000000000E+00 0. -1.
          1   -1    0    0  501    0 -0.00000000000E+00 -0.00000000000E+00 -0.13066343922E+04  0.13066343922E+04  0.00000000000E+00 0. -1.
         25    2    1    2    0    0  0.17546111369E+03  0.13194232179E+03  0.13625387409E+03  0.28702899528E+03  0.12500058892E+03 0.  0.
          2    1    1    2  501    0 -0.23924896441E+03 -0.24097193356E+02 -0.12169726179E+04  0.12405011465E+04  0.00000000000E+00 0. -1.
          1    1    1    2  502    0  0.63787850714E+02 -0.10784512844E+03  0.15612129413E+04  0.15662328402E+04  0.00000000000E+00 0. -1.
         22    1    3    3    0    0  0.35793504821E+02  0.78072868773E+02  0.10222107139E+03  0.13351290298E+03  0.00000000000E+00 0. -1.
         22    1    3    3    0    0  0.13966760887E+03  0.53869453021E+02  0.34032802695E+02  0.15351609230E+03  0.00000000000E+00 0. -1.
</event>
<event>
 7    1  0.6173324E-006  0.6154118E+02  0.7818608E-02  0.1513342E+00
          2   -1    0    0  502    0  0.00000000000E+00  0.00000000000E+00  0.14144306857E+04  0.14144306857E+04  0.00000000000E+00 0. -1.
          1   -1    0    0  501    0 -0.00000000000E+00 -0.00000000000E+00 -0.21666210103E+02  0.21666210103E+02  0.00000000000E+00 0. -1.
         25    2    1    2    0    0 -0.55875196806E+02 -0.16125721647E+02  0.63742628439E+03  0.65216508208E+03  0.12499979896E+03 0.  0.
          2    1    1    2  501    0  0.47920196182E+02  0.39943649491E+02  0.55070959815E+02  0.83214487631E+02  0.00000000000E+00 0. -1.
          1    1    1    2  502    0  0.79550006235E+01 -0.23817927844E+02  0.70026723143E+03  0.70071732613E+03  0.00000000000E+00 0. -1.
         22    1    3    3    0    0 -0.19873506268E+02  0.61642775434E+01  0.58221150238E+03  0.58258320270E+03  0.00000000000E+00 0. -1.
         22    1    3    3    0    0 -0.36001690537E+02 -0.22289999191E+02  0.55214782011E+02  0.69581879379E+02  0.00000000000E+00 0. -1.
</event>
<event>
 7    1  0.6173324E-006  0.2172186E+03  0.7818608E-02  0.1307584E+00
          2   -1    0    0  502    0  0.00000000000E+00  0.00000000000E+00  0.99255455798E+03  0.99255455798E+03  0.00000000000E+00 0. -1.
          1   -1    0    0  501    0 -0.00000000000E+00 -0.00000000000E+00 -0.50608473723E+03  0.50608473723E+03  0.00000000000E+00 0. -1.
         25    2    1    2    0    0  0.79677692322E+02  0.16609708257E+03 -0.29346054477E+03  0.36835011575E+03  0.12500376371E+03 0.  0.
          2    1    1    2  501    0  0.47955195448E+01  0.35387117485E+02 -0.16069998084E+03  0.16461995303E+03  0.00000000000E+00 0. -1.
          1    1    1    2  502    0 -0.84473211867E+02 -0.20148420006E+03  0.94063034636E+03  0.96566922644E+03  0.00000000000E+00 0. -1.
         22    1    3    3    0    0  0.25939741474E+02  0.16582764704E+03 -0.23688061799E+03  0.29031725042E+03  0.00000000000E+00 0.  1.
         22    1    3    3    0    0  0.53737950848E+02  0.26943552791E+00 -0.56579926773E+02  0.78032865323E+02  0.00000000000E+00 0.  1.
</event>
<event>
 7    1  0.6173324E-006  0.9212072E+02  0.7818608E-02  0.1481952E+00
          2   -1    0    0  502    0  0.00000000000E+00  0.00000000000E+00  0.80540352201E+02  0.80540352201E+02  0.00000000000E+00 0. -1.
          1   -1    0    0  501    0 -0.00000000000E+00 -0.00000000000E+00 -0.20659174746E+04  0.20659174746E+04  0.00000000000E+00 0. -1.
         25    2    1    2    0    0  0.45682383456E+02  0.60121571559E+02 -0.58171683017E+03  0.59977332203E+03  0.12502833194E+03 0.  0.
          2    1    1    2  501    0 -0.50646068021E+02 -0.80350156569E+02 -0.14720921447E+04  0.14751530274E+04  0.00000000000E+00 0. -1.
          1    1    1    2  502    0  0.49636845649E+01  0.20228585011E+02  0.68431852476E+02  0.71531477332E+02  0.00000000000E+00 0. -1.
         22    1    3    3    0    0  0.10798178343E+02 -0.79692927688E+01 -0.42664064851E+03  0.42685167593E+03  0.00000000000E+00 0.  1.
         22    1    3    3    0    0  0.34884205113E+02  0.68090864327E+02 -0.15507618167E+03  0.17292164610E+03  0.00000000000E+00 0.  1.
</event>
<event>
 7    1  0.6173324E-006  0.8478132E+02  0.7818608E-02  0.1464974E+00
          2   -1    0    0  502    0  0.00000000000E+00  0.00000000000E+00  0.38094007223E+03  0.38094007223E+03  0.00000000000E+00 0. -1.
          1   -1    0    0  501    0 -0.00000000000E+00 -0.00000000000E+00 -0.54661121547E+03  0.54661121547E+03  0.00000000000E+00 0. -1.
         25    2    1    2    0    0  0.78785621689E+02  0.17681167043E+02  0.12653231534E+03  0.19533839625E+03  0.12500745725E+03 0.  0.
          2    1    1    2  501    0 -0.37019051587E+01  0.25273748861E+02 -0.50336892533E+03  0.50401660833E+03  0.00000000000E+00 0. -1.
          1    1    1    2  502    0 -0.75083716530E+02 -0.42954915904E+02  0.21116546675E+03  0.22819628313E+03  0.00000000000E+00 0. -1.
         22    1    3    3    0    0 -0.62943105572E+01  0.45006925146E+02  0.68229749266E+01  0.45954266868E+02  0.00000000000E+00 0. -1.
         22    1    3    3    0    0  0.85079932246E+02 -0.27325758103E+02  0.11970934042E+03  0.14938412938E+03  0.00000000000E+00 0. -1.
</event>
<event>
 7    1  0.6173324E-006  0.3396656E+03  0.7818608E-02  0.1226366E+00
          2   -1    0    0  502    0  0.00000000000E+00  0.00000000000E+00  0.18569797158E+04  0.18569797158E+04  0.00000000000E+00 0. -1.
          1   -1    0    0  501    0 -0.00000000000E+00 -0.00000000000E+00 -0.22058204167E+03  0.22058204167E+03  0.00000000000E+00 0. -1.
         25    2    1    2    0    0  0.20533673740E+02 -0.32816703889E+03  0.42342698508E+03  0.55048208591E+03  0.12499951220E+03 0.  0.
          2    1    1    2  501    0  0.27311503002E+02  0.34375590377E+03  0.33418564289E+02  0.34645467237E+03  0.00000000000E+00 0. -1.
          1    1    1    2  502    0 -0.47845176743E+02 -0.15588864882E+02  0.11795521247E+04  0.11806249991E+04  0.00000000000E+00 0. -1.
         22    1    3    3    0    0 -0.60585034850E+01 -0.46774114330E+02  0.14993921160E+03  0.15718234764E+03  0.00000000000E+00 0. -1.
         22    1    3    3    0    0  0.26592177225E+02 -0.28139292456E+03  0.27348777348E+03  0.39329973827E+03  0.00000000000E+00 0. -1.
</event>
<event>
 7    1  0.6173324E-006  0.3382508E+03  0.7818608E-02  0.1260541E+00
          2   -1    0    0  502    0  0.00000000000E+00  0.00000000000E+00  0.46898080830E+03  0.46898080830E+03  0.00000000000E+00 0. -1.
          1   -1    0    0  501    0 -0.00000000000E+00 -0.00000000000E+00 -0.11966067289E+04  0.11966067289E+04  0.00000000000E+00 0. -1.
         25    2    1    2    0    0  0.16519014511E+03 -0.29978905466E+03 -0.60669596712E+03  0.70772079594E+03  0.12500986822E+03 0.  0.
          2    1    1    2  501    0 -0.33833090629E+02 -0.11649128436E+02 -0.47035385829E+03  0.47171297653E+03  0.00000000000E+00 0. -1.
          1    1    1    2  502    0 -0.13135705448E+03  0.31143818309E+03  0.34942390484E+03  0.48615376469E+03  0.00000000000E+00 0. -1.
         22    1    3    3    0    0  0.15697035295E+03 -0.17710548346E+03 -0.45106869304E+03  0.50938100653E+03  0.00000000000E+00 0.  1.
         22    1    3    3    0    0  0.82197921644E+01 -0.12268357119E+03 -0.15562727408E+03  0.19833978941E+03  0.00000000000E+00 0.  1.
</event>
<event>
 7    1  0.6173324E-006  0.1289657E+03  0.7818608E-02  0.1307370E+00
          2   -1    0    0  502    0  0.00000000000E+00  0.00000000000E+00  0.11603741692E+03  0.11603741692E+03  0.00000000000E+00 0. -1.
          1   -1    0    0  501    0 -0.00000000000E+00 -0.00000000000E+00 -0.13443576339E+04  0.13443576339E+04  0.00000000000E+00 0. -1.
         25    2    1    2    0    0  0.91432934504E+02 -0.85280950031E+02 -0.11543410426E+03  0.21114652015E+03  0.12499999439E+03 0.  0.
          2    1    1    2  501    0 -0.44081792088E+02  0.12256093842E+03 -0.11633661491E+04  0.11706345224E+04  0.00000000000E+00 0. -1.
          1    1    1    2  502    0 -0.47351142416E+02 -0.37279988390E+02  0.50480036422E+02  0.78614008291E+02  0.00000000000E+00 0. -1.
         22    1    3    3    0    0  0.41773094923E+02  0.28359149458E+02 -0.18615202753E+02  0.53812253167E+02  0.00000000000E+00 0.  1.
         22    1    3    3    0    0  0.49659839581E+02 -0.11364009949E+03 -0.96818901505E+02  0.15733426699E+03  0.00000000000E+00 0.  1.
</event>
<event>
 7    1  0.6173324E-006  0.1150230E+03  0.7818608E-02  0.1272623E+00
          2   -1    0    0  502    0  0.00000000000E+00  0.00000000000E+00  0.23045998576E+04  0.23045998576E+04  0.00000000000E+00 0. -1.
          1   -1    0    0  501    0 -0.00000000000E+00 -0.00000000000E+00 -0.12273754976E+04  0.12273754976E+04  0.00000000000E+00 0. -1.
         25    2    1    2    0    0  0.68492366194E+02  0.14641934139E+03  0.11180937250E+03  0.23292999700E+03  0.12500087986E+03 0.  0.
          2    1    1    2  501    0  0.18952476236E+02 -0.11314112123E+03 -0.11629652799E+04  0.11686095806E+04  0.00000000000E+00 0. -1.
          1    1    1    2  502    0 -0.87444842430E+02 -0.33278220160E+02  0.21283802673E+04  0.21304357776E+04  0.00000000000E+00 0. -1.
         22    1    3    3    0    0  0.49579078764E+02  0.12241188835E+03  0.13920413674E+03  0.19188680816E+03  0.00000000000E+00 0.  1.
         22    1    3    3    0    0  0.18913287430E+02  0.24007453035E+02 -0.27394764237E+02  0.41043188841E+02  0.00000000000E+00 0.  1.
</event>
<event>
 7    1  0.6173324E-006  0.1222417E+03  0.7818608E-02  0.1402207E+00
          2   -1    0    0  502    0  0.00000000000E+00  0.00000000000E+00  0.86933023207E+03  0.86933023207E+03  0.00000000000E+00 0. -1.
          1   -1    0    0  501    0 -0.00000000000E+00 -0.00000000000E+00 -0.67337500573E+03  0.67337500573E+03  0.00000000000E+00 0. -1.
         25    2    1    2    0    0 -0.43198322037E+02 -0.84935174213E+02 -0.11313865116E+03  0.19366425847E+03  0.12500164710E+03 0.  0.
          2    1    1    2  501    0 -0.18786944202E+02 -0.21360842872E+02 -0.51501318799E+03  0.51579823447E+03  0.00000000000E+00 0. -1.
          1    1    1    2  502    0  0.61985266239E+02  0.10629601709E+03  0.82410706549E+03  0.83324274486E+03  0.00000000000E+00 0. -1.
         22    1    3    3    0    0 -0.51525742214E+02 -0.28297036636E+02  0.83392664189E+01  0.59373123191E+02  0.00000000000E+00 0. -1.
         22    1    3    3    0    0  0.83274201763E+01 -0.56638137577E+02 -0.12147791758E+03  0.13429113528E+03  0.00000000000E+00 0. -1.
</event>
<event>
 7    1  0.6173324E-006  0.5690912E+02  0.7818608E-02  0.1548381E+00
          2   -1    0    0  502    0  0.00000000000E+00  0.00000000000E+00  0.31584985205E+04  0.31584985205E+04  0.00000000000E+00 0. -1.
          1   -1    0    0  501    0 -0.00000000000E+00 -0.00000000000E+00 -0.13169511132E+04  0.13169511132E+04  0.00000000000E+00 0. -1.
         25    2    1    2    0    0  0.83749471993E+01  0.41667248335E+02  0.21386715272E+04  0.21427435773E+04  0.12501134986E+03 0.  0.
          2    1    1    2  501    0  0.52351561251E+01  0.20910570832E+02 -0.13138192067E+04  0.13139960300E+04  0.00000000000E+00 0. -1.
          1    1    1    2  502    0 -0.13610103324E+02 -0.62577819167E+02  0.10166950868E+04  0.10187100264E+04  0.00000000000E+00 0. -1.
         22    1    3    3    0    0 -0.16397229193E+02  0.34281027333E+02  0.20507172754E+04  0.20510693313E+04  0.00000000000E+00 0. -1.
         22    1    3    3    0    0  0.24772176393E+02  0.73862210014E+01  0.87954251729E+02  0.91674246008E+02  0.00000000000E+00 0. -1.
</event>
<event>
 7    1  0.6173324E-006  0.6270602E+02  0.7818608E-02  0.1514790E+00
          2   -1    0    0  502    0  0.00000000000E+00  0.00000000000E+00  0.10391405632E+04  0.10391405632E+04  0.00000000000E+00 0. -1.
          1   -1    0    0  501    0 -0.00000000000E+00 -0.00000000000E+00 -0.18915877149E+03  0.18915877149E+03  0.00000000000E+00 0. -1.
         25    2    1    2    0    0 -0.62180212630E+01  0.63225241325E+02  0.20270291737E+03  0.24647486995E+03  0.12500117551E+03 0.  0.
          2    1    1    2  501    0  0.29373029645E+02 -0.55513849828E+02 -0.16118675453E+03  0.17299055532E+03  0.00000000000E+00 0. -1.
          1    1    1    2  502    0 -0.23155008382E+02 -0.77113914968E+01  0.80846562887E+03  0.80883390943E+03  0.00000000000E+00 0. -1.
         22    1    3    3    0    0  0.27568979212E+02  0.87852585575E+02  0.17022690423E+03  0.19353378085E+03  0.00000000000E+00 0.  1.
         22    1    3    3    0    0 -0.33787000475E+02 -0.24627344250E+02  0.32476013140E+02  0.52941089103E+02  0.00000000000E+00 0.  1.
</event>
<event>
 7    1  0.6173324E-006  0.4568561E+02  0.7818608E-02  0.1491128E+00
          2   -1    0    0  502    0  0.00000000000E+00  0.00000000000E+00  0.39476332638E+02  0.39476332638E+02  0.00000000000E+00 0. -1.
          1   -1    0    0  501    0 -0.00000000000E+00 -0.00000000000E+00 -0.89461282405E+03  0.89461282405E+03  0.00000000000E+00 0. -1.
         25    2    1    2    0    0 -0.45905135344E+01  0.12016093337E+02 -0.75848405938E+02  0.14677840571E+03  0.12500184153E+03 0.  0.
          2    1    1    2  501    0  0.43799180068E+02 -0.15752449831E+02 -0.66102031274E+03  0.66265704682E+03  0.00000000000E+00 0. -1.
          1    1    1    2  502    0 -0.39208666534E+02  0.37363564943E+01 -0.11826777274E+03  0.12465370415E+03  0.00000000000E+00 0. -1.
         22    1    3    3    0    0  0.32503939514E+02  0.47672927784E+02 -0.32436611413E+01  0.57790444410E+02  0.00000000000E+00 0.  1.
         22    1    3    3    0    0 -0.37094453048E+02 -0.35656834447E+02 -0.72604744796E+02  0.88987961302E+02  0.00000000000E+00 0.  1.
</event>
<event>
 7    1  0.6173324E-006  0.8522197E+02  0.7818608E-02  0.1333077E+00
          2   -1    0    0  502    0  0.00000000000E+00  0.00000000000E+00  0.18741528110E+04  0.18741528110E+04  0.00000000000E+00 0. -1.
          1   -1    0    0  501    0 -0.00000000000E+00 -0.00000000000E+00 -0.14956164285E+04  0.14956164285E+04  0.00000000000E+00 0. -1.
         25    2    1    2    0    0 -0.55466260616E+02  0.13616395399E+03  0.37378790107E+03  0.42066500132E+03  0.12499807967E+03 0.  0.
          2    1    1    2  501    0  0.41601233078E+01 -0.84954496543E+02 -0.14700583744E+04  0.14725169599E+04  0.00000000000E+00 0. -1.
          1    1    1    2  502    0  0.51306137309E+02 -0.51209457442E+02  0.14748068559E+04  0.14765872783E+04  0.00000000000E+00 0. -1.
         22    1    3    3    0    0 -0.20748098267E+02  0.48236404250E+02  0.22934940706E+02  0.57299614151E+02  0.00000000000E+00 0. -1.
         22    1    3    3    0    0 -0.34718162349E+02  0.87927549735E+02  0.35085296036E+03  0.36336538717E+03  0.00000000000E+00 0. -1.
</event>
<event>
 7    1  0.6173324E-006  0.5003083E+02  0.7818608E-02  0.1470346E+00
          2   -1    0    0  502    0  0.00000000000E+00  0.00000000000E+00  0.26433396842E+03  0.26433396842E+03  0.00000000000E+00 0. -1.
          1   -1    0    0  501    0 -0.00000000000E+00 -0.00000000000E+00 -0.26690492398E+03  0.26690492398E+03  0.00000000000E+00 0. -1.
         25    2    1    2    0    0  0.14979707599E+02 -0.11353073459E+02 -0.10232654764E+03  0.16263352503E+03  0.12500262875E+03 0.  0.
          2    1    1    2  501    0 -0.56394242063E+02  0.69648314957E+01 -0.12643284150E+03  0.13861487231E+03  0.00000000000E+00 0. -1.
          1    1    1    2  502    0  0.41414534464E+02  0.43882419628E+01  0.22618843359E+03  0.22999049506E+03  0.00000000000E+00 0. -1.
         22    1    3    3    0    0  0.65869691836E+02 -0.22878369506E+02 -0.79308090260E+02  0.10560307417E+03  0.00000000000E+00 0. -1.
         22    1    3    3    0    0 -0.50889984237E+02  0.11525296047E+02 -0.23018457377E+02  0.57030450854E+02  0.00000000000E+00 0. -1.
</event>
<event>
 7    1  0.6173324E-006  0.1334689E+03  0.7818608E-02  0.1225635E+00
          2   -1    0    0  502    0  0.00000000000E+00  0.00000000000E+00  0.75986337654E+03  0.75986337654E+03  0.00000000000E+00 0. -1.
          1   -1    0    0  501    0 -0.00000000000E+00 -0.00000000000E+00 -0.10898407482E+03  0.10898407482E+03  0.00000000000E+00 0. -1.
         25    2    1    2    0    0  0.13255646848E+02  0.51234357987E+02  0.90384157283E+02  0.16308001338E+03  0.12500049306E+03 0.  0.
          2    1    1    2  501    0  0.12262403655E+03  0.40174554591E+02  0.77467982173E+01  0.12926972600E+03  0.00000000000E+00 0. -1.
          1    1    1    2  502    0 -0.13587968340E+03 -0.91408912579E+02  0.55274834622E+03  0.57649771197E+03  0.00000000000E+00 0. -1.
         22    1    3    3    0    0  0.33657806658E+02  0.87120288098E+02  0.71822298134E+02  0.11781865326E+03  0.00000000000E+00 0.  1.
         22    1    3    3    0    0 -0.20402159809E+02 -0.35885930111E+02  0.18561859149E+02  0.45261360120E+02  0.00000000000E+00 0.  1.
</event>
<event>
 7    1  0.6173324E-006  0.1091424E+03  0.7818608E-02  0.1288517E+00
          2   -1    0    0  502    0  0.00000000000E+00  0.00000000000E+00  0.53056602526E+03  0.53056602526E+03  0.00000000000E+00 0. -1.
          1   -1    0    0  501    0 -0.00000000000E+00 -0.00000000000E+00 -0.37603916957E+03  0.37603916957E+03  0.00000000000E+00 0. -1.
         25    2    1    2    0    0  0.78710919938E+02  0.15319311394E+03  0.85928028592E+02  0.22950191079E+03  0.12499584746E+03 0.  0.
          2    1    1    2  501    0 -0.71834314098E+00 -0.84772267073E+02 -0.29086436910E+03  0.30296688679E+03  0.00000000000E+00 0. -1.
          1    1    1    2  502    0 -0.77992576797E+02 -0.68420846868E+02  0.35946319619E+03  0.37413639724E+03  0.00000000000E+00 0. -1.
         22    1    3    3    0    0  0.72195660941E+02  0.14954451167E+03  0.24778381114E+02  0.16789801250E+03  0.00000000000E+00 0. -1.
         22    1    3    3    0    0  0.65152589974E+01  0.36486022679E+01  0.61149647477E+02  0.61603898293E+02  0.00000000000E+00 0. -1.
</event>
<event>
 7    1  0.6173324E-006  0.8897318E+02  0.7818608E-02  0.1379546E+00
          2   -1    0    0  502    0  0.00000000000E+00  0.00000000000E+00  0.32426960884E+03  0.32426960884E+03  0.00000000000E+00 0. -1.
          1   -1    0    0  501    0 -0.00000000000E+00 -0.00000000000E+00 -0.45052514537E+03  0.45052514537E+03  0.00000000000E+00 0. -1.
         25    2    1    2    0    0  0.39768471758E+02  0.11640542170E+03  0.10520379498E+03  0.20451110088E+03  0.12500079343E+03 0.  0.
          2    1    1    2  501    0 -0.51927961447E+02 -0.71130512606E+02 -0.39265463736E+03  0.40240989953E+03  0.00000000000E+00 0. -1.
          1    1    1    2  502    0  0.12159489689E+02 -0.45274909095E+02  0.16119530586E+03  0.16787375380E+03  0.00000000000E+00 0. -1.
         22    1    3    3    0    0  0.89502589193E+01  0.53416267892E+02  0.12105415198E+03  0.13261791931E+03  0.00000000000E+00 0.  1.
         22    1    3    3    0    0  0.30818212839E+02  0.62989153810E+02 -0.15850356999E+02  0.71893181577E+02  0.00000000000E+00 0.  1.
</event>
<event>
 7    1  0.6173324E-006  0.2482482E+02  0.7818608E-02  0.1670266E+00
          2   -1    0    0  502    0  0.00000000000E+00  0.00000000000E+00  0.10108093271E+04  0.10108093271E+04  0.00000000000E+00 0. -1.
          1   -1    0    0  501    0 -0.00000000000E+00 -0.00000000000E+00 -0.20018423671E+03  0.20018423671E+03  0.00000000000E+00 0. -1.
         25    2    1    2    0    0 -0.33051702066E+01 -0.15945751081E+01  0.37115575066E+03  0.39165682598E+03  0.12500004507E+03 0.  0.
          2    1    1    2  501    0  0.24282859466E+01 -0.23793746367E+02 -0.18892309880E+03  0.19043102741E+03  0.00000000000E+00 0. -1.
          1    1    1    2  502    0  0.87688426001E+00  0.25388321475E+02  0.62839243856E+03  0.62890571045E+03  0.00000000000E+00 0. -1.
         22    1    3    3    0    0  0.49785036289E+02  0.12476391104E+02  0.77803119604E+02  0.93206950349E+02  0.00000000000E+00 0. -1.
         22    1    3    3    0    0 -0.53090206495E+02 -0.14070966212E+02  0.29335263106E+03  0.29844987563E+03  0.00000000000E+00 0. -1.
</event>
<event>
 7    1  0.6173324E-006  0.1085440E+03  0.7818608E-02  0.1298717E+00
          2   -1    0    0  502    0  0.00000000000E+00  0.00000000000E+00  0.92768138801E+03  0.92768138801E+03  0.00000000000E+00 0. -1.
          1   -1    0    0  501    0 -0.00000000000E+00 -0.00000000000E+00 -0.91077068132E+03  0.91077068132E+03  0.00000000000E+00 0. -1.
         25    2    1    2    0    0  0.23913569970E+02  0.68627595822E+02  0.13669730501E+03  0.19897755854E+03  0.12499723945E+03 0.  0.
          2    1    1    2  501    0  0.76741695759E+02 -0.10954003369E+02 -0.87347617802E+03  0.87690929498E+03  0.00000000000E+00 0. -1.
          1    1    1    2  502    0 -0.10065526573E+03 -0.57673592453E+02  0.75368957971E+03  0.76256521580E+03  0.00000000000E+00 0. -1.
         22    1    3    3    0    0 -0.13764738372E+01  0.92272015945E+02  0.48548618504E+02  0.10427362066E+03  0.00000000000E+00 0. -1.
         22    1    3    3    0    0  0.25290043808E+02 -0.23644420123E+02  0.88148686503E+02  0.94703937885E+02  0.00000000000E+00 0. -1.
</event>
<event>
 7    1  0.6173324E-006  0.1152355E+03  0.7818608E-02  0.1390461E+00
          2   -1    0    0  502    0  0.00000000000E+00  0.00000000000E+00  0.19809452713E+04  0.19809452713E+04  0.00000000000E+00 0. -1.
          1   -1    0    0  501    0 -0.00000000000E+00 -0.00000000000E+00 -0.57980809773E+02  0.57980809773E+02  0.00000000000E+00 0. -1.
         25    2    1    2    0    0 -0.79555193668E+02  0.57699244774E+02  0.50272759908E+03  0.52726763428E+03  0.12497154715E+03 0.  0.
          2    1    1    2  501    0  0.75817479099E+02 -0.90622225489E+02  0.31171508292E+02  0.12219795751E+03  0.00000000000E+00 0. -1.
          1    1    1    2  502    0  0.37377145690E+01  0.32922980715E+02  0.13890653542E+04  0.13894604893E+04  0.00000000000E+00 0. -1.
         22    1    3    3    0    0 -0.47158912292E+01  0.57143831641E+02  0.37396096690E+03  0.37833115374E+03  0.00000000000E+00 0.  1.
         22    1    3    3    0    0 -0.74839302439E+02  0.55541313331E+00  0.12876663218E+03  0.14893648054E+03  0.00000000000E+00 0.  1.
</event>
<event>
 7    1  0.6173324E-006  0.5294073E+02  0.7818608E-02  0.1453912E+00
          2   -1    0    0  502    0  0.00000000000E+00  0.00000000000E+00  0.10392629887E+03  0.10392629887E+03  0.00000000000E+00 0. -1.
          1   -1    0    0  501    0 -0.00000000000E+00 -0.00000000000E+00 -0.60184348835E+03  0.60184348835E+03  0.00000000000E+00 0. -1.
         25    2    1    2    0    0  0.87579981290E+02 -0.18864303324E+02 -0.78104228643E+02  0.17247510864E+03  0.12498510914E+03 0.  0.
          2    1    1    2  501    0 -0.51511760399E+02 -0.69114509017E+01 -0.46622458280E+03  0.46911255709E+03  0.00000000000E+00 0. -1.
          1    1    1    2  502    0 -0.36068220891E+02  0.25775754226E+02  0.46411621968E+02  0.64182121481E+02  0.00000000000E+00 0. -1.
         22    1    3    3    0    0  0.70815994034E+02  0.44793092745E+02 -0.23714107296E+02  0.87084355963E+02  0.00000000000E+00 0.  1.
         22    1    3    3    0    0  0.16763987255E+02 -0.63657396069E+02 -0.54390121347E+02  0.85390752679E+02  0.00000000000E+00 0.  1.
</event>
<event>
 7    1  0.6173324E-006  0.5273706E+02  0.7818608E-02  0.1462551E+00
          2   -1    0    0  502    0  0.00000000000E+00  0.00000000000E+00  0.56206562334E+03  0.56206562334E+03  0.00000000000E+00 0. -1.
          1   -1    0    0  501    0 -0.00000000000E+00 -0.00000000000E+00 -0.98955019852E+02  0.98955019852E+02  0.00000000000E+00 0. -1.
         25    2    1    2    0    0  0.33194889223E+02  0.39039607624E+02  0.10961157008E+03  0.17397070827E+03  0.12500047763E+03 0.  0.
          2    1    1    2  501    0 -0.39276437999E+02  0.14272820939E+02 -0.58321831235E+02  0.71748087069E+02  0.00000000000E+00 0. -1.
          1    1    1    2  502    0  0.60815487766E+01 -0.53312428562E+02  0.41182086464E+03  0.41530184785E+03  0.00000000000E+00 0. -1.
         22    1    3    3    0    0 -0.18146610368E+02 -0.34175772883E+02  0.97123920080E+01  0.39895030750E+02  0.00000000000E+00 0.  1.
         22    1    3    3    0    0  0.51341499591E+02  0.73215380507E+02  0.99899178069E+02  0.13407567752E+03  0.00000000000E+00 0.  1.
</event>
<event>
 7    1  0.6173324E-006  0.6869718E+02  0.7818608E-02  0.1422188E+00
          2   -1    0    0  502    0  0.00000000000E+00  0.00000000000E+00  0.28732236492E+04  0.28732236492E+04  0.00000000000E+00 0. -1.
          1   -1    0    0  501    0 -0.00000000000E+00 -0.00000000000E+00 -0.93221207686E+01  0.93221207686E+01  0.00000000000E+00 0. -1.
         25    2    1    2    0    0  0.19454660738E+02 -0.32600972319E+02  0.13860836932E+04  0.13922267039E+04  0.12500353304E+03 0.  0.
          2    1    1    2  501    0 -0.61864254383E+02  0.41500099951E+02  0.23029506898E+03  0.24204392796E+03  0.00000000000E+00 0. -1.
          1    1    1    2  502    0  0.42409593645E+02 -0.88991276312E+01  0.12475227663E+04  0.12482751381E+04  0.00000000000E+00 0. -1.
         22    1    3    3    0    0  0.56799670129E+02 -0.60918060812E+02  0.94307416030E+03  0.94674499443E+03  0.00000000000E+00 0.  1.
         22    1    3    3    0    0 -0.37345009391E+02  0.28317088493E+02  0.44300953290E+03  0.44548170947E+03  0.00000000000E+00 0.  1.
</event>
<event>
 7    1  0.6173324E-006  0.1503784E+03  0.7818608E-02  0.1352463E+00
          2   -1    0    0  502    0  0.00000000000E+00  0.00000000000E+00  0.24655071571E+03  0.24655071571E+03  0.00000000000E+00 0. -1.
          1   -1    0    0  501    0 -0.00000000000E+00 -0.00000000000E+00 -0.60840197535E+03  0.60840197535E+03  0.00000000000E+00 0. -1.
         25    2    1    2    0    0 -0.10231953215E+03 -0.13099169325E+03 -0.14302859080E+03  0.25240735225E+03  0.12499673326E+03 0.  0.
          2    1    1    2  501    0  0.34734680327E+02 -0.11765361774E+01 -0.38106071200E+03  0.38264232448E+03  0.00000000000E+00 0. -1.
          1    1    1    2  502    0  0.67584851827E+02  0.13216822943E+03  0.16223804315E+03  0.21990301433E+03  0.00000000000E+00 0. -1.
         22    1    3    3    0    0 -0.26076996695E+01 -0.48956788728E+02  0.12175151258E+02  0.50515359726E+02  0.00000000000E+00 0. -1.
         22    1    3    3    0    0 -0.99711832485E+02 -0.82034904521E+02 -0.15520374206E+03  0.20189199253E+03  0.00000000000E+00 0. -1.
</event>
<event>
 7    1  0.6173324E-006  0.1161210E+03  0.7818608E-02  0.1274372E+00
          2   -1    0    0  502    0  0.00000000000E+00  0.00000000000E+00  0.11118331767E+04  0.11118331767E+04  0.00000000000E+00 0. -1.
          1   -1    0    0  501    0 -0.00000000000E+00 -0.00000000000E+00 -0.52906654440E+02  0.52906654440E+02  0.00000000000E+00 0. -1.
         25    2    1    2    0    0  0.15843556877E+02 -0.41457584579E+02  0.29353381951E+03  0.32211285657E+03  0.12499935823E+03 0.  0.
          2    1    1    2  501    0 -0.11592085275E+03 -0.17437431218E+02  0.67767715308E+02  0.13540373461E+03  0.00000000000E+00 0. -1.
          1    1    1    2  502    0  0.10007729587E+03  0.58895015797E+02  0.69762498748E+03  0.70722324000E+03  0.00000000000E+00 0. -1.
         22    1    3    3    0    0 -0.30248703885E+02 -0.63240900174E+02  0.10100554042E+03  0.12294923642E+03  0.00000000000E+00 0. -1.
         22    1    3    3    0    0  0.46092260762E+02  0.21783315595E+02  0.19252827909E+03  0.19916362015E+03  0.00000000000E+00 0. -1.
</event>
<event>
 7    1  0.6173324E-006  0.9690688E+02  0.7818608E-02  0.1423753E+00
          2   -1    0    0  502    0  0.00000000000E+00  0.00000000000E+00  0.89816847755E+03  0.89816847755E+03  0.00000000000E+00 0. -1.
          1   -1    0    0  501    0 -0.00000000000E+00 -0.00000000000E+00 -0.59450364285E+03  0.59450364285E+03  0.00000000000E+00 0. -1.
         25    2    1    2    0    0 -0.15718381025E+02  0.97993239522E+02  0.11870606807E+03  0.19891496768E+03  0.12500516501E+03 0.  0.
          2    1    1    2  501    0  0.43812990490E+02 -0.86504794293E+02 -0.54984345897E+03  0.55832829674E+03  0.00000000000E+00 0. -1.
          1    1    1    2  502    0 -0.28094609465E+02 -0.11488445229E+02  0.73480222560E+03  0.73542885598E+03  0.00000000000E+00 0. -1.
         22    1    3    3    0    0 -0.52721513459E+02  0.69696831903E+02  0.12435495891E+03  0.15199132266E+03  0.00000000000E+00 0.  1.
         22    1    3    3    0    0  0.37003132434E+02  0.28296407619E+02 -0.56488908457E+01  0.46923645019E+02  0.00000000000E+00 0.  1.
</event>
<event>
 7    1  0.6173324E-006  0.1555358E+03  0.7818608E-02  0.1270286E+00
          2   -1    0    0  502    0  0.00000000000E+00  0.00000000000E+00  0.27715702873E+04  0.27715702873E+04  0.00000000000E+00 0. -1.
          1   -1    0    0  501    0 -0.00000000000E+00 -0.00000000000E+00 -0.28930312834E+03  0.28930312834E+03  0.00000000000E+00 0. -1.
         25    2    1    2    0    0  0.10577194242E+02 -0.21206533388E+03  0.51661161351E+03  0.57236418383E+03  0.12501846601E+03 0.  0.
          2    1    1    2  501    0 -0.40505275060E+02  0.14793496636E+03 -0.23831274972E+03  0.28340500747E+03  0.00000000000E+00 0. -1.
          1    1    1    2  502    0  0.29928080818E+02  0.64130367521E+02  0.22039682952E+04  0.22051042243E+04  0.00000000000E+00 0. -1.
         22    1    3    3    0    0 -0.24282615923E+01  0.10300292919E+02  0.94463061152E+02  0.95053997343E+02  0.00000000000E+00 0. -1.
         22    1    3    3    0    0  0.13005455834E+02 -0.22236562680E+03  0.42214855236E+03  0.47731018648E+03  0.00000000000E+00 0. -1.
</event>
<event>
 7    1  0.6173324E-006  0.1302970E+03  0.7818608E-02  0.1242438E+00
          2   -1    0    0  502    0  0.00000000000E+00  0.00000000000E+00  0.23122336623E+03  0.23122336623E+03  0.00000000000E+00 0. -1.
          1   -1    0    0  501    0 -0.00000000000E+00 -0.00000000000E+00 -0.77589006860E+03  0.77589006860E+03  0.00000000000E+00 0. -1.
         25    2    1    2    0    0  0.58755536653E+02 -0.81396728194E+02 -0.93149365567E+02  0.18541504475E+03  0.12499717623E+03 0.  0.
          2    1    1    2  501    0 -0.14137359387E+03  0.68841493342E+01 -0.61103549654E+03  0.62721468621E+03  0.00000000000E+00 0. -1.
          1    1    1    2  502    0  0.82618057214E+02  0.74512578860E+02  0.15951815974E+03  0.19448370387E+03  0.00000000000E+00 0. -1.
         22    1    3    3    0    0 -0.31809619402E+02  0.76656608529E+01 -0.12918946457E+02  0.35178308947E+02  0.00000000000E+00 0.  1.
         22    1    3    3    0    0  0.90565156056E+02 -0.89062389047E+02 -0.80230419110E+02  0.15023673580E+03  0.00000000000E+00 0.  1.
</event>
<event>
 7    1  0.6173324E-006  0.7450586E+02  0.7818608E-02  0.1352270E+00
          2   -1    0    0  502    0  0.00000000000E+00  0.00000000000E+00  0.42192360506E+03  0.42192360506E+03  0.00000000000E+00 0. -1.
          1   -1    0    0  501    0 -0.00000000000E+00 -0.00000000000E+00 -0.10441370739E+04  0.10441370739E+04  0.00000000000E+00 0. -1.
         25    2    1    2    0    0 -0.19434339547E+02 -0.31363695954E+02 -0.18270201233E+03  0.22442645056E+03  0.12500332566E+03 0.  0.
          2    1    1    2  501    0  0.79471152102E+02 -0.51375742201E+01 -0.83558774183E+03  0.83937413171E+03  0.00000000000E+00 0. -1.
          1    1    1    2  502    0 -0.60036812554E+02  0.36501270174E+02  0.39607628532E+03  0.40226009668E+03  0.00000000000E+00 0. -1.
         22    1    3    3    0    0 -0.11206629870E+02 -0.10557710656E+02  0.17310215077E+02  0.23166729449E+02  0.00000000000E+00 0.  1.
         22    1    3    3    0    0 -0.82277096774E+01 -0.20805985298E+02 -0.20001222741E+03  0.20125972111E+03  0.00000000000E+00 0.  1.
</event>
<event>
 7    1  0.6173324E-006  0.1127083E+03  0.7818608E-02  0.1321648E+00
          2   -1    0    0  502    0  0.00000000000E+00  0.00000000000E+00  0.20979913460E+04  0.20979913460E+04  0.00000000000E+00 0. -1.
          1   -1    0    0  501    0 -0.00000000000E+00 -0.00000000000E+00 -0.25983679729E+03  0.25983679729E+03  0.00000000000E+00 0. -1.
         25    2    1    2    0    0 -0.73223098958E+02  0.13034212722E+03  0.76667699382E+03  0.79105564874E+03  0.12499893680E+03 0.  0.
          2    1    1    2  501    0  0.55487926847E+02 -0.24443497126E+02 -0.24171181854E+03  0.24920071789E+03  0.00000000000E+00 0. -1.
          1    1    1    2  502    0  0.17735172112E+02 -0.10589863009E+03  0.13131893735E+04  0.13175717767E+04  0.00000000000E+00 0. -1.
         22    1    3    3    0    0 -0.52857250349E+02  0.10653670536E+03  0.29122539089E+03  0.31457302300E+03  0.00000000000E+00 0.  1.
         22    1    3    3    0    0 -0.20365848609E+02  0.23805421863E+02  0.47545160293E+03  0.47648262574E+03  0.00000000000E+00 0.  1.
</event>
<event>
 7    1  0.6173324E-006  0.8985000E+02  0.7818608E-02  0.1382587E+00
          2   -1    0    0  502    0  0.00000000000E+00  0.00000000000E+00  0.22344135471E+04  0.22344135471E+04  0.00000000000E+00 0. -1.
          1   -1    0    0  501    0 -0.00000000000E+00 -0.00000000000E+00 -0.52592454679E+02  0.52592454679E+02  0.00000000000E+00 0. -1.
         25    2    1    2    0    0 -0.31261682324E+02 -0.71466450594E+02  0.12719146865E+03  0.19464725338E+03  0.12500054884E+03 0.  0.
          2    1    1    2  501    0 -0.71310704477E-01  0.10416381470E+03  0.12724729574E+03  0.16444445765E+03  0.00000000000E+00 0. -1.
          1    1    1    2  502    0  0.31332993029E+02 -0.32697364107E+02  0.19273823280E+04  0.19279142907E+04  0.00000000000E+00 0. -1.
         22    1    3    3    0    0  0.65988808664E+00 -0.35059735337E+02  0.14019361097E+03  0.14451252213E+03  0.00000000000E+00 0.  1.
         22    1    3    3    0    0 -0.31921570411E+02 -0.36406715258E+02 -0.13002142318E+02  0.50134731257E+02  0.00000000000E+00 0.  1.
</event>
<event>
 7    1  0.6173324E-006  0.1139801E+03  0.7818608E-02  0.1307089E+00
          2   -1    0    0  502    0  0.00000000000E+00  0.00000000000E+00  0.15347410176E+03  0.15347410176E+03  0.00000000000E+00 0. -1.
          1   -1    0    0  501    0 -0.00000000000E+00 -0.00000000000E+00 -0.80265755541E+03  0.80265755541E+03  0.00000000000E+00 0. -1.
         25    2    1    2    0    0 -0.16152145496E+03  0.28468900706E+02 -0.88564594877E+02  0.22442852919E+03  0.12499927412E+03 0.  0.
          2    1    1    2  501    0  0.57465134793E+02 -0.37031507354E+02 -0.61167274099E+03  0.61548120712E+03  0.00000000000E+00 0. -1.
          1    1    1    2  502    0  0.10405632016E+03  0.85626066480E+01  0.51053882216E+02  0.11622192086E+03  0.00000000000E+00 0. -1.
         22    1    3    3    0    0  0.15369112959E+02  0.11559966302E+02 -0.33091994862E+02  0.38274307021E+02  0.00000000000E+00 0.  1.
         22    1    3    3    0    0 -0.17689056791E+03  0.16908934404E+02 -0.55472600015E+02  0.18615422217E+03  0.00000000000E+00 0.  1.
</event>
<event>
 7    1  0.6173324E-006  0.1365815E+03  0.7818608E-02  0.1294920E+00
          2   -1    0    0  502    0  0.00000000000E+00  0.00000000000E+00  0.14705108290E+04  0.14705108290E+04  0.00000000000E+00 0. -1.
          1   -1    0    0  501    0 -0.00000000000E+00 -0.00000000000E+00 -0.70734335539E+03  0.70734335539E+03  0.00000000000E+00 0. -1.
         25    2    1    2    0    0 -0.72379476563E+02 -0.59238224492E+02 -0.55169181291E+02  0.16557820413E+03  0.12499818899E+03 0.  0.
          2    1    1    2  501    0  0.13541866944E+03  0.49336985554E+02 -0.58753629269E+03  0.60495557639E+03  0.00000000000E+00 0. -1.
          1    1    1    2  502    0 -0.63039192879E+02  0.99012389378E+01  0.14058729476E+04  0.14073204038E+04  0.00000000000E+00 0. -1.
         22    1    3    3    0    0 -0.73996138848E+02 -0.22488045691E+02 -0.87375594649E+02  0.11668605445E+03  0.00000000000E+00 0. -1.
         22    1    3    3    0    0  0.16166622851E+01 -0.36750178802E+02  0.32206413357E+02  0.48892149679E+02  0.00000000000E+00 0. -1.
</event>
<event>
 7    1  0.6173324E-006  0.4360941E+02  0.7818608E-02  0.1541634E+00
          2   -1    0    0  502    0  0.00000000000E+00  0.00000000000E+00  0.24064610141E+02  0.24064610141E+02  0.00000000000E+00 0. -1.
          1   -1    0    0  501    0 -0.00000000000E+00 -0.00000000000E+00 -0.62394038572E+03  0.62394038572E+03  0.00000000000E+00 0. -1.
         25    2    1    2    0    0  0.23487812949E+01 -0.46071137859E+02 -0.28602448235E+03  0.31553656744E+03  0.12500101748E+03 0.  0.
          2    1    1    2  501    0 -0.27855900292E+02  0.93535794894E+01 -0.26349904997E+03  0.26513240082E+03  0.00000000000E+00 0. -1.
          1    1    1    2  502    0  0.25507118997E+02  0.36717558369E+02 -0.50352243262E+02  0.67336027605E+02  0.00000000000E+00 0. -1.
         22    1    3    3    0    0 -0.31848073583E+02 -0.78370439115E+02 -0.20628177537E+03  0.22295379873E+03  0.00000000000E+00 0. -1.
         22    1    3    3    0    0  0.34196854878E+02  0.32299301257E+02 -0.79742706977E+02  0.92582768706E+02  0.00000000000E+00 0. -1.
</event>
<event>
 7    1  0.6173324E-006  0.8832997E+02  0.7818608E-02  0.1388464E+00
          2   -1    0    0  502    0  0.00000000000E+00  0.00000000000E+00  0.12573415445E+04  0.12573415445E+04  0.00000000000E+00 0. -1.
          1   -1    0    0  501    0 -0.00000000000E+00 -0.00000000000E+00 -0.18805684476E+03  0.18805684476E+03  0.00000000000E+00 0. -1.
         25    2    1    2    0    0  0.92862137937E+02  0.35756615248E+02 -0.44932829093E+02  0.16596857012E+03  0.12499877975E+03 0.  0.
          2    1    1    2  501    0 -0.58975720681E+02 -0.63708722076E+02 -0.59271310485E+02  0.10511909981E+03  0.00000000000E+00 0. -1.
          1    1    1    2  502    0 -0.33886417257E+02  0.27952106827E+02  0.11734888393E+04  0.11743107193E+04  0.00000000000E+00 0. -1.
         22    1    3    3    0    0  0.53316842024E+01  0.63622072416E+02 -0.36942551102E+02  0.73762775414E+02  0.00000000000E+00 0.  1.
         22    1    3    3    0    0  0.87530453735E+02 -0.27865457167E+02 -0.79902779913E+01  0.92205794702E+02  0.00000000000E+00 0.  1.
</event>
<event>
 7    1  0.6173324E-006  0.1043286E+03  0.7818608E-02  0.1358972E+00
          2   -1    0    0  502    0  0.00000000000E+00  0.00000000000E+00  0.18099225442E+04  0.18099225442E+04  0.00000000000E+00 0. -1.
          1   -1    0    0  501    0 -0.00000000000E+00 -0.00000000000E+00 -0.10190056238E+03  0.10190056238E+03  0.00000000000E+00 0. -1.
         25    2    1    2    0    0 -0.71126341900E+02  0.35966256355E+02  0.34189920539E+03  0.37265603656E+03  0.12499970729E+03 0.  0.
          2    1    1    2  501    0 -0.37059435789E+02 -0.29571460985E+02 -0.77840347654E+02  0.91142705734E+02  0.00000000000E+00 0. -1.
          1    1    1    2  502    0  0.10818577769E+03 -0.63947953705E+01  0.14439631240E+04  0.14480243643E+04  0.00000000000E+00 0. -1.
         22    1    3    3    0    0  0.10009170273E+02  0.21861643432E+02  0.24198787819E+03  0.24317945665E+03  0.00000000000E+00 0.  1.
         22    1    3    3    0    0 -0.81135512173E+02  0.14104612923E+02  0.99911327200E+02  0.12947657991E+03  0.00000000000E+00 0.  1.
</event>
<event>
 7    1  0.6173324E-006  0.3086228E+03  0.7818608E-02  0.1242419E+00
          2   -1    0    0  502    0  0.00000000000E+00  0.00000000000E+00  0.14489381539E+04  0.14489381539E+04  0.00000000000E+00 0. -1.
          1   -1    0    0  501    0 -0.00000000000E+00 -0.00000000000E+00 -0.35498289184E+03  0.35498289184E+03  0.00000000000E+00 0. -1.
         25    2    1    2    0    0 -0.48364772129E+02 -0.27023256989E+03  0.41030997945E+03  0.50926096096E+03  0.12501061598E+03 0.  0.
          2    1    1    2  501    0  0.29777436639E+02  0.31337912520E+03 -0.22364900569E+03  0.38615029405E+03  0.00000000000E+00 0. -1.
          1    1    1    2  502    0  0.18587335490E+02 -0.43146555306E+02  0.90729428826E+03  0.90850979069E+03  0.00000000000E+00 0. -1.
         22    1    3    3    0    0 -0.76036595775E+01 -0.31140552903E+02 -0.65508449209E+00  0.32062108629E+02  0.00000000000E+00 0.  1.
         22    1    3    3    0    0 -0.40761112552E+02 -0.23909201699E+03  0.41096506394E+03  0.47719885233E+03  0.00000000000E+00 0.  1.
</event>
<event>
 7    1  0.6173324E-006  0.1705395E+03  0.7818608E-02  0.1244895E+00
          2   -1    0    0  502    0  0.00000000000E+00  0.00000000000E+00  0.28796763236E+04  0.28796763236E+04  0.00000000000E+00 0. -1.
          1   -1    0    0  501    0 -0.00000000000E+00 -0.00000000000E+00 -0.15621550266E+04  0.15621550266E+04  0.00000000000E+00 0. -1.
         25    2    1    2    0    0  0.12946002168E+03  0.80540985108E+02 -0.57808044387E+03  0.61077688791E+03  0.12499863894E+03 0.  0.
          2    1    1    2  501    0 -0.99207849252E+02 -0.15774572879E+03 -0.95814755155E+03  0.97610073397E+03  0.00000000000E+00 0. -1.
          1    1    1    2  502    0 -0.30252172424E+02  0.77204743684E+02  0.28537492925E+04  0.28549537283E+04  0.00000000000E+00 0. -1.
         22    1    3    3    0    0  0.97803401397E+02  0.34565235408E+02 -0.51990570422E+03  0.53015299877E+03  0.00000000000E+00 0.  1.
         22    1    3    3    0    0  0.31656620278E+02  0.45975749700E+02 -0.58174739644E+02  0.80623889143E+02  0.00000000000E+00 0.  1.
</event>
<event>
 7    1  0.6173324E-006  0.1004681E+03  0.7818608E-02  0.1431624E+00
          2   -1    0    0  502    0  0.00000000000E+00  0.00000000000E+00  0.38440281883E+03  0.38440281883E+03  0.00000000000E+00 0. -1.
          1   -1    0    0  501    0 -0.00000000000E+00 -0.00000000000E+00 -0.66552255030E+03  0.66552255030E+03  0.00000000000E+00 0. -1.
         25    2    1    2    0    0 -0.53270358912E+02 -0.63639855054E+02  0.12227749516E+03  0.19355727651E+03  0.12499948472E+03 0.  0.
          2    1    1    2  501    0 -0.26538106352E+02 -0.74930723792E+01 -0.61694157871E+03  0.61755755097E+03  0.00000000000E+00 0. -1.
          1    1    1    2  502    0  0.79808465264E+02  0.71132927433E+02  0.21354435208E+03  0.23881054164E+03  0.00000000000E+00 0. -1.
         22    1    3    3    0    0 -0.55225451274E+02 -0.74732564276E+02  0.25819748876E+02  0.96444108497E+02  0.00000000000E+00 0. -1.
         22    1    3    3    0    0  0.19550923627E+01  0.11092709223E+02  0.96457746285E+02  0.97113168018E+02  0.00000000000E+00 0. -1.
</event>
<event>
 7    1  0.6173324E-006  0.3789582E+02  0.7818608E-02  0.1557369E+00
          2   -1    0    0  502    0  0.00000000000E+00  0.00000000000E+00  0.92512380023E+03  0.92512380023E+03  0.00000000000E+00 0. -1.
          1   -1    0    0  501    0 -0.00000000000E+00 -0.00000000000E+00 -0.39688315967E+03  0.39688315967E+03  0.00000000000E+00 0. -1.
         25    2    1    2    0    0 -0.13107696377E+02 -0.11078302039E+02  0.40086936394E+03  0.42025610301E+03  0.12499761875E+03 0.  0.
          2    1    1    2  501    0 -0.26666960272E+02  0.14930387399E+02 -0.38580873735E+03  0.38701734465E+03  0.00000000000E+00 0. -1.
          1    1    1    2  502    0  0.39774656649E+02 -0.38520853604E+01  0.51318001398E+03  0.51473351224E+03  0.00000000000E+00 0. -1.
         22    1    3    3    0    0 -0.58466382322E+02  0.28451183753E+02  0.23424025509E+03  0.24309727441E+03  0.00000000000E+00 0. -1.
         22    1    3    3    0    0  0.45358685945E+02 -0.39529485792E+02  0.16662910885E+03  0.17715882860E+03  0.00000000000E+00 0. -1.
</event>
<event>
 7    1  0.6173324E-006  0.1086752E+03  0.7818608E-02  0.1311545E+00
          2   -1    0    0  502    0  0.00000000000E+00  0.00000000000E+00  0.24513244749E+03  0.24513244749E+03  0.00000000000E+00 0. -1.
          1   -1    0    0  501    0 -0.00000000000E+00 -0.00000000000E+00 -0.45895324302E+03  0.45895324302E+03  0.00000000000E+00 0. -1.
         25    2    1    2    0    0 -0.26738232270E+02  0.72115470313E+02 -0.11021261133E+03  0.18354540171E+03  0.12500608253E+03 0.  0.
          2    1    1    2  501    0  0.58015189534E+02  0.37086699283E+02 -0.29229694695E+03  0.30029767011E+03  0.00000000000E+00 0. -1.
          1    1    1    2  502    0 -0.31276957264E+02 -0.10920216960E+03  0.18868876275E+03  0.22024261869E+03  0.00000000000E+00 0. -1.
         22    1    3    3    0    0 -0.18302136622E+02  0.86720779061E+02 -0.18817031434E+02  0.90606525140E+02  0.00000000000E+00 0. -1.
         22    1    3    3    0    0 -0.84360956481E+01 -0.14605308748E+02 -0.91395579895E+02  0.92938876569E+02  0.00000000000E+00 0. -1.
</event>
<event>
 7    1  0.6173324E-006  0.1481595E+03  0.7818608E-02  0.1238589E+00
          2   -1    0    0  502    0  0.00000000000E+00  0.00000000000E+00  0.35284046785E+04  0.35284046785E+04  0.00000000000E+00 0. -1.
          1   -1    0    0  501    0 -0.00000000000E+00 -0.00000000000E+00 -0.48033078822E+03  0.48033078822E+03  0.00000000000E+00 0. -1.
         25    2    1    2    0    0  0.82548722371E+02 -0.38227962315E+02  0.67539386349E+03  0.69286213019E+03  0.12500156778E+03 0.  0.
          2    1    1    2  501    0  0.10608788352E+02 -0.10118401030E+03 -0.46360471134E+03  0.47463678608E+03  0.00000000000E+00 0. -1.
          1    1    1    2  502    0 -0.93157510723E+02  0.13941197261E+03  0.28362847381E+04  0.28412365504E+04  0.00000000000E+00 0. -1.
         22    1    3    3    0    0  0.94341822787E+02 -0.63722719855E+02  0.62392681309E+03  0.63422837578E+03  0.00000000000E+00 0. -1.
         22    1    3    3    0    0 -0.11793100416E+02  0.25494757541E+02  0.51467050395E+02  0.58633754407E+02  0.00000000000E+00 0. -1.
</event>
<event>
 7    1  0.6173324E-006  0.5865188E+02  0.7818608E-02  0.1445366E+00
          2   -1    0    0  502    0  0.00000000000E+00  0.00000000000E+00  0.74855219218E+03  0.74855219218E+03  0.00000000000E+00 0. -1.
          1   -1    0    0  501    0 -0.00000000000E+00 -0.00000000000E+00 -0.30703744961E+03  0.30703744961E+03  0.00000000000E+00 0. -1.
         25    2    1    2    0    0  0.28292026330E+02 -0.48746398088E+02 -0.69970404261E+02  0.15394650117E+03  0.12500807042E+03 0.  0.
          2    1    1    2  501    0  0.28124588659E+02  0.32018445988E+02 -0.19150750332E+03  0.19619199066E+03  0.00000000000E+00 0. -1.
          1    1    1    2  502    0 -0.56416614990E+02  0.16727952100E+02  0.70299265014E+03  0.70545114996E+03  0.00000000000E+00 0. -1.
         22    1    3    3    0    0  0.76547481282E+02 -0.42231809386E+02 -0.35854130292E+02  0.94491064517E+02  0.00000000000E+00 0.  1.
         22    1    3    3    0    0 -0.48255454951E+02 -0.65145887026E+01 -0.34116273969E+02  0.59455436657E+02  0.00000000000E+00 0.  1.
</event>
<event>
 7    1  0.6173324E-006  0.5721264E+02  0.7818608E-02  0.1494330E+00
          2   -1    0    0  502    0  0.00000000000E+00  0.00000000000E+00  0.81659024312E+03  0.81659024312E+03  0.00000000000E+00 0. -1.
          1   -1    0    0  501    0 -0.00000000000E+00 -0.00000000000E+00 -0.98942033939E+02  0.98942033939E+02  0.00000000000E+00 0. -1.
         25    2    1    2    0    0 -0.43573713194E+02 -0.87134721499E+01  0.13373237742E+03  0.18836762980E+03  0.12499368827E+03 0.  0.
          2    1    1    2  501    0  0.55186635900E+02 -0.19769661058E+02 -0.59200414355E+02  0.83313224281E+02  0.00000000000E+00 0. -1.
          1    1    1    2  502    0 -0.11612922706E+02  0.28483133208E+02  0.64311624612E+03  0.64385142298E+03  0.00000000000E+00 0. -1.
         22    1    3    3    0    0 -0.64053752800E+02 -0.44961958871E+02  0.12229485464E+03  0.14519122723E+03  0.00000000000E+00 0.  1.
         22    1    3    3    0    0  0.20480039606E+02  0.36248486721E+02  0.11437522784E+02  0.43176402574E+02  0.00000000000E+00 0.  1.
</event>
<event>
 7    1  0.6173324E-006  0.7569687E+02  0.7818608E-02  0.1425566E+00
          2   -1    0    0  502    0  0.00000000000E+00  0.00000000000E+00  0.11009927737E+04  0.11009927737E+04  0.00000000000E+00 0. -1.
          1   -1    0    0  501    0 -0.00000000000E+00 -0.00000000000E+00 -0.85794553821E+03  0.85794553821E+03  0.00000000000E+00 0. -1.
         25    2    1    2    0    0  0.10492273046E+03  0.40515210597E+02 -0.15486374787E+03  0.22860423188E+03  0.12500741088E+03 0.  0.
          2    1    1    2  501    0 -0.37856971899E+02 -0.59596395812E+01 -0.66432138904E+03  0.66542586030E+03  0.00000000000E+00 0. -1.
          1    1    1    2  502    0 -0.67065758565E+02 -0.34555571016E+02  0.10622323724E+04  0.10649082198E+04  0.00000000000E+00 0. -1.
         22    1    3    3    0    0  0.27465426209E+02 -0.33050476280E+02 -0.31951490003E+01  0.43091676648E+02  0.00000000000E+00 0. -1.
         22    1    3    3    0    0  0.77457304255E+02  0.73565686877E+02 -0.15166859887E+03  0.18551255524E+03  0.00000000000E+00 0. -1.
</event>
<event>
 7    1  0.6173324E-006  0.9815207E+02  0.7818608E-02  0.1401326E+00
          2   -1    0    0  502    0  0.00000000000E+00  0.00000000000E+00  0.29728145268E+04  0.29728145268E+04  0.00000000000E+00 0. -1.
          1   -1    0    0  501    0 -0.00000000000E+00 -0.00000000000E+00 -0.12329061670E+02  0.12329061670E+02  0.00000000000E+00 0. -1.
         25    2    1    2    0    0 -0.70936736323E+02 -0.34180231038E+02  0.96695721589E+03  0.97817800753E+03  0.12500259313E+03 0.  0.
          2    1    1    2  501    0 -0.31255554751E+02  0.17201656025E+02  0.54294868138E+02  0.64967217725E+02  0.00000000000E+00 0. -1.
          1    1    1    2  502    0  0.10219229107E+03  0.16978575013E+02  0.19392333811E+04  0.19419983632E+04  0.00000000000E+00 0. -1.
         22    1    3    3    0    0 -0.56808529558E+02  0.33953424955E+02  0.28043913927E+03  0.28814259479E+03  0.00000000000E+00 0.  1.
         22    1    3    3    0    0 -0.14128206765E+02 -0.68133655993E+02  0.68651807662E+03  0.69003541274E+03  0.00000000000E+00 0.  1.
</event>
<event>
 7    1  0.6173324E-006  0.2924842E+02  0.7818608E-02  0.1646619E+00
          2   -1    0    0  502    0  0.00000000000E+00  0.00000000000E+00  0.29748485471E+04  0.29748485471E+04  0.00000000000E+00 0. -1.
          1   -1    0    0  501    0 -0.00000000000E+00 -0.00000000000E+00 -0.82707663697E+01  0.82707663697E+01  0.00000000000E+00 0. -1.
         25    2    1    2    0    0 -0.41557220998E+02  0.35517991430E+01  0.14321760075E+04  0.14382256423E+04  0.12500105566E+03 0.  0.
          2    1    1    2  501    0  0.18492710616E+02  0.13955730466E+02  0.21165174017E+02  0.31380047004E+02  0.00000000000E+00 0. -1.
          1    1    1    2  502    0  0.23064510382E+02 -0.17507529609E+02  0.15132365992E+04  0.15135136241E+04  0.00000000000E+00 0. -1.
         22    1    3    3    0    0 -0.25431573364E+02 -0.50962475983E+02  0.10791170076E+04  0.10806190147E+04  0.00000000000E+00 0. -1.
         22    1    3    3    0    0 -0.16125647634E+02  0.54514275126E+02  0.35305899991E+03  0.35760662762E+03  0.00000000000E+00 0. -1.
</event>
<event>
 7    1  0.6173324E-006  0.3394004E+02  0.7818608E-02  0.1645192E+00
          2   -1    0    0  502    0  0.00000000000E+00  0.00000000000E+00  0.75232205643E+03  0.75232205643E+03  0.00000000000E+00 0. -1.
          1   -1    0    0  501    0 -0.00000000000E+00 -0.00000000000E+00 -0.13160456886E+03  0.13160456886E+03  0.00000000000E+00 0. -1.
         25    2    1    2    0    0 -0.12597681362E+02 -0.50629506828E+02  0.17462905306E+03  0.22100259565E+03  0.12499917030E+03 0.  0.
          2    1    1    2  501    0 -0.13030924288E+01  0.20085279472E+02 -0.10697063729E+03  0.10884775489E+03  0.00000000000E+00 0. -1.
          1    1    1    2  502    0  0.13900773791E+02  0.30544227356E+02  0.55305907180E+03  0.55407627475E+03  0.00000000000E+00 0. -1.
         22    1    3    3    0    0 -0.36087245003E+02  0.31973535624E+02  0.78274322713E+02  0.91931854264E+02  0.00000000000E+00 0. -1.
         22    1    3    3    0    0  0.23489563641E+02 -0.82603042452E+02  0.96354730344E+02  0.12907074139E+03  0.00000000000E+00 0. -1.
</event>
<event>
 7    1  0.6173324E-006  0.7907203E+02  0.7818608E-02  0.1387157E+00
          2   -1    0    0  502    0  0.00000000000E+00  0.00000000000E+00  0.26881585883E+03  0.26881585883E+03  0.00000000000E+00 0. -1.
          1   -1    0    0  501    0 -0.00000000000E+00 -0.00000000000E+00 -0.51638438089E+03  0.51638438089E+03  0.00000000000E+00 0. -1.
         25    2    1    2    0    0 -0.64648398932E+02 -0.18902765865E+02  0.55475907432E+02  0.15244250024E+03  0.12499763810E+03 0.  0.
          2    1    1    2  501    0 -0.14549289193E+02  0.47407528099E+02 -0.45572376333E+03  0.45841390031E+03  0.00000000000E+00 0. -1.
          1    1    1    2  502    0  0.79197688125E+02 -0.28504762234E+02  0.15267933384E+03  0.17434383917E+03  0.00000000000E+00 0. -1.
         22    1    3    3    0    0 -0.90002095138E+02  0.22635754389E+02  0.42525021331E+02  0.10208394558E+03  0.00000000000E+00 0.  1.
         22    1    3    3    0    0  0.25353696206E+02 -0.41538520254E+02  0.12950886101E+02  0.50358554656E+02  0.00000000000E+00 0.  1.
</event>
<event>
 7    1  0.6173324E-006  0.1229130E+03  0.7818608E-02  0.1343435E+00
          2   -1    0    0  502    0  0.00000000000E+00  0.00000000000E+00  0.10135618964E+04  0.10135618964E+04  0.00000000000E+00 0. -1.
          1   -1    0    0  501    0 -0.00000000000E+00 -0.00000000000E+00 -0.16364723791E+04  0.16364723791E+04  0.00000000000E+00 0. -1.
         25    2    1    2    0    0  0.90723258982E+02 -0.12409399576E+03  0.35617636403E+03  0.40757865386E+03  0.12501490826E+03 0.  0.
          2    1    1    2  501    0 -0.94524840357E+02  0.78315287041E+02 -0.16075931194E+04  0.16122728886E+04  0.00000000000E+00 0. -1.
          1    1    1    2  502    0  0.38015813743E+01  0.45778708720E+02  0.62850627273E+03  0.63018273306E+03  0.00000000000E+00 0. -1.
         22    1    3    3    0    0  0.84650406533E+02 -0.12956765807E+03  0.20844105468E+03  0.25961730031E+03  0.00000000000E+00 0.  1.
         22    1    3    3    0    0  0.60728524490E+01  0.54736623113E+01  0.14773530935E+03  0.14796135355E+03  0.00000000000E+00 0.  1.
</event>
<event>
 7    1  0.6173324E-006  0.4931693E+02  0.7818608E-02  0.1581464E+00
          2   -1    0    0  502    0  0.00000000000E+00  0.00000000000E+00  0.70425761272E+02  0.70425761272E+02  0.00000000000E+00 0. -1.
          1   -1    0    0  501    0 -0.00000000000E+00 -0.00000000000E+00 -0.70216946121E+03  0.70216946121E+03  0.00000000000E+00 0. -1.
         25    2    1    2    0    0  0.43082727713E+02  0.38767042307E+01 -0.27738298525E+02  0.13514913130E+03  0.12499889689E+03 0.  0.
          2    1    1    2  501    0 -0.43249936291E+02 -0.24071855850E+02 -0.61324336907E+03  0.61523771092E+03  0.00000000000E+00 0. -1.
          1    1    1    2  502    0  0.16720857846E+00  0.20195151619E+02  0.92379676513E+01  0.22208380264E+02  0.00000000000E+00 0. -1.
         22    1    3    3    0    0  0.71651358687E+02  0.12255228911E+02 -0.57776955238E+02  0.92856256622E+02  0.00000000000E+00 0. -1.
         22    1    3    3    0    0 -0.28568630974E+02 -0.83785246807E+01  0.30038656712E+02  0.42292874679E+02  0.00000000000E+00 0. -1.
</event>
<event>
 7    1  0.6173324E-006  0.1335505E+03  0.7818608E-02  0.1386272E+00
          2   -1    0    0  502    0  0.00000000000E+00  0.00000000000E+00  0.10165788133E+03  0.10165788133E+03  0.00000000000E+00 0. -1.
          1   -1    0    0  501    0 -0.00000000000E+00 -0.00000000000E+00 -0.14459501706E+04  0.14459501706E+04  0.00000000000E+00 0. -1.
         25    2    1    2    0    0  0.14113110495E+03  0.28722691446E+02 -0.65491880040E+03  0.68211174063E+03  0.12495923257E+03 0.  0.
          2    1    1    2  501    0 -0.81728145347E+01 -0.28419771523E+02 -0.72677570486E+03  0.72737707105E+03  0.00000000000E+00 0. -1.
          1    1    1    2  502    0 -0.13295829042E+03 -0.30291992340E+00  0.37402216033E+02  0.13811924020E+03  0.00000000000E+00 0. -1.
         22    1    3    3    0    0 -0.22045908519E+02  0.65415832440E+01 -0.47622248802E+02  0.52883768538E+02  0.00000000000E+00 0. -1.
         22    1    3    3    0    0  0.16317701347E+03  0.22181108202E+02 -0.60729655159E+03  0.62922797209E+03  0.00000000000E+00 0. -1.
</event>
<event>
 7    1  0.6173324E-006  0.2207931E+03  0.7818608E-02  0.1184360E+00
          2   -1    0    0  502    0  0.00000000000E+00  0.00000000000E+00  0.29208476733E+03  0.29208476733E+03  0.00000000000E+00 0. -1.
          1   -1    0    0  501    0 -0.00000000000E+00 -0.00000000000E+00 -0.88550726507E+03  0.88550726507E+03  0.00000000000E+00 0. -1.
         25    2    1    2    0    0  0.17322714480E+03  0.80713414123E+02 -0.13226210749E+03  0.26389766887E+03  0.12500566244E+03 0.  0.
          2    1    1    2  501    0 -0.13376139492E+03 -0.19580567416E+03 -0.64839642290E+03  0.69039835895E+03  0.00000000000E+00 0. -1.
          1    1    1    2  502    0 -0.39465749880E+02  0.11509226003E+03  0.18723603266E+03  0.22329600457E+03  0.00000000000E+00 0. -1.
         22    1    3    3    0    0  0.16727868019E+03  0.44355535302E+02 -0.14410283658E+03  0.22520035051E+03  0.00000000000E+00 0.  1.
         22    1    3    3    0    0  0.59484646107E+01  0.36357878821E+02  0.11840729081E+02  0.38697318367E+02  0.00000000000E+00 0.  1.
</event>
<event>
 7    1  0.6173324E-006  0.5373519E+02  0.7818608E-02  0.1534353E+00
          2   -1    0    0  502    0  0.00000000000E+00  0.00000000000E+00  0.53791255760E+03  0.53791255760E+03  0.00000000000E+00 0. -1.
          1   -1    0    0  501    0 -0.00000000000E+00 -0.00000000000E+00 -0.10370999512E+03  0.10370999512E+03  0.00000000000E+00 0. -1.
         25    2    1    2    0    0  0.99931970573E+01 -0.38202141876E+02  0.41951067440E+03  0.43951513208E+03  0.12500031105E+03 0.  0.
          2    1    1    2  501    0  0.10077526177E+02  0.53120395974E+02 -0.84220820501E+02  0.10008236412E+03  0.00000000000E+00 0. -1.
          1    1    1    2  502    0 -0.20070723234E+02 -0.14918254098E+02  0.98912708585E+02  0.10202505651E+03  0.00000000000E+00 0. -1.
         22    1    3    3    0    0 -0.52235182057E+02 -0.38110203020E+02  0.15834447585E+03  0.17103764162E+03  0.00000000000E+00 0.  1.
         22    1    3    3    0    0  0.62228379115E+02 -0.91938856719E-01  0.26116619855E+03  0.26847749046E+03  0.00000000000E+00 0.  1.
</event>
<event>
 7    1  0.6173324E-006  0.1751356E+03  0.7818608E-02  0.1305914E+00
          2   -1    0    0  502    0  0.00000000000E+00  0.00000000000E+00  0.49129363308E+03  0.49129363308E+03  0.00000000000E+00 0. -1.
          1   -1    0    0  501    0 -0.00000000000E+00 -0.00000000000E+00 -0.10419339838E+04  0.10419339838E+04  0.00000000000E+00 0. -1.
         25    2    1    2    0    0  0.21638393460E+03 -0.17257837884E+02 -0.14786445435E+02  0.25092804283E+03  0.12500561423E+03 0.  0.
          2    1    1    2  501    0 -0.17141495237E+03  0.16796483812E+02 -0.89952121007E+03  0.91586222497E+03  0.00000000000E+00 0. -1.
          1    1    1    2  502    0 -0.44968982237E+02  0.46135407192E+00  0.36366730480E+03  0.36643734907E+03  0.00000000000E+00 0. -1.
         22    1    3    3    0    0  0.95659388409E+02  0.12654837015E+02  0.52151225298E+02  0.10968415469E+03  0.00000000000E+00 0. -1.
         22    1    3    3    0    0  0.12072454620E+03 -0.29912674899E+02 -0.66937670733E+02  0.14124388814E+03  0.00000000000E+00 0. -1.
</event>
<event>
 7    1  0.6173324E-006  0.3437523E+02  0.7818608E-02  0.1626325E+00
          2   -1    0    0  502    0  0.00000000000E+00  0.00000000000E+00  0.38643914494E+03  0.38643914494E+03  0.00000000000E+00 0. -1.
          1   -1    0    0  501    0 -0.00000000000E+00 -0.00000000000E+00 -0.81730258734E+03  0.81730258734E+03  0.00000000000E+00 0. -1.
         25    2    1    2    0    0  0.21772992617E+02  0.29272449097E+02 -0.21517538045E+03  0.25150820768E+03  0.12499997878E+03 0.  0.
          2    1    1    2  501    0  0.11100984539E+02 -0.19166644994E+02 -0.58294706229E+03  0.58336769672E+03  0.00000000000E+00 0. -1.
          1    1    1    2  502    0 -0.32873977156E+02 -0.10105804104E+02  0.36725900034E+03  0.36886582789E+03  0.00000000000E+00 0. -1.
         22    1    3    3    0    0  0.17532692620E+02  0.63885548847E+02 -0.50822675276E+02  0.83496724392E+02  0.00000000000E+00 0. -1.
         22    1    3    3    0    0  0.42402999967E+01 -0.34613099750E+02 -0.16435270518E+03  0.16801148329E+03  0.00000000000E+00 0. -1.
</event>
<event>
 7    1  0.6173324E-006  0.1398927E+03  0.7818608E-02  0.1264091E+00
          2   -1    0    0  502    0  0.00000000000E+00  0.00000000000E+00  0.12075991967E+04  0.12075991967E+04  0.00000000000E+00 0. -1.
          1   -1    0    0  501    0 -0.00000000000E+00 -0.00000000000E+00 -0.16695534161E+03  0.16695534161E+03  0.00000000000E+00 0. -1.
         25    2    1    2    0    0  0.62081234622E+02  0.33399917835E+02  0.18847350245E+03  0.23688933454E+03  0.12499864596E+03 0.  0.
          2    1    1    2  501    0 -0.12862882271E+03 -0.83940497829E+02 -0.99062012454E+02  0.18276942720E+03  0.00000000000E+00 0. -1.
          1    1    1    2  502    0  0.66547588087E+02  0.50540579994E+02  0.95123236512E+03  0.95489577660E+03  0.00000000000E+00 0. -1.
         22    1    3    3    0    0  0.29894437380E+02 -0.29173151363E+02  0.15199469200E+03  0.15762974511E+03  0.00000000000E+00 0.  1.
         22    1    3    3    0    0  0.32186797242E+02  0.62573069198E+02  0.36478810448E+02  0.79259589434E+02  0.00000000000E+00 0.  1.
</event>
<event>
 7    1  0.6173324E-006  0.2992678E+03  0.7818608E-02  0.1182564E+00
          2   -1    0    0  502    0  0.00000000000E+00  0.00000000000E+00  0.62455955115E+03  0.62455955115E+03  0.00000000000E+00 0. -1.
          1   -1    0    0  501    0 -0.00000000000E+00 -0.00000000000E+00 -0.32856029173E+03  0.32856029173E+03  0.00000000000E+00 0. -1.
         25    2    1    2    0    0 -0.56809606631E+02 -0.28973001420E+03  0.35459016983E+03  0.47804801132E+03  0.12499960021E+03 0.  0.
          2    1    1    2  501    0  0.87991838016E+02 -0.25401002242E+02 -0.12156267465E+03  0.15220137431E+03  0.00000000000E+00 0. -1.
          1    1    1    2  502    0 -0.31182231385E+02  0.31513101644E+03  0.62971764235E+02  0.32287045725E+03  0.00000000000E+00 0. -1.
         22    1    3    3    0    0 -0.19387381660E+02 -0.23704621023E+03  0.33438390762E+03  0.41034055860E+03  0.00000000000E+00 0. -1.
         22    1    3    3    0    0 -0.37422224971E+02 -0.52683803964E+02  0.20206262214E+02  0.67707452725E+02  0.00000000000E+00 0. -1.
</event>
<event>
 7    1  0.6173324E-006  0.2419313E+02  0.7818608E-02  0.1689825E+00
          2   -1    0    0  502    0  0.00000000000E+00  0.00000000000E+00  0.69033200278E+03  0.69033200278E+03  0.00000000000E+00 0. -1.
          1   -1    0    0  501    0 -0.00000000000E+00 -0.00000000000E+00 -0.10045982784E+04  0.10045982784E+04  0.00000000000E+00 0. -1.
         25    2    1    2    0    0  0.12270025503E+02  0.13196195810E+02  0.68242687985E+02  0.14355063174E+03  0.12500010519E+03 0.  0.
          2    1    1    2  501    0 -0.19700916596E+02  0.99356313055E+01 -0.96656583923E+03  0.96681764798E+03  0.00000000000E+00 0. -1.
          1    1    1    2  502    0  0.74308910936E+01 -0.23131827116E+02  0.58405687564E+03  0.58456200146E+03  0.00000000000E+00 0. -1.
         22    1    3    3    0    0  0.36232625292E+02  0.61292547040E+02  0.49178756390E+02  0.86533979097E+02  0.00000000000E+00 0. -1.
         22    1    3    3    0    0 -0.23962599790E+02 -0.48096351230E+02  0.19063931595E+02  0.57016652639E+02  0.00000000000E+00 0. -1.
</event>
<event>
 7    1  0.6173324E-006  0.9184878E+02  0.7818608E-02  0.1351710E+00
          2   -1    0    0  502    0  0.00000000000E+00  0.00000000000E+00  0.37115056876E+04  0.37115056876E+04  0.00000000000E+00 0. -1.
          1   -1    0    0  501    0 -0.00000000000E+00 -0.00000000000E+00 -0.42721627515E+02  0.42721627515E+02  0.00000000000E+00 0. -1.
         25    2    1    2    0    0  0.73168990970E+02 -0.37978857094E+02  0.59956276262E+03  0.61797900205E+03  0.12500578318E+03 0.  0.
          2    1    1    2  501    0 -0.33008790328E+02 -0.46796783714E+02 -0.78014042047E+01  0.57796030248E+02  0.00000000000E+00 0. -1.
          1    1    1    2  502    0 -0.40160200642E+02  0.84775640808E+02  0.30770227017E+04  0.30784522828E+04  0.00000000000E+00 0. -1.
         22    1    3    3    0    0  0.74919621771E+02 -0.51400952532E+02  0.59740229993E+03  0.60427188881E+03  0.00000000000E+00 0.  1.
         22    1    3    3    0    0 -0.17506308006E+01  0.13422095438E+02  0.21604626852E+01  0.13707113232E+02  0.00000000000E+00 0.  1.
</event>
<event>
 7    1  0.6173324E-006  0.8179240E+02  0.7818608E-02  0.1389137E+00
          2   -1    0    0  502    0  0.00000000000E+00  0.00000000000E+00  0.82605610895E+03  0.82605610895E+03  0.00000000000E+00 0. -1.
          1   -1    0    0  501    0 -0.00000000000E+00 -0.00000000000E+00 -0.22640765504E+04  0.22640765504E+04  0.00000000000E+00 0. -1.
         25    2    1    2    0    0  0.54681593180E+02 -0.27457756308E+02 -0.18131184415E+02  0.14034867035E+03  0.12500001763E+03 0.  0.
          2    1    1    2  501    0 -0.39437605928E+02  0.72109380091E+02 -0.21833351291E+04  0.21848815468E+04  0.00000000000E+00 0. -1.
          1    1    1    2  502    0 -0.15243987252E+02 -0.44651623782E+02  0.76344587203E+03  0.76490244226E+03  0.00000000000E+00 0. -1.
         22    1    3    3    0    0 -0.16742718405E+01 -0.54056129224E+02 -0.47016919208E+02  0.71662116803E+02  0.00000000000E+00 0.  1.
         22    1    3    3    0    0  0.56355865021E+02  0.26598372916E+02  0.28885734793E+02  0.68686553549E+02  0.00000000000E+00 0.  1.
</event>
<event>
 7    1  0.6173324E-006  0.8425843E+02  0.7818608E-02  0.1374795E+00
          2   -1    0    0  502    0  0.00000000000E+00  0.00000000000E+00  0.28930354133E+04  0.28930354133E+04  0.00000000000E+00 0. -1.
          1   -1    0    0  501    0 -0.00000000000E+00 -0.00000000000E+00 -0.18492501255E+02  0.18492501255E+02  0.00000000000E+00 0. -1.
         25    2    1    2    0    0  0.36526808824E+02  0.12252416652E+03  0.13489385932E+04  0.13607388008E+04  0.12501350629E+03 0.  0.
          2    1    1    2  501    0 -0.20129042635E+02 -0.47366688117E+02  0.45524062585E+02  0.68711147384E+02  0.00000000000E+00 0. -1.
          1    1    1    2  502    0 -0.16397766189E+02 -0.75157478408E+02  0.14800802562E+04  0.14820779663E+04  0.00000000000E+00 0. -1.
         22    1    3    3    0    0  0.37873564932E+02  0.12032609005E+03  0.13513404305E+04  0.13572154339E+04  0.00000000000E+00 0. -1.
         22    1    3    3    0    0 -0.13467561083E+01  0.21980764751E+01 -0.24018373107E+01  0.35233669512E+01  0.00000000000E+00 0. -1.
</event>
<event>
 7    1  0.6173324E-006  0.6999067E+02  0.7818608E-02  0.1425533E+00
          2   -1    0    0  502    0  0.00000000000E+00  0.00000000000E+00  0.55138030961E+03  0.55138030961E+03  0.00000000000E+00 0. -1.
          1   -1    0    0  501    0 -0.00000000000E+00 -0.00000000000E+00 -0.17465105939E+04  0.17465105939E+04  0.00000000000E+00 0. -1.
         25    2    1    2    0    0  0.65705994394E+02 -0.67949231137E+02  0.38047273748E+03  0.41148472937E+03  0.12500321124E+03 0.  0.
          2    1    1    2  501    0 -0.64746977482E+02  0.26502346042E+02 -0.17275188762E+04  0.17289349360E+04  0.00000000000E+00 0. -1.
          1    1    1    2  502    0 -0.95901691119E+00  0.41446885094E+02  0.15191585444E+03  0.15747123810E+03  0.00000000000E+00 0. -1.
         22    1    3    3    0    0  0.34354707048E+02 -0.57198898950E+01  0.12546993670E+02  0.37018780192E+02  0.00000000000E+00 0. -1.
         22    1    3    3    0    0  0.31351287345E+02 -0.62229341242E+02  0.36792574381E+03  0.37446594917E+03  0.00000000000E+00 0. -1.
</event>
<event>
 7    1  0.6173324E-006  0.8679015E+02  0.7818608E-02  0.1428237E+00
          2   -1    0    0  502    0  0.00000000000E+00  0.00000000000E+00  0.22625330289E+04  0.22625330289E+04  0.00000000000E+00 0. -1.
          1   -1    0    0  501    0 -0.00000000000E+00 -0.00000000000E+00 -0.67823485173E+03  0.67823485173E+03  0.00000000000E+00 0. -1.
         25    2    1    2    0    0  0.61809192778E+02 -0.14633019380E+02  0.35205969182E+03  0.37895245260E+03  0.12499773262E+03 0.  0.
          2    1    1    2  501    0 -0.86743667106E+02 -0.66029785399E+01 -0.66180024549E+03  0.66749354157E+03  0.00000000000E+00 0. -1.
          1    1    1    2  502    0  0.24934474328E+02  0.21235997920E+02  0.18940387309E+04  0.18943218865E+04  0.00000000000E+00 0. -1.
         22    1    3    3    0    0  0.13977251583E+02 -0.56905515746E+02  0.26256720634E+03  0.26902627963E+03  0.00000000000E+00 0.  1.
         22    1    3    3    0    0  0.47831941195E+02  0.42272496366E+02  0.89492485479E+02  0.10992617297E+03  0.00000000000E+00 0.  1.
</event>
<event>
 7    1  0.6173324E-006  0.1436694E+03  0.7818608E-02  0.1400006E+00
          2   -1    0    0  502    0  0.00000000000E+00  0.00000000000E+00  0.17782313673E+03  0.17782313673E+03  0.00000000000E+00 0. -1.
          1   -1    0    0  501    0 -0.00000000000E+00 -0.00000000000E+00 -0.18833687197E+04  0.18833687197E+04  0.00000000000E+00 0. -1.
         25    2    1    2    0    0 -0.15030541756E+03 -0.10238801308E+01  0.31377636669E+02  0.19799551298E+03  0.12499960080E+03 0.  0.
          2    1    1    2  501    0  0.14152470033E+03  0.24034687888E+02 -0.17946776543E+04  0.18004096173E+04  0.00000000000E+00 0. -1.
          1    1    1    2  502    0  0.87807172274E+01 -0.23010807757E+02  0.57754434638E+02  0.62786726217E+02  0.00000000000E+00 0. -1.
         22    1    3    3    0    0 -0.15364794183E+03  0.14904026031E+02  0.59552524607E+02  0.16545791975E+03  0.00000000000E+00 0.  1.
         22    1    3    3    0    0  0.33425242707E+01 -0.15927906162E+02 -0.28174887938E+02  0.32537593235E+02  0.00000000000E+00 0.  1.
</event>
<event>
 7    1  0.6173324E-006  0.8205470E+02  0.7818608E-02  0.1353239E+00
          2   -1    0    0  502    0  0.00000000000E+00  0.00000000000E+00  0.41360336429E+03  0.41360336429E+03  0.00000000000E+00 0. -1.
          1   -1    0    0  501    0 -0.00000000000E+00 -0.00000000000E+00 -0.46742926002E+03  0.46742926002E+03  0.00000000000E+00 0. -1.
         25    2    1    2    0    0  0.22929634254E+02  0.10012405492E+03 -0.42356332838E+02  0.16724292880E+03  0.12500217518E+03 0.  0.
          2    1    1    2  501    0  0.34815984067E+02 -0.74255512110E+02 -0.35506658925E+03  0.36441503348E+03  0.00000000000E+00 0. -1.
          1    1    1    2  502    0 -0.57745618322E+02 -0.25868542812E+02  0.34359702637E+03  0.34937466203E+03  0.00000000000E+00 0. -1.
         22    1    3    3    0    0  0.95595253879E+01  0.39703375386E+02 -0.83486038802E+02  0.92939018811E+02  0.00000000000E+00 0. -1.
         22    1    3    3    0    0  0.13370108866E+02  0.60420679536E+02  0.41129705964E+02  0.74303909987E+02  0.00000000000E+00 0. -1.
</event>
<event>
 7    1  0.6173324E-006  0.1202911E+03  0.7818608E-02  0.1385446E+00
          2   -1    0    0  502    0  0.00000000000E+00  0.00000000000E+00  0.53163113552E+03  0.53163113552E+03  0.00000000000E+00 0. -1.
          1   -1    0    0  501    0 -0.00000000000E+00 -0.00000000000E+00 -0.86360193125E+03  0.86360193125E+03  0.00000000000E+00 0. -1.
         25    2    1    2    0    0 -0.14427363251E+03  0.11657016240E+02 -0.28311073216E+03  0.34165435291E+03  0.12500097252E+03 0.  0.
          2    1    1    2  501    0  0.28083219073E+02  0.17427447872E+02 -0.54357093009E+03  0.54457482422E+03  0.00000000000E+00 0. -1.
          1    1    1    2  502    0  0.11619041344E+03 -0.29084464112E+02  0.49471086651E+03  0.50900388965E+03  0.00000000000E+00 0. -1.
         22    1    3    3    0    0 -0.64117569024E+02  0.41381031320E+02 -0.22677788957E+03  0.23927319868E+03  0.00000000000E+00 0. -1.
         22    1    3    3    0    0 -0.80156063488E+02 -0.29724015080E+02 -0.56332842591E+02  0.10238115423E+03  0.00000000000E+00 0. -1.
</event>
<event>
 7    1  0.6173324E-006  0.1109396E+03  0.7818608E-02  0.1402881E+00
          2   -1    0    0  502    0  0.00000000000E+00  0.00000000000E+00  0.11508793848E+04  0.11508793848E+04  0.00000000000E+00 0. -1.
          1   -1    0    0  501    0 -0.00000000000E+00 -0.00000000000E+00 -0.53634500868E+03  0.53634500868E+03  0.00000000000E+00 0. -1.
         25    2    1    2    0    0 -0.72282523922E+02 -0.95308314598E+02  0.59136911043E+02  0.18284433723E+03  0.12500575712E+03 0.  0.
          2    1    1    2  501    0  0.41927979587E+02  0.10243100302E+03 -0.46779627983E+03  0.48071137419E+03  0.00000000000E+00 0. -1.
          1    1    1    2  502    0  0.30354544335E+02 -0.71226884212E+01  0.10231937449E+04  0.10236686821E+04  0.00000000000E+00 0. -1.
         22    1    3    3    0    0 -0.41398593519E+02  0.14831522148E+02 -0.15080153994E+02  0.46489016327E+02  0.00000000000E+00 0. -1.
         22    1    3    3    0    0 -0.30883930403E+02 -0.11013983675E+03  0.74217065036E+02  0.13635532090E+03  0.00000000000E+00 0. -1.
</event>
<event>
 7    1  0.6173324E-006  0.6514543E+02  0.7818608E-02  0.1384681E+00
          2   -1    0    0  502    0  0.00000000000E+00  0.00000000000E+00  0.64172040671E+03  0.64172040671E+03  0.00000000000E+00 0. -1.
          1   -1    0    0  501    0 -0.00000000000E+00 -0.00000000000E+00 -0.98287997083E+02  0.98287997083E+02  0.00000000000E+00 0. -1.
         25    2    1    2    0    0  0.84314065335E+01  0.74106771029E+00  0.14664662530E+03  0.19288164798E+03  0.12500583834E+03 0.  0.
          2    1    1    2  501    0 -0.22279937892E+02  0.62915389974E+02 -0.57559206245E+02  0.88135147085E+02  0.00000000000E+00 0. -1.
          1    1    1    2  502    0  0.13848531359E+02 -0.63656457684E+02  0.45434499057E+03  0.45899160873E+03  0.00000000000E+00 0. -1.
         22    1    3    3    0    0 -0.20423222740E+02 -0.36985495668E+02  0.13836140594E+03  0.14466828806E+03  0.00000000000E+00 0. -1.
         22    1    3    3    0    0  0.28854629274E+02  0.37726563379E+02  0.82852193618E+01  0.48213359920E+02  0.00000000000E+00 0. -1.
</event>
<event>
 7    1  0.6173324E-006  0.5475395E+02  0.7818608E-02  0.1558319E+00
          2   -1    0    0  502    0  0.00000000000E+00  0.00000000000E+00  0.73598550292E+03  0.73598550292E+03  0.00000000000E+00 0. -1.
          1   -1    0    0  501    0 -0.00000000000E+00 -0.00000000000E+00 -0.20241558193E+04  0.20241558193E+04  0.00000000000E+00 0. -1.
         25    2    1    2    0    0 -0.51623238795E+02  0.50634933593E+02  0.37736281787E+02  0.14926060004E+03  0.12500337786E+03 0.  0.
          2    1    1    2  501    0  0.45346036176E+02 -0.30568898016E+02 -0.19678416755E+04  0.19686014275E+04  0.00000000000E+00 0. -1.
          1    1    1    2  502    0  0.62772026182E+01 -0.20066035577E+02  0.64193507726E+03  0.64227929475E+03  0.00000000000E+00 0. -1.
         22    1    3    3    0    0 -0.61199419219E+02  0.24312497778E+02 -0.32652978093E+02  0.73502948507E+02  0.00000000000E+00 0.  1.
         22    1    3    3    0    0  0.95761804246E+01  0.26322435815E+02  0.70389259880E+02  0.75757651529E+02  0.00000000000E+00 0.  1.
</event>
<event>
 7    1  0.6173324E-006  0.7096964E+02  0.7818608E-02  0.1385152E+00
          2   -1    0    0  502    0  0.00000000000E+00  0.00000000000E+00  0.71646864228E+02  0.71646864228E+02  0.00000000000E+00 0. -1.
          1   -1    0    0  501    0 -0.00000000000E+00 -0.00000000000E+00 -0.28135757338E+03  0.28135757338E+03  0.00000000000E+00 0. -1.
         25    2    1    2    0    0 -0.41092000595E+02 -0.30644950172E+02 -0.11547358277E+03  0.17772532566E+03  0.12499791030E+03 0.  0.
          2    1    1    2  501    0  0.31644485380E+02  0.85998583913E+02 -0.58133159265E+02  0.10852001703E+03  0.00000000000E+00 0. -1.
          1    1    1    2  502    0  0.94475152151E+01 -0.55353633741E+02 -0.36103967117E+02  0.66759094914E+02  0.00000000000E+00 0. -1.
         22    1    3    3    0    0 -0.65047654163E+02  0.28594326017E+02 -0.64911640975E+02  0.96241123884E+02  0.00000000000E+00 0. -1.
         22    1    3    3    0    0  0.23955653568E+02 -0.59239276189E+02 -0.50561941791E+02  0.81484201776E+02  0.00000000000E+00 0. -1.
</event>
<event>
 7    1  0.6173324E-006  0.7738857E+02  0.7818608E-02  0.1433240E+00
          2   -1    0    0  502    0  0.00000000000E+00  0.00000000000E+00  0.84698967665E+02  0.84698967665E+02  0.00000000000E+00 0. -1.
          1   -1    0    0  501    0 -0.00000000000E+00 -0.00000000000E+00 -0.75265993892E+03  0.75265993892E+03  0.00000000000E+00 0. -1.
         25    2    1    2    0    0 -0.36444157982E+02  0.25444428847E+02 -0.50773786031E+03  0.52478524258E+03  0.12500488159E+03 0.  0.
          2    1    1    2  501    0 -0.34011676368E+02  0.96907113041E+01 -0.21421094078E+03  0.21711064268E+03  0.00000000000E+00 0. -1.
          1    1    1    2  502    0  0.70455834350E+02 -0.35135140151E+02  0.53987829849E+02  0.95463021318E+02  0.00000000000E+00 0. -1.
         22    1    3    3    0    0  0.28056101547E+02  0.82174192870E+01 -0.28188683779E+02  0.40611238678E+02  0.00000000000E+00 0.  1.
         22    1    3    3    0    0 -0.64500259529E+02  0.17227009560E+02 -0.47954917654E+03  0.48417400390E+03  0.00000000000E+00 0.  1.
</event>
<event>
 7    1  0.6173324E-006  0.7555510E+02  0.7818608E-02  0.1432339E+00
          2   -1    0    0  502    0  0.00000000000E+00  0.00000000000E+00  0.12950662309E+04  0.12950662309E+04  0.00000000000E+00 0. -1.
          1   -1    0    0  501    0 -0.00000000000E+00 -0.00000000000E+00 -0.45348958320E+03  0.45348958320E+03  0.00000000000E+00 0. -1.
         25    2    1    2    0    0  0.42497099720E+02 -0.54579285545E+01 -0.10401716067E+02  0.13254973013E+03  0.12500177115E+03 0.  0.
          2    1    1    2  501    0 -0.77590939706E+02 -0.44686436060E+01 -0.37778777293E+03  0.38569926637E+03  0.00000000000E+00 0. -1.
          1    1    1    2  502    0  0.35093839986E+02  0.99265721605E+01  0.12297661367E+04  0.12303068176E+04  0.00000000000E+00 0. -1.
         22    1    3    3    0    0  0.39515348547E+02 -0.37637949356E+02 -0.54995669227E+02  0.77476458594E+02  0.00000000000E+00 0.  1.
         22    1    3    3    0    0  0.29817511734E+01  0.32180020802E+02  0.44593953159E+02  0.55073271532E+02  0.00000000000E+00 0.  1.
</event>
<event>
 7    1  0.6173324E-006  0.1039770E+03  0.7818608E-02  0.1401604E+00
          2   -1    0    0  502    0  0.00000000000E+00  0.00000000000E+00  0.54665457418E+03  0.54665457418E+03  0.00000000000E+00 0. -1.
          1   -1    0    0  501    0 -0.00000000000E+00 -0.00000000000E+00 -0.75768771010E+03  0.75768771010E+03  0.00000000000E+00 0. -1.
         25    2    1    2    0    0  0.33418174714E+01 -0.78361294308E+02 -0.26726512938E+02  0.14997017585E+03  0.12500034785E+03 0.  0.
          2    1    1    2  501    0  0.23619800053E+02 -0.23902242063E+02 -0.66314392278E+03  0.66399478496E+03  0.00000000000E+00 0. -1.
          1    1    1    2  502    0 -0.26961617524E+02  0.10226353637E+03  0.47883729980E+03  0.49037732346E+03  0.00000000000E+00 0. -1.
         22    1    3    3    0    0 -0.52444536643E+02 -0.74884533362E+02 -0.12322661368E+02  0.92249502675E+02  0.00000000000E+00 0.  1.
         22    1    3    3    0    0  0.55786354115E+02 -0.34767609461E+01 -0.14403851570E+02  0.57720673178E+02  0.00000000000E+00 0.  1.
</event>
<event>
 7    1  0.6173324E-006  0.9023471E+02  0.7818608E-02  0.1480022E+00
          2   -1    0    0  502    0  0.00000000000E+00  0.00000000000E+00  0.96540642085E+03  0.96540642085E+03  0.00000000000E+00 0. -1.
          1   -1    0    0  501    0 -0.00000000000E+00 -0.00000000000E+00 -0.18747339836E+03  0.18747339836E+03  0.00000000000E+00 0. -1.
         25    2    1    2    0    0  0.10891100911E+03  0.20419870079E+02  0.57055193887E+02  0.17652113884E+03  0.12500335319E+03 0.  0.
          2    1    1    2  501    0 -0.20603001498E+02 -0.63365794444E+01 -0.12445562771E+03  0.12630850794E+03  0.00000000000E+00 0. -1.
          1    1    1    2  502    0 -0.88308007609E+02 -0.14083290635E+02  0.84533345631E+03  0.85005017243E+03  0.00000000000E+00 0. -1.
         22    1    3    3    0    0 -0.15732933344E+01  0.38493905460E+02  0.51652631770E+02  0.64437957589E+02  0.00000000000E+00 0. -1.
         22    1    3    3    0    0  0.11048430244E+03 -0.18074035381E+02  0.54025621175E+01  0.11208318125E+03  0.00000000000E+00 0. -1.
</event>
<event>
 7    1  0.6173324E-006  0.1522992E+03  0.7818608E-02  0.1367702E+00
          2   -1    0    0  502    0  0.00000000000E+00  0.00000000000E+00  0.52250259797E+03  0.52250259797E+03  0.00000000000E+00 0. -1.
          1   -1    0    0  501    0 -0.00000000000E+00 -0.00000000000E+00 -0.17808260984E+04  0.17808260984E+04  0.00000000000E+00 0. -1.
         25    2    1    2    0    0  0.47281767980E+02  0.17038502479E+03  0.10356885311E+03  0.24004013446E+03  0.12500454617E+03 0.  0.
          2    1    1    2  501    0 -0.10685397042E+02 -0.28237855432E+02 -0.16970915724E+04  0.16973601148E+04  0.00000000000E+00 0. -1.
          1    1    1    2  502    0 -0.36596370939E+02 -0.14214716935E+03  0.33519921883E+03  0.36592844714E+03  0.00000000000E+00 0. -1.
         22    1    3    3    0    0 -0.15953117608E+02  0.12904174646E+03  0.10065804915E+03  0.16443332129E+03  0.00000000000E+00 0. -1.
         22    1    3    3    0    0  0.63234885589E+02  0.41343278324E+02  0.29108039596E+01  0.75606813170E+02  0.00000000000E+00 0. -1.
</event>
<event>
 7    1  0.6173324E-006  0.7109619E+02  0.7818608E-02  0.1372739E+00
          2   -1    0    0  502    0  0.00000000000E+00  0.00000000000E+00  0.22185819730E+03  0.22185819730E+03  0.00000000000E+00 0. -1.
          1   -1    0    0  501    0 -0.00000000000E+00 -0.00000000000E+00 -0.14806302802E+04  0.14806302802E+04  0.00000000000E+00 0. -1.
         25    2    1    2    0    0 -0.98756897689E+02  0.51616601538E+02 -0.27348439428E+03  0.32068176698E+03  0.12500353341E+03 0.  0.
          2    1    1    2  501    0  0.37191659303E+02 -0.59243367620E+02 -0.11776310519E+04  0.11797066968E+04  0.00000000000E+00 0. -1.
          1    1    1    2  502    0  0.61565238386E+02  0.76267660821E+01  0.19234336328E+03  0.20210001370E+03  0.00000000000E+00 0. -1.
         22    1    3    3    0    0 -0.61808860611E+02  0.92196283424E+02 -0.20285192850E+03  0.23123450180E+03  0.00000000000E+00 0.  1.
         22    1    3    3    0    0 -0.36948037078E+02 -0.40579681886E+02 -0.70632465779E+02  0.89447265179E+02  0.00000000000E+00 0.  1.
</event>
<event>
 7    1  0.6173324E-006  0.8287799E+02  0.7818608E-02  0.1375470E+00
          2   -1    0    0  502    0  0.00000000000E+00  0.00000000000E+00  0.58547118491E+03  0.58547118491E+03  0.00000000000E+00 0. -1.
          1   -1    0    0  501    0 -0.00000000000E+00 -0.00000000000E+00 -0.21693780082E+04  0.21693780082E+04  0.00000000000E+00 0. -1.
         25    2    1    2    0    0  0.11808013325E+03  0.56917294879E+02  0.35701587406E+02  0.18461259753E+03  0.12499884600E+03 0.  0.
          2    1    1    2  501    0 -0.66715483681E+02 -0.48595135836E+02 -0.20926824334E+04  0.20943094829E+04  0.00000000000E+00 0. -1.
          1    1    1    2  502    0 -0.51364649564E+02 -0.83221590429E+01  0.47307402276E+03  0.47592711266E+03  0.00000000000E+00 0. -1.
         22    1    3    3    0    0  0.15383667798E+01  0.97245663957E+01  0.56341614873E+02  0.57195378576E+02  0.00000000000E+00 0.  1.
         22    1    3    3    0    0  0.11654176647E+03  0.47192728484E+02 -0.20640027467E+02  0.12741721896E+03  0.00000000000E+00 0.  1.
</event>
<event>
 7    1  0.6173324E-006  0.1365973E+03  0.7818608E-02  0.1251765E+00
          2   -1    0    0  502    0  0.00000000000E+00  0.00000000000E+00  0.68602592520E+03  0.68602592520E+03  0.00000000000E+00 0. -1.
          1   -1    0    0  501    0 -0.00000000000E+00 -0.00000000000E+00 -0.99435386227E+03  0.99435386227E+03  0.00000000000E+00 0. -1.
         25    2    1    2    0    0  0.53448325590E+02 -0.67648900509E+02  0.11340614788E+01  0.15185980663E+03  0.12500806984E+03 0.  0.
          2    1    1    2  501    0 -0.58633327377E+02 -0.76820716288E+02 -0.90781859516E+03  0.91294791267E+03  0.00000000000E+00 0. -1.
          1    1    1    2  502    0  0.51850017868E+01  0.14446961680E+03  0.59835659660E+03  0.61557206818E+03  0.00000000000E+00 0. -1.
         22    1    3    3    0    0  0.23027984130E+02  0.34264219241E+02  0.16383819496E+02  0.44415698965E+02  0.00000000000E+00 0. -1.
         22    1    3    3    0    0  0.30420341460E+02 -0.10191311975E+03 -0.15249758017E+02  0.10744410766E+03  0.00000000000E+00 0. -1.
</event>
<event>
 7    1  0.6173324E-006  0.7254108E+02  0.7818608E-02  0.1359556E+00
          2   -1    0    0  502    0  0.00000000000E+00  0.00000000000E+00  0.20141714780E+04  0.20141714780E+04  0.00000000000E+00 0. -1.
          1   -1    0    0  501    0 -0.00000000000E+00 -0.00000000000E+00 -0.86829224097E+02  0.86829224097E+02  0.00000000000E+00 0. -1.
         25    2    1    2    0    0  0.10816243064E+03 -0.42139084857E+02  0.23710618203E+03  0.29209482928E+03  0.12500093544E+03 0.  0.
          2    1    1    2  501    0 -0.69066724564E+02 -0.13319453313E+02 -0.37586205929E+02  0.79751759571E+02  0.00000000000E+00 0. -1.
          1    1    1    2  502    0 -0.39095706078E+02  0.55458538170E+02  0.17278222778E+04  0.17291541132E+04  0.00000000000E+00 0. -1.
         22    1    3    3    0    0  0.75098898163E+02 -0.79482581349E+02  0.10801384868E+03  0.15370203886E+03  0.00000000000E+00 0. -1.
         22    1    3    3    0    0  0.33063532479E+02  0.37343496492E+02  0.12909233335E+03  0.13839279042E+03  0.00000000000E+00 0. -1.
</event>
<event>
 7    1  0.6173324E-006  0.7953663E+02  0.7818608E-02  0.1473933E+00
          2   -1    0    0  502    0  0.00000000000E+00  0.00000000000E+00  0.86154413375E+03  0.86154413375E+03  0.00000000000E+00 0. -1.
          1   -1    0    0  501    0 -0.00000000000E+00 -0.00000000000E+00 -0.23494935612E+03  0.23494935612E+03  0.00000000000E+00 0. -1.
         25    2    1    2    0    0 -0.71028045444E+02 -0.34964827369E+02  0.14769736698E+03  0.20906528626E+03  0.12500503714E+03 0.  0.
          2    1    1    2  501    0 -0.80991857879E+01  0.24215646956E+02 -0.20112192104E+03  0.20273633490E+03  0.00000000000E+00 0. -1.
          1    1    1    2  502    0  0.79127231231E+02  0.10749180414E+02  0.68001933169E+03  0.68469186870E+03  0.00000000000E+00 0. -1.
         22    1    3    3    0    0 -0.25463046223E+02 -0.39338764069E+02  0.15569794750E+03  0.16259691244E+03  0.00000000000E+00 0.  1.
         22    1    3    3    0    0 -0.45564999221E+02  0.43739366995E+01 -0.80005805144E+01  0.46468373813E+02  0.00000000000E+00 0.  1.
</event>
<event>
 7    1  0.6173324E-006  0.2041549E+03  0.7818608E-02  0.1196587E+00
          2   -1    0    0  502    0  0.00000000000E+00  0.00000000000E+00  0.44760386647E+03  0.44760386647E+03  0.00000000000E+00 0. -1.
          1   -1    0    0  501    0 -0.00000000000E+00 -0.00000000000E+00 -0.17813012421E+04  0.17813012421E+04  0.00000000000E+00 0. -1.
         25    2    1    2    0    0 -0.10106755211E+03  0.98035592185E+01 -0.49009054155E+03  0.51587199694E+03  0.12499767377E+03 0.  0.
          2    1    1    2  501    0 -0.94404216738E+02  0.65625430861E+02 -0.12502824383E+04  0.12555576565E+04  0.00000000000E+00 0. -1.
          1    1    1    2  502    0  0.19547176885E+03 -0.75428990080E+02  0.40667560423E+03  0.45747545512E+03  0.00000000000E+00 0. -1.
         22    1    3    3    0    0 -0.50926689405E+02  0.58233777711E+02 -0.36064669202E+03  0.36885056192E+03  0.00000000000E+00 0. -1.
         22    1    3    3    0    0 -0.50140862702E+02 -0.48430218493E+02 -0.12944384953E+03  0.14702143503E+03  0.00000000000E+00 0. -1.
</event>
<event>
 7    1  0.6173324E-006  0.1208352E+03  0.7818608E-02  0.1284097E+00
          2   -1    0    0  502    0  0.00000000000E+00  0.00000000000E+00  0.82935295419E+03  0.82935295419E+03  0.00000000000E+00 0. -1.
          1   -1    0    0  501    0 -0.00000000000E+00 -0.00000000000E+00 -0.41202710304E+03  0.41202710304E+03  0.00000000000E+00 0. -1.
         25    2    1    2    0    0 -0.75357955224E+02 -0.71821793760E+02 -0.16300175440E+02  0.16348647224E+03  0.12499975765E+03 0.  0.
          2    1    1    2  501    0  0.12675417963E+03  0.10740702179E+02 -0.30734737529E+03  0.33263252071E+03  0.00000000000E+00 0. -1.
          1    1    1    2  502    0 -0.51396224408E+02  0.61081091581E+02  0.74097340187E+03  0.74526106427E+03  0.00000000000E+00 0. -1.
         22    1    3    3    0    0 -0.32458755362E+02 -0.72654465069E+02  0.42876237813E+02  0.90391447954E+02  0.00000000000E+00 0. -1.
         22    1    3    3    0    0 -0.42899199862E+02  0.83267130963E+00 -0.59176413253E+02  0.73095024289E+02  0.00000000000E+00 0. -1.
</event>
<event>
 7    1  0.6173324E-006  0.8432496E+02  0.7818608E-02  0.1361458E+00
          2   -1    0    0  502    0  0.00000000000E+00  0.00000000000E+00  0.16061507402E+04  0.16061507402E+04  0.00000000000E+00 0. -1.
          1   -1    0    0  501    0 -0.00000000000E+00 -0.00000000000E+00 -0.10296081718E+03  0.10296081718E+03  0.00000000000E+00 0. -1.
         25    2    1    2    0    0  0.10901580221E+03 -0.82832539405E+02  0.69850313148E+03  0.72268699255E+03  0.12499675916E+03 0.  0.
          2    1    1    2  501    0 -0.55668087444E+02  0.61522043466E+02 -0.70790172515E+02  0.10906487206E+03  0.00000000000E+00 0. -1.
          1    1    1    2  502    0 -0.53347714763E+02  0.21310495939E+02  0.87547696407E+03  0.87735969279E+03  0.00000000000E+00 0. -1.
         22    1    3    3    0    0  0.83880322030E+02 -0.11364364265E+03  0.47056786773E+03  0.49130937715E+03  0.00000000000E+00 0. -1.
         22    1    3    3    0    0  0.25135480177E+02  0.30811103242E+02  0.22793526375E+03  0.23137761540E+03  0.00000000000E+00 0. -1.
</event>
<event>
 7    1  0.6173324E-006  0.4670284E+02  0.7818608E-02  0.1531973E+00
          2   -1    0    0  502    0  0.00000000000E+00  0.00000000000E+00  0.92553406317E+02  0.92553406317E+02  0.00000000000E+00 0. -1.
          1   -1    0    0  501    0 -0.00000000000E+00 -0.00000000000E+00 -0.14281898523E+04  0.14281898523E+04  0.00000000000E+00 0. -1.
         25    2    1    2    0    0  0.34290975132E+01  0.28950274829E+02 -0.12872283509E+03  0.18177343080E+03  0.12498853847E+03 0.  0.
          2    1    1    2  501    0 -0.25975833516E+02  0.13396262245E+02 -0.12640360349E+04  0.12643738772E+04  0.00000000000E+00 0. -1.
          1    1    1    2  502    0  0.22546736002E+02 -0.42346537074E+02  0.57122424085E+02  0.74595950559E+02  0.00000000000E+00 0. -1.
         22    1    3    3    0    0  0.24048662982E+02 -0.32228495700E+02 -0.28539739281E+01  0.40313264486E+02  0.00000000000E+00 0.  1.
         22    1    3    3    0    0 -0.20619565469E+02  0.61178770529E+02 -0.12586886116E+03  0.14146016632E+03  0.00000000000E+00 0.  1.
</event>
<event>
 7    1  0.6173324E-006  0.7829255E+02  0.7818608E-02  0.1402078E+00
          2   -1    0    0  502    0  0.00000000000E+00  0.00000000000E+00  0.14691622343E+04  0.14691622343E+04  0.00000000000E+00 0. -1.
          1   -1    0    0  501    0 -0.00000000000E+00 -0.00000000000E+00 -0.11490205020E+03  0.11490205020E+03  0.00000000000E+00 0. -1.
         25    2    1    2    0    0  0.45319770851E+02  0.30949090317E+01  0.42388402303E+02  0.13960873118E+03  0.12502144248E+03 0.  0.
          2    1    1    2  501    0 -0.87829924631E+02 -0.16121188477E+02 -0.35686498934E+02  0.96163998382E+02  0.00000000000E+00 0. -1.
          1    1    1    2  502    0  0.42510153781E+02  0.13026279446E+02  0.13475582807E+04  0.13482915549E+04  0.00000000000E+00 0. -1.
         22    1    3    3    0    0  0.66090337981E+02 -0.27795879959E+02 -0.13007262254E+02  0.72867911926E+02  0.00000000000E+00 0.  1.
         22    1    3    3    0    0 -0.20770567130E+02  0.30890788991E+02  0.55395664557E+02  0.66740819257E+02  0.00000000000E+00 0.  1.
</event>
<event>
 7    1  0.6173324E-006  0.3151549E+02  0.7818608E-02  0.1607900E+00
          2   -1    0    0  502    0  0.00000000000E+00  0.00000000000E+00  0.47576426563E+03  0.47576426563E+03  0.00000000000E+00 0. -1.
          1   -1    0    0  501    0 -0.00000000000E+00 -0.00000000000E+00 -0.89772787276E+03  0.89772787276E+03  0.00000000000E+00 0. -1.
         25    2    1    2    0    0  0.29763018741E+02 -0.65175121517E+01  0.29571038042E+03  0.32248664019E+03  0.12499875504E+03 0.  0.
          2    1    1    2  501    0 -0.13917900917E+02  0.28288454674E+02 -0.88296900395E+03  0.88353166699E+03  0.00000000000E+00 0. -1.
          1    1    1    2  502    0 -0.15845117824E+02 -0.21770942522E+02  0.16529501640E+03  0.16747383122E+03  0.00000000000E+00 0. -1.
         22    1    3    3    0    0  0.16420930068E+02 -0.65793922659E+02  0.15003711548E+03  0.16465000220E+03  0.00000000000E+00 0.  1.
         22    1    3    3    0    0  0.13342088673E+02  0.59276410507E+02  0.14567326494E+03  0.15783663799E+03  0.00000000000E+00 0.  1.
</event>
<event>
 7    1  0.6173324E-006  0.7093383E+02  0.7818608E-02  0.1359024E+00
          2   -1    0    0  502    0  0.00000000000E+00  0.00000000000E+00  0.99283546423E+03  0.99283546423E+03  0.00000000000E+00 0. -1.
          1   -1    0    0  501    0 -0.00000000000E+00 -0.00000000000E+00 -0.50227689472E+03  0.50227689472E+03  0.00000000000E+00 0. -1.
         25    2    1    2    0    0 -0.76392358296E+02 -0.31187340034E+02  0.12158185918E+02  0.15026536132E+03  0.12499365881E+03 0.  0.
          2    1    1    2  501    0  0.15267304347E+02  0.68009721519E+02 -0.42900979468E+03  0.43463526862E+03  0.00000000000E+00 0. -1.
          1    1    1    2  502    0  0.61125053948E+02 -0.36822381485E+02  0.90741017826E+03  0.91021172900E+03  0.00000000000E+00 0. -1.
         22    1    3    3    0    0 -0.21333069147E+02  0.48317935102E+02  0.84155400489E+01  0.53484053755E+02  0.00000000000E+00 0. -1.
         22    1    3    3    0    0 -0.55059289149E+02 -0.79505275136E+02  0.37426458692E+01  0.96781307566E+02  0.00000000000E+00 0. -1.
</event>
<event>
 7    1  0.6173324E-006  0.1973610E+03  0.7818608E-02  0.1242253E+00
          2   -1    0    0  502    0  0.00000000000E+00  0.00000000000E+00  0.92753913486E+03  0.92753913486E+03  0.00000000000E+00 0. -1.
          1   -1    0    0  501    0 -0.00000000000E+00 -0.00000000000E+00 -0.37817687960E+04  0.37817687960E+04  0.00000000000E+00 0. -1.
         25    2    1    2    0    0  0.15101854656E+02  0.26100998612E+03 -0.35303215412E+03  0.45674263059E+03  0.12501139904E+03 0.  0.
          2    1    1    2  501    0  0.14199689453E+02 -0.19350714361E+03 -0.33725421020E+04  0.33781188368E+04  0.00000000000E+00 0. -1.
          1    1    1    2  502    0 -0.29301544109E+02 -0.67502842506E+02  0.87134459499E+03  0.87444646345E+03  0.00000000000E+00 0. -1.
         22    1    3    3    0    0 -0.15606416096E+02  0.55191735055E+02 -0.14162497966E+02  0.59078457921E+02  0.00000000000E+00 0. -1.
         22    1    3    3    0    0  0.30708270752E+02  0.20581825107E+03 -0.33886965616E+03  0.39766417267E+03  0.00000000000E+00 0. -1.
</event>
<event>
 7    1  0.6173324E-006  0.1515967E+03  0.7818608E-02  0.1285719E+00
          2   -1    0    0  502    0  0.00000000000E+00  0.00000000000E+00  0.24961244004E+03  0.24961244004E+03  0.00000000000E+00 0. -1.
          1   -1    0    0  501    0 -0.00000000000E+00 -0.00000000000E+00 -0.95988268704E+03  0.95988268704E+03  0.00000000000E+00 0. -1.
         25    2    1    2    0    0 -0.47411563112E+02 -0.15957886084E+03  0.74954654960E+01  0.20831416323E+03  0.12500135782E+03 0.  0.
          2    1    1    2  501    0  0.61658202934E+02  0.11172427557E+02 -0.81872843664E+03  0.82112289585E+03  0.00000000000E+00 0. -1.
          1    1    1    2  502    0 -0.14246639822E+02  0.14840643328E+03  0.10096272414E+03  0.18005806800E+03  0.00000000000E+00 0. -1.
         22    1    3    3    0    0 -0.59344783673E+02 -0.17655324162E+03  0.13398812260E+02  0.18674147543E+03  0.00000000000E+00 0.  1.
         22    1    3    3    0    0  0.11933220560E+02  0.16974380782E+02 -0.59033467636E+01  0.21572687799E+02  0.00000000000E+00 0.  1.
</event>
<event>
 7    1  0.6173324E-006  0.1664662E+03  0.7818608E-02  0.1201766E+00
          2   -1    0    0  502    0  0.00000000000E+00  0.00000000000E+00  0.87281366396E+03  0.87281366396E+03  0.00000000000E+00 0. -1.
          1   -1    0    0  501    0 -0.00000000000E+00 -0.00000000000E+00 -0.12608967802E+04  0.12608967802E+04  0.00000000000E+00 0. -1.
         25    2    1    2    0    0 -0.10714900948E+03  0.16154117587E+03  0.35549692798E+03  0.42376795090E+03  0.12499899467E+03 0.  0.
          2    1    1    2  501    0  0.13313892457E+03  0.61573000616E+01 -0.12080821149E+04  0.12154119804E+04  0.00000000000E+00 0. -1.
          1    1    1    2  502    0 -0.25989915094E+02 -0.16769847594E+03  0.46450207070E+03  0.49453051291E+03  0.00000000000E+00 0. -1.
         22    1    3    3    0    0  0.27809942321E+02  0.23917328289E+02  0.74129796004E+02  0.82708271291E+02  0.00000000000E+00 0.  1.
         22    1    3    3    0    0 -0.13495895180E+03  0.13762384758E+03  0.28136713198E+03  0.34105967961E+03  0.00000000000E+00 0.  1.
</event>
<event>
 7    1  0.6173324E-006  0.1208813E+03  0.7818608E-02  0.1317228E+00
          2   -1    0    0  502    0  0.00000000000E+00  0.00000000000E+00  0.20335248651E+04  0.20335248651E+04  0.00000000000E+00 0. -1.
          1   -1    0    0  501    0 -0.00000000000E+00 -0.00000000000E+00 -0.46691052319E+03  0.46691052319E+03  0.00000000000E+00 0. -1.
         25    2    1    2    0    0 -0.30908482102E+02 -0.16901858983E+03 -0.37545298437E+02  0.21577197545E+03  0.12500111191E+03 0.  0.
          2    1    1    2  501    0  0.32748822575E+02  0.48851817080E+02 -0.33583694280E+03  0.34094785167E+03  0.00000000000E+00 0. -1.
          1    1    1    2  502    0 -0.18403404726E+01  0.12016677276E+03  0.19399965831E+04  0.19437155612E+04  0.00000000000E+00 0. -1.
         22    1    3    3    0    0  0.39357460512E+01 -0.16497608392E+03 -0.58294508726E+02  0.17501670809E+03  0.00000000000E+00 0. -1.
         22    1    3    3    0    0 -0.34844228154E+02 -0.40425059106E+01  0.20749210289E+02  0.40755267356E+02  0.00000000000E+00 0. -1.
</event>
<event>
 7    1  0.6173324E-006  0.1770495E+03  0.7818608E-02  0.1342894E+00
          2   -1    0    0  502    0  0.00000000000E+00  0.00000000000E+00  0.11353026080E+04  0.11353026080E+04  0.00000000000E+00 0. -1.
          1   -1    0    0  501    0 -0.00000000000E+00 -0.00000000000E+00 -0.91176006251E+03  0.91176006251E+03  0.00000000000E+00 0. -1.
         25    2    1    2    0    0 -0.19968503736E+03  0.14700119511E+01  0.47581325884E+03  0.53094219050E+03  0.12500030911E+03 0.  0.
          2    1    1    2  501    0  0.31804523751E+02 -0.38718691313E+01 -0.87274416732E+03  0.87333206783E+03  0.00000000000E+00 0. -1.
          1    1    1    2  502    0  0.16788051361E+03  0.24018571802E+01  0.62047345392E+03  0.64278841215E+03  0.00000000000E+00 0. -1.
         22    1    3    3    0    0 -0.19291516606E+03  0.39460786209E+02  0.40310891332E+03  0.44863148680E+03  0.00000000000E+00 0.  1.
         22    1    3    3    0    0 -0.67698712997E+01 -0.37990774257E+02  0.72704345518E+02  0.82310703699E+02  0.00000000000E+00 0.  1.
</event>
<event>
 7    1  0.6173324E-006  0.8156394E+02  0.7818608E-02  0.1476614E+00
          2   -1    0    0  502    0  0.00000000000E+00  0.00000000000E+00  0.33296597542E+02  0.33296597542E+02  0.00000000000E+00 0. -1.
          1   -1    0    0  501    0 -0.00000000000E+00 -0.00000000000E+00 -0.22001400996E+04  0.22001400996E+04  0.00000000000E+00 0. -1.
         25    2    1    2    0    0 -0.50825988079E+02  0.57912330260E+02 -0.18817056298E+03  0.23868029287E+03  0.12499200922E+03 0.  0.
          2    1    1    2  501    0 -0.22691735124E+02 -0.90489092760E+01 -0.17417693510E+04  0.17419406620E+04  0.00000000000E+00 0. -1.
          1    1    1    2  502    0  0.73517723203E+02 -0.48863420984E+02 -0.23690358802E+03  0.25281574230E+03  0.00000000000E+00 0. -1.
         22    1    3    3    0    0 -0.33024650447E+02 -0.37034451251E+02 -0.53793433784E+02  0.73184094139E+02  0.00000000000E+00 0. -1.
         22    1    3    3    0    0 -0.17801337632E+02  0.94946781511E+02 -0.13437712920E+03  0.16549619873E+03  0.00000000000E+00 0. -1.
</event>
<event>
 7    1  0.6173324E-006  0.4888524E+02  0.7818608E-02  0.1511798E+00
          2   -1    0    0  502    0  0.00000000000E+00  0.00000000000E+00  0.62711435630E+03  0.62711435630E+03  0.00000000000E+00 0. -1.
          1   -1    0    0  501    0 -0.00000000000E+00 -0.00000000000E+00 -0.19803943806E+03  0.19803943806E+03  0.00000000000E+00 0. -1.
         25    2    1    2    0    0 -0.77976833856E+01 -0.21085525583E+02  0.39395447065E+03  0.41390940197E+03  0.12496185352E+03 0.  0.
          2    1    1    2  501    0 -0.89212407107E+01  0.48304486219E+02 -0.18367468969E+03  0.19012970193E+03  0.00000000000E+00 0. -1.
          1    1    1    2  502    0  0.16718924096E+02 -0.27218960636E+02  0.21879513728E+03  0.22111469046E+03  0.00000000000E+00 0. -1.
         22    1    3    3    0    0 -0.18399974586E+02 -0.38409719170E+02  0.39108445907E+03  0.39339664427E+03  0.00000000000E+00 0. -1.
         22    1    3    3    0    0  0.10602291200E+02  0.17324193587E+02  0.28700115814E+01  0.20512757704E+02  0.00000000000E+00 0. -1.
</event>
<event>
 7    1  0.6173324E-006  0.5912915E+02  0.7818608E-02  0.1488210E+00
          2   -1    0    0  502    0  0.00000000000E+00  0.00000000000E+00  0.31852783024E+03  0.31852783024E+03  0.00000000000E+00 0. -1.
          1   -1    0    0  501    0 -0.00000000000E+00 -0.00000000000E+00 -0.11351500633E+04  0.11351500633E+04  0.00000000000E+00 0. -1.
         25    2    1    2    0    0 -0.14186264362E+02  0.59943060185E+02 -0.54438615423E+03  0.56193980835E+03  0.12500257091E+03 0.  0.
          2    1    1    2  501    0 -0.16774498478E+02 -0.57503774550E+02 -0.57966134541E+03  0.58274809588E+03  0.00000000000E+00 0. -1.
          1    1    1    2  502    0  0.30960762840E+02 -0.24392856350E+01  0.30742526659E+03  0.30898998930E+03  0.00000000000E+00 0. -1.
         22    1    3    3    0    0 -0.29086708863E+01  0.48108425175E+02 -0.58578776615E+02  0.75857458492E+02  0.00000000000E+00 0.  1.
         22    1    3    3    0    0 -0.11277593476E+02  0.11834635010E+02 -0.48580737762E+03  0.48608234986E+03  0.00000000000E+00 0.  1.
</event>
<event>
 7    1  0.6173324E-006  0.3498664E+02  0.7818608E-02  0.1618249E+00
          2   -1    0    0  502    0  0.00000000000E+00  0.00000000000E+00  0.66785312734E+03  0.66785312734E+03  0.00000000000E+00 0. -1.
          1   -1    0    0  501    0 -0.00000000000E+00 -0.00000000000E+00 -0.10889961290E+04  0.10889961290E+04  0.00000000000E+00 0. -1.
         25    2    1    2    0    0 -0.30414577322E+02 -0.21566594463E+02 -0.27779848327E+03  0.30689942081E+03  0.12500037069E+03 0.  0.
          2    1    1    2  501    0  0.19580658657E+02 -0.11708888871E+02 -0.79601499159E+03  0.79634186572E+03  0.00000000000E+00 0. -1.
          1    1    1    2  502    0  0.10833918665E+02  0.33275483335E+02  0.65267047321E+03  0.65360796980E+03  0.00000000000E+00 0. -1.
         22    1    3    3    0    0  0.34501556984E+02  0.11636009431E+01 -0.20041745934E+03  0.20336880147E+03  0.00000000000E+00 0. -1.
         22    1    3    3    0    0 -0.64916134306E+02 -0.22730195406E+02 -0.77381023934E+02  0.10353061934E+03  0.00000000000E+00 0. -1.
</event>
<event>
 7    1  0.6173324E-006  0.7725920E+02  0.7818608E-02  0.1460419E+00
          2   -1    0    0  502    0  0.00000000000E+00  0.00000000000E+00  0.43227541458E+03  0.43227541458E+03  0.00000000000E+00 0. -1.
          1   -1    0    0  501    0 -0.00000000000E+00 -0.00000000000E+00 -0.56542913037E+03  0.56542913037E+03  0.00000000000E+00 0. -1.
         25    2    1    2    0    0  0.24723513830E+02 -0.76898841629E+02  0.95389447107E+01  0.14909693119E+03  0.12495687033E+03 0.  0.
          2    1    1    2  501    0  0.42445079222E+01  0.77204853560E+02 -0.49203138519E+03  0.49806976346E+03  0.00000000000E+00 0. -1.
          1    1    1    2  502    0 -0.28968021752E+02 -0.30601193102E+00  0.34933872469E+03  0.35053785030E+03  0.00000000000E+00 0. -1.
         22    1    3    3    0    0  0.39680588833E+02 -0.10753621812E+03  0.53680419569E+01  0.11474930593E+03  0.00000000000E+00 0.  1.
         22    1    3    3    0    0 -0.14957075003E+02  0.30637376491E+02  0.41709027538E+01  0.34347625255E+02  0.00000000000E+00 0.  1.
</event>
<event>
 7    1  0.6173324E-006  0.5273095E+02  0.7818608E-02  0.1484278E+00
          2   -1    0    0  502    0  0.00000000000E+00  0.00000000000E+00  0.11483661942E+03  0.11483661942E+03  0.00000000000E+00 0. -1.
          1   -1    0    0  501    0 -0.00000000000E+00 -0.00000000000E+00 -0.41646354873E+03  0.41646354873E+03  0.00000000000E+00 0. -1.
         25    2    1    2    0    0  0.80496899806E+00 -0.19358300341E+02 -0.16860099376E+03  0.21077886473E+03  0.12500417173E+03 0.  0.
          2    1    1    2  501    0 -0.12661673338E+02 -0.33483219852E+02 -0.21736455194E+03  0.22029251559E+03  0.00000000000E+00 0. -1.
          1    1    1    2  502    0  0.11856704340E+02  0.52841520193E+02  0.84338616397E+02  0.10022878783E+03  0.00000000000E+00 0. -1.
         22    1    3    3    0    0  0.22268822434E+02  0.46132782415E+02 -0.40449885126E+02  0.65271182559E+02  0.00000000000E+00 0.  1.
         22    1    3    3    0    0 -0.21463853436E+02 -0.65491082756E+02 -0.12815110864E+03  0.14550768217E+03  0.00000000000E+00 0.  1.
</event>
<event>
 7    1  0.6173324E-006  0.6204476E+02  0.7818608E-02  0.1478838E+00
          2   -1    0    0  502    0  0.00000000000E+00  0.00000000000E+00  0.86716390958E+03  0.86716390958E+03  0.00000000000E+00 0. -1.
          1   -1    0    0  501    0 -0.00000000000E+00 -0.00000000000E+00 -0.30581429050E+03  0.30581429050E+03  0.00000000000E+00 0. -1.
         25    2    1    2    0    0 -0.33882878223E+00  0.93164141901E+02 -0.10272965262E+02  0.15623912778E+03  0.12500183635E+03 0.  0.
          2    1    1    2  501    0 -0.12682725676E+01 -0.31587109936E+02 -0.22023349144E+03  0.22249077460E+03  0.00000000000E+00 0. -1.
          1    1    1    2  502    0  0.16071013498E+01 -0.61577031965E+02  0.79185607578E+03  0.79424829770E+03  0.00000000000E+00 0. -1.
         22    1    3    3    0    0 -0.47161282825E+02  0.21082992474E+01  0.17173865622E+02  0.50235178748E+02  0.00000000000E+00 0. -1.
         22    1    3    3    0    0  0.46822454043E+02  0.91055842654E+02 -0.27446830884E+02  0.10600394903E+03  0.00000000000E+00 0. -1.
</event>
<event>
 7    1  0.6173324E-006  0.8379041E+02  0.7818608E-02  0.1447673E+00
          2   -1    0    0  502    0  0.00000000000E+00  0.00000000000E+00  0.36019128980E+03  0.36019128980E+03  0.00000000000E+00 0. -1.
          1   -1    0    0  501    0 -0.00000000000E+00 -0.00000000000E+00 -0.38727777662E+03  0.38727777662E+03  0.00000000000E+00 0. -1.
         25    2    1    2    0    0  0.39465688987E+02  0.42380265915E+02  0.33990310709E+02  0.14189924641E+03  0.12500570932E+03 0.  0.
          2    1    1    2  501    0  0.21943368055E+02  0.19454814796E+02 -0.32567349622E+03  0.32699117322E+03  0.00000000000E+00 0. -1.
          1    1    1    2  502    0 -0.61409057042E+02 -0.61835080711E+02  0.26459669869E+03  0.27857864680E+03  0.00000000000E+00 0. -1.
         22    1    3    3    0    0  0.57042223866E+02 -0.27664722468E+02  0.34505275573E+01  0.63490615947E+02  0.00000000000E+00 0.  1.
         22    1    3    3    0    0 -0.17576534880E+02  0.70044988383E+02  0.30539783152E+02  0.78408630462E+02  0.00000000000E+00 0.  1.
</event>
<event>
 7    1  0.6173324E-006  0.8505157E+02  0.7818608E-02  0.1415174E+00
          2   -1    0    0  502    0  0.00000000000E+00  0.00000000000E+00  0.58412079605E+03  0.58412079605E+03  0.00000000000E+00 0. -1.
          1   -1    0    0  501    0 -0.00000000000E+00 -0.00000000000E+00 -0.36095507796E+03  0.36095507796E+03  0.00000000000E+00 0. -1.
         25    2    1    2    0    0 -0.73630790442E+02  0.89379126699E+02  0.97517391421E+02  0.19632730204E+03  0.12499858522E+03 0.  0.
          2    1    1    2  501    0  0.40178028398E+02 -0.73701451066E+02 -0.30509088758E+03  0.31642791840E+03  0.00000000000E+00 0. -1.
          1    1    1    2  502    0  0.33452762044E+02 -0.15677675633E+02  0.43073921425E+03  0.43232065356E+03  0.00000000000E+00 0. -1.
         22    1    3    3    0    0  0.29344464206E+02 -0.51859437021E+01  0.24626671268E+02  0.38658304792E+02  0.00000000000E+00 0. -1.
         22    1    3    3    0    0 -0.10297525465E+03  0.94565070401E+02  0.72890720153E+02  0.15766899725E+03  0.00000000000E+00 0. -1.
</event>
<event>
 7    1  0.6173324E-006  0.2566344E+03  0.7818608E-02  0.1329694E+00
          2   -1    0    0  502    0  0.00000000000E+00  0.00000000000E+00  0.29923744573E+03  0.29923744573E+03  0.00000000000E+00 0. -1.
          1   -1    0    0  501    0 -0.00000000000E+00 -0.00000000000E+00 -0.64649246770E+03  0.64649246770E+03  0.00000000000E+00 0. -1.
         25    2    1    2    0    0  0.35765440083E+02  0.23689539027E+03 -0.56431390154E+02  0.27605849630E+03  0.12500079579E+03 0.  0.
          2    1    1    2  501    0 -0.49502566357E+02 -0.25754031001E+03 -0.44336836683E+03  0.51512428021E+03  0.00000000000E+00 0. -1.
          1    1    1    2  502    0  0.13737126274E+02  0.20644919739E+02  0.15254473502E+03  0.15454713692E+03  0.00000000000E+00 0. -1.
         22    1    3    3    0    0  0.15540512194E+02  0.70833379122E+01 -0.41498447307E+02  0.44875408902E+02  0.00000000000E+00 0.  1.
         22    1    3    3    0    0  0.20224927889E+02  0.22981205236E+03 -0.14932942848E+02  0.23118308740E+03  0.00000000000E+00 0.  1.
</event>
<event>
 7    1  0.6173324E-006  0.8872668E+02  0.7818608E-02  0.1372327E+00
          2   -1    0    0  502    0  0.00000000000E+00  0.00000000000E+00  0.54463979000E+03  0.54463979000E+03  0.00000000000E+00 0. -1.
          1   -1    0    0  501    0 -0.00000000000E+00 -0.00000000000E+00 -0.98159480544E+03  0.98159480544E+03  0.00000000000E+00 0. -1.
         25    2    1    2    0    0 -0.12324809424E+03 -0.17301183039E+02  0.28457245943E+02  0.17867371184E+03  0.12500022714E+03 0.  0.
          2    1    1    2  501    0  0.45181781786E+02 -0.21128647136E+02 -0.90149913100E+03  0.90287789669E+03  0.00000000000E+00 0. -1.
          1    1    1    2  502    0  0.78066312459E+02  0.38429830175E+02  0.43608686962E+03  0.44468298690E+03  0.00000000000E+00 0. -1.
         22    1    3    3    0    0 -0.98770587057E+02 -0.60626063136E+02  0.47694596475E+02  0.12532327370E+03  0.00000000000E+00 0. -1.
         22    1    3    3    0    0 -0.24477507188E+02  0.43324880096E+02 -0.19237350531E+02  0.53350438133E+02  0.00000000000E+00 0. -1.
</event>
<event>
 7    1  0.6173324E-006  0.2179266E+03  0.7818608E-02  0.1247073E+00
          2   -1    0    0  502    0  0.00000000000E+00  0.00000000000E+00  0.21970412482E+04  0.21970412482E+04  0.00000000000E+00 0. -1.
          1   -1    0    0  501    0 -0.00000000000E+00 -0.00000000000E+00 -0.92171979763E+03  0.92171979763E+03  0.00000000000E+00 0. -1.
         25    2    1    2    0    0 -0.23589181178E+03 -0.51007980869E+02 -0.27813350166E+03  0.38888491193E+03  0.12500587587E+03 0.  0.
          2    1    1    2  501    0  0.41891700222E+02 -0.47699928674E+02 -0.58094628417E+03  0.58440463964E+03  0.00000000000E+00 0. -1.
          1    1    1    2  502    0  0.19400011156E+03  0.98707909544E+02  0.21344012364E+04  0.21454714942E+04  0.00000000000E+00 0. -1.
         22    1    3    3    0    0 -0.23114363433E+03 -0.17759245550E+02 -0.26677893872E+03  0.35343142565E+03  0.00000000000E+00 0.  1.
         22    1    3    3    0    0 -0.47481774472E+01 -0.33248735320E+02 -0.11354562940E+02  0.35453486274E+02  0.00000000000E+00 0.  1.
</event>
<event>
 7    1  0.6173324E-006  0.1374996E+03  0.7818608E-02  0.1413509E+00
          2   -1    0    0  502    0  0.00000000000E+00  0.00000000000E+00  0.12173647015E+03  0.12173647015E+03  0.00000000000E+00 0. -1.
          1   -1    0    0  501    0 -0.00000000000E+00 -0.00000000000E+00 -0.22315592970E+04  0.22315592970E+04  0.00000000000E+00 0. -1.
         25    2    1    2    0    0  0.14912139050E+03  0.56962477456E+02 -0.95239201453E+03  0.97373348782E+03  0.12499777206E+03 0.  0.
          2    1    1    2  501    0 -0.21063416355E+02 -0.96030936788E+01 -0.12263849179E+04  0.12266033808E+04  0.00000000000E+00 0. -1.
          1    1    1    2  502    0 -0.12805797414E+03 -0.47359383777E+02  0.68954105568E+02  0.15295889856E+03  0.00000000000E+00 0. -1.
         22    1    3    3    0    0  0.95092973952E+02 -0.51501618820E+01 -0.73731690371E+03  0.74344160117E+03  0.00000000000E+00 0.  1.
         22    1    3    3    0    0  0.54028416547E+02  0.62112639338E+02 -0.21507511082E+03  0.23029188665E+03  0.00000000000E+00 0.  1.
</event>
<event>
 7    1  0.6173324E-006  0.6702876E+02  0.7818608E-02  0.1437237E+00
          2   -1    0    0  502    0  0.00000000000E+00  0.00000000000E+00  0.90569083331E+03  0.90569083331E+03  0.00000000000E+00 0. -1.
          1   -1    0    0  501    0 -0.00000000000E+00 -0.00000000000E+00 -0.53682727649E+03  0.53682727649E+03  0.00000000000E+00 0. -1.
         25    2    1    2    0    0  0.95874720051E+01 -0.96491173393E+02 -0.25485197640E+03  0.29996178702E+03  0.12500031053E+03 0.  0.
          2    1    1    2  501    0 -0.21373489548E+02  0.58663172888E+02 -0.25521097965E+03  0.26273720339E+03  0.00000000000E+00 0. -1.
          1    1    1    2  502    0  0.11786017543E+02  0.37828000505E+02  0.87892651287E+03  0.87981911940E+03  0.00000000000E+00 0. -1.
         22    1    3    3    0    0  0.10324569278E+02  0.15883098538E+02 -0.13244620630E+03  0.13379412212E+03  0.00000000000E+00 0. -1.
         22    1    3    3    0    0 -0.73709727268E+00 -0.11237427193E+03 -0.12240577010E+03  0.16616766490E+03  0.00000000000E+00 0. -1.
</event>
<event>
 7    1  0.6173324E-006  0.1482194E+03  0.7818608E-02  0.1381848E+00
          2   -1    0    0  502    0  0.00000000000E+00  0.00000000000E+00  0.13757926208E+04  0.13757926208E+04  0.00000000000E+00 0. -1.
          1   -1    0    0  501    0 -0.00000000000E+00 -0.00000000000E+00 -0.53403771898E+03  0.53403771898E+03  0.00000000000E+00 0. -1.
         25    2    1    2    0    0  0.25965291336E+02  0.17247350292E+03  0.15335148492E+03  0.26374539637E+03  0.12499460235E+03 0.  0.
          2    1    1    2  501    0 -0.22385368267E+02 -0.14508871977E+03 -0.46741983912E+03  0.48993177823E+03  0.00000000000E+00 0. -1.
          1    1    1    2  502    0 -0.35799230686E+01 -0.27384783151E+02  0.11558232560E+04  0.11561531652E+04  0.00000000000E+00 0. -1.
         22    1    3    3    0    0  0.46997832943E+01  0.14621370529E+03  0.49344804693E+02  0.15438732243E+03  0.00000000000E+00 0.  1.
         22    1    3    3    0    0  0.21265508042E+02  0.26259797631E+02  0.10400668023E+03  0.10935807394E+03  0.00000000000E+00 0.  1.
</event>
<event>
 7    1  0.6744055E-006  0.6827928E+02  0.7818608E-02  0.1373504E+00
          2   -1    0    0  502    0  0.00000000000E+00  0.00000000000E+00  0.89535068785E+03  0.89535068785E+03  0.00000000000E+00 0. -1.
          1   -1    0    0  501    0 -0.00000000000E+00 -0.00000000000E+00 -0.96769429465E+03  0.96769429465E+03  0.00000000000E+00 0. -1.
         25    2    1    2    0    0 -0.73418282933E+02  0.10330994857E+03 -0.21496851665E+03  0.27910419355E+03  0.12499799184E+03 0.  0.
          2    1    1    2  501    0  0.20276647022E+02 -0.60902553374E+02 -0.71788509306E+03  0.72074910355E+03  0.00000000000E+00 0. -1.
          1    1    1    2  502    0  0.53141635910E+02 -0.42407395193E+02  0.86051000292E+03  0.86319168541E+03  0.00000000000E+00 0. -1.
         22    1    3    3    0    0 -0.10623384430E+03  0.95777708420E+02 -0.15972004627E+03  0.21440497262E+03  0.00000000000E+00 0. -1.
         22    1    3    3    0    0  0.32815561363E+02  0.75322401472E+01 -0.55248470381E+02  0.64699220927E+02  0.00000000000E+00 0. -1.
</event>
<event>
 7    1  0.6173324E-006  0.2183639E+03  0.7818608E-02  0.1232667E+00
          2   -1    0    0  502    0  0.00000000000E+00  0.00000000000E+00  0.51828362698E+03  0.51828362698E+03  0.00000000000E+00 0. -1.
          1   -1    0    0  501    0 -0.00000000000E+00 -0.00000000000E+00 -0.65835965030E+03  0.65835965030E+03  0.00000000000E+00 0. -1.
         25    2    1    2    0    0  0.97715575539E+02 -0.13205238047E+03 -0.17563682284E+03  0.27103305935E+03  0.12499784330E+03 0.  0.
          2    1    1    2  501    0  0.71356658152E+02 -0.16939493425E+02 -0.40455824834E+03  0.41115215602E+03  0.00000000000E+00 0. -1.
          1    1    1    2  502    0 -0.16907223369E+03  0.14899187390E+03  0.44011904787E+03  0.49445806191E+03  0.00000000000E+00 0. -1.
         22    1    3    3    0    0  0.11040186087E+03 -0.68721471920E+02 -0.71257888470E+02  0.14828654105E+03  0.00000000000E+00 0. -1.
         22    1    3    3    0    0 -0.12686285332E+02 -0.63330908550E+02 -0.10437893437E+03  0.12274651830E+03  0.00000000000E+00 0. -1.
</event>
<event>
 7    1  0.6173324E-006  0.1245358E+03  0.7818608E-02  0.1307279E+00
          2   -1    0    0  502    0  0.00000000000E+00  0.00000000000E+00  0.50271480838E+03  0.50271480838E+03  0.00000000000E+00 0. -1.
          1   -1    0    0  501    0 -0.00000000000E+00 -0.00000000000E+00 -0.14279071897E+04  0.14279071897E+04  0.00000000000E+00 0. -1.
         25    2    1    2    0    0  0.17155083776E+03  0.60341707884E+02 -0.15154962868E+03  0.26769971143E+03  0.12500013560E+03 0.  0.
          2    1    1    2  501    0 -0.52004229495E+02 -0.34596546048E+02 -0.12090530425E+04  0.12106653627E+04  0.00000000000E+00 0. -1.
          1    1    1    2  502    0 -0.11954660826E+03 -0.25745161836E+02  0.43541028977E+03  0.45225692404E+03  0.00000000000E+00 0. -1.
         22    1    3    3    0    0  0.17925119580E+03  0.39382048716E+02 -0.94481759639E+02  0.20641884570E+03  0.00000000000E+00 0.  1.
         22    1    3    3    0    0 -0.77003580466E+01  0.20959659168E+02 -0.57067869045E+02  0.61280865724E+02  0.00000000000E+00 0.  1.
</event>
<event>
 7    1  0.6173324E-006  0.2043955E+03  0.7818608E-02  0.1321209E+00
          2   -1    0    0  502    0  0.00000000000E+00  0.00000000000E+00  0.13339345112E+03  0.13339345112E+03  0.00000000000E+00 0. -1.
          1   -1    0    0  501    0 -0.00000000000E+00 -0.00000000000E+00 -0.13665719445E+04  0.13665719445E+04  0.00000000000E+00 0. -1.
         25    2    1    2    0    0  0.92771575285E+02  0.17246680860E+03 -0.33061918523E+03  0.40408614798E+03  0.12500081640E+03 0.  0.
          2    1    1    2  501    0  0.32787639002E+02 -0.71853704868E+01 -0.88710532956E+03  0.88774012220E+03  0.00000000000E+00 0. -1.
          1    1    1    2  502    0 -0.12555921429E+03 -0.16528143811E+03 -0.15453978567E+02  0.20813912542E+03  0.00000000000E+00 0. -1.
         22    1    3    3    0    0 -0.16367341647E+02  0.96463714585E+02 -0.16304604952E+03  0.19015034149E+03  0.00000000000E+00 0.  1.
         22    1    3    3    0    0  0.10913891693E+03  0.76003094017E+02 -0.16757313571E+03  0.21393580649E+03  0.00000000000E+00 0.  1.
</event>
<event>
 7    1  0.6173324E-006  0.8327967E+02  0.7818608E-02  0.1352594E+00
          2   -1    0    0  502    0  0.00000000000E+00  0.00000000000E+00  0.14404609131E+04  0.14404609131E+04  0.00000000000E+00 0. -1.
          1   -1    0    0  501    0 -0.00000000000E+00 -0.00000000000E+00 -0.61648896373E+03  0.61648896373E+03  0.00000000000E+00 0. -1.
         25    2    1    2    0    0  0.83057149406E+02 -0.68880033357E+02  0.15122644154E+03  0.22390374562E+03  0.12498200518E+03 0.  0.
          2    1    1    2  501    0 -0.21884657693E+00  0.62686680913E+02 -0.57707410757E+03  0.58046894274E+03  0.00000000000E+00 0. -1.
          1    1    1    2  502    0 -0.82838302829E+02  0.61933524441E+01  0.12498196154E+04  0.12525771884E+04  0.00000000000E+00 0. -1.
         22    1    3    3    0    0 -0.29866648763E+02 -0.37015456112E+02  0.38458673356E+02  0.61165596996E+02  0.00000000000E+00 0. -1.
         22    1    3    3    0    0  0.11292379817E+03 -0.31864577244E+02  0.11276776818E+03  0.16273814862E+03  0.00000000000E+00 0. -1.
</event>
<event>
 7    1  0.6173324E-006  0.5228797E+02  0.7818608E-02  0.1482994E+00
          2   -1    0    0  502    0  0.00000000000E+00  0.00000000000E+00  0.32687238838E+04  0.32687238838E+04  0.00000000000E+00 0. -1.
          1   -1    0    0  501    0 -0.00000000000E+00 -0.00000000000E+00 -0.15047836809E+04  0.15047836809E+04  0.00000000000E+00 0. -1.
         25    2    1    2    0    0  0.66178671166E+02 -0.55393399050E+02  0.87011775346E+03  0.88327641846E+03  0.12499712538E+03 0.  0.
          2    1    1    2  501    0 -0.32871586942E+02  0.40641465452E+02 -0.14976096677E+04  0.14985216003E+04  0.00000000000E+00 0. -1.
          1    1    1    2  502    0 -0.33307084224E+02  0.14751933598E+02  0.23914321171E+04  0.23917095459E+04  0.00000000000E+00 0. -1.
         22    1    3    3    0    0 -0.22907523305E+02  0.13454732131E+02  0.35525385982E+03  0.35624582714E+03  0.00000000000E+00 0. -1.
         22    1    3    3    0    0  0.89086194472E+02 -0.68848131181E+02  0.51486389364E+03  0.52703059132E+03  0.00000000000E+00 0. -1.
</event>
<event>
 7    1  0.6173324E-006  0.4766172E+03  0.7818608E-02  0.1241052E+00
          2   -1    0    0  502    0  0.00000000000E+00  0.00000000000E+00  0.28720570618E+04  0.28720570618E+04  0.00000000000E+00 0. -1.
          1   -1    0    0  501    0 -0.00000000000E+00 -0.00000000000E+00 -0.11056627460E+04  0.11056627460E+04  0.00000000000E+00 0. -1.
         25    2    1    2    0    0 -0.50158796777E+03 -0.16877957867E+02 -0.10457373187E+03  0.52767073911E+03  0.12500155455E+03 0.  0.
          2    1    1    2  501    0  0.26651350727E+02  0.15527191988E+02 -0.76803266784E+03  0.76865178531E+03  0.00000000000E+00 0. -1.
          1    1    1    2  502    0  0.47493661704E+03  0.13507658788E+01  0.26390007155E+04  0.26813972834E+04  0.00000000000E+00 0. -1.
         22    1    3    3    0    0 -0.33362476311E+03 -0.67177183150E+02 -0.88266575587E+02  0.35158106443E+03  0.00000000000E+00 0. -1.
         22    1    3    3    0    0 -0.16796320466E+03  0.50299225283E+02 -0.16307156284E+02  0.17608967468E+03  0.00000000000E+00 0. -1.
</event>
<event>
 7    1  0.6173324E-006  0.1327876E+03  0.7818608E-02  0.1290065E+00
          2   -1    0    0  502    0  0.00000000000E+00  0.00000000000E+00  0.30089005433E+04  0.30089005433E+04  0.00000000000E+00 0. -1.
          1   -1    0    0  501    0 -0.00000000000E+00 -0.00000000000E+00 -0.13694186653E+03  0.13694186653E+03  0.00000000000E+00 0. -1.
         25    2    1    2    0    0 -0.56568644973E+02 -0.43277078956E+02  0.39796587991E+03  0.42316708001E+03  0.12498247428E+03 0.  0.
          2    1    1    2  501    0  0.98197671247E+02  0.97897740117E+02 -0.85079625631E+02  0.16268156889E+03  0.00000000000E+00 0. -1.
          1    1    1    2  502    0 -0.41629026274E+02 -0.54620661161E+02  0.25590724225E+04  0.25599937609E+04  0.00000000000E+00 0. -1.
         22    1    3    3    0    0 -0.23470047526E+01 -0.78880668800E+02  0.21179819975E+03  0.22602244526E+03  0.00000000000E+00 0.  1.
         22    1    3    3    0    0 -0.54221640221E+02  0.35603589845E+02  0.18616768015E+03  0.19714463475E+03  0.00000000000E+00 0.  1.
</event>
<event>
 7    1  0.6173324E-006  0.5668986E+02  0.7818608E-02  0.1504743E+00
          2   -1    0    0  502    0  0.00000000000E+00  0.00000000000E+00  0.23321765165E+02  0.23321765165E+02  0.00000000000E+00 0. -1.
          1   -1    0    0  501    0 -0.00000000000E+00 -0.00000000000E+00 -0.91692574178E+03  0.91692574178E+03  0.00000000000E+00 0. -1.
         25    2    1    2    0    0  0.33012943993E+02 -0.10292859342E+02 -0.64235037015E+03  0.65531183589E+03  0.12499522708E+03 0.  0.
          2    1    1    2  501    0  0.13480969253E+02 -0.25561374004E+02 -0.21279488119E+03  0.21474818237E+03  0.00000000000E+00 0. -1.
          1    1    1    2  502    0 -0.46493913246E+02  0.35854233347E+02 -0.38458725270E+02  0.70187488680E+02  0.00000000000E+00 0. -1.
         22    1    3    3    0    0  0.51901496635E+02  0.18519242532E+02 -0.12253528112E+03  0.13435632779E+03  0.00000000000E+00 0.  1.
         22    1    3    3    0    0 -0.18888552642E+02 -0.28812101875E+02 -0.51981508903E+03  0.52095550810E+03  0.00000000000E+00 0.  1.
</event>
<event>
 7    1  0.6173324E-006  0.5488228E+02  0.7818608E-02  0.1434997E+00
          2   -1    0    0  502    0  0.00000000000E+00  0.00000000000E+00  0.69907252933E+03  0.69907252933E+03  0.00000000000E+00 0. -1.
          1   -1    0    0  501    0 -0.00000000000E+00 -0.00000000000E+00 -0.29766492479E+04  0.29766492479E+04  0.00000000000E+00 0. -1.
         25    2    1    2    0    0  0.11087141128E+02  0.18873326106E+02 -0.14187634125E+03  0.19034882958E+03  0.12499861431E+03 0.  0.
          2    1    1    2  501    0 -0.55319864243E+02  0.26970855969E+01 -0.28093661630E+04  0.28099120625E+04  0.00000000000E+00 0. -1.
          1    1    1    2  502    0  0.44232723116E+02 -0.21570411703E+02  0.67366578568E+03  0.67546088507E+03  0.00000000000E+00 0. -1.
         22    1    3    3    0    0 -0.39282580554E+02 -0.34868898786E+02 -0.69161317365E+02  0.86846122868E+02  0.00000000000E+00 0. -1.
         22    1    3    3    0    0  0.50369721681E+02  0.53742224893E+02 -0.72715023882E+02  0.10350270671E+03  0.00000000000E+00 0. -1.
</event>
<event>
 7    1  0.6173324E-006  0.1070188E+03  0.7818608E-02  0.1311550E+00
          2   -1    0    0  502    0  0.00000000000E+00  0.00000000000E+00  0.92107960862E+03  0.92107960862E+03  0.00000000000E+00 0. -1.
          1   -1    0    0  501    0 -0.00000000000E+00 -0.00000000000E+00 -0.13673811162E+04  0.13673811162E+04  0.00000000000E+00 0. -1.
         25    2    1    2    0    0 -0.15754463043E+03 -0.34830474378E+02 -0.29608414129E+03  0.35961631522E+03  0.12499841169E+03 0.  0.
          2    1    1    2  501    0  0.89565145635E+02  0.51184046319E+02 -0.10355899818E+04  0.10407152984E+04  0.00000000000E+00 0. -1.
          1    1    1    2  502    0  0.67979484799E+02 -0.16353571941E+02  0.88537261557E+03  0.88812911115E+03  0.00000000000E+00 0. -1.
         22    1    3    3    0    0 -0.13980019327E+03  0.24504977572E+02 -0.19798775894E+03  0.24360570735E+03  0.00000000000E+00 0. -1.
         22    1    3    3    0    0 -0.17744437168E+02 -0.59335451950E+02 -0.98096382354E+02  0.11601060787E+03  0.00000000000E+00 0. -1.
</event>
<event>
 7    1  0.6173324E-006  0.1061176E+03  0.7818608E-02  0.1370409E+00
          2   -1    0    0  502    0  0.00000000000E+00  0.00000000000E+00  0.18593573401E+04  0.18593573401E+04  0.00000000000E+00 0. -1.
          1   -1    0    0  501    0 -0.00000000000E+00 -0.00000000000E+00 -0.10832167777E+04  0.10832167777E+04  0.00000000000E+00 0. -1.
         25    2    1    2    0    0 -0.36988548505E+02  0.13137623396E+03 -0.25236631629E+02  0.18680404538E+03  0.12502398259E+03 0.  0.
          2    1    1    2  501    0  0.51655147038E+02 -0.91625804291E+02 -0.97411253735E+03  0.97977486069E+03  0.00000000000E+00 0. -1.
          1    1    1    2  502    0 -0.14666598533E+02 -0.39750429671E+02  0.17754897314E+04  0.17759952117E+04  0.00000000000E+00 0. -1.
         22    1    3    3    0    0 -0.26379349834E+02 -0.15317953740E+02  0.15462590195E+02  0.34199437129E+02  0.00000000000E+00 0. -1.
         22    1    3    3    0    0 -0.10609198671E+02  0.14669418770E+03 -0.40699221823E+02  0.15260460825E+03  0.00000000000E+00 0. -1.
</event>
<event>
 7    1  0.6173324E-006  0.9948702E+02  0.7818608E-02  0.1408640E+00
          2   -1    0    0  502    0  0.00000000000E+00  0.00000000000E+00  0.19135429151E+04  0.19135429151E+04  0.00000000000E+00 0. -1.
          1   -1    0    0  501    0 -0.00000000000E+00 -0.00000000000E+00 -0.40712896113E+03  0.40712896113E+03  0.00000000000E+00 0. -1.
         25    2    1    2    0    0  0.40044383527E+02  0.11040882445E+03 -0.19085637226E+02  0.17257824966E+03  0.12500131815E+03 0.  0.
          2    1    1    2  501    0 -0.31171698995E+02 -0.11516850725E+02 -0.30906387614E+03  0.31084528661E+03  0.00000000000E+00 0. -1.
          1    1    1    2  502    0 -0.88726845314E+01 -0.98891973722E+02  0.18345634673E+04  0.18372483399E+04  0.00000000000E+00 0. -1.
         22    1    3    3    0    0  0.52805679687E+02  0.80544357911E+02 -0.65105925922E+02  0.11625237627E+03  0.00000000000E+00 0.  1.
         22    1    3    3    0    0 -0.12761296160E+02  0.29864466536E+02  0.46020288696E+02  0.56325873387E+02  0.00000000000E+00 0.  1.
</event>
<event>
 7    1  0.6173324E-006  0.1143318E+03  0.7818608E-02  0.1333337E+00
          2   -1    0    0  502    0  0.00000000000E+00  0.00000000000E+00  0.22793964480E+03  0.22793964480E+03  0.00000000000E+00 0. -1.
          1   -1    0    0  501    0 -0.00000000000E+00 -0.00000000000E+00 -0.17672160897E+04  0.17672160897E+04  0.00000000000E+00 0. -1.
         25    2    1    2    0    0  0.24787793485E+01  0.11017544465E+03 -0.28893888580E+03  0.33355107247E+03  0.12500346102E+03 0.  0.
          2    1    1    2  501    0 -0.55714105749E+02 -0.10167079575E+03 -0.14500839297E+04  0.14547111106E+04  0.00000000000E+00 0. -1.
          1    1    1    2  502    0  0.53235326400E+02 -0.85046489007E+01  0.19974637061E+03  0.20689355137E+03  0.00000000000E+00 0. -1.
         22    1    3    3    0    0 -0.49267270524E+02  0.93740010258E+02 -0.14377158411E+03  0.17856293531E+03  0.00000000000E+00 0.  1.
         22    1    3    3    0    0  0.51746049872E+02  0.16435434392E+02 -0.14516730168E+03  0.15498813716E+03  0.00000000000E+00 0.  1.
</event>
<event>
 7    1  0.6173324E-006  0.1093314E+03  0.7818608E-02  0.1276022E+00
          2   -1    0    0  502    0  0.00000000000E+00  0.00000000000E+00  0.61754285886E+03  0.61754285886E+03  0.00000000000E+00 0. -1.
          1   -1    0    0  501    0 -0.00000000000E+00 -0.00000000000E+00 -0.12034805055E+04  0.12034805055E+04  0.00000000000E+00 0. -1.
         25    2    1    2    0    0  0.55066750480E+02 -0.11782879722E+03 -0.81690131370E+01  0.18058527462E+03  0.12501334398E+03 0.  0.
          2    1    1    2  501    0 -0.10382844622E+03  0.35980251772E+02 -0.11020781385E+04  0.11075428426E+04  0.00000000000E+00 0. -1.
          1    1    1    2  502    0  0.48761695744E+02  0.81848545444E+02  0.52430950503E+03  0.53289524714E+03  0.00000000000E+00 0. -1.
         22    1    3    3    0    0  0.32693670170E+02  0.67012765087E+01  0.33587769150E+02  0.47348932538E+02  0.00000000000E+00 0.  1.
         22    1    3    3    0    0  0.22373080311E+02 -0.12453007373E+03 -0.41756782287E+02  0.13323634208E+03  0.00000000000E+00 0.  1.
</event>
<event>
 7    1  0.6173324E-006  0.2188884E+03  0.7818608E-02  0.1230224E+00
          2   -1    0    0  502    0  0.00000000000E+00  0.00000000000E+00  0.21981802048E+04  0.21981802048E+04  0.00000000000E+00 0. -1.
          1   -1    0    0  501    0 -0.00000000000E+00 -0.00000000000E+00 -0.10287770765E+04  0.10287770765E+04  0.00000000000E+00 0. -1.
         25    2    1    2    0    0  0.25789733470E+03 -0.16580912938E+01  0.39598588532E+02  0.28932132287E+03  0.12499998057E+03 0.  0.
          2    1    1    2  501    0 -0.20924035284E+03 -0.55453966900E+02 -0.89024992404E+03  0.91618862411E+03  0.00000000000E+00 0. -1.
          1    1    1    2  502    0 -0.48656981855E+02  0.57112058194E+02  0.20200544638E+04  0.20214473344E+04  0.00000000000E+00 0. -1.
         22    1    3    3    0    0  0.23694831162E+03  0.23596341286E+02  0.66121195031E+02  0.24713013198E+03  0.00000000000E+00 0. -1.
         22    1    3    3    0    0  0.20949023077E+02 -0.25254432579E+02 -0.26522606499E+02  0.42191190885E+02  0.00000000000E+00 0. -1.
</event>
<event>
 7    1  0.6173324E-006  0.3272906E+02  0.7818608E-02  0.1619826E+00
          2   -1    0    0  502    0  0.00000000000E+00  0.00000000000E+00  0.12771717726E+03  0.12771717726E+03  0.00000000000E+00 0. -1.
          1   -1    0    0  501    0 -0.00000000000E+00 -0.00000000000E+00 -0.43293563692E+03  0.43293563692E+03  0.00000000000E+00 0. -1.
         25    2    1    2    0    0 -0.14932312411E+02 -0.53370934995E+02  0.65816680841E+01  0.13689254203E+03  0.12499927620E+03 0.  0.
          2    1    1    2  501    0  0.14255343007E+02  0.29216970850E+02 -0.36441496120E+03  0.36586214636E+03  0.00000000000E+00 0. -1.
          1    1    1    2  502    0  0.67696940366E+00  0.24153964144E+02  0.52614833457E+02  0.57898125800E+02  0.00000000000E+00 0. -1.
         22    1    3    3    0    0 -0.11252544054E+02  0.49563901833E+01 -0.52421620284E+02  0.53844329549E+02  0.00000000000E+00 0. -1.
         22    1    3    3    0    0 -0.36797683571E+01 -0.58327325178E+02  0.59003288368E+02  0.83048212478E+02  0.00000000000E+00 0. -1.
</event>
<event>
 7    1  0.6173324E-006  0.6291164E+02  0.7818608E-02  0.1532012E+00
          2   -1    0    0  502    0  0.00000000000E+00  0.00000000000E+00  0.11246192043E+04  0.11246192043E+04  0.00000000000E+00 0. -1.
          1   -1    0    0  501    0 -0.00000000000E+00 -0.00000000000E+00 -0.90083435575E+03  0.90083435575E+03  0.00000000000E+00 0. -1.
         25    2    1    2    0    0  0.17355540769E+02 -0.66478567246E+02  0.60721657221E+03  0.62374444285E+03  0.12499819885E+03 0.  0.
          2    1    1    2  501    0  0.40176835876E+01  0.62779013256E+02 -0.89123018763E+03  0.89344758863E+03  0.00000000000E+00 0. -1.
          1    1    1    2  502    0 -0.21373224357E+02  0.36995539906E+01  0.50779846401E+03  0.50826152862E+03  0.00000000000E+00 0. -1.
         22    1    3    3    0    0 -0.94693479067E+01 -0.76720730776E+02  0.57664288881E+03  0.58180130654E+03  0.00000000000E+00 0. -1.
         22    1    3    3    0    0  0.26824888676E+02  0.10242163530E+02  0.30573683405E+02  0.41943136306E+02  0.00000000000E+00 0. -1.
</event>
<event>
 7    1  0.6173324E-006  0.6062191E+02  0.7818608E-02  0.1469561E+00
          2   -1    0    0  502    0  0.00000000000E+00  0.00000000000E+00  0.14654161481E+04  0.14654161481E+04  0.00000000000E+00 0. -1.
          1   -1    0    0  501    0 -0.00000000000E+00 -0.00000000000E+00 -0.13190160192E+03  0.13190160192E+03  0.00000000000E+00 0. -1.
         25    2    1    2    0    0 -0.47462544226E+02 -0.61571123687E+02  0.14306669405E+03  0.20527156159E+03  0.12499855470E+03 0.  0.
          2    1    1    2  501    0  0.13020529893E+02  0.58668107307E+02 -0.91588379348E+02  0.10954411096E+03  0.00000000000E+00 0. -1.
          1    1    1    2  502    0  0.34442014333E+02  0.29030163803E+01  0.12820362315E+04  0.12825020775E+04  0.00000000000E+00 0. -1.
         22    1    3    3    0    0 -0.86178624706E+01 -0.93563977181E+02  0.72897078275E+02  0.11892211485E+03  0.00000000000E+00 0.  1.
         22    1    3    3    0    0 -0.38844681755E+02  0.31992853494E+02  0.70169615770E+02  0.86349446742E+02  0.00000000000E+00 0.  1.
</event>
<event>
 7    1  0.6173324E-006  0.5277313E+02  0.7818608E-02  0.1439153E+00
          2   -1    0    0  502    0  0.00000000000E+00  0.00000000000E+00  0.15588074225E+04  0.15588074225E+04  0.00000000000E+00 0. -1.
          1   -1    0    0  501    0 -0.00000000000E+00 -0.00000000000E+00 -0.26316114911E+03  0.26316114911E+03  0.00000000000E+00 0. -1.
         25    2    1    2    0    0  0.47281235172E+02 -0.21235933462E+02  0.52070475031E+03  0.53800014936E+03  0.12499697454E+03 0.  0.
          2    1    1    2  501    0 -0.85290301034E+01  0.52206456255E+02 -0.25115910040E+03  0.25666934399E+03  0.00000000000E+00 0. -1.
          1    1    1    2  502    0 -0.38752205069E+02 -0.30970522792E+02  0.10261006235E+04  0.10272990782E+04  0.00000000000E+00 0. -1.
         22    1    3    3    0    0 -0.79760589277E+01 -0.59738005915E+02  0.33683508044E+03  0.34218433377E+03  0.00000000000E+00 0.  1.
         22    1    3    3    0    0  0.55257294100E+02  0.38502072453E+02  0.18386966988E+03  0.19581581559E+03  0.00000000000E+00 0.  1.
</event>
<event>
 7    1  0.6173324E-006  0.6316442E+02  0.7818608E-02  0.1394740E+00
          2   -1    0    0  502    0  0.00000000000E+00  0.00000000000E+00  0.27578913353E+03  0.27578913353E+03  0.00000000000E+00 0. -1.
          1   -1    0    0  501    0 -0.00000000000E+00 -0.00000000000E+00 -0.48951148052E+03  0.48951148052E+03  0.00000000000E+00 0. -1.
         25    2    1    2    0    0  0.11119430127E+02  0.13435445530E+02 -0.10956455252E+03  0.16713372527E+03  0.12500055212E+03 0.  0.
          2    1    1    2  501    0 -0.56104685186E+02  0.30904955632E+02 -0.34412000983E+03  0.35003061744E+03  0.00000000000E+00 0. -1.
          1    1    1    2  502    0  0.44985255059E+02 -0.44340401161E+02  0.23996221536E+03  0.24813627133E+03  0.00000000000E+00 0. -1.
         22    1    3    3    0    0  0.38382592709E+02  0.54538817136E+02 -0.29118238791E+02  0.72770720953E+02  0.00000000000E+00 0. -1.
         22    1    3    3    0    0 -0.27263162582E+02 -0.41103371607E+02 -0.80446313732E+02  0.94363004321E+02  0.00000000000E+00 0. -1.
</event>
<event>
 7    1  0.6173324E-006  0.5171565E+02  0.7818608E-02  0.1445735E+00
          2   -1    0    0  502    0  0.00000000000E+00  0.00000000000E+00  0.14081952380E+03  0.14081952380E+03  0.00000000000E+00 0. -1.
          1   -1    0    0  501    0 -0.00000000000E+00 -0.00000000000E+00 -0.16311781870E+04  0.16311781870E+04  0.00000000000E+00 0. -1.
         25    2    1    2    0    0 -0.24680298025E+02  0.17673899799E+02 -0.15276310072E+03  0.19971230063E+03  0.12500781670E+03 0.  0.
          2    1    1    2  501    0 -0.21942653692E+02 -0.42916407676E+02 -0.14485305872E+04  0.14493323153E+04  0.00000000000E+00 0. -1.
          1    1    1    2  502    0  0.46622951716E+02  0.25242507878E+02  0.11093502472E+03  0.12295309488E+03  0.00000000000E+00 0. -1.
         22    1    3    3    0    0 -0.39094532878E+02 -0.47711495981E+02 -0.73880528305E+02  0.96245009285E+02  0.00000000000E+00 0.  1.
         22    1    3    3    0    0  0.14414234854E+02  0.65385395780E+02 -0.78882572411E+02  0.10346729134E+03  0.00000000000E+00 0.  1.
</event>
<event>
 7    1  0.6173324E-006  0.1694058E+03  0.7818608E-02  0.1321959E+00
          2   -1    0    0  502    0  0.00000000000E+00  0.00000000000E+00  0.50804419791E+03  0.50804419791E+03  0.00000000000E+00 0. -1.
          1   -1    0    0  501    0 -0.00000000000E+00 -0.00000000000E+00 -0.14223393941E+04  0.14223393941E+04  0.00000000000E+00 0. -1.
         25    2    1    2    0    0  0.38739659673E+02 -0.13895802275E+03 -0.37843306697E+03  0.42384729172E+03  0.12499938884E+03 0.  0.
          2    1    1    2  501    0  0.37987782047E+02 -0.13239155152E+02 -0.10058203387E+04  0.10066245082E+04  0.00000000000E+00 0. -1.
          1    1    1    2  502    0 -0.76727441721E+02  0.15219717790E+03  0.46995820943E+03  0.49991179211E+03  0.00000000000E+00 0. -1.
         22    1    3    3    0    0  0.14728785599E+02 -0.12037434010E+03 -0.14762114823E+03  0.19104691121E+03  0.00000000000E+00 0.  1.
         22    1    3    3    0    0  0.24010874074E+02 -0.18583682648E+02 -0.23081191874E+03  0.23280038051E+03  0.00000000000E+00 0.  1.
</event>
<event>
 7    1  0.6173324E-006  0.7837482E+02  0.7818608E-02  0.1439747E+00
          2   -1    0    0  502    0  0.00000000000E+00  0.00000000000E+00  0.53432183836E+02  0.53432183836E+02  0.00000000000E+00 0. -1.
          1   -1    0    0  501    0 -0.00000000000E+00 -0.00000000000E+00 -0.31244718631E+04  0.31244718631E+04  0.00000000000E+00 0. -1.
         25    2    1    2    0    0 -0.94686017109E+02 -0.50375327783E+01 -0.20843995891E+04  0.20902960051E+04  0.12499969312E+03 0.  0.
          2    1    1    2  501    0  0.19585599064E+02  0.26875206929E+02 -0.10063921625E+04  0.10069414368E+04  0.00000000000E+00 0. -1.
          1    1    1    2  502    0  0.75100418045E+02 -0.21837674151E+02  0.19752072349E+02  0.80666605017E+02  0.00000000000E+00 0. -1.
         22    1    3    3    0    0 -0.11587028916E+03  0.49019214014E+01 -0.12009853712E+04  0.12065719268E+04  0.00000000000E+00 0.  1.
         22    1    3    3    0    0  0.21184272055E+02 -0.99394541797E+01 -0.88341421797E+03  0.88372407834E+03  0.00000000000E+00 0.  1.
</event>
<event>
 7    1  0.6173324E-006  0.9605453E+02  0.7818608E-02  0.1312311E+00
          2   -1    0    0  502    0  0.00000000000E+00  0.00000000000E+00  0.41141832857E+02  0.41141832857E+02  0.00000000000E+00 0. -1.
          1   -1    0    0  501    0 -0.00000000000E+00 -0.00000000000E+00 -0.28894161908E+04  0.28894161908E+04  0.00000000000E+00 0. -1.
         25    2    1    2    0    0  0.92452355858E+01 -0.22004455973E+01 -0.26135618098E+03  0.28986184762E+03  0.12499008372E+03 0.  0.
          2    1    1    2  501    0  0.85230949742E+02  0.44296256222E+02 -0.25099074646E+04  0.25117448027E+04  0.00000000000E+00 0. -1.
          1    1    1    2  502    0 -0.94476185328E+02 -0.42095810625E+02 -0.77010712399E+02  0.12895137336E+03  0.00000000000E+00 0. -1.
         22    1    3    3    0    0  0.57544200391E+02  0.32175451723E+02 -0.13078475212E+03  0.14646243914E+03  0.00000000000E+00 0. -1.
         22    1    3    3    0    0 -0.48298964806E+02 -0.34375897320E+02 -0.13057142886E+03  0.14339940848E+03  0.00000000000E+00 0. -1.
</event>
<event>
 7    1  0.6173324E-006  0.1710135E+03  0.7818608E-02  0.1296722E+00
          2   -1    0    0  502    0  0.00000000000E+00  0.00000000000E+00  0.17083582262E+04  0.17083582262E+04  0.00000000000E+00 0. -1.
          1   -1    0    0  501    0 -0.00000000000E+00 -0.00000000000E+00 -0.73091210598E+03  0.73091210598E+03  0.00000000000E+00 0. -1.
         25    2    1    2    0    0  0.77595739589E+02 -0.17760344112E+03 -0.61020878615E+02  0.23856444292E+03  0.12500145879E+03 0.  0.
          2    1    1    2  501    0  0.26476900892E+02  0.42554421879E+02 -0.57554022248E+03  0.57771831613E+03  0.00000000000E+00 0. -1.
          1    1    1    2  502    0 -0.10407264048E+03  0.13504901924E+03  0.16140072213E+04  0.16229875731E+04  0.00000000000E+00 0. -1.
         22    1    3    3    0    0  0.49249189025E+02 -0.16312026217E+03 -0.92427601985E+02  0.19384675431E+03  0.00000000000E+00 0.  1.
         22    1    3    3    0    0  0.28346550563E+02 -0.14483178952E+02  0.31406723370E+02  0.44717688606E+02  0.00000000000E+00 0.  1.
</event>
<event>
 7    1  0.6173324E-006  0.3379478E+02  0.7818608E-02  0.1601602E+00
          2   -1    0    0  502    0  0.00000000000E+00  0.00000000000E+00  0.45919834340E+03  0.45919834340E+03  0.00000000000E+00 0. -1.
          1   -1    0    0  501    0 -0.00000000000E+00 -0.00000000000E+00 -0.88175351995E+02  0.88175351995E+02  0.00000000000E+00 0. -1.
         25    2    1    2    0    0  0.13151931212E+01  0.44732508057E+02  0.86532519077E+02  0.15848018927E+03  0.12500146609E+03 0.  0.
          2    1    1    2  501    0 -0.20039432992E+02 -0.16682005812E+02 -0.48038506477E+02  0.54658634241E+02  0.00000000000E+00 0. -1.
          1    1    1    2  502    0  0.18724239871E+02 -0.28050502245E+02  0.33252897880E+03  0.33423487188E+03  0.00000000000E+00 0. -1.
         22    1    3    3    0    0  0.35970968821E+02  0.76476684905E+02  0.65822886139E+02  0.10712257592E+03  0.00000000000E+00 0. -1.
         22    1    3    3    0    0 -0.34655775700E+02 -0.31744176847E+02  0.20709632938E+02  0.51357613355E+02  0.00000000000E+00 0. -1.
</event>
<event>
 7    1  0.6173324E-006  0.5206881E+02  0.7818608E-02  0.1467576E+00
          2   -1    0    0  502    0  0.00000000000E+00  0.00000000000E+00  0.67598725279E+03  0.67598725279E+03  0.00000000000E+00 0. -1.
          1   -1    0    0  501    0 -0.00000000000E+00 -0.00000000000E+00 -0.15621051574E+03  0.15621051574E+03  0.00000000000E+00 0. -1.
         25    2    1    2    0    0 -0.24925760987E+02 -0.39042013936E+02 -0.89028752060E+02  0.16030293603E+03  0.12500136077E+03 0.  0.
          2    1    1    2  501    0 -0.26688331764E+02  0.30885956843E+02 -0.16777905964E+02  0.44132839371E+02  0.00000000000E+00 0. -1.
          1    1    1    2  502    0  0.51614092751E+02  0.81560570934E+01  0.62558339507E+03  0.62776199314E+03  0.00000000000E+00 0. -1.
         22    1    3    3    0    0 -0.71551422930E+02 -0.22773855319E+01 -0.63419374486E+02  0.95638954764E+02  0.00000000000E+00 0. -1.
         22    1    3    3    0    0  0.46625661944E+02 -0.36764628404E+02 -0.25609377573E+02  0.64663981265E+02  0.00000000000E+00 0. -1.
</event>
<event>
 7    1  0.6173324E-006  0.4490079E+03  0.7818608E-02  0.1048563E+00
          2   -1    0    0  502    0  0.00000000000E+00  0.00000000000E+00  0.69741882189E+03  0.69741882189E+03  0.00000000000E+00 0. -1.
          1   -1    0    0  501    0 -0.00000000000E+00 -0.00000000000E+00 -0.31835807486E+04  0.31835807486E+04  0.00000000000E+00 0. -1.
         25    2    1    2    0    0 -0.50747215201E+02  0.52616351150E+03 -0.91259342389E+02  0.55079634603E+03  0.12500010617E+03 0.  0.
          2    1    1    2  501    0  0.31453202344E+03 -0.32347196731E+03 -0.27828317908E+04  0.28191696088E+04  0.00000000000E+00 0. -1.
          1    1    1    2  502    0 -0.26378480824E+03 -0.20269154419E+03  0.38792920645E+03  0.51103361568E+03  0.00000000000E+00 0. -1.
         22    1    3    3    0    0 -0.38827365506E+02  0.43313378848E+03 -0.12274631140E+03  0.45186181515E+03  0.00000000000E+00 0. -1.
         22    1    3    3    0    0 -0.11919849695E+02  0.93029723022E+02  0.31486969008E+02  0.98934530876E+02  0.00000000000E+00 0. -1.
</event>
<event>
 7    1  0.6173324E-006  0.1030628E+03  0.7818608E-02  0.1454995E+00
          2   -1    0    0  502    0  0.00000000000E+00  0.00000000000E+00  0.63877511491E+03  0.63877511491E+03  0.00000000000E+00 0. -1.
          1   -1    0    0  501    0 -0.00000000000E+00 -0.00000000000E+00 -0.23966380233E+04  0.23966380233E+04  0.00000000000E+00 0. -1.
         25    2    1    2    0    0  0.42033831017E+02  0.74669164995E+02 -0.17938246368E+03  0.23483257724E+03  0.12500377558E+03 0.  0.
          2    1    1    2  501    0 -0.63269631551E+02 -0.82379258277E+02 -0.21880892109E+04  0.21905533053E+04  0.00000000000E+00 0. -1.
          1    1    1    2  502    0  0.21235800534E+02  0.77100932813E+01  0.60960876622E+03  0.61002725563E+03  0.00000000000E+00 0. -1.
         22    1    3    3    0    0  0.82980604959E+02  0.24930436571E+02 -0.11206628406E+03  0.14165507223E+03  0.00000000000E+00 0.  1.
         22    1    3    3    0    0 -0.40946773941E+02  0.49738728424E+02 -0.67316179621E+02  0.93177505012E+02  0.00000000000E+00 0.  1.
</event>
<event>
 7    1  0.6173324E-006  0.1132660E+03  0.7818608E-02  0.1352378E+00
          2   -1    0    0  502    0  0.00000000000E+00  0.00000000000E+00  0.25777847757E+03  0.25777847757E+03  0.00000000000E+00 0. -1.
          1   -1    0    0  501    0 -0.00000000000E+00 -0.00000000000E+00 -0.30862182175E+03  0.30862182175E+03  0.00000000000E+00 0. -1.
         25    2    1    2    0    0 -0.13033923169E+03  0.33603951889E+02 -0.54402223995E+02  0.19157755049E+03  0.12499925990E+03 0.  0.
          2    1    1    2  501    0  0.10918206727E+03  0.74394638103E+01 -0.16614563218E+03  0.19894833633E+03  0.00000000000E+00 0. -1.
          1    1    1    2  502    0  0.21157164418E+02 -0.41043415699E+02  0.16970451201E+03  0.17587441250E+03  0.00000000000E+00 0. -1.
         22    1    3    3    0    0 -0.11900686000E+03 -0.10753573315E+02 -0.75313333128E+02  0.14124577945E+03  0.00000000000E+00 0.  1.
         22    1    3    3    0    0 -0.11332371691E+02  0.44357525203E+02  0.20911109133E+02  0.50331771035E+02  0.00000000000E+00 0.  1.
</event>
<event>
 7    1  0.6173324E-006  0.7199775E+02  0.7818608E-02  0.1457064E+00
          2   -1    0    0  502    0  0.00000000000E+00  0.00000000000E+00  0.12557439609E+04  0.12557439609E+04  0.00000000000E+00 0. -1.
          1   -1    0    0  501    0 -0.00000000000E+00 -0.00000000000E+00 -0.32566911643E+03  0.32566911643E+03  0.00000000000E+00 0. -1.
         25    2    1    2    0    0  0.26614930958E+01  0.77961744375E+02  0.10832149575E+02  0.14774008939E+03  0.12499872566E+03 0.  0.
          2    1    1    2  501    0 -0.29797928826E+02 -0.11262000588E+02 -0.25512181079E+03  0.25710287350E+03  0.00000000000E+00 0. -1.
          1    1    1    2  502    0  0.27136435730E+02 -0.66699743786E+02  0.11743645057E+04  0.11765701145E+04  0.00000000000E+00 0. -1.
         22    1    3    3    0    0  0.32734547637E+02  0.10019337377E+03 -0.83010570830E+01  0.10573159558E+03  0.00000000000E+00 0.  1.
         22    1    3    3    0    0 -0.30073054541E+02 -0.22231629394E+02  0.19133206658E+02  0.42008493807E+02  0.00000000000E+00 0.  1.
</event>
<event>
 7    1  0.6173324E-006  0.1173984E+03  0.7818608E-02  0.1422431E+00
          2   -1    0    0  502    0  0.00000000000E+00  0.00000000000E+00  0.30861329415E+03  0.30861329415E+03  0.00000000000E+00 0. -1.
          1   -1    0    0  501    0 -0.00000000000E+00 -0.00000000000E+00 -0.67645086447E+03  0.67645086447E+03  0.00000000000E+00 0. -1.
         25    2    1    2    0    0 -0.12646711754E+03  0.59927256034E+02 -0.32516966547E+03  0.37542629317E+03  0.12499752969E+03 0.  0.
          2    1    1    2  501    0  0.25230713211E+02 -0.19985663181E+01 -0.31362388237E+03  0.31464348515E+03  0.00000000000E+00 0. -1.
          1    1    1    2  502    0  0.10123640433E+03 -0.57928689716E+02  0.27095597752E+03  0.29499438030E+03  0.00000000000E+00 0. -1.
         22    1    3    3    0    0 -0.35007779353E+02  0.57087957326E+02 -0.44972779795E+02  0.80666786284E+02  0.00000000000E+00 0.  1.
         22    1    3    3    0    0 -0.91459338191E+02  0.28392987080E+01 -0.28019688567E+03  0.29475950689E+03  0.00000000000E+00 0.  1.
</event>
<event>
 7    1  0.6173324E-006  0.1601317E+03  0.7818608E-02  0.1288480E+00
          2   -1    0    0  502    0  0.00000000000E+00  0.00000000000E+00  0.60850777015E+03  0.60850777015E+03  0.00000000000E+00 0. -1.
          1   -1    0    0  501    0 -0.00000000000E+00 -0.00000000000E+00 -0.28555543404E+04  0.28555543404E+04  0.00000000000E+00 0. -1.
         25    2    1    2    0    0 -0.19729790357E+02  0.15985937894E+03  0.19599534761E+03  0.28280180352E+03  0.12497358972E+03 0.  0.
          2    1    1    2  501    0  0.74630486758E+02 -0.14177846130E+03 -0.28075901533E+04  0.28121581233E+04  0.00000000000E+00 0. -1.
          1    1    1    2  502    0 -0.54900696401E+02 -0.18080917637E+02  0.36454823545E+03  0.36910218370E+03  0.00000000000E+00 0. -1.
         22    1    3    3    0    0  0.39357256256E+02  0.81589727369E+02  0.41105825302E+02  0.99476460059E+02  0.00000000000E+00 0. -1.
         22    1    3    3    0    0 -0.59087046612E+02  0.78269651570E+02  0.15488952230E+03  0.18332534346E+03  0.00000000000E+00 0. -1.
</event>
<event>
 7    1  0.6173324E-006  0.3965799E+02  0.7818608E-02  0.1603108E+00
          2   -1    0    0  502    0  0.00000000000E+00  0.00000000000E+00  0.16415694335E+04  0.16415694335E+04  0.00000000000E+00 0. -1.
          1   -1    0    0  501    0 -0.00000000000E+00 -0.00000000000E+00 -0.48551496972E+02  0.48551496972E+02  0.00000000000E+00 0. -1.
         25    2    1    2    0    0  0.15342254105E+02 -0.25344006420E+02  0.28858785104E+03  0.31589076013E+03  0.12500528447E+03 0.  0.
          2    1    1    2  501    0  0.20587648957E+02  0.78104589628E+01 -0.31097712267E+02  0.38104097772E+02  0.00000000000E+00 0. -1.
          1    1    1    2  502    0 -0.35929903062E+02  0.17533547457E+02  0.13355277978E+04  0.13361260726E+04  0.00000000000E+00 0. -1.
         22    1    3    3    0    0 -0.40602893958E+02 -0.52102818943E+02  0.13640919469E+03  0.15156110034E+03  0.00000000000E+00 0.  1.
         22    1    3    3    0    0  0.55945148063E+02  0.26758812524E+02  0.15217865635E+03  0.16432965980E+03  0.00000000000E+00 0.  1.
</event>
<event>
 7    1  0.6173324E-006  0.7347006E+02  0.7818608E-02  0.1489208E+00
          2   -1    0    0  502    0  0.00000000000E+00  0.00000000000E+00  0.11974871914E+04  0.11974871914E+04  0.00000000000E+00 0. -1.
          1   -1    0    0  501    0 -0.00000000000E+00 -0.00000000000E+00 -0.23963321528E+03  0.23963321528E+03  0.00000000000E+00 0. -1.
         25    2    1    2    0    0  0.40546365826E+02 -0.37811867481E+02  0.26958756048E+03  0.30228512867E+03  0.12500040459E+03 0.  0.
          2    1    1    2  501    0  0.24817998409E+02  0.39183010642E+00 -0.22103280174E+03  0.22242208978E+03  0.00000000000E+00 0. -1.
          1    1    1    2  502    0 -0.65364364235E+02  0.37420037374E+02  0.90929921735E+03  0.91241318819E+03  0.00000000000E+00 0. -1.
         22    1    3    3    0    0  0.70944351355E+00  0.14571683848E+01  0.23807734342E+03  0.23808285974E+03  0.00000000000E+00 0.  1.
         22    1    3    3    0    0  0.39836922313E+02 -0.39269035865E+02  0.31510217054E+02  0.64202268931E+02  0.00000000000E+00 0.  1.
</event>
<event>
 7    1  0.6173324E-006  0.4207079E+02  0.7818608E-02  0.1560853E+00
          2   -1    0    0  502    0  0.00000000000E+00  0.00000000000E+00  0.20736165675E+03  0.20736165675E+03  0.00000000000E+00 0. -1.
          1   -1    0    0  501    0 -0.00000000000E+00 -0.00000000000E+00 -0.39388728257E+03  0.39388728257E+03  0.00000000000E+00 0. -1.
         25    2    1    2    0    0 -0.27317401485E+02  0.55505100102E+02 -0.85658446571E+02  0.16367414695E+03  0.12499920139E+03 0.  0.
          2    1    1    2  501    0  0.29844563049E+02 -0.28696805200E+02 -0.26653568605E+03  0.26973223113E+03  0.00000000000E+00 0. -1.
          1    1    1    2  502    0 -0.25271615640E+01 -0.26808294902E+02  0.16566850679E+03  0.16784256124E+03  0.00000000000E+00 0. -1.
         22    1    3    3    0    0 -0.77102767907E+02  0.24937456704E+02 -0.48625805491E+02  0.94504933868E+02  0.00000000000E+00 0.  1.
         22    1    3    3    0    0  0.49785366422E+02  0.30567643398E+02 -0.37032641080E+02  0.69169213079E+02  0.00000000000E+00 0.  1.
</event>
<event>
 7    1  0.6173324E-006  0.6355386E+02  0.7818608E-02  0.1460341E+00
          2   -1    0    0  502    0  0.00000000000E+00  0.00000000000E+00  0.78227258955E+02  0.78227258955E+02  0.00000000000E+00 0. -1.
          1   -1    0    0  501    0 -0.00000000000E+00 -0.00000000000E+00 -0.88067797971E+03  0.88067797971E+03  0.00000000000E+00 0. -1.
         25    2    1    2    0    0  0.39337909723E+02 -0.33377174160E+02 -0.27606866390E+02  0.13802781762E+03  0.12501212929E+03 0.  0.
          2    1    1    2  501    0 -0.63559913453E+02  0.77855469574E+01 -0.78225338620E+03  0.78486994946E+03  0.00000000000E+00 0. -1.
          1    1    1    2  502    0  0.24222003730E+02  0.25591627202E+02  0.74095318378E+01  0.36007471581E+02  0.00000000000E+00 0. -1.
         22    1    3    3    0    0  0.10048848373E+02  0.15988491750E+02 -0.66212365540E+02  0.68852658427E+02  0.00000000000E+00 0. -1.
         22    1    3    3    0    0  0.29289061349E+02 -0.49365665910E+02  0.38605499150E+02  0.69175159198E+02  0.00000000000E+00 0. -1.
</event>
<event>
 7    1  0.6173324E-006  0.6028874E+02  0.7818608E-02  0.1431501E+00
          2   -1    0    0  502    0  0.00000000000E+00  0.00000000000E+00  0.42656443159E+03  0.42656443159E+03  0.00000000000E+00 0. -1.
          1   -1    0    0  501    0 -0.00000000000E+00 -0.00000000000E+00 -0.37243688586E+02  0.37243688586E+02  0.00000000000E+00 0. -1.
         25    2    1    2    0    0 -0.50372386031E+02  0.14300242473E+02  0.21862112626E+03  0.25722017675E+03  0.12500059307E+03 0.  0.
          2    1    1    2  501    0  0.62671347409E+02  0.30021285474E+02  0.11483818869E+03  0.13422661789E+03  0.00000000000E+00 0. -1.
          1    1    1    2  502    0 -0.12298961377E+02 -0.44321527947E+02  0.55861428054E+02  0.72361325545E+02  0.00000000000E+00 0. -1.
         22    1    3    3    0    0 -0.89456948268E+02  0.25934086324E+02  0.16924752121E+03  0.19318345132E+03  0.00000000000E+00 0. -1.
         22    1    3    3    0    0  0.39084562237E+02 -0.11633843851E+02  0.49373605049E+02  0.64036725428E+02  0.00000000000E+00 0. -1.
</event>
<event>
 7    1  0.6173324E-006  0.1356519E+03  0.7818608E-02  0.1405351E+00
          2   -1    0    0  502    0  0.00000000000E+00  0.00000000000E+00  0.25866607656E+03  0.25866607656E+03  0.00000000000E+00 0. -1.
          1   -1    0    0  501    0 -0.00000000000E+00 -0.00000000000E+00 -0.17060965986E+04  0.17060965986E+04  0.00000000000E+00 0. -1.
         25    2    1    2    0    0 -0.67351207404E+00 -0.13863889422E+03  0.55524302231E+02  0.19475580113E+03  0.12500270927E+03 0.  0.
          2    1    1    2  501    0  0.25103239067E+02  0.13329136962E+03 -0.16324722370E+04  0.16380971785E+04  0.00000000000E+00 0. -1.
          1    1    1    2  502    0 -0.24429726993E+02  0.53475245951E+01  0.12951741269E+03  0.13190969551E+03  0.00000000000E+00 0. -1.
         22    1    3    3    0    0 -0.29930489484E+01 -0.13966817914E+03  0.86082431662E+02  0.16409248504E+03  0.00000000000E+00 0. -1.
         22    1    3    3    0    0  0.23195368744E+01  0.10292849250E+01 -0.30558129431E+02  0.30663316081E+02  0.00000000000E+00 0. -1.
</event>
<event>
 7    1  0.6173324E-006  0.6206653E+02  0.7818608E-02  0.1482935E+00
          2   -1    0    0  502    0  0.00000000000E+00  0.00000000000E+00  0.66204456164E+02  0.66204456164E+02  0.00000000000E+00 0. -1.
          1   -1    0    0  501    0 -0.00000000000E+00 -0.00000000000E+00 -0.11077409408E+04  0.11077409408E+04  0.00000000000E+00 0. -1.
         25    2    1    2    0    0 -0.52325925169E+02 -0.12951927502E+02 -0.21175034928E+03  0.25173393620E+03  0.12500403731E+03 0.  0.
          2    1    1    2  501    0 -0.89395375385E+01  0.29370984418E+02 -0.85382844706E+03  0.85438023565E+03  0.00000000000E+00 0. -1.
          1    1    1    2  502    0  0.61265462707E+02 -0.16419056915E+02  0.24042311694E+02  0.67831225127E+02  0.00000000000E+00 0. -1.
         22    1    3    3    0    0 -0.75475759657E+02  0.11549977928E+02 -0.20303433892E+03  0.21691688516E+03  0.00000000000E+00 0. -1.
         22    1    3    3    0    0  0.23149834489E+02 -0.24501905431E+02 -0.87160103611E+01  0.34817051041E+02  0.00000000000E+00 0. -1.
</event>
<event>
 7    1  0.6173324E-006  0.2286830E+03  0.7818608E-02  0.1239916E+00
          2   -1    0    0  502    0  0.00000000000E+00  0.00000000000E+00  0.75807382231E+03  0.75807382231E+03  0.00000000000E+00 0. -1.
          1   -1    0    0  501    0 -0.00000000000E+00 -0.00000000000E+00 -0.43547356613E+03  0.43547356613E+03  0.00000000000E+00 0. -1.
         25    2    1    2    0    0  0.10943024908E+03  0.21219464365E+03  0.67438669348E+02  0.27780250879E+03  0.12499885422E+03 0.  0.
          2    1    1    2  501    0 -0.15576397891E+03 -0.16656286201E+03 -0.28875915949E+03  0.36795034491E+03  0.00000000000E+00 0. -1.
          1    1    1    2  502    0  0.46333729833E+02 -0.45631781644E+02  0.54392074632E+03  0.54779453475E+03  0.00000000000E+00 0. -1.
         22    1    3    3    0    0  0.65831757938E+02  0.42461779445E+02  0.66187112188E+02  0.10255514071E+03  0.00000000000E+00 0. -1.
         22    1    3    3    0    0  0.43598491144E+02  0.16973286421E+03  0.12515571600E+01  0.17524736808E+03  0.00000000000E+00 0. -1.
</event>
<event>
 7    1  0.6173324E-006  0.7900015E+02  0.7818608E-02  0.1355802E+00
          2   -1    0    0  502    0  0.00000000000E+00  0.00000000000E+00  0.15323008392E+04  0.15323008392E+04  0.00000000000E+00 0. -1.
          1   -1    0    0  501    0 -0.00000000000E+00 -0.00000000000E+00 -0.10392793709E+03  0.10392793709E+03  0.00000000000E+00 0. -1.
         25    2    1    2    0    0 -0.11234932987E+03  0.40602227581E+02  0.11719139078E+03  0.20887796978E+03  0.12500108552E+03 0.  0.
          2    1    1    2  501    0  0.49825273455E+02 -0.55650536941E+02 -0.32979092726E+02  0.81652683322E+02  0.00000000000E+00 0. -1.
          1    1    1    2  502    0  0.62524056418E+02  0.15048309360E+02  0.13441606040E+04  0.13456981232E+04  0.00000000000E+00 0. -1.
         22    1    3    3    0    0 -0.41281274521E+02  0.35578210656E+02  0.12581669960E+03  0.13711234298E+03  0.00000000000E+00 0. -1.
         22    1    3    3    0    0 -0.71068055352E+02  0.50240169250E+01 -0.86253088255E+01  0.71765626799E+02  0.00000000000E+00 0. -1.
</event>
<event>
 7    1  0.6173324E-006  0.4560353E+02  0.7818608E-02  0.1530637E+00
          2   -1    0    0  502    0  0.00000000000E+00  0.00000000000E+00  0.25636769876E+03  0.25636769876E+03  0.00000000000E+00 0. -1.
          1   -1    0    0  501    0 -0.00000000000E+00 -0.00000000000E+00 -0.56803452666E+03  0.56803452666E+03  0.00000000000E+00 0. -1.
         25    2    1    2    0    0  0.43561829153E+01 -0.73217155988E+02 -0.25290454433E+03  0.29148941357E+03  0.12500256564E+03 0.  0.
          2    1    1    2  501    0 -0.50438193063E+01  0.43029228102E+02 -0.29327821510E+03  0.29646090136E+03  0.00000000000E+00 0. -1.
          1    1    1    2  502    0  0.68763639096E+00  0.30187927886E+02  0.23451593153E+03  0.23645191049E+03  0.00000000000E+00 0. -1.
         22    1    3    3    0    0  0.45037378921E+02 -0.14450616291E+02 -0.26814598206E+02  0.54371026183E+02  0.00000000000E+00 0.  1.
         22    1    3    3    0    0 -0.40681196006E+02 -0.58766539697E+02 -0.22608994613E+03  0.23711838738E+03  0.00000000000E+00 0.  1.
</event>
<event>
 7    1  0.6173324E-006  0.4065664E+02  0.7818608E-02  0.1526734E+00
          2   -1    0    0  502    0  0.00000000000E+00  0.00000000000E+00  0.59840238094E+01  0.59840238094E+01  0.00000000000E+00 0. -1.
          1   -1    0    0  501    0 -0.00000000000E+00 -0.00000000000E+00 -0.31219149663E+04  0.31219149663E+04  0.00000000000E+00 0. -1.
         25    2    1    2    0    0  0.23794907358E+02 -0.34721301375E+02 -0.27327079239E+04  0.27358891258E+04  0.12499978044E+03 0.  0.
          2    1    1    2  501    0  0.90146585227E+01  0.46185109708E+02 -0.19433056266E+03  0.19994673294E+03  0.00000000000E+00 0. -1.
          1    1    1    2  502    0 -0.32809565881E+02 -0.11463808333E+02 -0.18889245598E+03  0.19206313139E+03  0.00000000000E+00 0. -1.
         22    1    3    3    0    0  0.37037205027E+02 -0.20044323099E+02 -0.26655406739E+04  0.26658733304E+04  0.00000000000E+00 0.  1.
         22    1    3    3    0    0 -0.13242297669E+02 -0.14676978276E+02 -0.67167249919E+02  0.70015795365E+02  0.00000000000E+00 0.  1.
</event>
<event>
 7    1  0.6173324E-006  0.4796592E+02  0.7818608E-02  0.1480038E+00
          2   -1    0    0  502    0  0.00000000000E+00  0.00000000000E+00  0.85100455253E+03  0.85100455253E+03  0.00000000000E+00 0. -1.
          1   -1    0    0  501    0 -0.00000000000E+00 -0.00000000000E+00 -0.93260410112E+02  0.93260410112E+02  0.00000000000E+00 0. -1.
         25    2    1    2    0    0  0.16642968205E+02 -0.85615896066E+02  0.19184008835E+03  0.24501990181E+03  0.12500025093E+03 0.  0.
          2    1    1    2  501    0 -0.83766123650E+01  0.39671513117E+02 -0.59554540084E+02  0.72046789188E+02  0.00000000000E+00 0. -1.
          1    1    1    2  502    0 -0.82663558403E+01  0.45944382949E+02  0.62545859415E+03  0.62719827165E+03  0.00000000000E+00 0. -1.
         22    1    3    3    0    0  0.65009369542E+02 -0.62961828129E+02  0.15711073292E+03  0.18131241637E+03  0.00000000000E+00 0. -1.
         22    1    3    3    0    0 -0.48366401336E+02 -0.22654067937E+02  0.34729355428E+02  0.63707485437E+02  0.00000000000E+00 0. -1.
</event>
<event>
 7    1  0.6173324E-006  0.6996115E+02  0.7818608E-02  0.1382565E+00
          2   -1    0    0  502    0  0.00000000000E+00  0.00000000000E+00  0.28219992155E+03  0.28219992155E+03  0.00000000000E+00 0. -1.
          1   -1    0    0  501    0 -0.00000000000E+00 -0.00000000000E+00 -0.38504150129E+03  0.38504150129E+03  0.00000000000E+00 0. -1.
         25    2    1    2    0    0 -0.10725980784E+01  0.88171800531E+02 -0.72704024901E+02  0.16936852831E+03  0.12499762506E+03 0.  0.
          2    1    1    2  501    0  0.46789455818E+02 -0.52201837367E+02 -0.25559384698E+03  0.26503301608E+03  0.00000000000E+00 0. -1.
          1    1    1    2  502    0 -0.45716857740E+02 -0.35969963164E+02  0.22545629214E+03  0.23283987845E+03  0.00000000000E+00 0. -1.
         22    1    3    3    0    0 -0.10746091514E+02  0.11760342833E+03 -0.72136948109E+02  0.13838274502E+03  0.00000000000E+00 0.  1.
         22    1    3    3    0    0  0.96734934354E+01 -0.29431627796E+02 -0.56707679195E+00  0.30985783289E+02  0.00000000000E+00 0.  1.
</event>
<event>
 7    1  0.6173324E-006  0.1057652E+03  0.7818608E-02  0.1302911E+00
          2   -1    0    0  502    0  0.00000000000E+00  0.00000000000E+00  0.90458314973E+03  0.90458314973E+03  0.00000000000E+00 0. -1.
          1   -1    0    0  501    0 -0.00000000000E+00 -0.00000000000E+00 -0.41935380032E+03  0.41935380032E+03  0.00000000000E+00 0. -1.
         25    2    1    2    0    0  0.10267018199E+03  0.12602086859E+03  0.26384524257E+03  0.33416044064E+03  0.12500584976E+03 0.  0.
          2    1    1    2  501    0 -0.91831212569E+02 -0.50248882919E+02 -0.37457235273E+03  0.38892463186E+03  0.00000000000E+00 0. -1.
          1    1    1    2  502    0 -0.10838969418E+02 -0.75771985666E+02  0.59595645956E+03  0.60085187755E+03  0.00000000000E+00 0. -1.
         22    1    3    3    0    0  0.39808317811E+02 -0.17916978297E+02  0.88983661046E+02  0.99115146226E+02  0.00000000000E+00 0. -1.
         22    1    3    3    0    0  0.62861864176E+02  0.14393784688E+03  0.17486158152E+03  0.23504529441E+03  0.00000000000E+00 0. -1.
</event>
<event>
 7    1  0.6173324E-006  0.6778309E+02  0.7818608E-02  0.1404623E+00
          2   -1    0    0  502    0  0.00000000000E+00  0.00000000000E+00  0.23695761201E+03  0.23695761201E+03  0.00000000000E+00 0. -1.
          1   -1    0    0  501    0 -0.00000000000E+00 -0.00000000000E+00 -0.18537036882E+03  0.18537036882E+03  0.00000000000E+00 0. -1.
         25    2    1    2    0    0  0.71128319899E+02  0.79408491513E+02 -0.44217937781E+02  0.17013473523E+03  0.12500262275E+03 0.  0.
          2    1    1    2  501    0 -0.27698506580E+02 -0.53963391215E+02 -0.61890926452E+02  0.86658765484E+02  0.00000000000E+00 0. -1.
          1    1    1    2  502    0 -0.43429813319E+02 -0.25445100298E+02  0.15769610742E+03  0.16553448012E+03  0.00000000000E+00 0. -1.
         22    1    3    3    0    0  0.20333001217E+01  0.35914891500E+02  0.39342789126E+02  0.53309181170E+02  0.00000000000E+00 0.  1.
         22    1    3    3    0    0  0.69095019778E+02  0.43493600013E+02 -0.83560726907E+02  0.11682555406E+03  0.00000000000E+00 0.  1.
</event>
<event>
 7    1  0.6173324E-006  0.1067487E+03  0.7818608E-02  0.1382617E+00
          2   -1    0    0  502    0  0.00000000000E+00  0.00000000000E+00  0.22692141459E+04  0.22692141459E+04  0.00000000000E+00 0. -1.
          1   -1    0    0  501    0 -0.00000000000E+00 -0.00000000000E+00 -0.18160913462E+02  0.18160913462E+02  0.00000000000E+00 0. -1.
         25    2    1    2    0    0 -0.95471373554E+02 -0.63526488036E+02  0.81893751612E+03  0.83632169625E+03  0.12499970584E+03 0.  0.
          2    1    1    2  501    0  0.31636557496E+02 -0.21245319780E+02  0.41301124285E+02  0.56196247650E+02  0.00000000000E+00 0. -1.
          1    1    1    2  502    0  0.63834816058E+02  0.84771807816E+02  0.13908145921E+04  0.13948571155E+04  0.00000000000E+00 0. -1.
         22    1    3    3    0    0 -0.94411620769E+02 -0.85561739300E+02  0.47860037185E+03  0.49527031135E+03  0.00000000000E+00 0.  1.
         22    1    3    3    0    0 -0.10597527857E+01  0.22035251263E+02  0.34033714426E+03  0.34105138490E+03  0.00000000000E+00 0.  1.
</event>
<event>
 7    1  0.6173324E-006  0.1531235E+03  0.7818608E-02  0.1319460E+00
          2   -1    0    0  502    0  0.00000000000E+00  0.00000000000E+00  0.12253709910E+03  0.12253709910E+03  0.00000000000E+00 0. -1.
          1   -1    0    0  501    0 -0.00000000000E+00 -0.00000000000E+00 -0.12694957184E+04  0.12694957184E+04  0.00000000000E+00 0. -1.
         25    2    1    2    0    0  0.90710778609E+02 -0.16155312844E+03 -0.13739096396E+03  0.26235501240E+03  0.12500406748E+03 0.  0.
          2    1    1    2  501    0 -0.24962120955E+02  0.38053223982E+02 -0.98689236983E+03  0.98794114448E+03  0.00000000000E+00 0. -1.
          1    1    1    2  502    0 -0.65748657654E+02  0.12349990446E+03 -0.22675285491E+02  0.14173666060E+03  0.00000000000E+00 0. -1.
         22    1    3    3    0    0  0.87172843924E+02 -0.41747521417E+02 -0.29408245138E+02  0.10102873425E+03  0.00000000000E+00 0.  1.
         22    1    3    3    0    0  0.35379346849E+01 -0.11980560703E+03 -0.10798271883E+03  0.16132627815E+03  0.00000000000E+00 0.  1.
</event>
<event>
 7    1  0.6173324E-006  0.1000110E+03  0.7818608E-02  0.1310947E+00
          2   -1    0    0  502    0  0.00000000000E+00  0.00000000000E+00  0.37168495465E+03  0.37168495465E+03  0.00000000000E+00 0. -1.
          1   -1    0    0  501    0 -0.00000000000E+00 -0.00000000000E+00 -0.31237945915E+03  0.31237945915E+03  0.00000000000E+00 0. -1.
         25    2    1    2    0    0  0.57321067459E+02  0.13758118449E+02 -0.40158071075E+02  0.14391874460E+03  0.12499977510E+03 0.  0.
          2    1    1    2  501    0  0.33573806746E+02 -0.67320506480E+02 -0.20476297754E+03  0.21814474108E+03  0.00000000000E+00 0. -1.
          1    1    1    2  502    0 -0.90894874205E+02  0.53562388031E+02  0.30422654411E+03  0.32200092812E+03  0.00000000000E+00 0. -1.
         22    1    3    3    0    0  0.23135546977E+02  0.17761959316E+02 -0.83572278672E+02  0.88515910972E+02  0.00000000000E+00 0. -1.
         22    1    3    3    0    0  0.34185520483E+02 -0.40038408672E+01  0.43414207598E+02  0.55402833625E+02  0.00000000000E+00 0. -1.
</event>
<event>
 7    1  0.6173324E-006  0.9358706E+02  0.7818608E-02  0.1354422E+00
          2   -1    0    0  502    0  0.00000000000E+00  0.00000000000E+00  0.15348126924E+04  0.15348126924E+04  0.00000000000E+00 0. -1.
          1   -1    0    0  501    0 -0.00000000000E+00 -0.00000000000E+00 -0.98301314266E+03  0.98301314266E+03  0.00000000000E+00 0. -1.
         25    2    1    2    0    0 -0.51357154418E+02 -0.10133834848E+03  0.85497041420E+02  0.18932055559E+03  0.12500204196E+03 0.  0.
          2    1    1    2  501    0  0.54339159559E+02  0.79951288127E+01 -0.92872877956E+03  0.93035144560E+03  0.00000000000E+00 0. -1.
          1    1    1    2  502    0 -0.29820051409E+01  0.93343219670E+02  0.13950312879E+04  0.13981538339E+04  0.00000000000E+00 0. -1.
         22    1    3    3    0    0  0.23211520314E+02 -0.81587419255E+02  0.71460482116E+02  0.11091385017E+03  0.00000000000E+00 0.  1.
         22    1    3    3    0    0 -0.74568674733E+02 -0.19750929228E+02  0.14036559304E+02  0.78406705414E+02  0.00000000000E+00 0.  1.
</event>
<event>
 7    1  0.6173324E-006  0.9174589E+02  0.7818608E-02  0.1356274E+00
          2   -1    0    0  502    0  0.00000000000E+00  0.00000000000E+00  0.25940231957E+03  0.25940231957E+03  0.00000000000E+00 0. -1.
          1   -1    0    0  501    0 -0.00000000000E+00 -0.00000000000E+00 -0.13873573191E+04  0.13873573191E+04  0.00000000000E+00 0. -1.
         25    2    1    2    0    0 -0.61668432331E+02 -0.50933448437E+02 -0.69052943762E+03  0.70629689061E+03  0.12500872669E+03 0.  0.
          2    1    1    2  501    0  0.31237670515E+02  0.96934157120E+02 -0.68209369783E+03  0.68965486694E+03  0.00000000000E+00 0. -1.
          1    1    1    2  502    0  0.30430761816E+02 -0.46000708683E+02  0.24466813596E+03  0.25080788109E+03  0.00000000000E+00 0. -1.
         22    1    3    3    0    0 -0.61964382615E+02 -0.77454179392E+02 -0.32483031788E+03  0.33963726243E+03  0.00000000000E+00 0.  1.
         22    1    3    3    0    0  0.29595028396E+00  0.26520730955E+02 -0.36569911974E+03  0.36665962818E+03  0.00000000000E+00 0.  1.
</event>
<event>
 7    1  0.6173324E-006  0.2236357E+03  0.7818608E-02  0.1208063E+00
          2   -1    0    0  502    0  0.00000000000E+00  0.00000000000E+00  0.22266483312E+04  0.22266483312E+04  0.00000000000E+00 0. -1.
          1   -1    0    0  501    0 -0.00000000000E+00 -0.00000000000E+00 -0.19801628736E+03  0.19801628736E+03  0.00000000000E+00 0. -1.
         25    2    1    2    0    0  0.22933276464E+02  0.26480500041E+03  0.53832405931E+03  0.61324077316E+03  0.12499531840E+03 0.  0.
          2    1    1    2  501    0 -0.89788928009E+02 -0.20058200671E+03 -0.83350375373E+02  0.23503718447E+03  0.00000000000E+00 0. -1.
          1    1    1    2  502    0  0.66855651545E+02 -0.64222993696E+02  0.15736583599E+04  0.15763866610E+04  0.00000000000E+00 0. -1.
         22    1    3    3    0    0 -0.69777079708E+00  0.23174682685E+03  0.34445115609E+03  0.41515500427E+03  0.00000000000E+00 0. -1.
         22    1    3    3    0    0  0.23631047261E+02  0.33058173562E+02  0.19387290322E+03  0.19808576889E+03  0.00000000000E+00 0. -1.
</event>
<event>
 7    1  0.6173324E-006  0.1345597E+03  0.7818608E-02  0.1412856E+00
          2   -1    0    0  502    0  0.00000000000E+00  0.00000000000E+00  0.10416392547E+04  0.10416392547E+04  0.00000000000E+00 0. -1.
          1   -1    0    0  501    0 -0.00000000000E+00 -0.00000000000E+00 -0.33781581966E+03  0.33781581966E+03  0.00000000000E+00 0. -1.
         25    2    1    2    0    0  0.40551043541E+02  0.10692191680E+03  0.70494501792E+02  0.18349656611E+03  0.12499932626E+03 0.  0.
          2    1    1    2  501    0 -0.13764556532E+01  0.23735386774E+02 -0.27571476604E+03  0.27673795444E+03  0.00000000000E+00 0. -1.
          1    1    1    2  502    0 -0.39174587887E+02 -0.13065730358E+03  0.90904369927E+03  0.91922055379E+03  0.00000000000E+00 0. -1.
         22    1    3    3    0    0  0.25372386950E+01  0.54324843791E+01  0.74796231391E+02  0.75036162595E+02  0.00000000000E+00 0. -1.
         22    1    3    3    0    0  0.38013804846E+02  0.10148943242E+03 -0.43017295987E+01  0.10846040351E+03  0.00000000000E+00 0. -1.
</event>
<event>
 7    1  0.6173324E-006  0.4692225E+02  0.7818608E-02  0.1467306E+00
          2   -1    0    0  502    0  0.00000000000E+00  0.00000000000E+00  0.60186518693E+02  0.60186518693E+02  0.00000000000E+00 0. -1.
          1   -1    0    0  501    0 -0.00000000000E+00 -0.00000000000E+00 -0.28428618163E+04  0.28428618163E+04  0.00000000000E+00 0. -1.
         25    2    1    2    0    0  0.37508112911E+02 -0.21748692317E+02 -0.12728947384E+03  0.18359516952E+03  0.12499884787E+03 0.  0.
          2    1    1    2  501    0 -0.35776945447E+02 -0.27923860995E+02 -0.26678302337E+04  0.26682162371E+04  0.00000000000E+00 0. -1.
          1    1    1    2  502    0 -0.17311674640E+01  0.49672553312E+02  0.12444409948E+02  0.51236928404E+02  0.00000000000E+00 0. -1.
         22    1    3    3    0    0  0.74424769757E+02  0.11407124140E+02 -0.10498225356E+03  0.12919149506E+03  0.00000000000E+00 0.  1.
         22    1    3    3    0    0 -0.36916656846E+02 -0.33155816457E+02 -0.22307220282E+02  0.54403674456E+02  0.00000000000E+00 0.  1.
</event>
<event>
 7    1  0.6173324E-006  0.1480499E+03  0.7818608E-02  0.1253938E+00
          2   -1    0    0  502    0  0.00000000000E+00  0.00000000000E+00  0.16570905395E+04  0.16570905395E+04  0.00000000000E+00 0. -1.
          1   -1    0    0  501    0 -0.00000000000E+00 -0.00000000000E+00 -0.39355811089E+03  0.39355811089E+03  0.00000000000E+00 0. -1.
         25    2    1    2    0    0  0.84039369346E+02  0.15858935401E+03 -0.31009238188E+02  0.22090688981E+03  0.12500032923E+03 0.  0.
          2    1    1    2  501    0  0.39653083035E+02 -0.77728530448E+02 -0.25688103130E+03  0.27129680367E+03  0.00000000000E+00 0. -1.
          1    1    1    2  502    0 -0.12369245238E+03 -0.80860823561E+02  0.15514226981E+04  0.15584449570E+04  0.00000000000E+00 0. -1.
         22    1    3    3    0    0  0.54225221822E+02  0.81707084667E+02  0.45785188849E+02  0.10822525530E+03  0.00000000000E+00 0. -1.
         22    1    3    3    0    0  0.29814147524E+02  0.76882269342E+02 -0.76794427037E+02  0.11268163451E+03  0.00000000000E+00 0. -1.
</event>
<event>
 7    1  0.6173324E-006  0.9149484E+02  0.7818608E-02  0.1361090E+00
          2   -1    0    0  502    0  0.00000000000E+00  0.00000000000E+00  0.18594172023E+04  0.18594172023E+04  0.00000000000E+00 0. -1.
          1   -1    0    0  501    0 -0.00000000000E+00 -0.00000000000E+00 -0.17574231547E+03  0.17574231547E+03  0.00000000000E+00 0. -1.
         25    2    1    2    0    0  0.68720606227E+02  0.31948366615E+02 -0.80009171897E+02  0.16663878183E+03  0.12499518460E+03 0.  0.
          2    1    1    2  501    0  0.21541611001E+02 -0.48543646812E+02 -0.37491389699E+02  0.65008699048E+02  0.00000000000E+00 0. -1.
          1    1    1    2  502    0 -0.90262217227E+02  0.16595280197E+02  0.18011754484E+04  0.18035120369E+04  0.00000000000E+00 0. -1.
         22    1    3    3    0    0  0.71371628568E+02 -0.34723256010E+02 -0.40714358994E+02  0.89203547579E+02  0.00000000000E+00 0. -1.
         22    1    3    3    0    0 -0.26510223415E+01  0.66671622625E+02 -0.39294812903E+02  0.77435234254E+02  0.00000000000E+00 0. -1.
</event>
<event>
 7    1  0.6173324E-006  0.1301859E+03  0.7818608E-02  0.1276762E+00
          2   -1    0    0  502    0  0.00000000000E+00  0.00000000000E+00  0.13251616938E+04  0.13251616938E+04  0.00000000000E+00 0. -1.
          1   -1    0    0  501    0 -0.00000000000E+00 -0.00000000000E+00 -0.46972936190E+03  0.46972936190E+03  0.00000000000E+00 0. -1.
         25    2    1    2    0    0 -0.89354125627E+01  0.10306521477E+03  0.29885980217E+03  0.34006672282E+03  0.12500365803E+03 0.  0.
          2    1    1    2  501    0  0.88200289888E+02 -0.97692549502E+02 -0.43786482927E+03  0.45721847521E+03  0.00000000000E+00 0. -1.
          1    1    1    2  502    0 -0.79264877325E+02 -0.53726652734E+01  0.99443735898E+03  0.99760585766E+03  0.00000000000E+00 0. -1.
         22    1    3    3    0    0 -0.19079335046E+02  0.12992184308E+02 -0.44453407033E+01  0.23506997529E+02  0.00000000000E+00 0.  1.
         22    1    3    3    0    0  0.10143922483E+02  0.90073030467E+02  0.30330514288E+03  0.31655972529E+03  0.00000000000E+00 0.  1.
</event>
<event>
 7    1  0.6173324E-006  0.2725654E+02  0.7818608E-02  0.1644162E+00
          2   -1    0    0  502    0  0.00000000000E+00  0.00000000000E+00  0.14220626606E+04  0.14220626606E+04  0.00000000000E+00 0. -1.
          1   -1    0    0  501    0 -0.00000000000E+00 -0.00000000000E+00 -0.45537925184E+02  0.45537925184E+02  0.00000000000E+00 0. -1.
         25    2    1    2    0    0  0.48999852898E+02  0.13810035072E+02  0.55426389248E+03  0.57045918545E+03  0.12499406826E+03 0.  0.
          2    1    1    2  501    0 -0.25138859296E+02 -0.18930114702E+01 -0.32964957604E+02  0.41499809264E+02  0.00000000000E+00 0. -1.
          1    1    1    2  502    0 -0.23860993602E+02 -0.11917023601E+02  0.85522580050E+03  0.85564159104E+03  0.00000000000E+00 0. -1.
         22    1    3    3    0    0  0.30063678194E+02  0.61685592607E+02  0.43749567153E+03  0.44284466767E+03  0.00000000000E+00 0.  1.
         22    1    3    3    0    0  0.18936174704E+02 -0.47875557536E+02  0.11676822095E+03  0.12761451777E+03  0.00000000000E+00 0.  1.
</event>
<event>
 7    1  0.6173324E-006  0.2012767E+03  0.7818608E-02  0.1349072E+00
          2   -1    0    0  502    0  0.00000000000E+00  0.00000000000E+00  0.23144658220E+03  0.23144658220E+03  0.00000000000E+00 0. -1.
          1   -1    0    0  501    0 -0.00000000000E+00 -0.00000000000E+00 -0.24267084249E+04  0.24267084249E+04  0.00000000000E+00 0. -1.
         25    2    1    2    0    0 -0.18496444794E+03 -0.63476585860E+02 -0.53961826770E+03  0.58741020021E+03  0.12498697738E+03 0.  0.
          2    1    1    2  501    0  0.41618441114E+01 -0.26401162176E+02 -0.18139668420E+04  0.18141637319E+04  0.00000000000E+00 0. -1.
          1    1    1    2  502    0  0.18080260383E+03  0.89877748036E+02  0.15832326702E+03  0.25658107496E+03  0.00000000000E+00 0. -1.
         22    1    3    3    0    0 -0.17158379040E+03 -0.88859560109E+02 -0.51333633478E+03  0.54849905301E+03  0.00000000000E+00 0. -1.
         22    1    3    3    0    0 -0.13380657547E+02  0.25382974249E+02 -0.26281932928E+02  0.38911147202E+02  0.00000000000E+00 0. -1.
</event>
<event>
 7    1  0.6173324E-006  0.8567755E+02  0.7818608E-02  0.1387819E+00
          2   -1    0    0  502    0  0.00000000000E+00  0.00000000000E+00  0.84414133789E+03  0.84414133789E+03  0.00000000000E+00 0. -1.
          1   -1    0    0  501    0 -0.00000000000E+00 -0.00000000000E+00 -0.40726168228E+03  0.40726168228E+03  0.00000000000E+00 0. -1.
         25    2    1    2    0    0  0.15409491463E+02  0.52256349450E+02  0.96843616273E+02  0.16725028573E+03  0.12500317427E+03 0.  0.
          2    1    1    2  501    0  0.15452018972E+02 -0.85721636938E+02 -0.36621750610E+03  0.37643356080E+03  0.00000000000E+00 0. -1.
          1    1    1    2  502    0 -0.30861510434E+02  0.33465287488E+02  0.70625354543E+03  0.70771917363E+03  0.00000000000E+00 0. -1.
         22    1    3    3    0    0 -0.26600595454E+01 -0.36777008004E+02  0.57367484423E+02  0.68195692705E+02  0.00000000000E+00 0. -1.
         22    1    3    3    0    0  0.18069551008E+02  0.89033357454E+02  0.39476131851E+02  0.99054593024E+02  0.00000000000E+00 0. -1.
</event>
<event>
 7    1  0.1151955E-005  0.8297177E+02  0.7818608E-02  0.1344026E+00
          2   -1    0    0  502    0  0.00000000000E+00  0.00000000000E+00  0.18091278585E+04  0.18091278585E+04  0.00000000000E+00 0. -1.
          1   -1    0    0  501    0 -0.00000000000E+00 -0.00000000000E+00 -0.13338810061E+04  0.13338810061E+04  0.00000000000E+00 0. -1.
         25    2    1    2    0    0 -0.15410397128E+02 -0.11582320081E+02 -0.11284610361E+03  0.16950381293E+03  0.12500267605E+03 0.  0.
          2    1    1    2  501    0  0.57889669062E+02  0.64301776545E+02 -0.11904920181E+04  0.11936319271E+04  0.00000000000E+00 0. -1.
          1    1    1    2  502    0 -0.42479271934E+02 -0.52719456464E+02  0.17785849741E+04  0.17798731246E+04  0.00000000000E+00 0. -1.
         22    1    3    3    0    0 -0.26546496684E+02 -0.60921097573E+02 -0.94860214776E+02  0.11582122846E+03  0.00000000000E+00 0.  1.
         22    1    3    3    0    0  0.11136099556E+02  0.49338777492E+02 -0.17985888838E+02  0.53682584466E+02  0.00000000000E+00 0.  1.
</event>
<event>
 7    1  0.6173324E-006  0.7293703E+02  0.7818608E-02  0.1355530E+00
          2   -1    0    0  502    0  0.00000000000E+00  0.00000000000E+00  0.14385286149E+04  0.14385286149E+04  0.00000000000E+00 0. -1.
          1   -1    0    0  501    0 -0.00000000000E+00 -0.00000000000E+00 -0.49094004237E+03  0.49094004237E+03  0.00000000000E+00 0. -1.
         25    2    1    2    0    0  0.58123318259E+02  0.16233062337E+02 -0.54113337503E+02  0.14897912983E+03  0.12499878156E+03 0.  0.
          2    1    1    2  501    0 -0.42443654628E+02  0.55433306042E+02 -0.38528717831E+03  0.39156164905E+03  0.00000000000E+00 0. -1.
          1    1    1    2  502    0 -0.15679663631E+02 -0.71666368379E+02  0.13869890884E+04  0.13889278784E+04  0.00000000000E+00 0. -1.
         22    1    3    3    0    0 -0.36184095264E+02  0.11425978054E+02  0.39117461751E+01  0.38146342980E+02  0.00000000000E+00 0.  1.
         22    1    3    3    0    0  0.94307413523E+02  0.48070842832E+01 -0.58025083678E+02  0.11083278685E+03  0.00000000000E+00 0.  1.
</event>
<event>
 7    1  0.6173324E-006  0.6246060E+02  0.7818608E-02  0.1433869E+00
          2   -1    0    0  502    0  0.00000000000E+00  0.00000000000E+00  0.19984122202E+04  0.19984122202E+04  0.00000000000E+00 0. -1.
          1   -1    0    0  501    0 -0.00000000000E+00 -0.00000000000E+00 -0.15511261465E+03  0.15511261465E+03  0.00000000000E+00 0. -1.
         25    2    1    2    0    0  0.79460979442E+01  0.22231375767E+02  0.45420970511E+02  0.13507432767E+03  0.12499853956E+03 0.  0.
          2    1    1    2  501    0 -0.13428366454E+02 -0.65495674286E+02 -0.99879599682E+02  0.12019125928E+03  0.00000000000E+00 0. -1.
          1    1    1    2  502    0  0.54822685101E+01  0.43264298518E+02  0.18977582347E+04  0.18982592479E+04  0.00000000000E+00 0. -1.
         22    1    3    3    0    0 -0.48926529896E+02 -0.79944720414E+01  0.50121386631E+02  0.70497307103E+02  0.00000000000E+00 0. -1.
         22    1    3    3    0    0  0.56872627840E+02  0.30225847809E+02 -0.47004161202E+01  0.64577020564E+02  0.00000000000E+00 0. -1.
</event>
<event>
 7    1  0.6173324E-006  0.4108836E+02  0.7818608E-02  0.1575541E+00
          2   -1    0    0  502    0  0.00000000000E+00  0.00000000000E+00  0.14521143429E+04  0.14521143429E+04  0.00000000000E+00 0. -1.
          1   -1    0    0  501    0 -0.00000000000E+00 -0.00000000000E+00 -0.26982409345E+03  0.26982409345E+03  0.00000000000E+00 0. -1.
         25    2    1    2    0    0 -0.28739897951E+02 -0.47871799187E+02  0.17782857031E+02  0.13805866560E+03  0.12500509690E+03 0.  0.
          2    1    1    2  501    0  0.24123811222E+02  0.70935575911E+01 -0.20862468701E+03  0.21013456845E+03  0.00000000000E+00 0. -1.
          1    1    1    2  502    0  0.46160867297E+01  0.40778241596E+02  0.13731320794E+04  0.13737452023E+04  0.00000000000E+00 0. -1.
         22    1    3    3    0    0  0.22383406968E+02  0.20012086975E+02  0.40195576277E+02  0.50171554539E+02  0.00000000000E+00 0.  1.
         22    1    3    3    0    0 -0.51123304919E+02 -0.67883886162E+02 -0.22412719247E+02  0.87887111059E+02  0.00000000000E+00 0.  1.
</event>
<event>
 7    1  0.6173324E-006  0.2506981E+03  0.7818608E-02  0.1117562E+00
          2   -1    0    0  502    0  0.00000000000E+00  0.00000000000E+00  0.22557157648E+04  0.22557157648E+04  0.00000000000E+00 0. -1.
          1   -1    0    0  501    0 -0.00000000000E+00 -0.00000000000E+00 -0.20964361147E+03  0.20964361147E+03  0.00000000000E+00 0. -1.
         25    2    1    2    0    0  0.12826915806E+03 -0.32842107080E+03  0.89843866239E+03  0.97320534154E+03  0.12499292003E+03 0.  0.
          2    1    1    2  501    0 -0.21180691465E+03  0.10470607685E+03 -0.73849565846E+02  0.24754654107E+03  0.00000000000E+00 0. -1.
          1    1    1    2  502    0  0.83537756581E+02  0.22371499395E+03  0.12214830568E+04  0.12446074937E+04  0.00000000000E+00 0. -1.
         22    1    3    3    0    0  0.68889026952E+02 -0.70509149999E+02  0.15132948015E+03  0.18060412462E+03  0.00000000000E+00 0.  1.
         22    1    3    3    0    0  0.59380131112E+02 -0.25791192080E+03  0.74710918225E+03  0.79260121692E+03  0.00000000000E+00 0.  1.
</event>
<event>
 7    1  0.6173324E-006  0.3004276E+02  0.7818608E-02  0.1620196E+00
          2   -1    0    0  502    0  0.00000000000E+00  0.00000000000E+00  0.10695161145E+03  0.10695161145E+03  0.00000000000E+00 0. -1.
          1   -1    0    0  501    0 -0.00000000000E+00 -0.00000000000E+00 -0.15694649401E+04  0.15694649401E+04  0.00000000000E+00 0. -1.
         25    2    1    2    0    0  0.59837448600E+01 -0.43342272215E+01  0.16580016795E+02  0.12631196931E+03  0.12500090362E+03 0.  0.
          2    1    1    2  501    0  0.25219006500E+02 -0.73456328988E+01 -0.15066433239E+04  0.15068722779E+04  0.00000000000E+00 0. -1.
          1    1    1    2  502    0 -0.31202751360E+02  0.11679860120E+02  0.27549978430E+02  0.43232304315E+02  0.00000000000E+00 0. -1.
         22    1    3    3    0    0  0.51299392771E+02 -0.41545030408E+02  0.27617985857E+01  0.66069999105E+02  0.00000000000E+00 0.  1.
         22    1    3    3    0    0 -0.45315647911E+02  0.37210803187E+02  0.13818218210E+02  0.60241970203E+02  0.00000000000E+00 0.  1.
</event>
<event>
 7    1  0.6173324E-006  0.1010739E+03  0.7818608E-02  0.1397855E+00
          2   -1    0    0  502    0  0.00000000000E+00  0.00000000000E+00  0.14850238565E+04  0.14850238565E+04  0.00000000000E+00 0. -1.
          1   -1    0    0  501    0 -0.00000000000E+00 -0.00000000000E+00 -0.15878876672E+03  0.15878876672E+03  0.00000000000E+00 0. -1.
         25    2    1    2    0    0  0.60566292288E+01 -0.12898141939E+03  0.56074679312E+02  0.18825998021E+03  0.12499824473E+03 0.  0.
          2    1    1    2  501    0 -0.14579879635E+02  0.94405415976E+02 -0.67786276433E+02  0.11713212509E+03  0.00000000000E+00 0. -1.
          1    1    1    2  502    0  0.85232504061E+01  0.34576003411E+02  0.13379466869E+04  0.13384205180E+04  0.00000000000E+00 0. -1.
         22    1    3    3    0    0 -0.24561087342E+02  0.52445220029E+01 -0.18958469138E+02  0.31467055383E+02  0.00000000000E+00 0.  1.
         22    1    3    3    0    0  0.30617716570E+02 -0.13422594139E+03  0.75033148449E+02  0.15679292483E+03  0.00000000000E+00 0.  1.
</event>
<event>
 7    1  0.6173324E-006  0.3987652E+02  0.7818608E-02  0.1513280E+00
          2   -1    0    0  502    0  0.00000000000E+00  0.00000000000E+00  0.42414899691E+02  0.42414899691E+02  0.00000000000E+00 0. -1.
          1   -1    0    0  501    0 -0.00000000000E+00 -0.00000000000E+00 -0.68565273485E+03  0.68565273485E+03  0.00000000000E+00 0. -1.
         25    2    1    2    0    0 -0.82080481777E+01  0.63782038561E+02 -0.24743969166E+03  0.28458076065E+03  0.12499715127E+03 0.  0.
          2    1    1    2  501    0 -0.17585397532E+02 -0.34552454505E+02 -0.40212863138E+03  0.40399326045E+03  0.00000000000E+00 0. -1.
          1    1    1    2  502    0  0.25793445710E+02 -0.29229584056E+02  0.63304878753E+01  0.39493613438E+02  0.00000000000E+00 0. -1.
         22    1    3    3    0    0  0.44977538002E+02  0.11296505266E+02 -0.31455056251E+02  0.56035796771E+02  0.00000000000E+00 0.  1.
         22    1    3    3    0    0 -0.53185586180E+02  0.52485533295E+02 -0.21598463541E+03  0.22854496388E+03  0.00000000000E+00 0.  1.
</event>
<event>
 7    1  0.6173324E-006  0.7040639E+02  0.7818608E-02  0.1415253E+00
          2   -1    0    0  502    0  0.00000000000E+00  0.00000000000E+00  0.25620512722E+04  0.25620512722E+04  0.00000000000E+00 0. -1.
          1   -1    0    0  501    0 -0.00000000000E+00 -0.00000000000E+00 -0.11555122741E+03  0.11555122741E+03  0.00000000000E+00 0. -1.
         25    2    1    2    0    0 -0.38484773484E+01  0.70602248001E+02  0.78739131807E+02  0.16377633358E+03  0.12499339327E+03 0.  0.
          2    1    1    2  501    0  0.45882624913E+02 -0.55687810029E+02 -0.54955145189E+02  0.90699588960E+02  0.00000000000E+00 0. -1.
          1    1    1    2  502    0 -0.42034147565E+02 -0.14914437971E+02  0.24227160581E+04  0.24231265770E+04  0.00000000000E+00 0. -1.
         22    1    3    3    0    0  0.19431473611E+02  0.10234832688E+03  0.54967875160E+02  0.11778891918E+03  0.00000000000E+00 0. -1.
         22    1    3    3    0    0 -0.23279950959E+02 -0.31746078875E+02  0.23771256648E+02  0.45987414400E+02  0.00000000000E+00 0. -1.
</event>
<event>
 7    1  0.6173324E-006  0.7810084E+02  0.7818608E-02  0.1498523E+00
          2   -1    0    0  502    0  0.00000000000E+00  0.00000000000E+00  0.12942768224E+04  0.12942768224E+04  0.00000000000E+00 0. -1.
          1   -1    0    0  501    0 -0.00000000000E+00 -0.00000000000E+00 -0.57149826020E+02  0.57149826020E+02  0.00000000000E+00 0. -1.
         25    2    1    2    0    0  0.35285705332E+02  0.56334693914E+02  0.10631736054E+03  0.17704781956E+03  0.12499548199E+03 0.  0.
          2    1    1    2  501    0  0.21774313416E+02 -0.22464117001E+01 -0.14575469755E+02  0.26298505829E+02  0.00000000000E+00 0. -1.
          1    1    1    2  502    0 -0.57060018748E+02 -0.54088282214E+02  0.11453851056E+04  0.11480803231E+04  0.00000000000E+00 0. -1.
         22    1    3    3    0    0 -0.11817957004E+02  0.54715366981E+02  0.11611968733E+03  0.12890778595E+03  0.00000000000E+00 0.  1.
         22    1    3    3    0    0  0.47103662336E+02  0.16193269328E+01 -0.98023267966E+01  0.48140033608E+02  0.00000000000E+00 0.  1.
</event>
<event>
 7    1  0.6173324E-006  0.5503849E+02  0.7818608E-02  0.1519252E+00
          2   -1    0    0  502    0  0.00000000000E+00  0.00000000000E+00  0.94757698784E+03  0.94757698784E+03  0.00000000000E+00 0. -1.
          1   -1    0    0  501    0 -0.00000000000E+00 -0.00000000000E+00 -0.38113545883E+03  0.38113545883E+03  0.00000000000E+00 0. -1.
         25    2    1    2    0    0  0.70540261652E+01  0.62162712304E+02  0.61927764238E+02  0.15288678507E+03  0.12500143591E+03 0.  0.
          2    1    1    2  501    0 -0.29137415058E+02 -0.46654536287E+02 -0.33318370555E+03  0.33769367237E+03  0.00000000000E+00 0. -1.
          1    1    1    2  502    0  0.22083388893E+02 -0.15508176017E+02  0.83769747032E+03  0.83813198923E+03  0.00000000000E+00 0. -1.
         22    1    3    3    0    0  0.34947915297E+02 -0.17618385260E+02 -0.11644557427E+02  0.40833319733E+02  0.00000000000E+00 0.  1.
         22    1    3    3    0    0 -0.27893889131E+02  0.79781097564E+02  0.73572321664E+02  0.11205346534E+03  0.00000000000E+00 0.  1.
</event>
<event>
 7    1  0.6173324E-006  0.8963479E+02  0.7818608E-02  0.1396652E+00
          2   -1    0    0  502    0  0.00000000000E+00  0.00000000000E+00  0.28057501231E+04  0.28057501231E+04  0.00000000000E+00 0. -1.
          1   -1    0    0  501    0 -0.00000000000E+00 -0.00000000000E+00 -0.19441313235E+03  0.19441313235E+03  0.00000000000E+00 0. -1.
         25    2    1    2    0    0  0.40069666695E+02  0.33879495297E+02  0.10777843004E+04  0.10862769003E+04  0.12500043016E+03 0.  0.
          2    1    1    2  501    0 -0.79895637081E+02 -0.41462976688E+02 -0.17926169360E+03  0.20059223826E+03  0.00000000000E+00 0. -1.
          1    1    1    2  502    0  0.39825970386E+02  0.75834813909E+01  0.17128143839E+04  0.17132941169E+04  0.00000000000E+00 0. -1.
         22    1    3    3    0    0 -0.12551625310E+01 -0.45324306976E+02  0.30640815427E+03  0.30974477435E+03  0.00000000000E+00 0. -1.
         22    1    3    3    0    0  0.41324829226E+02  0.79203802273E+02  0.77137614612E+03  0.77653212593E+03  0.00000000000E+00 0. -1.
</event>
<event>
 7    1  0.6173324E-006  0.5027028E+02  0.7818608E-02  0.1446682E+00
          2   -1    0    0  502    0  0.00000000000E+00  0.00000000000E+00  0.17486305079E+04  0.17486305079E+04  0.00000000000E+00 0. -1.
          1   -1    0    0  501    0 -0.00000000000E+00 -0.00000000000E+00 -0.45992895506E+03  0.45992895506E+03  0.00000000000E+00 0. -1.
         25    2    1    2    0    0  0.48735459647E+02  0.34902444449E+02  0.21203816700E+03  0.25333935994E+03  0.12500928516E+03 0.  0.
          2    1    1    2  501    0 -0.27617082553E+00 -0.49239000530E+02 -0.43747563382E+03  0.44023798749E+03  0.00000000000E+00 0. -1.
          1    1    1    2  502    0 -0.48459288821E+02  0.14336556081E+02  0.15141390197E+04  0.15149821155E+04  0.00000000000E+00 0. -1.
         22    1    3    3    0    0  0.67076869358E+02  0.58513800673E+02  0.20370182159E+03  0.22230070488E+03  0.00000000000E+00 0. -1.
         22    1    3    3    0    0 -0.18341409711E+02 -0.23611356224E+02  0.83363454038E+01  0.31038655055E+02  0.00000000000E+00 0. -1.
</event>
<event>
 7    1  0.6173324E-006  0.1134875E+03  0.7818608E-02  0.1306222E+00
          2   -1    0    0  502    0  0.00000000000E+00  0.00000000000E+00  0.73660557776E+03  0.73660557776E+03  0.00000000000E+00 0. -1.
          1   -1    0    0  501    0 -0.00000000000E+00 -0.00000000000E+00 -0.29674184739E+04  0.29674184739E+04  0.00000000000E+00 0. -1.
         25    2    1    2    0    0  0.81813533684E+02  0.23730223465E+02 -0.43538329479E+03  0.46091440466E+03  0.12500758872E+03 0.  0.
          2    1    1    2  501    0 -0.13934373296E+02  0.67788122768E+02 -0.25143064125E+04  0.25152586611E+04  0.00000000000E+00 0. -1.
          1    1    1    2  502    0 -0.67879160388E+02 -0.91518346233E+02  0.71887681113E+03  0.72785098591E+03  0.00000000000E+00 0. -1.
         22    1    3    3    0    0 -0.12907397616E+02  0.49783286588E+02 -0.18288258462E+03  0.18997635720E+03  0.00000000000E+00 0. -1.
         22    1    3    3    0    0  0.94720931300E+02 -0.26053063123E+02 -0.25250071017E+03  0.27093804746E+03  0.00000000000E+00 0. -1.
</event>
<event>
 7    1  0.6173324E-006  0.1140110E+03  0.7818608E-02  0.1337357E+00
          2   -1    0    0  502    0  0.00000000000E+00  0.00000000000E+00  0.57929550516E+03  0.57929550516E+03  0.00000000000E+00 0. -1.
          1   -1    0    0  501    0 -0.00000000000E+00 -0.00000000000E+00 -0.11045648456E+03  0.11045648456E+03  0.00000000000E+00 0. -1.
         25    2    1    2    0    0 -0.13637507546E+03  0.39689096649E+02  0.36718660181E+03  0.41305636343E+03  0.12496468789E+03 0.  0.
          2    1    1    2  501    0  0.37609852097E+02 -0.36196564704E+02 -0.64743096421E+02  0.83164660796E+02  0.00000000000E+00 0. -1.
          1    1    1    2  502    0  0.98765223364E+02 -0.34925319444E+01  0.16639551520E+03  0.19353096549E+03  0.00000000000E+00 0. -1.
         22    1    3    3    0    0 -0.39743638454E+02  0.50082355145E+02  0.26265229215E+03  0.27032207765E+03  0.00000000000E+00 0.  1.
         22    1    3    3    0    0 -0.96631437007E+02 -0.10393258496E+02  0.10453430967E+03  0.14273428578E+03  0.00000000000E+00 0.  1.
</event>
<event>
 7    1  0.6173324E-006  0.5960531E+02  0.7818608E-02  0.1430437E+00
          2   -1    0    0  502    0  0.00000000000E+00  0.00000000000E+00  0.10492317119E+04  0.10492317119E+04  0.00000000000E+00 0. -1.
          1   -1    0    0  501    0 -0.00000000000E+00 -0.00000000000E+00 -0.22752729177E+03  0.22752729177E+03  0.00000000000E+00 0. -1.
         25    2    1    2    0    0  0.39013195346E+02  0.35095504952E+02  0.31744671371E+03  0.34518548185E+03  0.12500750759E+03 0.  0.
          2    1    1    2  501    0  0.22521631823E+02 -0.41138495882E+02 -0.20973184810E+03  0.21491172107E+03  0.00000000000E+00 0. -1.
          1    1    1    2  502    0 -0.61534827169E+02  0.60429909299E+01  0.71398955456E+03  0.71666180080E+03  0.00000000000E+00 0. -1.
         22    1    3    3    0    0 -0.27820524112E+02 -0.27664950394E+02  0.58067675066E+02  0.70079853951E+02  0.00000000000E+00 0. -1.
         22    1    3    3    0    0  0.66833719458E+02  0.62760455346E+02  0.25937903865E+03  0.27510562790E+03  0.00000000000E+00 0. -1.
</event>
<event>
 7    1  0.6173324E-006  0.1207826E+03  0.7818608E-02  0.1316616E+00
          2   -1    0    0  502    0  0.00000000000E+00  0.00000000000E+00  0.77178254243E+03  0.77178254243E+03  0.00000000000E+00 0. -1.
          1   -1    0    0  501    0 -0.00000000000E+00 -0.00000000000E+00 -0.53388830092E+03  0.53388830092E+03  0.00000000000E+00 0. -1.
         25    2    1    2    0    0 -0.88364423025E+02 -0.15457665087E+03  0.34897910260E+03  0.41123411168E+03  0.12499947324E+03 0.  0.
          2    1    1    2  501    0  0.66365162334E+02  0.99632113761E+02 -0.49332482470E+03  0.50764187725E+03  0.00000000000E+00 0. -1.
          1    1    1    2  502    0  0.21999260691E+02  0.54944537107E+02  0.38223996361E+03  0.38679485442E+03  0.00000000000E+00 0. -1.
         22    1    3    3    0    0 -0.39956237850E+02 -0.84337321591E+02  0.62487045923E+02  0.11231168979E+03  0.00000000000E+00 0.  1.
         22    1    3    3    0    0 -0.48408185175E+02 -0.70239329276E+02  0.28649205668E+03  0.29892242189E+03  0.00000000000E+00 0.  1.
</event>
<event>
 7    1  0.6173324E-006  0.1084654E+03  0.7818608E-02  0.1328989E+00
          2   -1    0    0  502    0  0.00000000000E+00  0.00000000000E+00  0.19184981058E+04  0.19184981058E+04  0.00000000000E+00 0. -1.
          1   -1    0    0  501    0 -0.00000000000E+00 -0.00000000000E+00 -0.31015976184E+03  0.31015976184E+03  0.00000000000E+00 0. -1.
         25    2    1    2    0    0 -0.99506849863E+02  0.32141013618E+02 -0.11383963076E+03  0.19878881289E+03  0.12499149040E+03 0.  0.
          2    1    1    2  501    0  0.11282237051E+03  0.25375146314E+02 -0.13157816777E+03  0.17517305607E+03  0.00000000000E+00 0. -1.
          1    1    1    2  502    0 -0.13315520645E+02 -0.57516159932E+02  0.18537561425E+04  0.18546959987E+04  0.00000000000E+00 0. -1.
         22    1    3    3    0    0 -0.19459954379E+02 -0.37644841978E+02  0.97975212814E+00  0.42388487425E+02  0.00000000000E+00 0.  1.
         22    1    3    3    0    0 -0.80046895484E+02  0.69785855596E+02 -0.11481938289E+03  0.15640032546E+03  0.00000000000E+00 0.  1.
</event>
<event>
 7    1  0.6173324E-006  0.9858670E+02  0.7818608E-02  0.1337240E+00
          2   -1    0    0  502    0  0.00000000000E+00  0.00000000000E+00  0.16807816005E+04  0.16807816005E+04  0.00000000000E+00 0. -1.
          1   -1    0    0  501    0 -0.00000000000E+00 -0.00000000000E+00 -0.16126818343E+03  0.16126818343E+03  0.00000000000E+00 0. -1.
         25    2    1    2    0    0 -0.73597260881E+02  0.13791682010E+03  0.40228612378E+03  0.44933592281E+03  0.12502415793E+03 0.  0.
          2    1    1    2  501    0  0.40442888345E+02 -0.87397617483E+02 -0.12008338448E+03  0.15392852233E+03  0.00000000000E+00 0. -1.
          1    1    1    2  502    0  0.33154372537E+02 -0.50519202618E+02  0.12373106777E+04  0.12387853387E+04  0.00000000000E+00 0. -1.
         22    1    3    3    0    0  0.19356170026E+02  0.13186258416E+02  0.15799861726E+03  0.15972508189E+03  0.00000000000E+00 0.  1.
         22    1    3    3    0    0 -0.92953430907E+02  0.12473056168E+03  0.24428750652E+03  0.28961084092E+03  0.00000000000E+00 0.  1.
</event>
<event>
 7    1  0.6173324E-006  0.1150880E+03  0.7818608E-02  0.1277670E+00
          2   -1    0    0  502    0  0.00000000000E+00  0.00000000000E+00  0.20239285861E+04  0.20239285861E+04  0.00000000000E+00 0. -1.
          1   -1    0    0  501    0 -0.00000000000E+00 -0.00000000000E+00 -0.57142430347E+02  0.57142430347E+02  0.00000000000E+00 0. -1.
         25    2    1    2    0    0  0.44250600721E+02  0.13283785158E+03  0.44083157286E+03  0.47912567340E+03  0.12499969920E+03 0.  0.
          2    1    1    2  501    0  0.53441476190E+02 -0.71283737009E+02  0.19664724646E+02  0.91236308204E+02  0.00000000000E+00 0. -1.
          1    1    1    2  502    0 -0.97692076911E+02 -0.61554114574E+02  0.15062898582E+04  0.15107090348E+04  0.00000000000E+00 0. -1.
         22    1    3    3    0    0 -0.55044849404E+01  0.66692783719E+01  0.21864774065E+03  0.21881867635E+03  0.00000000000E+00 0.  1.
         22    1    3    3    0    0  0.49755085661E+02  0.12616857321E+03  0.22218383222E+03  0.26030699705E+03  0.00000000000E+00 0.  1.
</event>
<event>
 7    1  0.6173324E-006  0.4483206E+02  0.7818608E-02  0.1592392E+00
          2   -1    0    0  502    0  0.00000000000E+00  0.00000000000E+00  0.23121626332E+04  0.23121626332E+04  0.00000000000E+00 0. -1.
          1   -1    0    0  501    0 -0.00000000000E+00 -0.00000000000E+00 -0.44587427953E+03  0.44587427953E+03  0.00000000000E+00 0. -1.
         25    2    1    2    0    0 -0.57704752295E+02 -0.15927900360E+02  0.11308746356E+03  0.17887225590E+03  0.12499189202E+03 0.  0.
          2    1    1    2  501    0  0.12963566520E+02  0.16239639252E+02 -0.41248929297E+03  0.41301234456E+03  0.00000000000E+00 0. -1.
          1    1    1    2  502    0  0.44741185775E+02 -0.31173889209E+00  0.21656901831E+04  0.21661523123E+04  0.00000000000E+00 0. -1.
         22    1    3    3    0    0 -0.51608221996E+02  0.35506705270E+02  0.11049001498E+03  0.12701251162E+03  0.00000000000E+00 0.  1.
         22    1    3    3    0    0 -0.60965302994E+01 -0.51434605631E+02  0.25974485744E+01  0.51859744284E+02  0.00000000000E+00 0.  1.
</event>
<event>
 7    1  0.6173324E-006  0.7818795E+02  0.7818608E-02  0.1504356E+00
          2   -1    0    0  502    0  0.00000000000E+00  0.00000000000E+00  0.15901171348E+04  0.15901171348E+04  0.00000000000E+00 0. -1.
          1   -1    0    0  501    0 -0.00000000000E+00 -0.00000000000E+00 -0.77223675535E+03  0.77223675535E+03  0.00000000000E+00 0. -1.
         25    2    1    2    0    0 -0.37262203816E+00 -0.85807162679E+02 -0.26520942611E+03  0.30548906370E+03  0.12499808129E+03 0.  0.
          2    1    1    2  501    0  0.18588113797E+02  0.97888083700E+01 -0.48568726493E+03  0.48614139719E+03  0.00000000000E+00 0. -1.
          1    1    1    2  502    0 -0.18215491759E+02  0.76018354309E+02  0.15687770705E+04  0.15707234293E+04  0.00000000000E+00 0. -1.
         22    1    3    3    0    0  0.53009749035E+02 -0.82496852245E+02 -0.16708978677E+03  0.19373889894E+03  0.00000000000E+00 0. -1.
         22    1    3    3    0    0 -0.53382371073E+02 -0.33103104331E+01 -0.98119639346E+02  0.11175016475E+03  0.00000000000E+00 0. -1.
</event>
<event>
 7    1  0.6173324E-006  0.3053975E+03  0.7818608E-02  0.1164860E+00
          2   -1    0    0  502    0  0.00000000000E+00  0.00000000000E+00  0.12078213934E+04  0.12078213934E+04  0.00000000000E+00 0. -1.
          1   -1    0    0  501    0 -0.00000000000E+00 -0.00000000000E+00 -0.71795471250E+03  0.71795471250E+03  0.00000000000E+00 0. -1.
         25    2    1    2    0    0  0.82962536648E+02 -0.21292821648E+03 -0.27252764817E+02  0.26189471005E+03  0.12499967241E+03 0.  0.
          2    1    1    2  501    0 -0.12091269272E+03  0.31590513884E+03 -0.52034705809E+03  0.62062629405E+03  0.00000000000E+00 0. -1.
          1    1    1    2  502    0  0.37950156073E+02 -0.10297692237E+03  0.10374665039E+04  0.10432551018E+04  0.00000000000E+00 0. -1.
         22    1    3    3    0    0  0.39367955368E+02 -0.78235343893E+01  0.23013678954E+02  0.46267407742E+02  0.00000000000E+00 0.  1.
         22    1    3    3    0    0  0.43594581280E+02 -0.20510468209E+03 -0.50266443771E+02  0.21562730231E+03  0.00000000000E+00 0.  1.
</event>
<event>
 7    1  0.6173324E-006  0.1756550E+03  0.7818608E-02  0.1302205E+00
          2   -1    0    0  502    0  0.00000000000E+00  0.00000000000E+00  0.62209084621E+03  0.62209084621E+03  0.00000000000E+00 0. -1.
          1   -1    0    0  501    0 -0.00000000000E+00 -0.00000000000E+00 -0.14727438552E+04  0.14727438552E+04  0.00000000000E+00 0. -1.
         25    2    1    2    0    0  0.16030374861E+03  0.92462766643E+02 -0.28545975252E+03  0.36243418396E+03  0.12499844942E+03 0.  0.
          2    1    1    2  501    0 -0.12488978423E+03 -0.12242394819E+03 -0.11412031615E+04  0.11545257629E+04  0.00000000000E+00 0. -1.
          1    1    1    2  502    0 -0.35413964389E+02  0.29961181547E+02  0.57600990504E+03  0.57787475457E+03  0.00000000000E+00 0. -1.
         22    1    3    3    0    0  0.11215030254E+03  0.10622942849E+03 -0.13957180331E+03  0.20818902497E+03  0.00000000000E+00 0.  1.
         22    1    3    3    0    0  0.48153446074E+02 -0.13766661849E+02 -0.14588794921E+03  0.15424515899E+03  0.00000000000E+00 0.  1.
</event>
<event>
 7    1  0.6173324E-006  0.3497789E+02  0.7818608E-02  0.1565183E+00
          2   -1    0    0  502    0  0.00000000000E+00  0.00000000000E+00  0.23166501225E+04  0.23166501225E+04  0.00000000000E+00 0. -1.
          1   -1    0    0  501    0 -0.00000000000E+00 -0.00000000000E+00 -0.10047952091E+03  0.10047952091E+03  0.00000000000E+00 0. -1.
         25    2    1    2    0    0 -0.38811961809E+02 -0.35080891986E+02  0.18093525216E+03  0.22605452493E+03  0.12500418155E+03 0.  0.
          2    1    1    2  501    0  0.73145053755E+01  0.34053254286E+02 -0.73904060423E+02  0.81700283129E+02  0.00000000000E+00 0. -1.
          1    1    1    2  502    0  0.31497456434E+02  0.10276377005E+01  0.21091394099E+04  0.21093748354E+04  0.00000000000E+00 0. -1.
         22    1    3    3    0    0 -0.23670397798E+01  0.44895275503E+02  0.83523351892E+02  0.94854303809E+02  0.00000000000E+00 0.  1.
         22    1    3    3    0    0 -0.36444922030E+02 -0.79976167490E+02  0.97411900265E+02  0.13120022112E+03  0.00000000000E+00 0.  1.
</event>
<event>
 7    1  0.6173324E-006  0.9283002E+02  0.7818608E-02  0.1366289E+00
          2   -1    0    0  502    0  0.00000000000E+00  0.00000000000E+00  0.84287956006E+03  0.84287956006E+03  0.00000000000E+00 0. -1.
          1   -1    0    0  501    0 -0.00000000000E+00 -0.00000000000E+00 -0.66239343214E+03  0.66239343214E+03  0.00000000000E+00 0. -1.
         25    2    1    2    0    0 -0.95285048652E+02 -0.50775071030E+02  0.33855605450E+03  0.37670188971E+03  0.12500705317E+03 0.  0.
          2    1    1    2  501    0  0.36813274552E+01  0.49983623939E+02 -0.63800549879E+03  0.63997103944E+03  0.00000000000E+00 0. -1.
          1    1    1    2  502    0  0.91603721197E+02  0.79144709071E+00  0.47993557222E+03  0.48860006304E+03  0.00000000000E+00 0. -1.
         22    1    3    3    0    0  0.19489738462E+02 -0.27180070324E+02  0.15768151562E+03  0.16118953594E+03  0.00000000000E+00 0. -1.
         22    1    3    3    0    0 -0.11477478711E+03 -0.23595000706E+02  0.18087453887E+03  0.21551235377E+03  0.00000000000E+00 0. -1.
</event>
<event>
 7    1  0.6173324E-006  0.5915823E+02  0.7818608E-02  0.1454344E+00
          2   -1    0    0  502    0  0.00000000000E+00  0.00000000000E+00  0.13834788352E+02  0.13834788352E+02  0.00000000000E+00 0. -1.
          1   -1    0    0  501    0 -0.00000000000E+00 -0.00000000000E+00 -0.17394167047E+04  0.17394167047E+04  0.00000000000E+00 0. -1.
         25    2    1    2    0    0  0.14072334238E+02  0.27592544973E+02 -0.35889884939E+03  0.38130657668E+03  0.12500776854E+03 0.  0.
          2    1    1    2  501    0 -0.53513323780E+02 -0.30486395825E+02 -0.11523039295E+04  0.11539486306E+04  0.00000000000E+00 0. -1.
          1    1    1    2  502    0  0.39440989542E+02  0.28938508519E+01 -0.21437913748E+03  0.21799628579E+03  0.00000000000E+00 0. -1.
         22    1    3    3    0    0 -0.52497129929E+02 -0.53919601074E+01 -0.18049620094E+03  0.18805291925E+03  0.00000000000E+00 0.  1.
         22    1    3    3    0    0  0.66569464167E+02  0.32984505080E+02 -0.17840264846E+03  0.19325365743E+03  0.00000000000E+00 0.  1.
</event>
<event>
 7    1  0.6173324E-006  0.3750811E+02  0.7818608E-02  0.1601872E+00
          2   -1    0    0  502    0  0.00000000000E+00  0.00000000000E+00  0.36287032159E+03  0.36287032159E+03  0.00000000000E+00 0. -1.
          1   -1    0    0  501    0 -0.00000000000E+00 -0.00000000000E+00 -0.86581743551E+03  0.86581743551E+03  0.00000000000E+00 0. -1.
         25    2    1    2    0    0 -0.58364729099E+01  0.12978800860E+02 -0.14152252610E+03  0.18935792239E+03  0.12500113475E+03 0.  0.
          2    1    1    2  501    0 -0.78243449171E+01  0.22111309790E+02 -0.69913412090E+03  0.69952744721E+03  0.00000000000E+00 0. -1.
          1    1    1    2  502    0  0.13660817827E+02 -0.35090110651E+02  0.33770953308E+03  0.33980238749E+03  0.00000000000E+00 0. -1.
         22    1    3    3    0    0  0.46572298258E+02  0.29141600098E+02 -0.24565643637E+02  0.60180417650E+02  0.00000000000E+00 0.  1.
         22    1    3    3    0    0 -0.52408771167E+02 -0.16162799237E+02 -0.11695688246E+03  0.12917750474E+03  0.00000000000E+00 0.  1.
</event>
<event>
 7    1  0.6173324E-006  0.1638139E+03  0.7818608E-02  0.1309278E+00
          2   -1    0    0  502    0  0.00000000000E+00  0.00000000000E+00  0.36654793653E+04  0.36654793653E+04  0.00000000000E+00 0. -1.
          1   -1    0    0  501    0 -0.00000000000E+00 -0.00000000000E+00 -0.84557439904E+03  0.84557439904E+03  0.00000000000E+00 0. -1.
         25    2    1    2    0    0  0.53661878261E+02  0.15394510942E+03  0.30062545322E+03  0.36411537241E+03  0.12500258960E+03 0.  0.
          2    1    1    2  501    0 -0.80855195139E+01 -0.16379483741E+03 -0.80540269932E+03  0.82192921378E+03  0.00000000000E+00 0. -1.
          1    1    1    2  502    0 -0.45576358747E+02  0.98497279855E+01  0.33246822123E+04  0.33250091781E+04  0.00000000000E+00 0. -1.
         22    1    3    3    0    0  0.69650804114E+02  0.57521856829E+02  0.72143815634E+02  0.11560591966E+03  0.00000000000E+00 0.  1.
         22    1    3    3    0    0 -0.15988925853E+02  0.96423252596E+02  0.22848163759E+03  0.24850945275E+03  0.00000000000E+00 0.  1.
</event>
<event>
 7    1  0.6173324E-006  0.4171628E+02  0.7818608E-02  0.1518608E+00
          2   -1    0    0  502    0  0.00000000000E+00  0.00000000000E+00  0.35645053298E+03  0.35645053298E+03  0.00000000000E+00 0. -1.
          1   -1    0    0  501    0 -0.00000000000E+00 -0.00000000000E+00 -0.22767034931E+03  0.22767034931E+03  0.00000000000E+00 0. -1.
         25    2    1    2    0    0 -0.12863934338E+02 -0.92661043372E+01 -0.82317096494E+02  0.15051043840E+03  0.12500378473E+03 0.  0.
          2    1    1    2  501    0  0.14188135791E+02 -0.32820730414E+02 -0.10695981953E+03  0.11277812969E+03  0.00000000000E+00 0. -1.
          1    1    1    2  502    0 -0.13242014526E+01  0.42086834751E+02  0.31805709970E+03  0.32083231420E+03  0.00000000000E+00 0. -1.
         22    1    3    3    0    0  0.50476022822E+02  0.14503974006E+02 -0.58912266252E+02  0.78923059095E+02  0.00000000000E+00 0.  1.
         22    1    3    3    0    0 -0.63339957160E+02 -0.23770078344E+02 -0.23404830243E+02  0.71587379308E+02  0.00000000000E+00 0.  1.
</event>
<event>
 7    1  0.6173324E-006  0.1090022E+03  0.7818608E-02  0.1422636E+00
          2   -1    0    0  502    0  0.00000000000E+00  0.00000000000E+00  0.51130470036E+03  0.51130470036E+03  0.00000000000E+00 0. -1.
          1   -1    0    0  501    0 -0.00000000000E+00 -0.00000000000E+00 -0.18852435656E+03  0.18852435656E+03  0.00000000000E+00 0. -1.
         25    2    1    2    0    0 -0.36358581379E+02 -0.11720812502E+03  0.12626060319E+03  0.21590443202E+03  0.12495316257E+03 0.  0.
          2    1    1    2  501    0 -0.14254629181E+02  0.23184951805E+02 -0.13392141788E+03  0.13665900120E+03  0.00000000000E+00 0. -1.
          1    1    1    2  502    0  0.50613210560E+02  0.94023173214E+02  0.33044115848E+03  0.34726562370E+03  0.00000000000E+00 0. -1.
         22    1    3    3    0    0 -0.12678587461E+02 -0.11603243775E+03  0.35358161663E+02  0.12196094780E+03  0.00000000000E+00 0.  1.
         22    1    3    3    0    0 -0.23679993918E+02 -0.11756872638E+01  0.90902441524E+02  0.93943484221E+02  0.00000000000E+00 0.  1.
</event>
<event>
 7    1  0.6173324E-006  0.1645066E+03  0.7818608E-02  0.1184861E+00
          2   -1    0    0  502    0  0.00000000000E+00  0.00000000000E+00  0.16686192328E+04  0.16686192328E+04  0.00000000000E+00 0. -1.
          1   -1    0    0  501    0 -0.00000000000E+00 -0.00000000000E+00 -0.78574814825E+03  0.78574814825E+03  0.00000000000E+00 0. -1.
         25    2    1    2    0    0 -0.26186442380E+03  0.18990058239E+03 -0.36186898084E+03  0.50120897749E+03  0.12500428864E+03 0.  0.
          2    1    1    2  501    0  0.12040423789E+03 -0.10896640792E+03 -0.33117076369E+03  0.36884269449E+03  0.00000000000E+00 0. -1.
          1    1    1    2  502    0  0.14146018591E+03 -0.80934174471E+02  0.15759108290E+04  0.15843157090E+04  0.00000000000E+00 0. -1.
         22    1    3    3    0    0 -0.54407886388E+02  0.10928624747E+03 -0.15541818824E+03  0.19763227273E+03  0.00000000000E+00 0. -1.
         22    1    3    3    0    0 -0.20745653741E+03  0.80614334923E+02 -0.20645079260E+03  0.30357670476E+03  0.00000000000E+00 0. -1.
</event>
<event>
 7    1  0.6173324E-006  0.6418617E+02  0.7818608E-02  0.1485704E+00
          2   -1    0    0  502    0  0.00000000000E+00  0.00000000000E+00  0.19247790584E+04  0.19247790584E+04  0.00000000000E+00 0. -1.
          1   -1    0    0  501    0 -0.00000000000E+00 -0.00000000000E+00 -0.20418816150E+02  0.20418816150E+02  0.00000000000E+00 0. -1.
         25    2    1    2    0    0  0.54156716799E+02  0.16404183860E+02  0.71859583611E+03  0.73157681658E+03  0.12499046228E+03 0.  0.
          2    1    1    2  501    0 -0.64701573597E+02  0.10734970557E+02  0.64531029181E+02  0.92009711150E+02  0.00000000000E+00 0. -1.
          1    1    1    2  502    0  0.10544856799E+02 -0.27139154417E+02  0.11212333769E+04  0.11216113468E+04  0.00000000000E+00 0. -1.
         22    1    3    3    0    0  0.56090110990E+02  0.54701924277E+02  0.26436946147E+03  0.27573467905E+03  0.00000000000E+00 0.  1.
         22    1    3    3    0    0 -0.19333941914E+01 -0.38297740417E+02  0.45422637464E+03  0.45584213753E+03  0.00000000000E+00 0.  1.
</event>
<event>
 7    1  0.6173324E-006  0.1147556E+03  0.7818608E-02  0.1312029E+00
          2   -1    0    0  502    0  0.00000000000E+00  0.00000000000E+00  0.68500777980E+03  0.68500777980E+03  0.00000000000E+00 0. -1.
          1   -1    0    0  501    0 -0.00000000000E+00 -0.00000000000E+00 -0.10882356278E+04  0.10882356278E+04  0.00000000000E+00 0. -1.
         25    2    1    2    0    0 -0.94293730608E+02 -0.15153283726E+03  0.14549615851E+03  0.26200567067E+03  0.12499732367E+03 0.  0.
          2    1    1    2  501    0  0.63691416465E+02  0.94274317706E+02 -0.10246282496E+04  0.10309254548E+04  0.00000000000E+00 0. -1.
          1    1    1    2  502    0  0.30602314143E+02  0.57258519554E+02  0.47590424312E+03  0.48031228208E+03  0.00000000000E+00 0. -1.
         22    1    3    3    0    0 -0.47402181717E+00  0.30096517022E+01 -0.17996748495E+02  0.18252825985E+02  0.00000000000E+00 0. -1.
         22    1    3    3    0    0 -0.93819708791E+02 -0.15454248896E+03  0.16349290700E+03  0.24375284469E+03  0.00000000000E+00 0. -1.
</event>
<event>
 7    1  0.6173324E-006  0.3331154E+03  0.7818608E-02  0.1172053E+00
          2   -1    0    0  502    0  0.00000000000E+00  0.00000000000E+00  0.86065646400E+03  0.86065646400E+03  0.00000000000E+00 0. -1.
          1   -1    0    0  501    0 -0.00000000000E+00 -0.00000000000E+00 -0.13284124484E+04  0.13284124484E+04  0.00000000000E+00 0. -1.
         25    2    1    2    0    0  0.30600915693E+03 -0.24082791707E+03 -0.17714475406E+03  0.44569627113E+03  0.12500084977E+03 0.  0.
          2    1    1    2  501    0 -0.21338435944E+03  0.24291458631E+03 -0.98815291057E+03  0.10397050331E+04  0.00000000000E+00 0. -1.
          1    1    1    2  502    0 -0.92624797486E+02 -0.20866692437E+01  0.69754168019E+03  0.70366760825E+03  0.00000000000E+00 0. -1.
         22    1    3    3    0    0  0.14072350098E+02  0.55217089057E+01  0.12134156465E+02  0.19384479865E+02  0.00000000000E+00 0. -1.
         22    1    3    3    0    0  0.29193680683E+03 -0.24634962598E+03 -0.18927891052E+03  0.42631179126E+03  0.00000000000E+00 0. -1.
</event>
<event>
 7    1  0.6173324E-006  0.1388965E+03  0.7818608E-02  0.1425290E+00
          2   -1    0    0  502    0  0.00000000000E+00  0.00000000000E+00  0.27364475755E+04  0.27364475755E+04  0.00000000000E+00 0. -1.
          1   -1    0    0  501    0 -0.00000000000E+00 -0.00000000000E+00 -0.75148425382E+03  0.75148425382E+03  0.00000000000E+00 0. -1.
         25    2    1    2    0    0 -0.11347862271E+03 -0.67321309450E+02 -0.61855486268E+02  0.19198971443E+03  0.12499757096E+03 0.  0.
          2    1    1    2  501    0  0.54738342783E+01 -0.20201234433E+02 -0.62257713768E+03  0.62292884433E+03  0.00000000000E+00 0. -1.
          1    1    1    2  502    0  0.10800478844E+03  0.87522543883E+02  0.26693959457E+04  0.26730132706E+04  0.00000000000E+00 0. -1.
         22    1    3    3    0    0 -0.83999106017E+02 -0.92272880693E+02 -0.70978006614E+01  0.12498205110E+03  0.00000000000E+00 0.  1.
         22    1    3    3    0    0 -0.29479516698E+02  0.24951571243E+02 -0.54757685606E+02  0.67007663332E+02  0.00000000000E+00 0.  1.
</event>
<event>
 7    1  0.6173324E-006  0.7132065E+02  0.7818608E-02  0.1407476E+00
          2   -1    0    0  502    0  0.00000000000E+00  0.00000000000E+00  0.11797690141E+04  0.11797690141E+04  0.00000000000E+00 0. -1.
          1   -1    0    0  501    0 -0.00000000000E+00 -0.00000000000E+00 -0.30691787580E+04  0.30691787580E+04  0.00000000000E+00 0. -1.
         25    2    1    2    0    0  0.50951196495E+02  0.29113507689E+02 -0.19275586846E+03  0.23712078193E+03  0.12501127805E+03 0.  0.
          2    1    1    2  501    0  0.19212567586E+02 -0.42651760891E+02 -0.28529457287E+04  0.28533292180E+04  0.00000000000E+00 0. -1.
          1    1    1    2  502    0 -0.70163764081E+02  0.13538253202E+02  0.11562918533E+04  0.11584977722E+04  0.00000000000E+00 0. -1.
         22    1    3    3    0    0 -0.13001863186E+02 -0.19147011808E+02  0.50643398033E+01  0.23691856093E+02  0.00000000000E+00 0. -1.
         22    1    3    3    0    0  0.63953059682E+02  0.48260519497E+02 -0.19782020826E+03  0.21342892583E+03  0.00000000000E+00 0. -1.
</event>
<event>
 7    1  0.6173324E-006  0.2640578E+03  0.7818608E-02  0.1129847E+00
          2   -1    0    0  502    0  0.00000000000E+00  0.00000000000E+00  0.33732070924E+04  0.33732070924E+04  0.00000000000E+00 0. -1.
          1   -1    0    0  501    0 -0.00000000000E+00 -0.00000000000E+00 -0.19330788036E+04  0.19330788036E+04  0.00000000000E+00 0. -1.
         25    2    1    2    0    0 -0.28473608768E+03  0.30056599491E+03  0.59836886690E+03  0.73829849597E+03  0.12499924540E+03 0.  0.
          2    1    1    2  501    0  0.17914475072E+03 -0.70655340498E+02 -0.18521949259E+04  0.18621791166E+04  0.00000000000E+00 0. -1.
          1    1    1    2  502    0  0.10559133696E+03 -0.22991065441E+03  0.26939543477E+04  0.27058082835E+04  0.00000000000E+00 0. -1.
         22    1    3    3    0    0 -0.24514427412E+03  0.30300368389E+03  0.56539788736E+03  0.68671807797E+03  0.00000000000E+00 0.  1.
         22    1    3    3    0    0 -0.39591813562E+02 -0.24376889832E+01  0.32970979540E+02  0.51580417995E+02  0.00000000000E+00 0.  1.
</event>
<event>
 7    1  0.6173324E-006  0.1476299E+03  0.7818608E-02  0.1302685E+00
          2   -1    0    0  502    0  0.00000000000E+00  0.00000000000E+00  0.10594898439E+04  0.10594898439E+04  0.00000000000E+00 0. -1.
          1   -1    0    0  501    0 -0.00000000000E+00 -0.00000000000E+00 -0.13320387787E+04  0.13320387787E+04  0.00000000000E+00 0. -1.
         25    2    1    2    0    0 -0.14771188719E+03 -0.36521089365E+02  0.63278815601E+03  0.66272001955E+03  0.12499752933E+03 0.  0.
          2    1    1    2  501    0  0.26064025321E+02 -0.48376548714E+02 -0.13031133664E+04  0.13042714708E+04  0.00000000000E+00 0. -1.
          1    1    1    2  502    0  0.12164786187E+03  0.84897638078E+02  0.39777627561E+03  0.42453713228E+03  0.00000000000E+00 0. -1.
         22    1    3    3    0    0 -0.13974911328E+03 -0.51358534209E+02  0.62771879140E+03  0.64513440055E+03  0.00000000000E+00 0.  1.
         22    1    3    3    0    0 -0.79627739139E+01  0.14837444844E+02  0.50693646074E+01  0.17585618995E+02  0.00000000000E+00 0.  1.
</event>
<event>
 7    1  0.6173324E-006  0.1890045E+03  0.7818608E-02  0.1232118E+00
          2   -1    0    0  502    0  0.00000000000E+00  0.00000000000E+00  0.12511324509E+04  0.12511324509E+04  0.00000000000E+00 0. -1.
          1   -1    0    0  501    0 -0.00000000000E+00 -0.00000000000E+00 -0.25083796204E+04  0.25083796204E+04  0.00000000000E+00 0. -1.
         25    2    1    2    0    0  0.81406095899E+02 -0.24166303743E+03 -0.66317600912E+03  0.72142598611E+03  0.12500023299E+03 0.  0.
          2    1    1    2  501    0  0.19928695727E+02  0.82849305349E+02 -0.18078083688E+04  0.18098155316E+04  0.00000000000E+00 0. -1.
          1    1    1    2  502    0 -0.10133479163E+03  0.15881373208E+03  0.12137372084E+04  0.12282705535E+04  0.00000000000E+00 0. -1.
         22    1    3    3    0    0  0.24082503561E+02 -0.22063113198E+03 -0.54361103721E+03  0.58717205584E+03  0.00000000000E+00 0.  1.
         22    1    3    3    0    0  0.57323592338E+02 -0.21031905450E+02 -0.11956497191E+03  0.13425393027E+03  0.00000000000E+00 0.  1.
</event>
<event>
 7    1  0.6173324E-006  0.1315511E+03  0.7818608E-02  0.1285987E+00
          2   -1    0    0  502    0  0.00000000000E+00  0.00000000000E+00  0.19681632816E+04  0.19681632816E+04  0.00000000000E+00 0. -1.
          1   -1    0    0  501    0 -0.00000000000E+00 -0.00000000000E+00 -0.91001268567E+03  0.91001268567E+03  0.00000000000E+00 0. -1.
         25    2    1    2    0    0 -0.83078728946E+02  0.14974453192E+02 -0.98726853094E+02  0.18027162597E+03  0.12499823262E+03 0.  0.
          2    1    1    2  501    0  0.11528188761E+03 -0.79403005040E+02 -0.76347500746E+03  0.77620154460E+03  0.00000000000E+00 0. -1.
          1    1    1    2  502    0 -0.32203158661E+02  0.64428551848E+02  0.19203524565E+04  0.19217027967E+04  0.00000000000E+00 0. -1.
         22    1    3    3    0    0 -0.47823570871E+02  0.68152268066E+02 -0.35703000963E+02  0.90589899278E+02  0.00000000000E+00 0. -1.
         22    1    3    3    0    0 -0.35255158075E+02 -0.53177814873E+02 -0.63023852131E+02  0.89681726695E+02  0.00000000000E+00 0. -1.
</event>
<event>
 7    1  0.6173324E-006  0.7819980E+02  0.7818608E-02  0.1379855E+00
          2   -1    0    0  502    0  0.00000000000E+00  0.00000000000E+00  0.65005463019E+03  0.65005463019E+03  0.00000000000E+00 0. -1.
          1   -1    0    0  501    0 -0.00000000000E+00 -0.00000000000E+00 -0.81486889233E+02  0.81486889233E+02  0.00000000000E+00 0. -1.
         25    2    1    2    0    0  0.55829867858E+02  0.54999982157E+02  0.18449741730E+03  0.23623572120E+03  0.12500418712E+03 0.  0.
          2    1    1    2  501    0 -0.80040244299E+02 -0.76242349201E+01 -0.23901109357E+02  0.83879870613E+02  0.00000000000E+00 0. -1.
          1    1    1    2  502    0  0.24210376440E+02 -0.47375747237E+02  0.40797143302E+03  0.41142592761E+03  0.00000000000E+00 0. -1.
         22    1    3    3    0    0 -0.17953371980E+02  0.69167703695E+02  0.10333920392E+03  0.12564030351E+03  0.00000000000E+00 0. -1.
         22    1    3    3    0    0  0.73783239838E+02 -0.14167721538E+02  0.81158213382E+02  0.11059541769E+03  0.00000000000E+00 0. -1.
</event>
<event>
 7    1  0.6173324E-006  0.1168256E+03  0.7818608E-02  0.1441066E+00
          2   -1    0    0  502    0  0.00000000000E+00  0.00000000000E+00  0.32702809139E+03  0.32702809139E+03  0.00000000000E+00 0. -1.
          1   -1    0    0  501    0 -0.00000000000E+00 -0.00000000000E+00 -0.11791476388E+03  0.11791476388E+03  0.00000000000E+00 0. -1.
         25    2    1    2    0    0  0.17687658526E+02 -0.99679450642E+02  0.10255995595E+03  0.19074362390E+03  0.12496295191E+03 0.  0.
          2    1    1    2  501    0 -0.28435343386E+02  0.11897956927E+03 -0.21542327439E+02  0.12421263433E+03  0.00000000000E+00 0. -1.
          1    1    1    2  502    0  0.10747684861E+02 -0.19300118626E+02  0.12809569900E+03  0.12998659704E+03  0.00000000000E+00 0. -1.
         22    1    3    3    0    0  0.59104825573E+00 -0.94678823375E+01 -0.28886701693E+02  0.30404467907E+02  0.00000000000E+00 0.  1.
         22    1    3    3    0    0  0.17096610270E+02 -0.90211568305E+02  0.13144665765E+03  0.16033915599E+03  0.00000000000E+00 0.  1.
</event>
<event>
 7    1  0.6173324E-006  0.5860268E+02  0.7818608E-02  0.1530622E+00
          2   -1    0    0  502    0  0.00000000000E+00  0.00000000000E+00  0.32879523145E+03  0.32879523145E+03  0.00000000000E+00 0. -1.
          1   -1    0    0  501    0 -0.00000000000E+00 -0.00000000000E+00 -0.96903033567E+02  0.96903033567E+02  0.00000000000E+00 0. -1.
         25    2    1    2    0    0 -0.13676571293E+02 -0.44828950283E+02  0.14138053669E+03  0.19444653843E+03  0.12499726704E+03 0.  0.
          2    1    1    2  501    0  0.37091832049E+02  0.46823134233E+02 -0.56590535756E+02  0.82284255124E+02  0.00000000000E+00 0. -1.
          1    1    1    2  502    0 -0.23415260756E+02 -0.19941839504E+01  0.14710219695E+03  0.14896747146E+03  0.00000000000E+00 0. -1.
         22    1    3    3    0    0 -0.61541646386E+02 -0.37359635074E+02  0.12321919204E+03  0.14270979595E+03  0.00000000000E+00 0.  1.
         22    1    3    3    0    0  0.47865075093E+02 -0.74693152085E+01  0.18161344651E+02  0.51736742484E+02  0.00000000000E+00 0.  1.
</event>
<event>
 7    1  0.6173324E-006  0.1973470E+03  0.7818608E-02  0.1362688E+00
          2   -1    0    0  502    0  0.00000000000E+00  0.00000000000E+00  0.24923693566E+04  0.24923693566E+04  0.00000000000E+00 0. -1.
          1   -1    0    0  501    0 -0.00000000000E+00 -0.00000000000E+00 -0.48310745127E+03  0.48310745127E+03  0.00000000000E+00 0. -1.
         25    2    1    2    0    0  0.18958786996E+03 -0.10779124417E+03 -0.34644325884E+03  0.42803109776E+03  0.12500070518E+03 0.  0.
          2    1    1    2  501    0 -0.12735032082E+02  0.20689749152E+02 -0.90298953811E+02  0.93510148227E+02  0.00000000000E+00 0. -1.
          1    1    1    2  502    0 -0.17685283788E+03  0.87101495020E+02  0.24460041180E+04  0.24539355619E+04  0.00000000000E+00 0. -1.
         22    1    3    3    0    0  0.17445190187E+03 -0.78052376670E+02 -0.19532248376E+03  0.27327003537E+03  0.00000000000E+00 0. -1.
         22    1    3    3    0    0  0.15135968091E+02 -0.29738867502E+02 -0.15112077508E+03  0.15476106239E+03  0.00000000000E+00 0. -1.
</event>
<event>
 7    1  0.6173324E-006  0.1703466E+03  0.7818608E-02  0.1255482E+00
          2   -1    0    0  502    0  0.00000000000E+00  0.00000000000E+00  0.23467808671E+03  0.23467808671E+03  0.00000000000E+00 0. -1.
          1   -1    0    0  501    0 -0.00000000000E+00 -0.00000000000E+00 -0.95619321562E+03  0.95619321562E+03  0.00000000000E+00 0. -1.
         25    2    1    2    0    0 -0.70848049617E+02  0.11152414844E+03 -0.23383724085E+03  0.29624600649E+03  0.12499903732E+03 0.  0.
          2    1    1    2  501    0 -0.74091670849E+02 -0.94007540800E+01 -0.64997792035E+03  0.65425472624E+03  0.00000000000E+00 0. -1.
          1    1    1    2  502    0  0.14493972047E+03 -0.10212339436E+03  0.16230003229E+03  0.24037056960E+03  0.00000000000E+00 0. -1.
         22    1    3    3    0    0 -0.96837006277E+02  0.11775531872E+03 -0.21491534205E+03  0.26350014254E+03  0.00000000000E+00 0. -1.
         22    1    3    3    0    0  0.25988956660E+02 -0.62311702748E+01 -0.18921898802E+02  0.32745863945E+02  0.00000000000E+00 0. -1.
</event>
<event>
 7    1  0.6173324E-006  0.1012628E+03  0.7818608E-02  0.1309549E+00
          2   -1    0    0  502    0  0.00000000000E+00  0.00000000000E+00  0.40023674288E+03  0.40023674288E+03  0.00000000000E+00 0. -1.
          1   -1    0    0  501    0 -0.00000000000E+00 -0.00000000000E+00 -0.65285950424E+03  0.65285950424E+03  0.00000000000E+00 0. -1.
         25    2    1    2    0    0 -0.19879161689E+02  0.29518594916E+02  0.21954599346E+03  0.25513292460E+03  0.12500334978E+03 0.  0.
          2    1    1    2  501    0  0.94387421409E+02 -0.40031017218E+02 -0.62194984250E+03  0.63034361601E+03  0.00000000000E+00 0. -1.
          1    1    1    2  502    0 -0.74508259720E+02  0.10512422302E+02  0.14978108767E+03  0.16761970651E+03  0.00000000000E+00 0. -1.
         22    1    3    3    0    0  0.43310316318E+02  0.68051740727E+01  0.27661099523E+02  0.51838502299E+02  0.00000000000E+00 0. -1.
         22    1    3    3    0    0 -0.63189478008E+02  0.22713420843E+02  0.19188489394E+03  0.20329442230E+03  0.00000000000E+00 0. -1.
</event>
<event>
 7    1  0.6173324E-006  0.4415003E+02  0.7818608E-02  0.1540797E+00
          2   -1    0    0  502    0  0.00000000000E+00  0.00000000000E+00  0.88260190278E+03  0.88260190278E+03  0.00000000000E+00 0. -1.
          1   -1    0    0  501    0 -0.00000000000E+00 -0.00000000000E+00 -0.92616343084E+03  0.92616343084E+03  0.00000000000E+00 0. -1.
         25    2    1    2    0    0 -0.27949861379E+02  0.40360667287E+02 -0.74621138835E+02  0.15363483210E+03  0.12500067624E+03 0.  0.
          2    1    1    2  501    0  0.41723657690E+02 -0.14632855599E+02 -0.81118066670E+03  0.81238479682E+03  0.00000000000E+00 0. -1.
          1    1    1    2  502    0 -0.13773796312E+02 -0.25727811688E+02  0.84224027748E+03  0.84274570469E+03  0.00000000000E+00 0. -1.
         22    1    3    3    0    0 -0.40489498517E+01 -0.29024865256E+02  0.18813897407E+02  0.34825271481E+02  0.00000000000E+00 0.  1.
         22    1    3    3    0    0 -0.23900911527E+02  0.69385532543E+02 -0.93435036242E+02  0.11880956062E+03  0.00000000000E+00 0.  1.
</event>
<event>
 7    1  0.6173324E-006  0.2093272E+03  0.7818608E-02  0.1300183E+00
          2   -1    0    0  502    0  0.00000000000E+00  0.00000000000E+00  0.73644790163E+03  0.73644790163E+03  0.00000000000E+00 0. -1.
          1   -1    0    0  501    0 -0.00000000000E+00 -0.00000000000E+00 -0.73233641437E+03  0.73233641437E+03  0.00000000000E+00 0. -1.
         25    2    1    2    0    0 -0.25839127550E+02  0.20368783098E+03  0.13293370259E+03  0.27468708999E+03  0.12500094048E+03 0.  0.
          2    1    1    2  501    0  0.65277143838E+02 -0.19952857330E+03 -0.64402112038E+03  0.67737431349E+03  0.00000000000E+00 0. -1.
          1    1    1    2  502    0 -0.39438016288E+02 -0.41592576739E+01  0.51519890506E+03  0.51672291252E+03  0.00000000000E+00 0. -1.
         22    1    3    3    0    0 -0.39543944386E+02  0.13592049908E+02  0.54249591135E+02  0.68494419456E+02  0.00000000000E+00 0.  1.
         22    1    3    3    0    0  0.13704816835E+02  0.19009578107E+03  0.78684111451E+02  0.20619267053E+03  0.00000000000E+00 0.  1.
</event>
<event>
 7    1  0.6173324E-006  0.5191373E+02  0.7818608E-02  0.1519695E+00
          2   -1    0    0  502    0  0.00000000000E+00  0.00000000000E+00  0.19691765048E+04  0.19691765048E+04  0.00000000000E+00 0. -1.
          1   -1    0    0  501    0 -0.00000000000E+00 -0.00000000000E+00 -0.57230193068E+02  0.57230193068E+02  0.00000000000E+00 0. -1.
         25    2    1    2    0    0  0.64077388212E+02 -0.38859685472E+02  0.47777339977E+03  0.49950808092E+03  0.12499965816E+03 0.  0.
          2    1    1    2  501    0 -0.15170595666E+02  0.24155450048E+02 -0.41491623531E+02  0.50350646104E+02  0.00000000000E+00 0. -1.
          1    1    1    2  502    0 -0.48906792546E+02  0.14704235424E+02  0.14756645355E+04  0.14765479709E+04  0.00000000000E+00 0. -1.
         22    1    3    3    0    0 -0.23160809992E+02  0.17172403669E+02  0.21654101269E+03  0.21845211088E+03  0.00000000000E+00 0.  1.
         22    1    3    3    0    0  0.87238198204E+02 -0.56032089141E+02  0.26123238707E+03  0.28105597004E+03  0.00000000000E+00 0.  1.
</event>
<event>
 7    1  0.8243044E-006  0.1007619E+03  0.7818608E-02  0.1343638E+00
          2   -1    0    0  502    0  0.00000000000E+00  0.00000000000E+00  0.14680766110E+04  0.14680766110E+04  0.00000000000E+00 0. -1.
          1   -1    0    0  501    0 -0.00000000000E+00 -0.00000000000E+00 -0.15790851937E+04  0.15790851937E+04  0.00000000000E+00 0. -1.
         25    2    1    2    0    0 -0.47232251994E+02 -0.64586643820E+02 -0.88463831480E+03  0.89700199892E+03  0.12500127147E+03 0.  0.
          2    1    1    2  501    0  0.30910852775E+02  0.11808928493E+03 -0.68231137781E+03  0.69314455659E+03  0.00000000000E+00 0. -1.
          1    1    1    2  502    0  0.16321399219E+02 -0.53502641114E+02  0.14559411099E+04  0.14570152492E+04  0.00000000000E+00 0. -1.
         22    1    3    3    0    0  0.21506027717E+02 -0.43124290534E+02 -0.64449868366E+03  0.64629773859E+03  0.00000000000E+00 0. -1.
         22    1    3    3    0    0 -0.68738279711E+02 -0.21462353286E+02 -0.24013963114E+03  0.25070426033E+03  0.00000000000E+00 0. -1.
</event>
<event>
 7    1  0.6173324E-006  0.7132808E+02  0.7818608E-02  0.1376819E+00
          2   -1    0    0  502    0  0.00000000000E+00  0.00000000000E+00  0.12380886870E+04  0.12380886870E+04  0.00000000000E+00 0. -1.
          1   -1    0    0  501    0 -0.00000000000E+00 -0.00000000000E+00 -0.48729545336E+02  0.48729545336E+02  0.00000000000E+00 0. -1.
         25    2    1    2    0    0 -0.72430418664E+02 -0.91613590447E+02  0.75866104152E+03  0.77770797967E+03  0.12499564079E+03 0.  0.
          2    1    1    2  501    0  0.17715822131E+02  0.67493811362E+02 -0.44036849104E+01  0.69918934251E+02  0.00000000000E+00 0. -1.
          1    1    1    2  502    0  0.54714596533E+02  0.24119779085E+02  0.43510178506E+03  0.43919131842E+03  0.00000000000E+00 0. -1.
         22    1    3    3    0    0 -0.35480140128E+02  0.27096355304E+02  0.25846177463E+03  0.26228904240E+03  0.00000000000E+00 0. -1.
         22    1    3    3    0    0 -0.36950278536E+02 -0.11870994575E+03  0.50019926689E+03  0.51541893727E+03  0.00000000000E+00 0. -1.
</event>
<event>
 7    1  0.6173324E-006  0.5686669E+02  0.7818608E-02  0.1535159E+00
          2   -1    0    0  502    0  0.00000000000E+00  0.00000000000E+00  0.83749189997E+02  0.83749189997E+02  0.00000000000E+00 0. -1.
          1   -1    0    0  501    0 -0.00000000000E+00 -0.00000000000E+00 -0.15757689446E+04  0.15757689446E+04  0.00000000000E+00 0. -1.
         25    2    1    2    0    0  0.47463780240E+02  0.53320260154E+02 -0.40429417555E+02  0.14952197349E+03  0.12500568858E+03 0.  0.
          2    1    1    2  501    0 -0.31524629109E+01 -0.23293770380E+02 -0.14560910826E+04  0.14562808035E+04  0.00000000000E+00 0. -1.
          1    1    1    2  502    0 -0.44311317329E+02 -0.30026489774E+02  0.45007455708E+01  0.53715357602E+02  0.00000000000E+00 0. -1.
         22    1    3    3    0    0  0.89619983628E+02  0.47208270285E+02 -0.30456118427E+02  0.10577304665E+03  0.00000000000E+00 0. -1.
         22    1    3    3    0    0 -0.42156203388E+02  0.61119898691E+01 -0.99732991284E+01  0.43748926841E+02  0.00000000000E+00 0. -1.
</event>
<event>
 7    1  0.6173324E-006  0.1070727E+03  0.7818608E-02  0.1396406E+00
          2   -1    0    0  502    0  0.00000000000E+00  0.00000000000E+00  0.87379183094E+03  0.87379183094E+03  0.00000000000E+00 0. -1.
          1   -1    0    0  501    0 -0.00000000000E+00 -0.00000000000E+00 -0.10008427109E+03  0.10008427109E+03  0.00000000000E+00 0. -1.
         25    2    1    2    0    0  0.10949717887E+03 -0.21698491922E+01  0.30346851056E+03  0.34599074542E+03  0.12498847385E+03 0.  0.
          2    1    1    2  501    0 -0.79041868250E+01 -0.33074028338E+02 -0.69588024395E+02  0.77452312161E+02  0.00000000000E+00 0. -1.
          1    1    1    2  502    0 -0.10159299204E+03  0.35243877530E+02  0.53982707369E+03  0.55043304445E+03  0.00000000000E+00 0. -1.
         22    1    3    3    0    0  0.12880478816E+03  0.87508920491E+01  0.29541301722E+03  0.32239122554E+03  0.00000000000E+00 0. -1.
         22    1    3    3    0    0 -0.19307609290E+02 -0.10920741241E+02  0.80554933338E+01  0.23599519881E+02  0.00000000000E+00 0. -1.
</event>
<event>
 7    1  0.6173324E-006  0.6322072E+02  0.7818608E-02  0.1430033E+00
          2   -1    0    0  502    0  0.00000000000E+00  0.00000000000E+00  0.17064196975E+04  0.17064196975E+04  0.00000000000E+00 0. -1.
          1   -1    0    0  501    0 -0.00000000000E+00 -0.00000000000E+00 -0.19832596876E+03  0.19832596876E+03  0.00000000000E+00 0. -1.
         25    2    1    2    0    0 -0.10431310866E+03 -0.22022932340E+02  0.53753416112E+03  0.56208049404E+03  0.12500109288E+03 0.  0.
          2    1    1    2  501    0  0.60130313110E+02  0.18133542662E+02 -0.18031320979E+03  0.19093803589E+03  0.00000000000E+00 0. -1.
          1    1    1    2  502    0  0.44182795554E+02  0.38893896780E+01  0.11508727774E+04  0.11517271364E+04  0.00000000000E+00 0. -1.
         22    1    3    3    0    0 -0.12204563336E+03 -0.48554952397E+02  0.40541920310E+03  0.42616598910E+03  0.00000000000E+00 0. -1.
         22    1    3    3    0    0  0.17732524691E+02  0.26532020056E+02  0.13211495802E+03  0.13591450494E+03  0.00000000000E+00 0. -1.
</event>
<event>
 7    1  0.6173324E-006  0.9364283E+02  0.7818608E-02  0.1413612E+00
          2   -1    0    0  502    0  0.00000000000E+00  0.00000000000E+00  0.65444914470E+03  0.65444914470E+03  0.00000000000E+00 0. -1.
          1   -1    0    0  501    0 -0.00000000000E+00 -0.00000000000E+00 -0.13770837715E+03  0.13770837715E+03  0.00000000000E+00 0. -1.
         25    2    1    2    0    0 -0.27662298147E+02 -0.11472936911E+03  0.26546356069E+03  0.31626591598E+03  0.12500078673E+03 0.  0.
          2    1    1    2  501    0 -0.72212982202E+01  0.33187126655E+02 -0.10415935500E+03  0.10955685171E+03  0.00000000000E+00 0. -1.
          1    1    1    2  502    0  0.34883596368E+02  0.81542242452E+02  0.35543656186E+03  0.36633475416E+03  0.00000000000E+00 0. -1.
         22    1    3    3    0    0 -0.44859799052E+02 -0.16121532114E+02  0.17490341607E+03  0.18128295651E+03  0.00000000000E+00 0. -1.
         22    1    3    3    0    0  0.17197500904E+02 -0.98607836992E+02  0.90560144619E+02  0.13498295947E+03  0.00000000000E+00 0. -1.
</event>
<event>
 7    1  0.6173324E-006  0.4159116E+02  0.7818608E-02  0.1518284E+00
          2   -1    0    0  502    0  0.00000000000E+00  0.00000000000E+00  0.11616783754E+03  0.11616783754E+03  0.00000000000E+00 0. -1.
          1   -1    0    0  501    0 -0.00000000000E+00 -0.00000000000E+00 -0.50116649281E+03  0.50116649281E+03  0.00000000000E+00 0. -1.
         25    2    1    2    0    0  0.38995502792E+02  0.74954497835E+01 -0.28321012909E+03  0.31210493642E+03  0.12499873244E+03 0.  0.
          2    1    1    2  501    0 -0.75802019979E+01 -0.35133346129E+02 -0.19751457063E+03  0.20075810590E+03  0.00000000000E+00 0. -1.
          1    1    1    2  502    0 -0.31415300794E+02  0.27637896345E+02  0.95726044443E+02  0.10447128803E+03  0.00000000000E+00 0. -1.
         22    1    3    3    0    0 -0.35638162913E+02 -0.30526102304E+02 -0.89316411972E+02  0.10089273029E+03  0.00000000000E+00 0. -1.
         22    1    3    3    0    0  0.74633665704E+02  0.38021552088E+02 -0.19389371712E+03  0.21121220613E+03  0.00000000000E+00 0. -1.
</event>
<event>
 7    1  0.6173324E-006  0.3218833E+02  0.7818608E-02  0.1577001E+00
          2   -1    0    0  502    0  0.00000000000E+00  0.00000000000E+00  0.82524991167E+03  0.82524991167E+03  0.00000000000E+00 0. -1.
          1   -1    0    0  501    0 -0.00000000000E+00 -0.00000000000E+00 -0.13731677977E+03  0.13731677977E+03  0.00000000000E+00 0. -1.
         25    2    1    2    0    0 -0.10210176016E+02 -0.56470202355E+01  0.52681941492E+02  0.13614769937E+03  0.12499869020E+03 0.  0.
          2    1    1    2  501    0  0.23515246123E+02 -0.23244899742E+02 -0.92366494504E+02  0.98106378341E+02  0.00000000000E+00 0. -1.
          1    1    1    2  502    0 -0.13305070106E+02  0.28891919977E+02  0.72761768491E+03  0.72831261373E+03  0.00000000000E+00 0. -1.
         22    1    3    3    0    0  0.39628986963E+02  0.20394036380E+02  0.64777797553E+02  0.78629106464E+02  0.00000000000E+00 0.  1.
         22    1    3    3    0    0 -0.49839162979E+02 -0.26041056616E+02 -0.12095856060E+02  0.57518592907E+02  0.00000000000E+00 0.  1.
</event>
<event>
 7    1  0.6173324E-006  0.8883966E+02  0.7818608E-02  0.1355100E+00
          2   -1    0    0  502    0  0.00000000000E+00  0.00000000000E+00  0.31952191082E+04  0.31952191082E+04  0.00000000000E+00 0. -1.
          1   -1    0    0  501    0 -0.00000000000E+00 -0.00000000000E+00 -0.86864991536E+02  0.86864991536E+02  0.00000000000E+00 0. -1.
         25    2    1    2    0    0 -0.21837782682E+02 -0.92133674554E+02  0.13747405721E+04  0.13836546187E+04  0.12499184173E+03 0.  0.
          2    1    1    2  501    0 -0.47257418145E+02  0.32805427119E+02 -0.71078019915E+02  0.91441481469E+02  0.00000000000E+00 0. -1.
          1    1    1    2  502    0  0.69095200827E+02  0.59328247435E+02  0.18046915645E+04  0.18069879996E+04  0.00000000000E+00 0. -1.
         22    1    3    3    0    0  0.40595655293E+02  0.49558097674E+01  0.40919145309E+03  0.41123012118E+03  0.00000000000E+00 0.  1.
         22    1    3    3    0    0 -0.62433437975E+02 -0.97089484321E+02  0.96554911897E+03  0.97242449748E+03  0.00000000000E+00 0.  1.
</event>
<event>
 7    1  0.6173324E-006  0.4121603E+02  0.7818608E-02  0.1516750E+00
          2   -1    0    0  502    0  0.00000000000E+00  0.00000000000E+00  0.13067623653E+03  0.13067623653E+03  0.00000000000E+00 0. -1.
          1   -1    0    0  501    0 -0.00000000000E+00 -0.00000000000E+00 -0.51777378658E+03  0.51777378658E+03  0.00000000000E+00 0. -1.
         25    2    1    2    0    0  0.26788903124E+02 -0.35773887234E+02  0.36387539124E+02  0.13764893714E+03  0.12500304218E+03 0.  0.
          2    1    1    2  501    0 -0.41294881769E+02  0.21233422580E+01 -0.45835572141E+03  0.46021706096E+03  0.00000000000E+00 0. -1.
          1    1    1    2  502    0  0.14505978645E+02  0.33650544976E+02  0.34870632239E+02  0.50584025012E+02  0.00000000000E+00 0. -1.
         22    1    3    3    0    0  0.55037385740E+01  0.45556741062E+02  0.26524860102E+02  0.53002603690E+02  0.00000000000E+00 0. -1.
         22    1    3    3    0    0  0.21285164550E+02 -0.81330628296E+02  0.98626790222E+01  0.84646333450E+02  0.00000000000E+00 0. -1.
</event>
<event>
 7    1  0.6173324E-006  0.1631460E+03  0.7818608E-02  0.1297009E+00
          2   -1    0    0  502    0  0.00000000000E+00  0.00000000000E+00  0.73018549020E+03  0.73018549020E+03  0.00000000000E+00 0. -1.
          1   -1    0    0  501    0 -0.00000000000E+00 -0.00000000000E+00 -0.16566740435E+04  0.16566740435E+04  0.00000000000E+00 0. -1.
         25    2    1    2    0    0  0.12161285535E+03  0.59308971829E+02  0.11467106561E+03  0.21698395343E+03  0.12500136812E+03 0.  0.
          2    1    1    2  501    0 -0.16194312610E+03 -0.25859689060E+02 -0.16001013554E+04  0.16084833376E+04  0.00000000000E+00 0. -1.
          1    1    1    2  502    0  0.40330270749E+02 -0.33449282769E+02  0.55894173656E+03  0.56139224266E+03  0.00000000000E+00 0. -1.
         22    1    3    3    0    0  0.40401018291E+02  0.69091067374E+02  0.10867322351E+03  0.13496550440E+03  0.00000000000E+00 0.  1.
         22    1    3    3    0    0  0.81211837057E+02 -0.97820955445E+01  0.59978420985E+01  0.82018449029E+02  0.00000000000E+00 0.  1.
</event>
<event>
 7    1  0.6173324E-006  0.1487404E+03  0.7818608E-02  0.1274151E+00
          2   -1    0    0  502    0  0.00000000000E+00  0.00000000000E+00  0.13777208806E+04  0.13777208806E+04  0.00000000000E+00 0. -1.
          1   -1    0    0  501    0 -0.00000000000E+00 -0.00000000000E+00 -0.25822649829E+03  0.25822649829E+03  0.00000000000E+00 0. -1.
         25    2    1    2    0    0 -0.80185708878E+02 -0.10443184292E+03  0.60362087277E+03  0.63033222110E+03  0.12499917275E+03 0.  0.
          2    1    1    2  501    0  0.42890608799E+02 -0.56954600095E+02 -0.23040036909E+03  0.24117993463E+03  0.00000000000E+00 0. -1.
          1    1    1    2  502    0  0.37295100079E+02  0.16138644302E+03  0.74627387863E+03  0.76443522316E+03  0.00000000000E+00 0. -1.
         22    1    3    3    0    0 -0.10091452797E+03 -0.34964240455E+02  0.40677033436E+03  0.42055718396E+03  0.00000000000E+00 0.  1.
         22    1    3    3    0    0  0.20728819094E+02 -0.69467602466E+02  0.19685053842E+03  0.20977503714E+03  0.00000000000E+00 0.  1.
</event>
<event>
 7    1  0.6173324E-006  0.2054595E+03  0.7818608E-02  0.1327891E+00
          2   -1    0    0  502    0  0.00000000000E+00  0.00000000000E+00  0.92777686953E+03  0.92777686953E+03  0.00000000000E+00 0. -1.
          1   -1    0    0  501    0 -0.00000000000E+00 -0.00000000000E+00 -0.15476618883E+04  0.15476618883E+04  0.00000000000E+00 0. -1.
         25    2    1    2    0    0  0.16878656586E+03 -0.94852384414E+02 -0.15090722138E+02  0.23095307204E+03  0.12500284775E+03 0.  0.
          2    1    1    2  501    0  0.24167034542E+02  0.20157470124E+02 -0.14114073828E+04  0.14117581837E+04  0.00000000000E+00 0. -1.
          1    1    1    2  502    0 -0.19295360041E+03  0.74694914290E+02  0.80661308609E+03  0.83272750212E+03  0.00000000000E+00 0. -1.
         22    1    3    3    0    0  0.14485016781E+03 -0.26656321432E+02  0.23301098828E+02  0.14911429104E+03  0.00000000000E+00 0. -1.
         22    1    3    3    0    0  0.23936398054E+02 -0.68196062982E+02 -0.38391820966E+02  0.81838780998E+02  0.00000000000E+00 0. -1.
</event>
<event>
 7    1  0.6173324E-006  0.5828629E+02  0.7818608E-02  0.1424444E+00
          2   -1    0    0  502    0  0.00000000000E+00  0.00000000000E+00  0.36382999851E+03  0.36382999851E+03  0.00000000000E+00 0. -1.
          1   -1    0    0  501    0 -0.00000000000E+00 -0.00000000000E+00 -0.60757509071E+03  0.60757509071E+03  0.00000000000E+00 0. -1.
         25    2    1    2    0    0  0.38421036517E+02 -0.10053764810E+03 -0.19414359671E+03  0.25475522958E+03  0.12499798447E+03 0.  0.
          2    1    1    2  501    0 -0.21652929554E+02  0.45289045356E+02 -0.37895927923E+03  0.38226964607E+03  0.00000000000E+00 0. -1.
          1    1    1    2  502    0 -0.16768106963E+02  0.55248602744E+02  0.32935778374E+03  0.33438021357E+03  0.00000000000E+00 0. -1.
         22    1    3    3    0    0 -0.35528334180E+02 -0.49399683717E+02 -0.30559937001E+02  0.68091857299E+02  0.00000000000E+00 0.  1.
         22    1    3    3    0    0  0.73949370697E+02 -0.51137964383E+02 -0.16358365970E+03  0.18666337228E+03  0.00000000000E+00 0.  1.
</event>
<event>
 7    1  0.6173324E-006  0.5857730E+02  0.7818608E-02  0.1447516E+00
          2   -1    0    0  502    0  0.00000000000E+00  0.00000000000E+00  0.37521686958E+03  0.37521686958E+03  0.00000000000E+00 0. -1.
          1   -1    0    0  501    0 -0.00000000000E+00 -0.00000000000E+00 -0.13231614175E+03  0.13231614175E+03  0.00000000000E+00 0. -1.
         25    2    1    2    0    0  0.67586735635E+02 -0.44222998068E+02  0.10524780612E+03  0.18228051841E+03  0.12500178521E+03 0.  0.
          2    1    1    2  501    0 -0.41435546104E+02 -0.68435458548E+01 -0.85277423564E+02  0.95057759128E+02  0.00000000000E+00 0. -1.
          1    1    1    2  502    0 -0.26151189531E+02  0.51066543923E+02  0.22293034527E+03  0.23019473379E+03  0.00000000000E+00 0. -1.
         22    1    3    3    0    0  0.70535751736E+02 -0.57712380039E+02  0.16690291598E+02  0.92652991945E+02  0.00000000000E+00 0. -1.
         22    1    3    3    0    0 -0.29490161015E+01  0.13489381971E+02  0.88557514520E+02  0.89627526463E+02  0.00000000000E+00 0. -1.
</event>
<event>
 7    1  0.6173324E-006  0.1253884E+03  0.7818608E-02  0.1244353E+00
          2   -1    0    0  502    0  0.00000000000E+00  0.00000000000E+00  0.50062187045E+02  0.50062187045E+02  0.00000000000E+00 0. -1.
          1   -1    0    0  501    0 -0.00000000000E+00 -0.00000000000E+00 -0.22949611749E+04  0.22949611749E+04  0.00000000000E+00 0. -1.
         25    2    1    2    0    0 -0.71512056379E+02 -0.12072651715E+03 -0.23629544687E+03  0.30190944069E+03  0.12499962406E+03 0.  0.
          2    1    1    2  501    0 -0.60701792102E+02  0.95781805151E+02 -0.17301094473E+04  0.17338216636E+04  0.00000000000E+00 0. -1.
          1    1    1    2  502    0  0.13221384848E+03  0.24944711994E+02 -0.27849409367E+03  0.30929225757E+03  0.00000000000E+00 0. -1.
         22    1    3    3    0    0 -0.26910978614E+02  0.17526665943E+02 -0.90780693215E+02  0.96293920108E+02  0.00000000000E+00 0. -1.
         22    1    3    3    0    0 -0.44601077764E+02 -0.13825318309E+03 -0.14551475365E+03  0.20561552058E+03  0.00000000000E+00 0. -1.
</event>
<event>
 7    1  0.6173324E-006  0.1203773E+03  0.7818608E-02  0.1370166E+00
          2   -1    0    0  502    0  0.00000000000E+00  0.00000000000E+00  0.24647527446E+02  0.24647527446E+02  0.00000000000E+00 0. -1.
          1   -1    0    0  501    0 -0.00000000000E+00 -0.00000000000E+00 -0.21175327204E+04  0.21175327204E+04  0.00000000000E+00 0. -1.
         25    2    1    2    0    0 -0.91815484414E+02 -0.68621086748E+02 -0.40756215960E+03  0.44143339921E+03  0.12497037760E+03 0.  0.
          2    1    1    2  501    0  0.11525165270E+03  0.39441407069E+02 -0.16263163455E+04  0.16308719826E+04  0.00000000000E+00 0. -1.
          1    1    1    2  502    0 -0.23436168287E+02  0.29179679680E+02 -0.59006687885E+02  0.69874866048E+02  0.00000000000E+00 0. -1.
         22    1    3    3    0    0 -0.96382963737E+02 -0.10435412944E+01 -0.29185374812E+03  0.30735870733E+03  0.00000000000E+00 0.  1.
         22    1    3    3    0    0  0.45674793236E+01 -0.67577545454E+02 -0.11570841148E+03  0.13407469188E+03  0.00000000000E+00 0.  1.
</event>
<event>
 7    1  0.6173324E-006  0.1345123E+03  0.7818608E-02  0.1244608E+00
          2   -1    0    0  502    0  0.00000000000E+00  0.00000000000E+00  0.29356965845E+04  0.29356965845E+04  0.00000000000E+00 0. -1.
          1   -1    0    0  501    0 -0.00000000000E+00 -0.00000000000E+00 -0.28933637957E+03  0.28933637957E+03  0.00000000000E+00 0. -1.
         25    2    1    2    0    0  0.44360405910E+02 -0.17882538606E+03  0.23063069106E+03  0.32056572679E+03  0.12500202087E+03 0.  0.
          2    1    1    2  501    0  0.55419080936E+02  0.89693296463E+02 -0.23122777994E+03  0.25413076984E+03  0.00000000000E+00 0. -1.
          1    1    1    2  502    0 -0.99779486846E+02  0.89132089600E+02  0.26469572938E+04  0.26503364674E+04  0.00000000000E+00 0. -1.
         22    1    3    3    0    0 -0.48077822831E+01 -0.11452274429E+03  0.20636278625E+03  0.23605968160E+03  0.00000000000E+00 0.  1.
         22    1    3    3    0    0  0.49168188193E+02 -0.64302641774E+02  0.24267904806E+02  0.84506045186E+02  0.00000000000E+00 0.  1.
</event>
<event>
 7    1  0.6173324E-006  0.6235853E+02  0.7818608E-02  0.1448559E+00
          2   -1    0    0  502    0  0.00000000000E+00  0.00000000000E+00  0.10740003426E+04  0.10740003426E+04  0.00000000000E+00 0. -1.
          1   -1    0    0  501    0 -0.00000000000E+00 -0.00000000000E+00 -0.50758841783E+03  0.50758841783E+03  0.00000000000E+00 0. -1.
         25    2    1    2    0    0  0.47691207616E+02 -0.44008829344E+02 -0.22033651733E+03  0.26150490377E+03  0.12500162193E+03 0.  0.
          2    1    1    2  501    0 -0.35203502684E+02 -0.17124359006E+02 -0.26430074869E+03  0.26718423612E+03  0.00000000000E+00 0. -1.
          1    1    1    2  502    0 -0.12487704932E+02  0.61133188350E+02  0.10510491908E+04  0.10528996205E+04  0.00000000000E+00 0. -1.
         22    1    3    3    0    0  0.45559196367E+01 -0.31212415271E+02  0.48089930613E+01  0.31907643050E+02  0.00000000000E+00 0. -1.
         22    1    3    3    0    0  0.43135287979E+02 -0.12796414074E+02 -0.22514551039E+03  0.22959726072E+03  0.00000000000E+00 0. -1.
</event>
<event>
 7    1  0.6173324E-006  0.3488361E+02  0.7818608E-02  0.1589043E+00
          2   -1    0    0  502    0  0.00000000000E+00  0.00000000000E+00  0.32275544645E+04  0.32275544645E+04  0.00000000000E+00 0. -1.
          1   -1    0    0  501    0 -0.00000000000E+00 -0.00000000000E+00 -0.31375259492E+02  0.31375259492E+02  0.00000000000E+00 0. -1.
         25    2    1    2    0    0 -0.28470449206E+02 -0.27016229541E+02  0.12362164728E+04  0.12431397923E+04  0.12499972926E+03 0.  0.
          2    1    1    2  501    0 -0.66571497681E+01  0.26429916507E+02 -0.21067324695E+02  0.34448371505E+02  0.00000000000E+00 0. -1.
          1    1    1    2  502    0  0.35127598974E+02  0.58631303412E+00  0.19810300569E+04  0.19813415603E+04  0.00000000000E+00 0. -1.
         22    1    3    3    0    0 -0.66346590676E+02 -0.42257994784E+02  0.53681369390E+03  0.54254635763E+03  0.00000000000E+00 0.  1.
         22    1    3    3    0    0  0.37876141470E+02  0.15241765243E+02  0.69940277893E+03  0.70059343465E+03  0.00000000000E+00 0.  1.
</event>
<event>
 7    1  0.6173324E-006  0.1767606E+03  0.7818608E-02  0.1291477E+00
          2   -1    0    0  502    0  0.00000000000E+00  0.00000000000E+00  0.90243194844E+03  0.90243194844E+03  0.00000000000E+00 0. -1.
          1   -1    0    0  501    0 -0.00000000000E+00 -0.00000000000E+00 -0.84790696867E+03  0.84790696867E+03  0.00000000000E+00 0. -1.
         25    2    1    2    0    0 -0.17870564116E+03 -0.60586156423E+02  0.17637839176E+03  0.28695086563E+03  0.12500029469E+03 0.  0.
          2    1    1    2  501    0  0.17626674729E+03  0.97303311243E+01 -0.78179839271E+03  0.80148198507E+03  0.00000000000E+00 0. -1.
          1    1    1    2  502    0  0.24388938695E+01  0.50855825299E+02  0.65994498072E+03  0.66190606641E+03  0.00000000000E+00 0. -1.
         22    1    3    3    0    0 -0.15215116178E+03 -0.30934380021E+02  0.18955124048E+03  0.24502364103E+03  0.00000000000E+00 0.  1.
         22    1    3    3    0    0 -0.26554479383E+02 -0.29651776402E+02 -0.13172848717E+02  0.41927224597E+02  0.00000000000E+00 0.  1.
</event>
<event>
 7    1  0.6173324E-006  0.3290450E+03  0.7818608E-02  0.1305129E+00
          2   -1    0    0  502    0  0.00000000000E+00  0.00000000000E+00  0.24725510203E+04  0.24725510203E+04  0.00000000000E+00 0. -1.
          1   -1    0    0  501    0 -0.00000000000E+00 -0.00000000000E+00 -0.33013527232E+03  0.33013527232E+03  0.00000000000E+00 0. -1.
         25    2    1    2    0    0 -0.27363332452E+03 -0.22108591856E+03 -0.19088647433E+03  0.41930427301E+03  0.12499699039E+03 0.  0.
          2    1    1    2  501    0  0.15378658470E+02  0.18566622044E+02 -0.28619439740E+01  0.24277835855E+02  0.00000000000E+00 0. -1.
          1    1    1    2  502    0  0.25825466605E+03  0.20251929651E+03  0.23361641663E+04  0.23591041837E+04  0.00000000000E+00 0. -1.
         22    1    3    3    0    0 -0.25433912322E+03 -0.18655871312E+03 -0.11875233375E+03  0.33703806879E+03  0.00000000000E+00 0.  1.
         22    1    3    3    0    0 -0.19294201299E+02 -0.34527205433E+02 -0.72134140579E+02  0.82266204214E+02  0.00000000000E+00 0.  1.
</event>
<event>
 7    1  0.6173324E-006  0.3435990E+03  0.7818608E-02  0.1207849E+00
          2   -1    0    0  502    0  0.00000000000E+00  0.00000000000E+00  0.16738230755E+04  0.16738230755E+04  0.00000000000E+00 0. -1.
          1   -1    0    0  501    0 -0.00000000000E+00 -0.00000000000E+00 -0.14471680385E+04  0.14471680385E+04  0.00000000000E+00 0. -1.
         25    2    1    2    0    0  0.27429853610E+03 -0.13117640540E+03  0.16267458909E+03  0.36679060740E+03  0.12500156599E+03 0.  0.
          2    1    1    2  501    0 -0.29099569601E+03  0.18930230129E+03 -0.13220411484E+04  0.13668601445E+04  0.00000000000E+00 0. -1.
          1    1    1    2  502    0  0.16697159909E+02 -0.58125895889E+02  0.13860215963E+04  0.13873403621E+04  0.00000000000E+00 0. -1.
         22    1    3    3    0    0  0.11786184250E+03 -0.12531806690E+03  0.79412982077E+02  0.18947942772E+03  0.00000000000E+00 0. -1.
         22    1    3    3    0    0  0.15643669361E+03 -0.58583385045E+01  0.83261607016E+02  0.17731117968E+03  0.00000000000E+00 0. -1.
</event>
<event>
 7    1  0.6173324E-006  0.9594266E+02  0.7818608E-02  0.1372910E+00
          2   -1    0    0  502    0  0.00000000000E+00  0.00000000000E+00  0.59658822311E+03  0.59658822311E+03  0.00000000000E+00 0. -1.
          1   -1    0    0  501    0 -0.00000000000E+00 -0.00000000000E+00 -0.17698631917E+03  0.17698631917E+03  0.00000000000E+00 0. -1.
         25    2    1    2    0    0 -0.10956728663E+03  0.30348757039E+02  0.74446908364E+02  0.18464823720E+03  0.12500636777E+03 0.  0.
          2    1    1    2  501    0  0.35411499928E+02  0.29211880415E+02 -0.11249307777E+03  0.12149897461E+03  0.00000000000E+00 0. -1.
          1    1    1    2  502    0  0.74155786707E+02 -0.59560637454E+02  0.45764807334E+03  0.46742733047E+03  0.00000000000E+00 0. -1.
         22    1    3    3    0    0 -0.22177856158E+01 -0.26241069302E+02  0.56025245097E+02  0.61905899390E+02  0.00000000000E+00 0.  1.
         22    1    3    3    0    0 -0.10734950102E+03  0.56589826341E+02  0.18421663267E+02  0.12274233781E+03  0.00000000000E+00 0.  1.
</event>
<event>
 7    1  0.6173324E-006  0.4592723E+02  0.7818608E-02  0.1507548E+00
          2   -1    0    0  502    0  0.00000000000E+00  0.00000000000E+00  0.19089122390E+04  0.19089122390E+04  0.00000000000E+00 0. -1.
          1   -1    0    0  501    0 -0.00000000000E+00 -0.00000000000E+00 -0.41948317461E+03  0.41948317461E+03  0.00000000000E+00 0. -1.
         25    2    1    2    0    0  0.12000041006E+02  0.10981447136E+02  0.20180152286E+03  0.23793606109E+03  0.12500048549E+03 0.  0.
          2    1    1    2  501    0 -0.46039198262E+02 -0.28576387443E+01 -0.39990873068E+03  0.40256026475E+03  0.00000000000E+00 0. -1.
          1    1    1    2  502    0  0.34039157257E+02 -0.81238083915E+01  0.16875362723E+04  0.16878990878E+04  0.00000000000E+00 0. -1.
         22    1    3    3    0    0 -0.51785166313E+02  0.28062938846E+02  0.79433834211E+02  0.98888654577E+02  0.00000000000E+00 0.  1.
         22    1    3    3    0    0  0.63785207319E+02 -0.17081491710E+02  0.12236768865E+03  0.13904740651E+03  0.00000000000E+00 0.  1.
</event>
<event>
 7    1  0.6715672E-006  0.1283453E+03  0.7818608E-02  0.1233415E+00
          2   -1    0    0  502    0  0.00000000000E+00  0.00000000000E+00  0.24650672579E+04  0.24650672579E+04  0.00000000000E+00 0. -1.
          1   -1    0    0  501    0 -0.00000000000E+00 -0.00000000000E+00 -0.16232303307E+04  0.16232303307E+04  0.00000000000E+00 0. -1.
         25    2    1    2    0    0  0.24088067830E+01  0.73618644753E+02 -0.19113972068E+03  0.23996887845E+03  0.12500065037E+03 0.  0.
          2    1    1    2  501    0 -0.12805399254E+03 -0.47430631148E+02 -0.14026706976E+04  0.14093021591E+04  0.00000000000E+00 0. -1.
          1    1    1    2  502    0  0.12564518576E+03 -0.26188013606E+02  0.24356473456E+04  0.24390265510E+04  0.00000000000E+00 0. -1.
         22    1    3    3    0    0  0.43872564728E+02 -0.10297590759E+02 -0.31744976800E+02  0.55123369484E+02  0.00000000000E+00 0.  1.
         22    1    3    3    0    0 -0.41463757945E+02  0.83916235513E+02 -0.15939474388E+03  0.18484550896E+03  0.00000000000E+00 0.  1.
</event>
<event>
 7    1  0.6173324E-006  0.8453858E+02  0.7818608E-02  0.1360552E+00
          2   -1    0    0  502    0  0.00000000000E+00  0.00000000000E+00  0.12550742752E+04  0.12550742752E+04  0.00000000000E+00 0. -1.
          1   -1    0    0  501    0 -0.00000000000E+00 -0.00000000000E+00 -0.50710418181E+03  0.50710418181E+03  0.00000000000E+00 0. -1.
         25    2    1    2    0    0  0.80530393970E+02  0.74763409785E+02  0.28079355991E+03  0.32641154364E+03  0.12499904294E+03 0.  0.
          2    1    1    2  501    0 -0.57461740854E+02  0.56464350910E+01 -0.48072564880E+03  0.48418063086E+03  0.00000000000E+00 0. -1.
          1    1    1    2  502    0 -0.23068653116E+02 -0.80409844876E+02  0.94790218227E+03  0.95158628251E+03  0.00000000000E+00 0. -1.
         22    1    3    3    0    0  0.10386328060E+03  0.19265487086E+02  0.19183037311E+03  0.21899231059E+03  0.00000000000E+00 0.  1.
         22    1    3    3    0    0 -0.23332886632E+02  0.55497922698E+02  0.88963186804E+02  0.10741923305E+03  0.00000000000E+00 0.  1.
</event>
<event>
 7    1  0.6173324E-006  0.3076407E+02  0.7818608E-02  0.1621357E+00
          2   -1    0    0  502    0  0.00000000000E+00  0.00000000000E+00  0.70177019937E+02  0.70177019937E+02  0.00000000000E+00 0. -1.
          1   -1    0    0  501    0 -0.00000000000E+00 -0.00000000000E+00 -0.78386857190E+03  0.78386857190E+03  0.00000000000E+00 0. -1.
         25    2    1    2    0    0  0.42100975545E+01  0.20874170185E+02 -0.32489470467E+03  0.34876254669E+03  0.12500115581E+03 0.  0.
          2    1    1    2  501    0  0.21131304743E+02 -0.23501393387E+02 -0.44366454740E+03  0.44478880173E+03  0.00000000000E+00 0. -1.
          1    1    1    2  502    0 -0.25341402297E+02  0.26272232018E+01  0.54867700096E+02  0.60494243412E+02  0.00000000000E+00 0. -1.
         22    1    3    3    0    0 -0.51755070140E+02  0.23927850595E+02 -0.84622298501E+02  0.10203951550E+03  0.00000000000E+00 0. -1.
         22    1    3    3    0    0  0.55965167694E+02 -0.30536804102E+01 -0.24027240616E+03  0.24672303120E+03  0.00000000000E+00 0. -1.
</event>
<event>
 7    1  0.6173324E-006  0.7406509E+02  0.7818608E-02  0.1386473E+00
          2   -1    0    0  502    0  0.00000000000E+00  0.00000000000E+00  0.22024301123E+04  0.22024301123E+04  0.00000000000E+00 0. -1.
          1   -1    0    0  501    0 -0.00000000000E+00 -0.00000000000E+00 -0.40354073942E+03  0.40354073942E+03  0.00000000000E+00 0. -1.
         25    2    1    2    0    0 -0.60732186641E+02 -0.64473381465E+02 -0.42398817327E+02  0.15897244216E+03  0.12501744776E+03 0.  0.
          2    1    1    2  501    0  0.73112472947E+02  0.12697347788E+02 -0.29797337339E+03  0.30707456357E+03  0.00000000000E+00 0. -1.
          1    1    1    2  502    0 -0.12380286306E+02  0.51776033678E+02  0.21392615636E+04  0.21399238460E+04  0.00000000000E+00 0. -1.
         22    1    3    3    0    0  0.98037676456E+01  0.19186621840E+02  0.22980727999E+02  0.31501653560E+02  0.00000000000E+00 0. -1.
         22    1    3    3    0    0 -0.70535954287E+02 -0.83660003305E+02 -0.65379545326E+02  0.12747078860E+03  0.00000000000E+00 0. -1.
</event>
<event>
 7    1  0.6173324E-006  0.5393989E+02  0.7818608E-02  0.1459947E+00
          2   -1    0    0  502    0  0.00000000000E+00  0.00000000000E+00  0.69703532488E+03  0.69703532488E+03  0.00000000000E+00 0. -1.
          1   -1    0    0  501    0 -0.00000000000E+00 -0.00000000000E+00 -0.71715561896E+03  0.71715561896E+03  0.00000000000E+00 0. -1.
         25    2    1    2    0    0 -0.11284318353E+02  0.92545058183E+02 -0.53123423713E+01  0.15603071830E+03  0.12500176173E+03 0.  0.
          2    1    1    2  501    0  0.13994390422E+02 -0.39213964321E+02 -0.63465396056E+03  0.63601826044E+03  0.00000000000E+00 0. -1.
          1    1    1    2  502    0 -0.27100720689E+01 -0.53331093862E+02  0.61984600885E+03  0.62214196511E+03  0.00000000000E+00 0. -1.
         22    1    3    3    0    0 -0.29525431905E+02  0.89388440263E+01  0.46642054963E+02  0.55920795353E+02  0.00000000000E+00 0. -1.
         22    1    3    3    0    0  0.18241113552E+02  0.83606214157E+02 -0.51954397334E+02  0.10010992294E+03  0.00000000000E+00 0. -1.
</event>
<event>
 7    1  0.6173324E-006  0.1049996E+03  0.7818608E-02  0.1285964E+00
          2   -1    0    0  502    0  0.00000000000E+00  0.00000000000E+00  0.79133594551E+03  0.79133594551E+03  0.00000000000E+00 0. -1.
          1   -1    0    0  501    0 -0.00000000000E+00 -0.00000000000E+00 -0.62194280595E+03  0.62194280595E+03  0.00000000000E+00 0. -1.
         25    2    1    2    0    0  0.16808949144E+03  0.88151001229E+02  0.68696401013E+02  0.23742107918E+03  0.12499958871E+03 0.  0.
          2    1    1    2  501    0 -0.84744708358E+02 -0.31074709148E+02 -0.52974227327E+03  0.53737712943E+03  0.00000000000E+00 0. -1.
          1    1    1    2  502    0 -0.83344783083E+02 -0.57076292082E+02  0.63043901181E+03  0.63848054285E+03  0.00000000000E+00 0. -1.
         22    1    3    3    0    0 -0.44910720342E+01  0.15147455145E+02 -0.23708042129E+02  0.28490110337E+02  0.00000000000E+00 0. -1.
         22    1    3    3    0    0  0.17258056348E+03  0.73003546084E+02  0.92404443143E+02  0.20893096885E+03  0.00000000000E+00 0. -1.
</event>
<event>
 7    1  0.6173324E-006  0.3942842E+03  0.7818608E-02  0.1186323E+00
          2   -1    0    0  502    0  0.00000000000E+00  0.00000000000E+00  0.12403676642E+04  0.12403676642E+04  0.00000000000E+00 0. -1.
          1   -1    0    0  501    0 -0.00000000000E+00 -0.00000000000E+00 -0.21573383904E+04  0.21573383904E+04  0.00000000000E+00 0. -1.
         25    2    1    2    0    0 -0.64441274658E+02  0.43104414453E+03 -0.36876273295E+03  0.58443267920E+03  0.12499548351E+03 0.  0.
          2    1    1    2  501    0  0.98083743029E+02 -0.37349599756E+03 -0.16575463167E+04  0.17019340390E+04  0.00000000000E+00 0. -1.
          1    1    1    2  502    0 -0.33642468371E+02 -0.57548146966E+02  0.11093383235E+04  0.11113393365E+04  0.00000000000E+00 0. -1.
         22    1    3    3    0    0  0.37927950831E+00  0.31717453239E+03 -0.21896116305E+03  0.38541382795E+03  0.00000000000E+00 0.  1.
         22    1    3    3    0    0 -0.64820554167E+02  0.11386961213E+03 -0.14980156990E+03  0.19901885125E+03  0.00000000000E+00 0.  1.
</event>
<event>
 7    1  0.6173324E-006  0.9073528E+02  0.7818608E-02  0.1386971E+00
          2   -1    0    0  502    0  0.00000000000E+00  0.00000000000E+00  0.76981526826E+02  0.76981526826E+02  0.00000000000E+00 0. -1.
          1   -1    0    0  501    0 -0.00000000000E+00 -0.00000000000E+00 -0.15700674516E+04  0.15700674516E+04  0.00000000000E+00 0. -1.
         25    2    1    2    0    0  0.51040819826E+02  0.58242721354E+02 -0.23310881789E+03  0.27561250066E+03  0.12500059866E+03 0.  0.
          2    1    1    2  501    0 -0.21493974128E+02 -0.89868628492E+02 -0.13054168468E+04  0.13086831188E+04  0.00000000000E+00 0. -1.
          1    1    1    2  502    0 -0.29546845698E+02  0.31625907138E+02  0.45439739982E+02  0.62753358975E+02  0.00000000000E+00 0. -1.
         22    1    3    3    0    0  0.83894384394E+02  0.72768488490E+02 -0.17247633950E+03  0.20513802265E+03  0.00000000000E+00 0. -1.
         22    1    3    3    0    0 -0.32853564568E+02 -0.14525767136E+02 -0.60632478392E+02  0.70474478017E+02  0.00000000000E+00 0. -1.
</event>
<event>
 7    1  0.6173324E-006  0.5719005E+02  0.7818608E-02  0.1428423E+00
          2   -1    0    0  502    0  0.00000000000E+00  0.00000000000E+00  0.77825923648E+03  0.77825923648E+03  0.00000000000E+00 0. -1.
          1   -1    0    0  501    0 -0.00000000000E+00 -0.00000000000E+00 -0.36440684111E+03  0.36440684111E+03  0.00000000000E+00 0. -1.
         25    2    1    2    0    0  0.22904563266E+02  0.34756853469E+02  0.81942282269E+02  0.15515009085E+03  0.12499742072E+03 0.  0.
          2    1    1    2  501    0 -0.57931445861E+02  0.40837372248E+00 -0.32429877888E+03  0.32943272025E+03  0.00000000000E+00 0. -1.
          1    1    1    2  502    0  0.35026882595E+02 -0.35165227191E+02  0.65620889198E+03  0.65808326648E+03  0.00000000000E+00 0. -1.
         22    1    3    3    0    0 -0.31789219430E+01  0.21870791595E+02 -0.31251970577E+02  0.38276921698E+02  0.00000000000E+00 0. -1.
         22    1    3    3    0    0  0.26083485209E+02  0.12886061874E+02  0.11319425285E+03  0.11687316916E+03  0.00000000000E+00 0. -1.
</event>
<event>
 7    1  0.6173324E-006  0.4693029E+02  0.7818608E-02  0.1540967E+00
          2   -1    0    0  502    0  0.00000000000E+00  0.00000000000E+00  0.68986152090E+03  0.68986152090E+03  0.00000000000E+00 0. -1.
          1   -1    0    0  501    0 -0.00000000000E+00 -0.00000000000E+00 -0.13933423214E+04  0.13933423214E+04  0.00000000000E+00 0. -1.
         25    2    1    2    0    0 -0.39162242950E+02  0.12172305916E+02 -0.25761899762E+03  0.28926495355E+03  0.12499927643E+03 0.  0.
          2    1    1    2  501    0  0.28817900355E+02 -0.37570144278E+02 -0.11191205892E+04  0.11201218149E+04  0.00000000000E+00 0. -1.
          1    1    1    2  502    0  0.10344342594E+02  0.25397838362E+02  0.67325878632E+03  0.67381707382E+03  0.00000000000E+00 0. -1.
         22    1    3    3    0    0 -0.16924545824E+00 -0.50200756733E+02 -0.59026940661E+02  0.77487575419E+02  0.00000000000E+00 0.  1.
         22    1    3    3    0    0 -0.38992997492E+02  0.62373062649E+02 -0.19859205696E+03  0.21177737813E+03  0.00000000000E+00 0.  1.
</event>
<event>
 7    1  0.6173324E-006  0.6845453E+02  0.7818608E-02  0.1425733E+00
          2   -1    0    0  502    0  0.00000000000E+00  0.00000000000E+00  0.10588537446E+04  0.10588537446E+04  0.00000000000E+00 0. -1.
          1   -1    0    0  501    0 -0.00000000000E+00 -0.00000000000E+00 -0.24942142873E+04  0.24942142873E+04  0.00000000000E+00 0. -1.
         25    2    1    2    0    0 -0.35591382776E+02  0.10283420072E+03  0.80196350839E+02  0.18410851010E+03  0.12499147746E+03 0.  0.
          2    1    1    2  501    0  0.12954175403E+02 -0.67073049658E+02 -0.24412969230E+04  0.24422524994E+04  0.00000000000E+00 0. -1.
          1    1    1    2  502    0  0.22637207373E+02 -0.35761151057E+02  0.92574002950E+03  0.92670702236E+03  0.00000000000E+00 0. -1.
         22    1    3    3    0    0 -0.58143886092E+01  0.10802675290E+03  0.10052808837E+03  0.14768034063E+03  0.00000000000E+00 0. -1.
         22    1    3    3    0    0 -0.29776994167E+02 -0.51925521813E+01 -0.20331737531E+02  0.36428169469E+02  0.00000000000E+00 0. -1.
</event>
<event>
 7    1  0.6173324E-006  0.7504313E+02  0.7818608E-02  0.1390015E+00
          2   -1    0    0  502    0  0.00000000000E+00  0.00000000000E+00  0.12320383466E+04  0.12320383466E+04  0.00000000000E+00 0. -1.
          1   -1    0    0  501    0 -0.00000000000E+00 -0.00000000000E+00 -0.17918409190E+03  0.17918409190E+03  0.00000000000E+00 0. -1.
         25    2    1    2    0    0 -0.85742199170E+02  0.87878558662E+02  0.18435291449E+03  0.25433454533E+03  0.12500279228E+03 0.  0.
          2    1    1    2  501    0  0.57045793927E+02 -0.45640750844E+02 -0.13424799702E+03  0.15283921436E+03  0.00000000000E+00 0. -1.
          1    1    1    2  502    0  0.28696405243E+02 -0.42237807818E+02  0.10027493372E+04  0.10040486788E+04  0.00000000000E+00 0. -1.
         22    1    3    3    0    0 -0.14122237783E+02  0.95789872794E+02  0.13827768511E+03  0.16880715485E+03  0.00000000000E+00 0.  1.
         22    1    3    3    0    0 -0.71619961387E+02 -0.79113141323E+01  0.46075229376E+02  0.85527390481E+02  0.00000000000E+00 0.  1.
</event>
<event>
 7    1  0.6173324E-006  0.6228900E+02  0.7818608E-02  0.1531255E+00
          2   -1    0    0  502    0  0.00000000000E+00  0.00000000000E+00  0.15843200975E+04  0.15843200975E+04  0.00000000000E+00 0. -1.
          1   -1    0    0  501    0 -0.00000000000E+00 -0.00000000000E+00 -0.70436373936E+02  0.70436373936E+02  0.00000000000E+00 0. -1.
         25    2    1    2    0    0  0.70262091551E+02 -0.19432257481E+02  0.38616876799E+03  0.41239073846E+03  0.12500171860E+03 0.  0.
          2    1    1    2  501    0 -0.52657729724E+02  0.32655259706E+02 -0.40448272129E+02  0.73995034999E+02  0.00000000000E+00 0. -1.
          1    1    1    2  502    0 -0.17604361827E+02 -0.13223002225E+02  0.11681632277E+04  0.11683706979E+04  0.00000000000E+00 0. -1.
         22    1    3    3    0    0  0.29539305105E+02 -0.25822124037E+02  0.36298126551E+03  0.36509553784E+03  0.00000000000E+00 0. -1.
         22    1    3    3    0    0  0.40722786447E+02  0.63898665559E+01  0.23187502480E+02  0.47295200622E+02  0.00000000000E+00 0. -1.
</event>
<event>
 7    1  0.6173324E-006  0.2741732E+02  0.7818608E-02  0.1639283E+00
          2   -1    0    0  502    0  0.00000000000E+00  0.00000000000E+00  0.13507532007E+03  0.13507532007E+03  0.00000000000E+00 0. -1.
          1   -1    0    0  501    0 -0.00000000000E+00 -0.00000000000E+00 -0.48354627470E+03  0.48354627470E+03  0.00000000000E+00 0. -1.
         25    2    1    2    0    0  0.43582835291E+02 -0.29267037541E+02 -0.17430959786E+03  0.22082616304E+03  0.12499734141E+03 0.  0.
          2    1    1    2  501    0 -0.22505221212E+02  0.14441052198E+02 -0.28385691321E+03  0.28511361972E+03  0.00000000000E+00 0. -1.
          1    1    1    2  502    0 -0.21077614078E+02  0.14825985342E+02  0.10969555643E+03  0.11268181201E+03  0.00000000000E+00 0. -1.
         22    1    3    3    0    0  0.22450190104E+02 -0.22211988736E+02  0.11556622761E+02  0.33629436643E+02  0.00000000000E+00 0. -1.
         22    1    3    3    0    0  0.21132645187E+02 -0.70550488044E+01 -0.18586622062E+03  0.18719672640E+03  0.00000000000E+00 0. -1.
</event>
<event>
 7    1  0.6173324E-006  0.1286743E+03  0.7818608E-02  0.1294826E+00
          2   -1    0    0  502    0  0.00000000000E+00  0.00000000000E+00  0.14701440219E+03  0.14701440219E+03  0.00000000000E+00 0. -1.
          1   -1    0    0  501    0 -0.00000000000E+00 -0.00000000000E+00 -0.92687140824E+03  0.92687140824E+03  0.00000000000E+00 0. -1.
         25    2    1    2    0    0 -0.40877520418E+02 -0.15864784634E+03 -0.37702024447E+03  0.42966191281E+03  0.12499993502E+03 0.  0.
          2    1    1    2  501    0  0.71455048800E+02  0.98143385757E+02 -0.50623248360E+03  0.52058551230E+03  0.00000000000E+00 0. -1.
          1    1    1    2  502    0 -0.30577528382E+02  0.60504460581E+02  0.10339572202E+03  0.12363838532E+03  0.00000000000E+00 0. -1.
         22    1    3    3    0    0  0.41190346703E+02 -0.84816681786E+02 -0.14904540291E+03  0.17636622777E+03  0.00000000000E+00 0.  1.
         22    1    3    3    0    0 -0.82067867121E+02 -0.73831164553E+02 -0.22797484156E+03  0.25329568504E+03  0.00000000000E+00 0.  1.
</event>
<event>
 7    1  0.6173324E-006  0.1644004E+03  0.7818608E-02  0.1305743E+00
          2   -1    0    0  502    0  0.00000000000E+00  0.00000000000E+00  0.42297718141E+03  0.42297718141E+03  0.00000000000E+00 0. -1.
          1   -1    0    0  501    0 -0.00000000000E+00 -0.00000000000E+00 -0.16026654455E+04  0.16026654455E+04  0.00000000000E+00 0. -1.
         25    2    1    2    0    0  0.13458625019E+03  0.70262767300E+01 -0.91879266936E+03  0.93699962653E+03  0.12500201416E+03 0.  0.
          2    1    1    2  501    0  0.27178217461E+02 -0.39543637012E+02 -0.65741480240E+03  0.65916354355E+03  0.00000000000E+00 0. -1.
          1    1    1    2  502    0 -0.16176446765E+03  0.32517360282E+02  0.39651920771E+03  0.42947945678E+03  0.00000000000E+00 0. -1.
         22    1    3    3    0    0 -0.16836987977E+02  0.96910660552E+01 -0.32522583232E+02  0.37882969069E+02  0.00000000000E+00 0. -1.
         22    1    3    3    0    0  0.15142323817E+03 -0.26647893252E+01 -0.88627008613E+03  0.89911665746E+03  0.00000000000E+00 0. -1.
</event>
<event>
 7    1  0.6173324E-006  0.1129312E+03  0.7818608E-02  0.1306061E+00
          2   -1    0    0  502    0  0.00000000000E+00  0.00000000000E+00  0.74172992349E+03  0.74172992349E+03  0.00000000000E+00 0. -1.
          1   -1    0    0  501    0 -0.00000000000E+00 -0.00000000000E+00 -0.11961664887E+04  0.11961664887E+04  0.00000000000E+00 0. -1.
         25    2    1    2    0    0  0.15130722039E+02  0.14880051460E+03 -0.57407719372E+03  0.60626772594E+03  0.12500159710E+03 0.  0.
          2    1    1    2  501    0  0.34170633531E+02 -0.99603326507E+02 -0.59972488333E+03  0.60889932709E+03  0.00000000000E+00 0. -1.
          1    1    1    2  502    0 -0.49301355570E+02 -0.49197188095E+02  0.71936551183E+03  0.72272935916E+03  0.00000000000E+00 0. -1.
         22    1    3    3    0    0 -0.55319300378E+02  0.66360349016E+02 -0.26373031244E+03  0.27752044720E+03  0.00000000000E+00 0. -1.
         22    1    3    3    0    0  0.70450022417E+02  0.82440165587E+02 -0.31034688127E+03  0.32874727874E+03  0.00000000000E+00 0. -1.
</event>
<event>
 7    1  0.6173324E-006  0.7985245E+02  0.7818608E-02  0.1459191E+00
          2   -1    0    0  502    0  0.00000000000E+00  0.00000000000E+00  0.23683131367E+04  0.23683131367E+04  0.00000000000E+00 0. -1.
          1   -1    0    0  501    0 -0.00000000000E+00 -0.00000000000E+00 -0.75828857430E+01  0.75828857430E+01  0.00000000000E+00 0. -1.
         25    2    1    2    0    0  0.27456572856E+02 -0.58256720360E+02  0.11146626738E+04  0.11234972313E+04  0.12500177426E+03 0.  0.
          2    1    1    2  501    0 -0.10445124950E+02 -0.26280575057E+02  0.13182006899E+03  0.13481950841E+03  0.00000000000E+00 0. -1.
          1    1    1    2  502    0 -0.17011447905E+02  0.84537295416E+02  0.11142475083E+04  0.11175792828E+04  0.00000000000E+00 0. -1.
         22    1    3    3    0    0 -0.62364879107E+01  0.78089782497E+01  0.80557763241E+03  0.80563961904E+03  0.00000000000E+00 0. -1.
         22    1    3    3    0    0  0.33693060766E+02 -0.66065698609E+02  0.30908504134E+03  0.31785761224E+03  0.00000000000E+00 0. -1.
</event>
<event>
 7    1  0.6173324E-006  0.6153872E+02  0.7818608E-02  0.1463999E+00
          2   -1    0    0  502    0  0.00000000000E+00  0.00000000000E+00  0.15081528097E+04  0.15081528097E+04  0.00000000000E+00 0. -1.
          1   -1    0    0  501    0 -0.00000000000E+00 -0.00000000000E+00 -0.26882668527E+03  0.26882668527E+03  0.00000000000E+00 0. -1.
         25    2    1    2    0    0 -0.18682370177E+01  0.66030450916E+02 -0.17182407127E+03  0.22251287148E+03  0.12499982300E+03 0.  0.
          2    1    1    2  501    0  0.32998242856E+02 -0.12925535413E+02 -0.66596161403E+02  0.75438731504E+02  0.00000000000E+00 0. -1.
          1    1    1    2  502    0 -0.31130005838E+02 -0.53104915503E+02  0.14777463571E+04  0.14790278920E+04  0.00000000000E+00 0. -1.
         22    1    3    3    0    0 -0.97573271160E+01 -0.30111018289E+02 -0.92035983272E+02  0.97326774690E+02  0.00000000000E+00 0. -1.
         22    1    3    3    0    0  0.78890900983E+01  0.96141469205E+02 -0.79788088002E+02  0.12518609679E+03  0.00000000000E+00 0. -1.
</event>
<event>
 7    1  0.6173324E-006  0.1379443E+03  0.7818608E-02  0.1300540E+00
          2   -1    0    0  502    0  0.00000000000E+00  0.00000000000E+00  0.23507910301E+04  0.23507910301E+04  0.00000000000E+00 0. -1.
          1   -1    0    0  501    0 -0.00000000000E+00 -0.00000000000E+00 -0.69799987315E+03  0.69799987315E+03  0.00000000000E+00 0. -1.
         25    2    1    2    0    0 -0.15760182547E+02 -0.16897738273E+03 -0.14092951509E+03  0.25354692137E+03  0.12499269532E+03 0.  0.
          2    1    1    2  501    0  0.53927850063E+02  0.12270753764E+03 -0.49139205622E+03  0.50934419180E+03  0.00000000000E+00 0. -1.
          1    1    1    2  502    0 -0.38167667517E+02  0.46269845099E+02  0.22851127282E+04  0.22858997901E+04  0.00000000000E+00 0. -1.
         22    1    3    3    0    0 -0.28498632994E+02 -0.40061150778E+02  0.14455460123E+02  0.51244787165E+02  0.00000000000E+00 0. -1.
         22    1    3    3    0    0  0.12738450447E+02 -0.12891623196E+03 -0.15538497522E+03  0.20230213421E+03  0.00000000000E+00 0. -1.
</event>
<event>
 7    1  0.6173324E-006  0.7570337E+02  0.7818608E-02  0.1353962E+00
          2   -1    0    0  502    0  0.00000000000E+00  0.00000000000E+00  0.13529679443E+04  0.13529679443E+04  0.00000000000E+00 0. -1.
          1   -1    0    0  501    0 -0.00000000000E+00 -0.00000000000E+00 -0.54596985881E+03  0.54596985881E+03  0.00000000000E+00 0. -1.
         25    2    1    2    0    0  0.41598595163E+02  0.11400004892E+03 -0.70392484612E+02  0.18790222343E+03  0.12500275760E+03 0.  0.
          2    1    1    2  501    0 -0.55334798218E+02 -0.39805271107E+02 -0.41292613029E+03  0.41851450224E+03  0.00000000000E+00 0. -1.
          1    1    1    2  502    0  0.13736203055E+02 -0.74194777811E+02  0.12903167004E+04  0.12925210775E+04  0.00000000000E+00 0. -1.
         22    1    3    3    0    0 -0.13854607684E+02  0.28748372224E+01 -0.61814671169E+02  0.63413471872E+02  0.00000000000E+00 0.  1.
         22    1    3    3    0    0  0.55453202847E+02  0.11112521170E+03 -0.85778134421E+01  0.12448875156E+03  0.00000000000E+00 0.  1.
</event>
<event>
 7    1  0.6173324E-006  0.6306468E+02  0.7818608E-02  0.1397452E+00
          2   -1    0    0  502    0  0.00000000000E+00  0.00000000000E+00  0.27488687348E+03  0.27488687348E+03  0.00000000000E+00 0. -1.
          1   -1    0    0  501    0 -0.00000000000E+00 -0.00000000000E+00 -0.14201779706E+04  0.14201779706E+04  0.00000000000E+00 0. -1.
         25    2    1    2    0    0 -0.65431490341E+02  0.39600825886E+02 -0.47993589774E+03  0.50180970589E+03  0.12500003859E+03 0.  0.
          2    1    1    2  501    0  0.47438141986E+01 -0.57059943498E+02 -0.92462985400E+03  0.92640094335E+03  0.00000000000E+00 0. -1.
          1    1    1    2  502    0  0.60687676143E+02  0.17459117612E+02  0.25927465458E+03  0.26685419489E+03  0.00000000000E+00 0. -1.
         22    1    3    3    0    0 -0.91638642599E+02  0.31643894568E+02 -0.21973957168E+03  0.24017588605E+03  0.00000000000E+00 0. -1.
         22    1    3    3    0    0  0.26207152258E+02  0.79569313174E+01 -0.26019632606E+03  0.26163381984E+03  0.00000000000E+00 0. -1.
</event>
<event>
 7    1  0.6173324E-006  0.2682358E+02  0.7818608E-02  0.1647481E+00
          2   -1    0    0  502    0  0.00000000000E+00  0.00000000000E+00  0.26745619237E+03  0.26745619237E+03  0.00000000000E+00 0. -1.
          1   -1    0    0  501    0 -0.00000000000E+00 -0.00000000000E+00 -0.10105121471E+04  0.10105121471E+04  0.00000000000E+00 0. -1.
         25    2    1    2    0    0 -0.33283318040E+02 -0.36185621528E+02  0.17557158318E+03  0.22105902166E+03  0.12499812707E+03 0.  0.
          2    1    1    2  501    0  0.23403116961E+02  0.13069762730E+02 -0.98529506047E+03  0.98565961709E+03  0.00000000000E+00 0. -1.
          1    1    1    2  502    0  0.98802010788E+01  0.23115858799E+02  0.66667522513E+02  0.71249700767E+02  0.00000000000E+00 0. -1.
         22    1    3    3    0    0 -0.17719756599E+02  0.31669895465E+02  0.47545959158E+01  0.36600249111E+02  0.00000000000E+00 0.  1.
         22    1    3    3    0    0 -0.15563561441E+02 -0.67855516993E+02  0.17081698727E+03  0.18445877255E+03  0.00000000000E+00 0.  1.
</event>
<event>
 7    1  0.6173324E-006  0.7225053E+02  0.7818608E-02  0.1461460E+00
          2   -1    0    0  502    0  0.00000000000E+00  0.00000000000E+00  0.12392042441E+04  0.12392042441E+04  0.00000000000E+00 0. -1.
          1   -1    0    0  501    0 -0.00000000000E+00 -0.00000000000E+00 -0.34949067917E+03  0.34949067917E+03  0.00000000000E+00 0. -1.
         25    2    1    2    0    0  0.30010068637E+02 -0.95529021789E+02  0.83489251329E+02  0.18061959543E+03  0.12500633960E+03 0.  0.
          2    1    1    2  501    0 -0.29972646922E+02  0.64784119604E+02 -0.29647516990E+03  0.30494732017E+03  0.00000000000E+00 0. -1.
          1    1    1    2  502    0 -0.37421714807E-01  0.30744902185E+02  0.11026994835E+04  0.11031280076E+04  0.00000000000E+00 0. -1.
         22    1    3    3    0    0  0.56505476982E+01 -0.77873716559E+02  0.11373706091E+03  0.13795783213E+03  0.00000000000E+00 0. -1.
         22    1    3    3    0    0  0.24359520939E+02 -0.17655305229E+02 -0.30247809585E+02  0.42661763299E+02  0.00000000000E+00 0. -1.
</event>
<event>
 7    1  0.6173324E-006  0.7995640E+02  0.7818608E-02  0.1396693E+00
          2   -1    0    0  502    0  0.00000000000E+00  0.00000000000E+00  0.20249634729E+03  0.20249634729E+03  0.00000000000E+00 0. -1.
          1   -1    0    0  501    0 -0.00000000000E+00 -0.00000000000E+00 -0.12777685253E+04  0.12777685253E+04  0.00000000000E+00 0. -1.
         25    2    1    2    0    0  0.26340284140E+02 -0.86580208427E+02 -0.56210788476E+02  0.16423868614E+03  0.12499900089E+03 0.  0.
          2    1    1    2  501    0 -0.44596374225E+02  0.86836312972E+01 -0.11562875278E+04  0.11571797997E+04  0.00000000000E+00 0. -1.
          1    1    1    2  502    0  0.18256090085E+02  0.77896577130E+02  0.13722613824E+03  0.15884638671E+03  0.00000000000E+00 0. -1.
         22    1    3    3    0    0  0.62209069180E+02 -0.93893951495E+01 -0.12635600096E+01  0.62926350708E+02  0.00000000000E+00 0.  1.
         22    1    3    3    0    0 -0.35868785040E+02 -0.77190813277E+02 -0.54947228466E+02  0.10131233543E+03  0.00000000000E+00 0.  1.
</event>
<event>
 7    1  0.6173324E-006  0.1073424E+03  0.7818608E-02  0.1315430E+00
          2   -1    0    0  502    0  0.00000000000E+00  0.00000000000E+00  0.23099746604E+04  0.23099746604E+04  0.00000000000E+00 0. -1.
          1   -1    0    0  501    0 -0.00000000000E+00 -0.00000000000E+00 -0.15650408243E+04  0.15650408243E+04  0.00000000000E+00 0. -1.
         25    2    1    2    0    0  0.81375248424E+02 -0.97355699044E+02  0.67865910665E+03  0.70164227111E+03  0.12499452141E+03 0.  0.
          2    1    1    2  501    0 -0.10204611342E+03  0.33298856045E+02 -0.15509941901E+04  0.15547042165E+04  0.00000000000E+00 0. -1.
          1    1    1    2  502    0  0.20670864994E+02  0.64056842999E+02  0.16172689196E+04  0.16186689971E+04  0.00000000000E+00 0. -1.
         22    1    3    3    0    0  0.37361752698E+02 -0.79291531283E+02  0.61976271313E+03  0.62593040195E+03  0.00000000000E+00 0. -1.
         22    1    3    3    0    0  0.44013495725E+02 -0.18064167761E+02  0.58896393524E+02  0.75711869168E+02  0.00000000000E+00 0. -1.
</event>
<event>
 7    1  0.6173324E-006  0.2951357E+02  0.7818608E-02  0.1609028E+00
          2   -1    0    0  502    0  0.00000000000E+00  0.00000000000E+00  0.53227339606E+03  0.53227339606E+03  0.00000000000E+00 0. -1.
          1   -1    0    0  501    0 -0.00000000000E+00 -0.00000000000E+00 -0.62876532603E+03  0.62876532603E+03  0.00000000000E+00 0. -1.
         25    2    1    2    0    0  0.12099173621E+02  0.45087865684E+02 -0.17133737559E+03  0.21716482262E+03  0.12499903309E+03 0.  0.
          2    1    1    2  501    0  0.10764691858E+02 -0.26454379629E+02 -0.43361705749E+03  0.43455663076E+03  0.00000000000E+00 0. -1.
          1    1    1    2  502    0 -0.22863865479E+02 -0.18633486056E+02  0.50846250310E+03  0.50931726871E+03  0.00000000000E+00 0. -1.
         22    1    3    3    0    0 -0.13222887188E+02  0.51186226221E+02 -0.10081792679E+02  0.53819299921E+02  0.00000000000E+00 0.  1.
         22    1    3    3    0    0  0.25322060809E+02 -0.60983605364E+01 -0.16125558291E+03  0.16334552270E+03  0.00000000000E+00 0.  1.
</event>
<event>
 7    1  0.6173324E-006  0.1018921E+03  0.7818608E-02  0.1325115E+00
          2   -1    0    0  502    0  0.00000000000E+00  0.00000000000E+00  0.12249997984E+04  0.12249997984E+04  0.00000000000E+00 0. -1.
          1   -1    0    0  501    0 -0.00000000000E+00 -0.00000000000E+00 -0.16477376860E+03  0.16477376860E+03  0.00000000000E+00 0. -1.
         25    2    1    2    0    0 -0.65052227734E+02 -0.71869787953E+02  0.24298179169E+03  0.28993465017E+03  0.12499956609E+03 0.  0.
          2    1    1    2  501    0  0.56341283760E+02 -0.32483725456E+02 -0.13077515375E+03  0.14605366655E+03  0.00000000000E+00 0. -1.
          1    1    1    2  502    0  0.87109439731E+01  0.10435351341E+03  0.94801939184E+03  0.95378525025E+03  0.00000000000E+00 0. -1.
         22    1    3    3    0    0 -0.75845470640E+02 -0.92251706420E+02  0.23808168425E+03  0.26635653010E+03  0.00000000000E+00 0.  1.
         22    1    3    3    0    0  0.10793242906E+02  0.20381918467E+02  0.49001074387E+01  0.23578120064E+02  0.00000000000E+00 0.  1.
</event>
<event>
 7    1  0.6173324E-006  0.3612436E+02  0.7818608E-02  0.1553641E+00
          2   -1    0    0  502    0  0.00000000000E+00  0.00000000000E+00  0.25022807774E+03  0.25022807774E+03  0.00000000000E+00 0. -1.
          1   -1    0    0  501    0 -0.00000000000E+00 -0.00000000000E+00 -0.35149726329E+03  0.35149726329E+03  0.00000000000E+00 0. -1.
         25    2    1    2    0    0 -0.41494377167E+02  0.65844291437E+01  0.80683374036E+02  0.15459384725E+03  0.12499725085E+03 0.  0.
          2    1    1    2  501    0  0.19201133851E+02 -0.30687235541E+02 -0.31144502913E+03  0.31354169760E+03  0.00000000000E+00 0. -1.
          1    1    1    2  502    0  0.22293243317E+02  0.24102806397E+02  0.12949246954E+03  0.13358979618E+03  0.00000000000E+00 0. -1.
         22    1    3    3    0    0 -0.71555511584E+02 -0.29728191254E+02  0.73701427543E+02  0.10693856655E+03  0.00000000000E+00 0.  1.
         22    1    3    3    0    0  0.30061134417E+02  0.36312620397E+02  0.69819464935E+01  0.47655280708E+02  0.00000000000E+00 0.  1.
</event>
<event>
 7    1  0.6173324E-006  0.1275747E+03  0.7818608E-02  0.1288624E+00
          2   -1    0    0  502    0  0.00000000000E+00  0.00000000000E+00  0.74261791624E+03  0.74261791624E+03  0.00000000000E+00 0. -1.
          1   -1    0    0  501    0 -0.00000000000E+00 -0.00000000000E+00 -0.14126825960E+04  0.14126825960E+04  0.00000000000E+00 0. -1.
         25    2    1    2    0    0  0.16112558080E+03 -0.45962206096E+02 -0.10049007612E+03  0.23193896229E+03  0.12499379845E+03 0.  0.
          2    1    1    2  501    0 -0.97373612788E+02  0.80390507927E+02 -0.12413171012E+04  0.12477228858E+04  0.00000000000E+00 0. -1.
          1    1    1    2  502    0 -0.63751968016E+02 -0.34428301831E+02  0.67174249754E+03  0.67563866408E+03  0.00000000000E+00 0. -1.
         22    1    3    3    0    0 -0.29355159368E+01 -0.26267257844E+02 -0.54259444303E+02  0.60354563908E+02  0.00000000000E+00 0. -1.
         22    1    3    3    0    0  0.16406109674E+03 -0.19694948252E+02 -0.46230631814E+02  0.17158439838E+03  0.00000000000E+00 0. -1.
</event>
<event>
 7    1  0.6173324E-006  0.4659519E+02  0.7818608E-02  0.1584594E+00
          2   -1    0    0  502    0  0.00000000000E+00  0.00000000000E+00  0.30687258668E+03  0.30687258668E+03  0.00000000000E+00 0. -1.
          1   -1    0    0  501    0 -0.00000000000E+00 -0.00000000000E+00 -0.96281011510E+02  0.96281011510E+02  0.00000000000E+00 0. -1.
         25    2    1    2    0    0  0.19634445533E+02  0.40189819498E+02  0.38022050969E+02  0.13809947778E+03  0.12500022544E+03 0.  0.
          2    1    1    2  501    0  0.17511545427E+02 -0.11532880562E+02 -0.41182959618E+02  0.46213609686E+02  0.00000000000E+00 0. -1.
          1    1    1    2  502    0 -0.37145990960E+02 -0.28656938936E+02  0.21375248382E+03  0.21884051072E+03  0.00000000000E+00 0. -1.
         22    1    3    3    0    0 -0.21534436020E+02  0.14987561974E+02 -0.39117883782E+02  0.47101674919E+02  0.00000000000E+00 0.  1.
         22    1    3    3    0    0  0.41168881553E+02  0.25202257524E+02  0.77139934751E+02  0.90997802864E+02  0.00000000000E+00 0.  1.
</event>
<event>
 7    1  0.6173324E-006  0.6833478E+02  0.7818608E-02  0.1404271E+00
          2   -1    0    0  502    0  0.00000000000E+00  0.00000000000E+00  0.42636147885E+03  0.42636147885E+03  0.00000000000E+00 0. -1.
          1   -1    0    0  501    0 -0.00000000000E+00 -0.00000000000E+00 -0.27050588561E+04  0.27050588561E+04  0.00000000000E+00 0. -1.
         25    2    1    2    0    0 -0.81329240631E+02  0.70017258804E+02 -0.87712535056E+03  0.89245900557E+03  0.12496933271E+03 0.  0.
          2    1    1    2  501    0  0.61097764581E+02 -0.24219980990E+02 -0.18181740695E+04  0.18193615614E+04  0.00000000000E+00 0. -1.
          1    1    1    2  502    0  0.20231476050E+02 -0.45797277814E+02  0.41660204274E+03  0.41959976799E+03  0.00000000000E+00 0. -1.
         22    1    3    3    0    0 -0.67485006990E+02  0.72083613595E+02 -0.31400520951E+03  0.32916492084E+03  0.00000000000E+00 0.  1.
         22    1    3    3    0    0 -0.13844233641E+02 -0.20663547918E+01 -0.56312014105E+03  0.56329408473E+03  0.00000000000E+00 0.  1.
</event>
<event>
 7    1  0.6173324E-006  0.5091468E+02  0.7818608E-02  0.1450072E+00
          2   -1    0    0  502    0  0.00000000000E+00  0.00000000000E+00  0.14099584512E+03  0.14099584512E+03  0.00000000000E+00 0. -1.
          1   -1    0    0  501    0 -0.00000000000E+00 -0.00000000000E+00 -0.48820172644E+03  0.48820172644E+03  0.00000000000E+00 0. -1.
         25    2    1    2    0    0  0.66668577835E+02 -0.45089063022E+01  0.53064752702E+01  0.14183627016E+03  0.12499735736E+03 0.  0.
          2    1    1    2  501    0 -0.38389808164E+02 -0.33549564637E+02 -0.40982153133E+03  0.41298067533E+03  0.00000000000E+00 0. -1.
          1    1    1    2  502    0 -0.28278769670E+02  0.38058470939E+02  0.57309174736E+02  0.74380626061E+02  0.00000000000E+00 0. -1.
         22    1    3    3    0    0  0.52979963905E+02 -0.20551802547E+02  0.60348351620E+02  0.82892561226E+02  0.00000000000E+00 0.  1.
         22    1    3    3    0    0  0.13688613930E+02  0.16042896244E+02 -0.55041876350E+02  0.58943708938E+02  0.00000000000E+00 0.  1.
</event>
<event>
 7    1  0.6173324E-006  0.1492988E+03  0.7818608E-02  0.1297759E+00
          2   -1    0    0  502    0  0.00000000000E+00  0.00000000000E+00  0.17503739346E+04  0.17503739346E+04  0.00000000000E+00 0. -1.
          1   -1    0    0  501    0 -0.00000000000E+00 -0.00000000000E+00 -0.13893699833E+04  0.13893699833E+04  0.00000000000E+00 0. -1.
         25    2    1    2    0    0 -0.17147643733E+03 -0.10306413965E+03  0.35993834981E+03  0.43035750558E+03  0.12500232602E+03 0.  0.
          2    1    1    2  501    0  0.11534439171E+03  0.93996638516E+02 -0.13494730467E+04  0.13576513545E+04  0.00000000000E+00 0. -1.
          1    1    1    2  502    0  0.56132045622E+02  0.90675011305E+01  0.13505386482E+04  0.13517350577E+04  0.00000000000E+00 0. -1.
         22    1    3    3    0    0 -0.31220227405E+02  0.24795178073E+02  0.30640390224E+02  0.50282571215E+02  0.00000000000E+00 0.  1.
         22    1    3    3    0    0 -0.14025620992E+03 -0.12785931772E+03  0.32929795958E+03  0.38007493437E+03  0.00000000000E+00 0.  1.
</event>
<event>
 7    1  0.6173324E-006  0.1261722E+03  0.7818608E-02  0.1353973E+00
          2   -1    0    0  502    0  0.00000000000E+00  0.00000000000E+00  0.15157850311E+04  0.15157850311E+04  0.00000000000E+00 0. -1.
          1   -1    0    0  501    0 -0.00000000000E+00 -0.00000000000E+00 -0.14400255142E+04  0.14400255142E+04  0.00000000000E+00 0. -1.
         25    2    1    2    0    0 -0.41380342509E+02  0.78864887711E+02 -0.20665344708E+02  0.15487433275E+03  0.12500799660E+03 0.  0.
          2    1    1    2  501    0 -0.32362917265E+02  0.25000223197E+02 -0.13491451139E+04  0.13497647602E+04  0.00000000000E+00 0. -1.
          1    1    1    2  502    0  0.73743259774E+02 -0.10386511091E+03  0.14455699755E+04  0.14511714522E+04  0.00000000000E+00 0. -1.
         22    1    3    3    0    0 -0.10609852937E+02  0.10833520887E+03 -0.26054626752E+02  0.11192823609E+03  0.00000000000E+00 0. -1.
         22    1    3    3    0    0 -0.30770489572E+02 -0.29470321154E+02  0.53892820437E+01  0.42946096661E+02  0.00000000000E+00 0. -1.
</event>
<event>
 7    1  0.6173324E-006  0.2169082E+03  0.7818608E-02  0.1226624E+00
          2   -1    0    0  502    0  0.00000000000E+00  0.00000000000E+00  0.38004915290E+04  0.38004915290E+04  0.00000000000E+00 0. -1.
          1   -1    0    0  501    0 -0.00000000000E+00 -0.00000000000E+00 -0.22510601807E+04  0.22510601807E+04  0.00000000000E+00 0. -1.
         25    2    1    2    0    0 -0.32857621535E+02  0.13551620513E+03 -0.24320923158E+03  0.30695228821E+03  0.12499884705E+03 0.  0.
          2    1    1    2  501    0 -0.11044879035E+02  0.77808496152E+02 -0.19720494173E+04  0.19736147181E+04  0.00000000000E+00 0. -1.
          1    1    1    2  502    0  0.43902500570E+02 -0.21332470128E+03  0.37646899972E+04  0.37709847034E+04  0.00000000000E+00 0. -1.
         22    1    3    3    0    0 -0.47986313605E+02  0.12704436091E+03 -0.25292363259E+03  0.28707720191E+03  0.00000000000E+00 0. -1.
         22    1    3    3    0    0  0.15128692070E+02  0.84718442232E+01  0.97144010144E+01  0.19875086298E+02  0.00000000000E+00 0. -1.
</event>
<event>
 7    1  0.6173324E-006  0.4447761E+02  0.7818608E-02  0.1493501E+00
          2   -1    0    0  502    0  0.00000000000E+00  0.00000000000E+00  0.75945139671E+02  0.75945139671E+02  0.00000000000E+00 0. -1.
          1   -1    0    0  501    0 -0.00000000000E+00 -0.00000000000E+00 -0.37058018929E+03  0.37058018929E+03  0.00000000000E+00 0. -1.
         25    2    1    2    0    0 -0.60229653949E+02 -0.42502041010E+02 -0.13438640060E+03  0.19777756523E+03  0.12498890326E+03 0.  0.
          2    1    1    2  501    0  0.42216892556E+02  0.70174875622E+01 -0.19270241649E+03  0.19739739732E+03  0.00000000000E+00 0. -1.
          1    1    1    2  502    0  0.18012761394E+02  0.35484553448E+02  0.32453767475E+02  0.51350366403E+02  0.00000000000E+00 0. -1.
         22    1    3    3    0    0  0.10180445736E+00 -0.76024856629E+02 -0.67513335792E+02  0.10167516756E+03  0.00000000000E+00 0.  1.
         22    1    3    3    0    0 -0.60331458407E+02  0.33522815619E+02 -0.66873064809E+02  0.96102397668E+02  0.00000000000E+00 0.  1.
</event>
<event>
 7    1  0.7730929E-006  0.3403645E+02  0.7818608E-02  0.1564812E+00
          2   -1    0    0  502    0  0.00000000000E+00  0.00000000000E+00  0.10481419319E+04  0.10481419319E+04  0.00000000000E+00 0. -1.
          1   -1    0    0  501    0 -0.00000000000E+00 -0.00000000000E+00 -0.13856046590E+04  0.13856046590E+04  0.00000000000E+00 0. -1.
         25    2    1    2    0    0 -0.44411035177E+02 -0.81992782148E+01 -0.31146840081E+03  0.33864161512E+03  0.12500404225E+03 0.  0.
          2    1    1    2  501    0  0.27812505194E+02 -0.19697860347E+02 -0.10600210703E+04  0.10605688146E+04  0.00000000000E+00 0. -1.
          1    1    1    2  502    0  0.16598529982E+02  0.27897138562E+02  0.10340267440E+04  0.10345361612E+04  0.00000000000E+00 0. -1.
         22    1    3    3    0    0 -0.28064107912E+02 -0.32156077405E+02 -0.30620513557E+03  0.30916531584E+03  0.00000000000E+00 0. -1.
         22    1    3    3    0    0 -0.16346927264E+02  0.23956799190E+02 -0.52632652384E+01  0.29476299283E+02  0.00000000000E+00 0. -1.
</event>
<event>
 7    1  0.6173324E-006  0.8420572E+02  0.7818608E-02  0.1428836E+00
          2   -1    0    0  502    0  0.00000000000E+00  0.00000000000E+00  0.30554041937E+03  0.30554041937E+03  0.00000000000E+00 0. -1.
          1   -1    0    0  501    0 -0.00000000000E+00 -0.00000000000E+00 -0.76124713923E+03  0.76124713923E+03  0.00000000000E+00 0. -1.
         25    2    1    2    0    0 -0.72073198453E+00  0.70112617829E+02  0.21287245194E+02  0.14490005442E+03  0.12500632116E+03 0.  0.
          2    1    1    2  501    0  0.33397220748E+02 -0.77952316758E+02 -0.69558145625E+03  0.70073211738E+03  0.00000000000E+00 0. -1.
          1    1    1    2  502    0 -0.32676488764E+02  0.78396989295E+01  0.21858749121E+03  0.22115538680E+03  0.00000000000E+00 0. -1.
         22    1    3    3    0    0 -0.32860088423E+02  0.34353805008E+02  0.64587384808E+02  0.80196630889E+02  0.00000000000E+00 0.  1.
         22    1    3    3    0    0  0.32139356438E+02  0.35758812820E+02 -0.43300139614E+02  0.64703423535E+02  0.00000000000E+00 0.  1.
</event>
<event>
 7    1  0.6173324E-006  0.6593121E+02  0.7818608E-02  0.1502286E+00
          2   -1    0    0  502    0  0.00000000000E+00  0.00000000000E+00  0.11023911156E+03  0.11023911156E+03  0.00000000000E+00 0. -1.
          1   -1    0    0  501    0 -0.00000000000E+00 -0.00000000000E+00 -0.70487046855E+03  0.70487046855E+03  0.00000000000E+00 0. -1.
         25    2    1    2    0    0  0.80273094704E+01  0.83822030370E+02 -0.56034841396E+02  0.16079481980E+03  0.12499800059E+03 0.  0.
          2    1    1    2  501    0 -0.20754910392E+02 -0.61992657399E+02 -0.59180819251E+03  0.59540808913E+03  0.00000000000E+00 0. -1.
          1    1    1    2  502    0  0.12727600922E+02 -0.21829372971E+02  0.53211676918E+02  0.58906671184E+02  0.00000000000E+00 0. -1.
         22    1    3    3    0    0  0.25016707220E+02  0.10981775849E+03 -0.62879209344E+02  0.12899445991E+03  0.00000000000E+00 0.  1.
         22    1    3    3    0    0 -0.16989397750E+02 -0.25995728120E+02  0.68443679477E+01  0.31800359888E+02  0.00000000000E+00 0.  1.
</event>
<event>
 7    1  0.6173324E-006  0.4332482E+03  0.7818608E-02  0.1095476E+00
          2   -1    0    0  502    0  0.00000000000E+00  0.00000000000E+00  0.12628284058E+04  0.12628284058E+04  0.00000000000E+00 0. -1.
          1   -1    0    0  501    0 -0.00000000000E+00 -0.00000000000E+00 -0.53082686059E+03  0.53082686059E+03  0.00000000000E+00 0. -1.
         25    2    1    2    0    0  0.33706734550E+03 -0.30798148069E+03  0.44751283598E+03  0.65142947678E+03  0.12500254800E+03 0.  0.
          2    1    1    2  501    0 -0.15956665342E+03 -0.86415855195E+02 -0.33835522643E+03  0.38394462644E+03  0.00000000000E+00 0. -1.
          1    1    1    2  502    0 -0.17750069208E+03  0.39439733588E+03  0.62284393565E+03  0.75828116317E+03  0.00000000000E+00 0. -1.
         22    1    3    3    0    0  0.21994904818E+03 -0.24970615286E+03  0.25758292091E+03  0.42080839787E+03  0.00000000000E+00 0. -1.
         22    1    3    3    0    0  0.11711829732E+03 -0.58275327823E+02  0.18992991507E+03  0.23062107891E+03  0.00000000000E+00 0. -1.
</event>
<event>
 7    1  0.6173324E-006  0.5056422E+02  0.7818608E-02  0.1461109E+00
          2   -1    0    0  502    0  0.00000000000E+00  0.00000000000E+00  0.70395724746E+03  0.70395724746E+03  0.00000000000E+00 0. -1.
          1   -1    0    0  501    0 -0.00000000000E+00 -0.00000000000E+00 -0.10849728638E+04  0.10849728638E+04  0.00000000000E+00 0. -1.
         25    2    1    2    0    0 -0.17885647162E+02 -0.56623268855E+02 -0.20621710426E+02  0.13993904797E+03  0.12502636224E+03 0.  0.
          2    1    1    2  501    0  0.42314216532E+02  0.12218922485E+02 -0.10032119465E+04  0.10041782733E+04  0.00000000000E+00 0. -1.
          1    1    1    2  502    0 -0.24428569370E+02  0.44404346370E+02  0.64281804053E+03  0.64481279005E+03  0.00000000000E+00 0. -1.
         22    1    3    3    0    0 -0.23825474574E+02 -0.87878591631E+02  0.14889759616E+02  0.92260528110E+02  0.00000000000E+00 0. -1.
         22    1    3    3    0    0  0.59398274122E+01  0.31255322776E+02 -0.35511470042E+02  0.47678519860E+02  0.00000000000E+00 0. -1.
</event>
<event>
 7    1  0.6173324E-006  0.2262613E+02  0.7818608E-02  0.1713909E+00
          2   -1    0    0  502    0  0.00000000000E+00  0.00000000000E+00  0.32691020306E+03  0.32691020306E+03  0.00000000000E+00 0. -1.
          1   -1    0    0  501    0 -0.00000000000E+00 -0.00000000000E+00 -0.64523473223E+03  0.64523473223E+03  0.00000000000E+00 0. -1.
         25    2    1    2    0    0 -0.11870331975E+01 -0.24824671350E+01 -0.19440549080E+03  0.23114268725E+03  0.12500350125E+03 0.  0.
          2    1    1    2  501    0  0.82677546995E+01 -0.19049733318E+02 -0.43179447588E+03  0.43229355478E+03  0.00000000000E+00 0. -1.
          1    1    1    2  502    0 -0.70807215020E+01  0.21532200453E+02  0.30787543751E+03  0.30870869326E+03  0.00000000000E+00 0. -1.
         22    1    3    3    0    0  0.43931923420E+02 -0.38109420703E+02 -0.14161703757E+03  0.15309385086E+03  0.00000000000E+00 0.  1.
         22    1    3    3    0    0 -0.45118956618E+02  0.35626953568E+02 -0.52788453232E+02  0.78048836388E+02  0.00000000000E+00 0.  1.
</event>
<event>
 7    1  0.6173324E-006  0.1076293E+03  0.7818608E-02  0.1309071E+00
          2   -1    0    0  502    0  0.00000000000E+00  0.00000000000E+00  0.10374746317E+03  0.10374746317E+03  0.00000000000E+00 0. -1.
          1   -1    0    0  501    0 -0.00000000000E+00 -0.00000000000E+00 -0.26181221566E+04  0.26181221566E+04  0.00000000000E+00 0. -1.
         25    2    1    2    0    0  0.77346583888E+02  0.38363302719E+02 -0.93373291810E+03  0.94601071325E+03  0.12499948083E+03 0.  0.
          2    1    1    2  501    0 -0.55636009466E+02 -0.10607091807E+03 -0.16628551855E+04  0.16671633912E+04  0.00000000000E+00 0. -1.
          1    1    1    2  502    0 -0.21710574422E+02  0.67707615351E+02  0.82213410192E+02  0.10869551524E+03  0.00000000000E+00 0. -1.
         22    1    3    3    0    0  0.12128242477E+02  0.49743711044E+02 -0.13251872206E+03  0.14206598028E+03  0.00000000000E+00 0.  1.
         22    1    3    3    0    0  0.65218341411E+02 -0.11380408325E+02 -0.80121419604E+03  0.80394473298E+03  0.00000000000E+00 0.  1.
</event>
<event>
 7    1  0.6173324E-006  0.4930280E+02  0.7818608E-02  0.1521933E+00
          2   -1    0    0  502    0  0.00000000000E+00  0.00000000000E+00  0.46093476073E+03  0.46093476073E+03  0.00000000000E+00 0. -1.
          1   -1    0    0  501    0 -0.00000000000E+00 -0.00000000000E+00 -0.11082419229E+04  0.11082419229E+04  0.00000000000E+00 0. -1.
         25    2    1    2    0    0  0.40923279757E+02 -0.44362822840E+02 -0.47692386254E+03  0.49671369317E+03  0.12500138978E+03 0.  0.
          2    1    1    2  501    0 -0.46439556898E+02  0.15292333295E+02 -0.61997437503E+03  0.62189927931E+03  0.00000000000E+00 0. -1.
          1    1    1    2  502    0  0.55162771414E+01  0.29070489545E+02  0.44959107543E+03  0.45056371112E+03  0.00000000000E+00 0. -1.
         22    1    3    3    0    0  0.27557193670E+02 -0.16954900453E+01 -0.12784340161E+02  0.30425531430E+02  0.00000000000E+00 0. -1.
         22    1    3    3    0    0  0.13366086087E+02 -0.42667332795E+02 -0.46413952238E+03  0.46628816174E+03  0.00000000000E+00 0. -1.
</event>
<event>
 7    1  0.6173324E-006  0.6097289E+02  0.7818608E-02  0.1437872E+00
          2   -1    0    0  502    0  0.00000000000E+00  0.00000000000E+00  0.16910411470E+03  0.16910411470E+03  0.00000000000E+00 0. -1.
          1   -1    0    0  501    0 -0.00000000000E+00 -0.00000000000E+00 -0.38084028653E+03  0.38084028653E+03  0.00000000000E+00 0. -1.
         25    2    1    2    0    0  0.37965169572E+02 -0.22763427928E+02 -0.71743667437E+02  0.15076581820E+03  0.12499460136E+03 0.  0.
          2    1    1    2  501    0 -0.21080859389E+02 -0.37879122482E+02 -0.26003960834E+03  0.26362820118E+03  0.00000000000E+00 0. -1.
          1    1    1    2  502    0 -0.16884310183E+02  0.60642550410E+02  0.12004710395E+03  0.13555038184E+03  0.00000000000E+00 0. -1.
         22    1    3    3    0    0  0.37319745494E+02  0.48392528595E+02 -0.38470775429E+02  0.72212192805E+02  0.00000000000E+00 0.  1.
         22    1    3    3    0    0  0.64542407762E+00 -0.71155956523E+02 -0.33272892008E+02  0.78553625400E+02  0.00000000000E+00 0.  1.
</event>
<event>
 7    1  0.6173324E-006  0.8678065E+02  0.7818608E-02  0.1339042E+00
          2   -1    0    0  502    0  0.00000000000E+00  0.00000000000E+00  0.42187270679E+03  0.42187270679E+03  0.00000000000E+00 0. -1.
          1   -1    0    0  501    0 -0.00000000000E+00 -0.00000000000E+00 -0.12521616791E+04  0.12521616791E+04  0.00000000000E+00 0. -1.
         25    2    1    2    0    0 -0.18144630653E+02 -0.10544594096E+02  0.57524952558E+02  0.13919149010E+03  0.12499893865E+03 0.  0.
          2    1    1    2  501    0  0.64025145215E+02  0.60165179182E+02 -0.12061837332E+04  0.12093792896E+04  0.00000000000E+00 0. -1.
          1    1    1    2  502    0 -0.45880514562E+02 -0.49620585086E+02  0.31836980832E+03  0.32546360615E+03  0.00000000000E+00 0. -1.
         22    1    3    3    0    0 -0.35396246655E+02  0.29793250347E+02  0.78068194954E+02  0.90747865577E+02  0.00000000000E+00 0.  1.
         22    1    3    3    0    0  0.17251616002E+02 -0.40337844443E+02 -0.20543242395E+02  0.48443624525E+02  0.00000000000E+00 0.  1.
</event>
<event>
 7    1  0.6173324E-006  0.8418111E+02  0.7818608E-02  0.1435126E+00
          2   -1    0    0  502    0  0.00000000000E+00  0.00000000000E+00  0.16123878227E+04  0.16123878227E+04  0.00000000000E+00 0. -1.
          1   -1    0    0  501    0 -0.00000000000E+00 -0.00000000000E+00 -0.33523930049E+03  0.33523930049E+03  0.00000000000E+00 0. -1.
         25    2    1    2    0    0 -0.10809997305E+03  0.74461948055E+01  0.12798167966E+03  0.20915525721E+03  0.12500224518E+03 0.  0.
          2    1    1    2  501    0  0.27874870631E+02  0.15823289231E+02 -0.29256832247E+03  0.29431888863E+03  0.00000000000E+00 0. -1.
          1    1    1    2  502    0  0.80225102420E+02 -0.23269484037E+02  0.14417351650E+04  0.14441529773E+04  0.00000000000E+00 0. -1.
         22    1    3    3    0    0 -0.47114502641E+02 -0.56300029822E+02  0.36211484934E+02  0.81858056159E+02  0.00000000000E+00 0.  1.
         22    1    3    3    0    0 -0.60985470411E+02  0.63746224628E+02  0.91770194728E+02  0.12729720105E+03  0.00000000000E+00 0.  1.
</event>
<event>
 7    1  0.6173324E-006  0.1066274E+03  0.7818608E-02  0.1288013E+00
          2   -1    0    0  502    0  0.00000000000E+00  0.00000000000E+00  0.20643477598E+03  0.20643477598E+03  0.00000000000E+00 0. -1.
          1   -1    0    0  501    0 -0.00000000000E+00 -0.00000000000E+00 -0.77852652031E+03  0.77852652031E+03  0.00000000000E+00 0. -1.
         25    2    1    2    0    0 -0.77658056653E+02 -0.49067243690E+02 -0.18332523540E+02  0.15620276727E+03  0.12499941967E+03 0.  0.
          2    1    1    2  501    0  0.10422950825E+03 -0.33972310250E+02 -0.67253866707E+03  0.68141482737E+03  0.00000000000E+00 0. -1.
          1    1    1    2  502    0 -0.26571451593E+02  0.83039553940E+02  0.11877944628E+03  0.14734370165E+03  0.00000000000E+00 0. -1.
         22    1    3    3    0    0 -0.10680770802E+03 -0.50705265293E+02  0.57268408471E+01  0.11837105697E+03  0.00000000000E+00 0. -1.
         22    1    3    3    0    0  0.29149651372E+02  0.16380216024E+01 -0.24059364387E+02  0.37831710304E+02  0.00000000000E+00 0. -1.
</event>
<event>
 7    1  0.6173324E-006  0.1223236E+03  0.7818608E-02  0.1253899E+00
          2   -1    0    0  502    0  0.00000000000E+00  0.00000000000E+00  0.23978566805E+04  0.23978566805E+04  0.00000000000E+00 0. -1.
          1   -1    0    0  501    0 -0.00000000000E+00 -0.00000000000E+00 -0.10122295740E+03  0.10122295740E+03  0.00000000000E+00 0. -1.
         25    2    1    2    0    0  0.81392215836E+02 -0.12692985535E+03  0.43277550746E+03  0.47503223931E+03  0.12500043022E+03 0.  0.
          2    1    1    2  501    0  0.24089586202E+02  0.12095187995E+03 -0.30259499008E+02  0.12698544290E+03  0.00000000000E+00 0. -1.
          1    1    1    2  502    0 -0.10548180204E+03  0.59779753959E+01  0.18941177146E+04  0.18970619557E+04  0.00000000000E+00 0. -1.
         22    1    3    3    0    0  0.67699945877E+02  0.61548454855E-01  0.16522675044E+03  0.17855857728E+03  0.00000000000E+00 0.  1.
         22    1    3    3    0    0  0.13692269959E+02 -0.12699140380E+03  0.26754875702E+03  0.29647366203E+03  0.00000000000E+00 0.  1.
</event>
<event>
 7    1  0.6173324E-006  0.1639325E+03  0.7818608E-02  0.1329719E+00
          2   -1    0    0  502    0  0.00000000000E+00  0.00000000000E+00  0.93175041006E+03  0.93175041006E+03  0.00000000000E+00 0. -1.
          1   -1    0    0  501    0 -0.00000000000E+00 -0.00000000000E+00 -0.74229341574E+03  0.74229341574E+03  0.00000000000E+00 0. -1.
         25    2    1    2    0    0 -0.11088447593E+03 -0.16456922492E+03  0.21572438628E+03  0.31865094192E+03  0.12499206038E+03 0.  0.
          2    1    1    2  501    0  0.79213273674E+02  0.14213553981E+03 -0.68066551551E+03  0.69984483881E+03  0.00000000000E+00 0. -1.
          1    1    1    2  502    0  0.31671202256E+02  0.22433685108E+02  0.65439812355E+03  0.65554804506E+03  0.00000000000E+00 0. -1.
         22    1    3    3    0    0 -0.48892290623E+02  0.79031368508E+01  0.62630241001E+02  0.79846494865E+02  0.00000000000E+00 0. -1.
         22    1    3    3    0    0 -0.61992185307E+02 -0.17247236177E+03  0.15309414528E+03  0.23880444706E+03  0.00000000000E+00 0. -1.
</event>
<event>
 7    1  0.6173324E-006  0.1240483E+03  0.7818608E-02  0.1355076E+00
          2   -1    0    0  502    0  0.00000000000E+00  0.00000000000E+00  0.38692872686E+03  0.38692872686E+03  0.00000000000E+00 0. -1.
          1   -1    0    0  501    0 -0.00000000000E+00 -0.00000000000E+00 -0.92161829902E+03  0.92161829902E+03  0.00000000000E+00 0. -1.
         25    2    1    2    0    0  0.10126107667E+03 -0.41851643177E+02  0.49081531861E+02  0.17332239434E+03  0.12500515959E+03 0.  0.
          2    1    1    2  501    0 -0.12462094315E+03  0.79045703957E+01 -0.85338869155E+03  0.86247615653E+03  0.00000000000E+00 0. -1.
          1    1    1    2  502    0  0.23359866477E+02  0.33947072781E+02  0.26961758754E+03  0.27274847502E+03  0.00000000000E+00 0. -1.
         22    1    3    3    0    0  0.77372868939E+02  0.24840802997E+02 -0.89394885760E+01  0.81752925314E+02  0.00000000000E+00 0. -1.
         22    1    3    3    0    0  0.23888207733E+02 -0.66692446173E+02  0.58021020437E+02  0.91569469027E+02  0.00000000000E+00 0. -1.
</event>
<event>
 7    1  0.6173324E-006  0.4042806E+02  0.7818608E-02  0.1521098E+00
          2   -1    0    0  502    0  0.00000000000E+00  0.00000000000E+00  0.87196362403E+03  0.87196362403E+03  0.00000000000E+00 0. -1.
          1   -1    0    0  501    0 -0.00000000000E+00 -0.00000000000E+00 -0.61618858869E+02  0.61618858869E+02  0.00000000000E+00 0. -1.
         25    2    1    2    0    0 -0.80903783171E+01  0.30166213379E-01  0.33308996986E+03  0.35586583735E+03  0.12500444409E+03 0.  0.
          2    1    1    2  501    0  0.27969833337E+02 -0.30386483447E+02 -0.40998914736E+02  0.58194166054E+02  0.00000000000E+00 0. -1.
          1    1    1    2  502    0 -0.19879455020E+02  0.30356317234E+02  0.51825371004E+03  0.51952247949E+03  0.00000000000E+00 0. -1.
         22    1    3    3    0    0 -0.20679749271E+01  0.37289851547E+02  0.30864856469E+03  0.31089989713E+03  0.00000000000E+00 0.  1.
         22    1    3    3    0    0 -0.60224033901E+01 -0.37259685334E+02  0.24441405170E+02  0.44965940226E+02  0.00000000000E+00 0.  1.
</event>
<event>
 7    1  0.6173324E-006  0.2788233E+02  0.7818608E-02  0.1657127E+00
          2   -1    0    0  502    0  0.00000000000E+00  0.00000000000E+00  0.10294121470E+04  0.10294121470E+04  0.00000000000E+00 0. -1.
          1   -1    0    0  501    0 -0.00000000000E+00 -0.00000000000E+00 -0.12578889300E+04  0.12578889300E+04  0.00000000000E+00 0. -1.
         25    2    1    2    0    0  0.39243469412E+02 -0.23115864170E+02  0.19700176607E+02  0.13449940836E+03  0.12501040286E+03 0.  0.
          2    1    1    2  501    0 -0.11615581322E+02  0.19742315061E+02 -0.12001766399E+04  0.12003952048E+04  0.00000000000E+00 0. -1.
          1    1    1    2  502    0 -0.27627888090E+02  0.33735491081E+01  0.95199968034E+03  0.95240646386E+03  0.00000000000E+00 0. -1.
         22    1    3    3    0    0 -0.10546087879E+02 -0.61237363751E+02 -0.13436404039E+02  0.63574929353E+02  0.00000000000E+00 0. -1.
         22    1    3    3    0    0  0.49789557291E+02  0.38121499582E+02  0.33136580647E+02  0.70924479008E+02  0.00000000000E+00 0. -1.
</event>
<event>
 7    1  0.6173324E-006  0.3000034E+02  0.7818608E-02  0.1616524E+00
          2   -1    0    0  502    0  0.00000000000E+00  0.00000000000E+00  0.17388099621E+04  0.17388099621E+04  0.00000000000E+00 0. -1.
          1   -1    0    0  501    0 -0.00000000000E+00 -0.00000000000E+00 -0.53307378610E+02  0.53307378610E+02  0.00000000000E+00 0. -1.
         25    2    1    2    0    0 -0.24098570111E+02 -0.40480389517E+02  0.61732242502E+03  0.63161009163E+03  0.12499971361E+03 0.  0.
          2    1    1    2  501    0  0.26591968132E+02  0.13718333752E+02 -0.41134941734E+02  0.50866579220E+02  0.00000000000E+00 0. -1.
          1    1    1    2  502    0 -0.24933980208E+01  0.26762055766E+02  0.11093151002E+04  0.11096406699E+04  0.00000000000E+00 0. -1.
         22    1    3    3    0    0  0.25511474747E+02 -0.14584488332E+02  0.50751186166E+03  0.50836191081E+03  0.00000000000E+00 0. -1.
         22    1    3    3    0    0 -0.49610044859E+02 -0.25895901186E+02  0.10981056337E+03  0.12324818082E+03  0.00000000000E+00 0. -1.
</event>
<event>
 7    1  0.6173324E-006  0.1021317E+03  0.7818608E-02  0.1358779E+00
          2   -1    0    0  502    0  0.00000000000E+00  0.00000000000E+00  0.56351046638E+03  0.56351046638E+03  0.00000000000E+00 0. -1.
          1   -1    0    0  501    0 -0.00000000000E+00 -0.00000000000E+00 -0.19427963281E+03  0.19427963281E+03  0.00000000000E+00 0. -1.
         25    2    1    2    0    0  0.46189246343E+02  0.61687288369E+02  0.28605739538E+03  0.32153127129E+03  0.12495902105E+03 0.  0.
          2    1    1    2  501    0  0.40930333991E+02  0.26038064194E+02 -0.15797968461E+03  0.16525995818E+03  0.00000000000E+00 0. -1.
          1    1    1    2  502    0 -0.87119580334E+02 -0.87725352563E+02  0.24115312280E+03  0.27099886973E+03  0.00000000000E+00 0. -1.
         22    1    3    3    0    0  0.21447496394E+02 -0.38217328857E+02  0.89832397302E+02  0.99952083178E+02  0.00000000000E+00 0. -1.
         22    1    3    3    0    0  0.24741749948E+02  0.99904617227E+02  0.19622499807E+03  0.22157918811E+03  0.00000000000E+00 0. -1.
</event>
<event>
 7    1  0.6173324E-006  0.8353916E+02  0.7818608E-02  0.1326303E+00
          2   -1    0    0  502    0  0.00000000000E+00  0.00000000000E+00  0.21835467961E+04  0.21835467961E+04  0.00000000000E+00 0. -1.
          1   -1    0    0  501    0 -0.00000000000E+00 -0.00000000000E+00 -0.19700437019E+03  0.19700437019E+03  0.00000000000E+00 0. -1.
         25    2    1    2    0    0 -0.10793459181E+03  0.67279018060E+02  0.47279777859E+02  0.18449155768E+03  0.12500166030E+03 0.  0.
          2    1    1    2  501    0  0.29860690666E+02 -0.75375016895E+02 -0.11477557062E+03  0.14052218910E+03  0.00000000000E+00 0. -1.
          1    1    1    2  502    0  0.78073901147E+02  0.80959988355E+01  0.20540382187E+04  0.20555374195E+04  0.00000000000E+00 0. -1.
         22    1    3    3    0    0  0.24364183879E+02  0.32537860885E+02  0.31751851729E+01  0.40772633566E+02  0.00000000000E+00 0. -1.
         22    1    3    3    0    0 -0.13229877569E+03  0.34741157175E+02  0.44104592686E+02  0.14371892411E+03  0.00000000000E+00 0. -1.
</event>
<event>
 7    1  0.6173324E-006  0.5091640E+02  0.7818608E-02  0.1537046E+00
          2   -1    0    0  502    0  0.00000000000E+00  0.00000000000E+00  0.22199990273E+02  0.22199990273E+02  0.00000000000E+00 0. -1.
          1   -1    0    0  501    0 -0.00000000000E+00 -0.00000000000E+00 -0.23358401508E+04  0.23358401508E+04  0.00000000000E+00 0. -1.
         25    2    1    2    0    0  0.92904659314E+01 -0.66700344500E+02 -0.16330006466E+04  0.16391616856E+04  0.12499868341E+03 0.  0.
          2    1    1    2  501    0  0.14092998229E+02  0.21766941359E+02 -0.66550796046E+03  0.66601295616E+03  0.00000000000E+00 0. -1.
          1    1    1    2  502    0 -0.23383464160E+02  0.44933403141E+02 -0.15131553478E+02  0.52865499379E+02  0.00000000000E+00 0. -1.
         22    1    3    3    0    0 -0.52410968026E+02 -0.12241517319E+02 -0.43109283512E+03  0.43443963540E+03  0.00000000000E+00 0. -1.
         22    1    3    3    0    0  0.61701433957E+02 -0.54458827182E+02 -0.12019078115E+04  0.12047220502E+04  0.00000000000E+00 0. -1.
</event>
<event>
 7    1  0.6173324E-006  0.1142376E+03  0.7818608E-02  0.1339844E+00
          2   -1    0    0  502    0  0.00000000000E+00  0.00000000000E+00  0.32373390547E+04  0.32373390547E+04  0.00000000000E+00 0. -1.
          1   -1    0    0  501    0 -0.00000000000E+00 -0.00000000000E+00 -0.44024467971E+03  0.44024467971E+03  0.00000000000E+00 0. -1.
         25    2    1    2    0    0 -0.10585094723E+03  0.40728566388E+02  0.15187836147E+04  0.15281339246E+04  0.12500553543E+03 0.  0.
          2    1    1    2  501    0  0.24494921735E+02  0.44712576992E+02 -0.43203857285E+03  0.43503625614E+03  0.00000000000E+00 0. -1.
          1    1    1    2  502    0  0.81356025495E+02 -0.85441143380E+02  0.17103493331E+04  0.17144135537E+04  0.00000000000E+00 0. -1.
         22    1    3    3    0    0 -0.45551136734E+02 -0.44383791354E+02  0.50150539621E+03  0.50552199697E+03  0.00000000000E+00 0.  1.
         22    1    3    3    0    0 -0.60299810497E+02  0.85112357742E+02  0.10172782185E+04  0.10226119276E+04  0.00000000000E+00 0.  1.
</event>
<event>
 7    1  0.6173324E-006  0.7658558E+02  0.7818608E-02  0.1404291E+00
          2   -1    0    0  502    0  0.00000000000E+00  0.00000000000E+00  0.18833878012E+04  0.18833878012E+04  0.00000000000E+00 0. -1.
          1   -1    0    0  501    0 -0.00000000000E+00 -0.00000000000E+00 -0.51498416893E+03  0.51498416893E+03  0.00000000000E+00 0. -1.
         25    2    1    2    0    0 -0.68698727205E+02  0.90596607110E+01  0.37428986165E+03  0.40064976545E+03  0.12500296576E+03 0.  0.
          2    1    1    2  501    0 -0.75138224618E+00 -0.44659676510E+02 -0.49978969507E+03  0.50178161642E+03  0.00000000000E+00 0. -1.
          1    1    1    2  502    0  0.69450109452E+02  0.35600015799E+02  0.14939034656E+04  0.14959405882E+04  0.00000000000E+00 0. -1.
         22    1    3    3    0    0  0.14729217078E+02  0.48463330467E+02  0.13453086958E+03  0.14375047515E+03  0.00000000000E+00 0. -1.
         22    1    3    3    0    0 -0.83427944283E+02 -0.39403669756E+02  0.23975899206E+03  0.25689929029E+03  0.00000000000E+00 0. -1.
</event>
<event>
 7    1  0.6173324E-006  0.1370998E+03  0.7818608E-02  0.1331245E+00
          2   -1    0    0  502    0  0.00000000000E+00  0.00000000000E+00  0.17811211384E+04  0.17811211384E+04  0.00000000000E+00 0. -1.
          1   -1    0    0  501    0 -0.00000000000E+00 -0.00000000000E+00 -0.15579526748E+03  0.15579526748E+03  0.00000000000E+00 0. -1.
         25    2    1    2    0    0 -0.83948745339E+02  0.87936085383E+02  0.45904417257E+02  0.18031304243E+03  0.12500172315E+03 0.  0.
          2    1    1    2  501    0  0.12752438429E+03 -0.73870349994E+02 -0.26747147070E+02  0.14978219878E+03  0.00000000000E+00 0. -1.
          1    1    1    2  502    0 -0.43575638948E+02 -0.14065735389E+02  0.16061686007E+04  0.16068211646E+04  0.00000000000E+00 0. -1.
         22    1    3    3    0    0 -0.11473246809E+03  0.64866653480E+02  0.18524214151E+02  0.13309533604E+03  0.00000000000E+00 0. -1.
         22    1    3    3    0    0  0.30783722746E+02  0.23069431903E+02  0.27380203106E+02  0.47217706388E+02  0.00000000000E+00 0. -1.
</event>
<event>
 7    1  0.6173324E-006  0.3622100E+02  0.7818608E-02  0.1596983E+00
          2   -1    0    0  502    0  0.00000000000E+00  0.00000000000E+00  0.84988497111E+03  0.84988497111E+03  0.00000000000E+00 0. -1.
          1   -1    0    0  501    0 -0.00000000000E+00 -0.00000000000E+00 -0.98273944664E+03  0.98273944664E+03  0.00000000000E+00 0. -1.
         25    2    1    2    0    0 -0.12146396777E+02  0.34465032335E+02 -0.60796878033E+03  0.62176006673E+03  0.12499667719E+03 0.  0.
          2    1    1    2  501    0 -0.12863532878E+02 -0.34905903032E+02 -0.36674831964E+03  0.36863019749E+03  0.00000000000E+00 0. -1.
          1    1    1    2  502    0  0.25009929654E+02  0.44087069711E+00  0.84186262444E+03  0.84223415353E+03  0.00000000000E+00 0. -1.
         22    1    3    3    0    0  0.39013341257E+01  0.79651437709E+02 -0.31761962861E+03  0.32747793883E+03  0.00000000000E+00 0. -1.
         22    1    3    3    0    0 -0.16047730902E+02 -0.45186405374E+02 -0.29034915172E+03  0.29428212790E+03  0.00000000000E+00 0. -1.
</event>
<event>
 7    1  0.7218814E-006  0.1062719E+03  0.7818608E-02  0.1300833E+00
          2   -1    0    0  502    0  0.00000000000E+00  0.00000000000E+00  0.11885893656E+04  0.11885893656E+04  0.00000000000E+00 0. -1.
          1   -1    0    0  501    0 -0.00000000000E+00 -0.00000000000E+00 -0.14067955986E+04  0.14067955986E+04  0.00000000000E+00 0. -1.
         25    2    1    2    0    0  0.11202216096E+03  0.56277908944E+02 -0.17023291844E+03  0.24560342729E+03  0.12500251755E+03 0.  0.
          2    1    1    2  501    0 -0.77546395191E+01 -0.77258401093E+02 -0.11951577552E+04  0.11976773584E+04  0.00000000000E+00 0. -1.
          1    1    1    2  502    0 -0.10426752144E+03  0.20980492149E+02  0.11471844406E+04  0.11521041784E+04  0.00000000000E+00 0. -1.
         22    1    3    3    0    0  0.91626366712E+02  0.26873561878E+02 -0.28831236529E+02  0.99743769753E+02  0.00000000000E+00 0. -1.
         22    1    3    3    0    0  0.20395794251E+02  0.29404347066E+02 -0.14140168191E+03  0.14585965753E+03  0.00000000000E+00 0. -1.
</event>
<event>
 7    1  0.6173324E-006  0.7392293E+02  0.7818608E-02  0.1361643E+00
          2   -1    0    0  502    0  0.00000000000E+00  0.00000000000E+00  0.52335802538E+03  0.52335802538E+03  0.00000000000E+00 0. -1.
          1   -1    0    0  501    0 -0.00000000000E+00 -0.00000000000E+00 -0.12823249209E+04  0.12823249209E+04  0.00000000000E+00 0. -1.
         25    2    1    2    0    0 -0.12270169869E+03 -0.50852457583E+02  0.18863750659E+03  0.26239443907E+03  0.12500021383E+03 0.  0.
          2    1    1    2  501    0  0.62200752985E+02  0.20297551902E+02 -0.12407172279E+04  0.12424412115E+04  0.00000000000E+00 0. -1.
          1    1    1    2  502    0  0.60500945709E+02  0.30554905681E+02  0.29311282582E+03  0.30084729573E+03  0.00000000000E+00 0. -1.
         22    1    3    3    0    0  0.19920854626E+02 -0.27225139467E+02  0.16347625483E+02  0.37487244857E+02  0.00000000000E+00 0.  1.
         22    1    3    3    0    0 -0.14262255332E+03 -0.23627318116E+02  0.17228988111E+03  0.22490719422E+03  0.00000000000E+00 0.  1.
</event>
<event>
 7    1  0.6173324E-006  0.7555599E+02  0.7818608E-02  0.1427876E+00
          2   -1    0    0  502    0  0.00000000000E+00  0.00000000000E+00  0.16033640680E+03  0.16033640680E+03  0.00000000000E+00 0. -1.
          1   -1    0    0  501    0 -0.00000000000E+00 -0.00000000000E+00 -0.59176703605E+03  0.59176703605E+03  0.00000000000E+00 0. -1.
         25    2    1    2    0    0 -0.48312621465E+02 -0.59900415832E+02 -0.29643913998E+03  0.33079210992E+03  0.12500034826E+03 0.  0.
          2    1    1    2  501    0 -0.21706551291E+02  0.30854682267E+02 -0.26669517807E+03  0.26935015091E+03  0.00000000000E+00 0. -1.
          1    1    1    2  502    0  0.70019172756E+02  0.29045733565E+02  0.13170368881E+03  0.15196118201E+03  0.00000000000E+00 0. -1.
         22    1    3    3    0    0 -0.34395616797E+02  0.33602070680E+02 -0.65510329517E+02  0.81263527380E+02  0.00000000000E+00 0. -1.
         22    1    3    3    0    0 -0.13917004668E+02 -0.93502486512E+02 -0.23092881047E+03  0.24952858254E+03  0.00000000000E+00 0. -1.
</event>
<event>
 7    1  0.6173324E-006  0.4765996E+02  0.7818608E-02  0.1566837E+00
          2   -1    0    0  502    0  0.00000000000E+00  0.00000000000E+00  0.12975961702E+04  0.12975961702E+04  0.00000000000E+00 0. -1.
          1   -1    0    0  501    0 -0.00000000000E+00 -0.00000000000E+00 -0.82137389176E+03  0.82137389176E+03  0.00000000000E+00 0. -1.
         25    2    1    2    0    0  0.32453589349E+02 -0.52121768226E+02 -0.24822235191E+02  0.14144445992E+03  0.12498190948E+03 0.  0.
          2    1    1    2  501    0 -0.22183552014E+02  0.56392649570E+01 -0.73760581195E+03  0.73796086963E+03  0.00000000000E+00 0. -1.
          1    1    1    2  502    0 -0.10270037335E+02  0.46482503269E+02  0.12386503256E+04  0.12395647324E+04  0.00000000000E+00 0. -1.
         22    1    3    3    0    0  0.78448732228E+02 -0.17260580046E+02 -0.52269370136E+01  0.80495043837E+02  0.00000000000E+00 0.  1.
         22    1    3    3    0    0 -0.45995142880E+02 -0.34861188180E+02 -0.19595298177E+02  0.60949416080E+02  0.00000000000E+00 0.  1.
</event>
<event>
 7    1  0.6173324E-006  0.9110932E+02  0.7818608E-02  0.1482905E+00
          2   -1    0    0  502    0  0.00000000000E+00  0.00000000000E+00  0.43882265659E+03  0.43882265659E+03  0.00000000000E+00 0. -1.
          1   -1    0    0  501    0 -0.00000000000E+00 -0.00000000000E+00 -0.21917487500E+03  0.21917487500E+03  0.00000000000E+00 0. -1.
         25    2    1    2    0    0  0.93126027893E+02 -0.60068891769E+02  0.14416199266E+03  0.22065010271E+03  0.12499223523E+03 0.  0.
          2    1    1    2  501    0 -0.75600802314E+02  0.48646449539E+02 -0.16928988959E+03  0.19167948529E+03  0.00000000000E+00 0. -1.
          1    1    1    2  502    0 -0.17525225579E+02  0.11422442230E+02  0.24477567852E+03  0.24566794360E+03  0.00000000000E+00 0. -1.
         22    1    3    3    0    0  0.40241749964E+01 -0.31023375626E+02 -0.15959678923E+02  0.35119156752E+02  0.00000000000E+00 0. -1.
         22    1    3    3    0    0  0.89101852896E+02 -0.29045516143E+02  0.16012167158E+03  0.18553094596E+03  0.00000000000E+00 0. -1.
</event>
<event>
 7    1  0.6173324E-006  0.6200775E+02  0.7818608E-02  0.1505816E+00
          2   -1    0    0  502    0  0.00000000000E+00  0.00000000000E+00  0.10308376645E+04  0.10308376645E+04  0.00000000000E+00 0. -1.
          1   -1    0    0  501    0 -0.00000000000E+00 -0.00000000000E+00 -0.47324428209E+03  0.47324428209E+03  0.00000000000E+00 0. -1.
         25    2    1    2    0    0  0.43081218766E+02 -0.18647314240E+00 -0.61011822742E+01  0.13235694282E+03  0.12500043882E+03 0.  0.
          2    1    1    2  501    0 -0.59461171081E+02 -0.20296859601E+02 -0.40139326076E+03  0.40628086734E+03  0.00000000000E+00 0. -1.
          1    1    1    2  502    0  0.16379952315E+02  0.20483332743E+02  0.96508782540E+03  0.96544413639E+03  0.00000000000E+00 0. -1.
         22    1    3    3    0    0 -0.43581175727E+02 -0.90715023471E+00 -0.12805510558E+02  0.45432619339E+02  0.00000000000E+00 0.  1.
         22    1    3    3    0    0  0.86662394494E+02  0.72067709230E+00  0.67043282836E+01  0.86924323481E+02  0.00000000000E+00 0.  1.
</event>
<event>
 7    1  0.6173324E-006  0.1952613E+03  0.7818608E-02  0.1164174E+00
          2   -1    0    0  502    0  0.00000000000E+00  0.00000000000E+00  0.17567632173E+04  0.17567632173E+04  0.00000000000E+00 0. -1.
          1   -1    0    0  501    0 -0.00000000000E+00 -0.00000000000E+00 -0.72840461459E+02  0.72840461459E+02  0.00000000000E+00 0. -1.
         25    2    1    2    0    0 -0.14693419498E+03  0.14987551207E+03  0.90125740198E+03  0.93377880016E+03  0.12500246495E+03 0.  0.
          2    1    1    2  501    0  0.20657020108E+03  0.12535654941E+02  0.19918387541E+03  0.28723267022E+03  0.00000000000E+00 0. -1.
          1    1    1    2  502    0 -0.59636006104E+02 -0.16241116701E+03  0.58348147844E+03  0.60859220836E+03  0.00000000000E+00 0. -1.
         22    1    3    3    0    0  0.11543102280E+02 -0.55705775108E+01  0.13208391141E+02  0.18404785807E+02  0.00000000000E+00 0.  1.
         22    1    3    3    0    0 -0.15847729726E+03  0.15544608958E+03  0.88804901084E+03  0.91537401436E+03  0.00000000000E+00 0.  1.
</event>
<event>
 7    1  0.6173324E-006  0.4948437E+02  0.7818608E-02  0.1506320E+00
          2   -1    0    0  502    0  0.00000000000E+00  0.00000000000E+00  0.21229642786E+03  0.21229642786E+03  0.00000000000E+00 0. -1.
          1   -1    0    0  501    0 -0.00000000000E+00 -0.00000000000E+00 -0.51847997467E+03  0.51847997467E+03  0.00000000000E+00 0. -1.
         25    2    1    2    0    0  0.24997064568E+02 -0.63331890913E+02 -0.19863027854E+03  0.24436570154E+03  0.12499930757E+03 0.  0.
          2    1    1    2  501    0 -0.29504118905E+02  0.14220414604E+02 -0.29284353084E+03  0.29466938555E+03  0.00000000000E+00 0. -1.
          1    1    1    2  502    0  0.45070543377E+01  0.49111476309E+02  0.18529026257E+03  0.19174131544E+03  0.00000000000E+00 0. -1.
         22    1    3    3    0    0  0.73883160327E+02 -0.19677719286E+02 -0.98491110022E+02  0.12468533502E+03  0.00000000000E+00 0.  1.
         22    1    3    3    0    0 -0.48886095759E+02 -0.43654171626E+02 -0.10013916851E+03  0.11968036652E+03  0.00000000000E+00 0.  1.
</event>
<event>
 7    1  0.6173324E-006  0.2606632E+02  0.7818608E-02  0.1683316E+00
          2   -1    0    0  502    0  0.00000000000E+00  0.00000000000E+00  0.86532026876E+03  0.86532026876E+03  0.00000000000E+00 0. -1.
          1   -1    0    0  501    0 -0.00000000000E+00 -0.00000000000E+00 -0.82028824574E+02  0.82028824574E+02  0.00000000000E+00 0. -1.
         25    2    1    2    0    0 -0.70169431044E+01  0.49347353564E+01  0.11539241460E+03  0.17034468551E+03  0.12501325302E+03 0.  0.
          2    1    1    2  501    0  0.26192126439E+02  0.41327976620E+01 -0.51164889526E+02  0.57627714028E+02  0.00000000000E+00 0. -1.
          1    1    1    2  502    0 -0.19175183335E+02 -0.90675330183E+01  0.71906391912E+03  0.71937669380E+03  0.00000000000E+00 0. -1.
         22    1    3    3    0    0  0.52680581461E+02  0.21315714612E+02  0.82683767188E+02  0.10033049740E+03  0.00000000000E+00 0.  1.
         22    1    3    3    0    0 -0.59697524566E+02 -0.16380979256E+02  0.32708647411E+02  0.70014188106E+02  0.00000000000E+00 0.  1.
</event>
<event>
 7    1  0.6173324E-006  0.4636233E+02  0.7818608E-02  0.1585351E+00
          2   -1    0    0  502    0  0.00000000000E+00  0.00000000000E+00  0.24835277711E+04  0.24835277711E+04  0.00000000000E+00 0. -1.
          1   -1    0    0  501    0 -0.00000000000E+00 -0.00000000000E+00 -0.14761870601E+04  0.14761870601E+04  0.00000000000E+00 0. -1.
         25    2    1    2    0    0 -0.28645458487E+02 -0.45051056374E+02  0.48078196919E+03  0.49962639274E+03  0.12500028183E+03 0.  0.
          2    1    1    2  501    0  0.20967594474E+02 -0.58594566149E+00 -0.14664212249E+04  0.14665712367E+04  0.00000000000E+00 0. -1.
          1    1    1    2  502    0  0.76778640122E+01  0.45637002036E+02  0.19929799668E+04  0.19935172017E+04  0.00000000000E+00 0. -1.
         22    1    3    3    0    0 -0.26668459773E+02 -0.50510947497E+02  0.77356803971E+02  0.96159438872E+02  0.00000000000E+00 0.  1.
         22    1    3    3    0    0 -0.19769987139E+01  0.54598911225E+01  0.40342516522E+03  0.40346695387E+03  0.00000000000E+00 0.  1.
</event>
<event>
 7    1  0.6173324E-006  0.1950086E+03  0.7818608E-02  0.1372163E+00
          2   -1    0    0  502    0  0.00000000000E+00  0.00000000000E+00  0.27107893439E+03  0.27107893439E+03  0.00000000000E+00 0. -1.
          1   -1    0    0  501    0 -0.00000000000E+00 -0.00000000000E+00 -0.68572818971E+03  0.68572818971E+03  0.00000000000E+00 0. -1.
         25    2    1    2    0    0  0.54943232358E+02 -0.20560759799E+03 -0.13980102871E+03  0.28365846151E+03  0.12499820808E+03 0.  0.
          2    1    1    2  501    0 -0.11920645361E+02  0.19346951670E+02 -0.42775238082E+03  0.42835558316E+03  0.00000000000E+00 0. -1.
          1    1    1    2  502    0 -0.43022586997E+02  0.18626064632E+03  0.15290415421E+03  0.24479307943E+03  0.00000000000E+00 0. -1.
         22    1    3    3    0    0  0.31902880418E+02 -0.72965876952E+01 -0.60609913248E+02  0.68881024636E+02  0.00000000000E+00 0.  1.
         22    1    3    3    0    0  0.23040351940E+02 -0.19831101029E+03 -0.79191115465E+02  0.21477743687E+03  0.00000000000E+00 0.  1.
</event>
<event>
 7    1  0.6173324E-006  0.8331742E+02  0.7818608E-02  0.1388534E+00
          2   -1    0    0  502    0  0.00000000000E+00  0.00000000000E+00  0.64052860264E+03  0.64052860264E+03  0.00000000000E+00 0. -1.
          1   -1    0    0  501    0 -0.00000000000E+00 -0.00000000000E+00 -0.21473037157E+03  0.21473037157E+03  0.00000000000E+00 0. -1.
         25    2    1    2    0    0 -0.16760777436E+02  0.54631326747E+02  0.17618563480E+03  0.22345453888E+03  0.12500019005E+03 0.  0.
          2    1    1    2  501    0 -0.20585417486E+02 -0.82408551581E+02 -0.18033863112E+03  0.19934129191E+03  0.00000000000E+00 0. -1.
          1    1    1    2  502    0  0.37346194922E+02  0.27777224833E+02  0.42995122739E+03  0.43246314343E+03  0.00000000000E+00 0. -1.
         22    1    3    3    0    0  0.20071801285E+02 -0.35006978045E+02  0.57089595109E+02  0.69911283698E+02  0.00000000000E+00 0. -1.
         22    1    3    3    0    0 -0.36832578721E+02  0.89638304792E+02  0.11909603969E+03  0.15354325518E+03  0.00000000000E+00 0. -1.
</event>
<event>
 7    1  0.6173324E-006  0.1109228E+03  0.7818608E-02  0.1270737E+00
          2   -1    0    0  502    0  0.00000000000E+00  0.00000000000E+00  0.11328841911E+04  0.11328841911E+04  0.00000000000E+00 0. -1.
          1   -1    0    0  501    0 -0.00000000000E+00 -0.00000000000E+00 -0.69150990874E+03  0.69150990874E+03  0.00000000000E+00 0. -1.
         25    2    1    2    0    0  0.31091172466E+02 -0.12864680785E+02  0.48880201818E+03  0.50565156114E+03  0.12499570908E+03 0.  0.
          2    1    1    2  501    0 -0.89758742251E+02 -0.66633702267E+02 -0.67461821075E+03  0.68381752856E+03  0.00000000000E+00 0. -1.
          1    1    1    2  502    0  0.58667569784E+02  0.79498383052E+02  0.62719047492E+03  0.63492501012E+03  0.00000000000E+00 0. -1.
         22    1    3    3    0    0 -0.41083536370E+02  0.24795948309E+02  0.18806507083E+03  0.19409061512E+03  0.00000000000E+00 0.  1.
         22    1    3    3    0    0  0.72174708836E+02 -0.37660629093E+02  0.30073694735E+03  0.31156094602E+03  0.00000000000E+00 0.  1.
</event>
<event>
 7    1  0.6173324E-006  0.5144295E+02  0.7818608E-02  0.1523667E+00
          2   -1    0    0  502    0  0.00000000000E+00  0.00000000000E+00  0.10920396515E+03  0.10920396515E+03  0.00000000000E+00 0. -1.
          1   -1    0    0  501    0 -0.00000000000E+00 -0.00000000000E+00 -0.16381136595E+04  0.16381136595E+04  0.00000000000E+00 0. -1.
         25    2    1    2    0    0  0.76866785244E+01 -0.37403791094E+02 -0.72049009046E+03  0.73224785263E+03  0.12499127421E+03 0.  0.
          2    1    1    2  501    0 -0.35551634603E+02  0.40465225322E+02 -0.90903132944E+03  0.91062577993E+03  0.00000000000E+00 0. -1.
          1    1    1    2  502    0  0.27864956079E+02 -0.30614342285E+01  0.10061172556E+03  0.10444399206E+03  0.00000000000E+00 0. -1.
         22    1    3    3    0    0  0.85687468748E+01  0.42150157066E+02 -0.38776264225E+03  0.39014090518E+03  0.00000000000E+00 0. -1.
         22    1    3    3    0    0 -0.88206835039E+00 -0.79553948159E+02 -0.33272744820E+03  0.34210694746E+03  0.00000000000E+00 0. -1.
</event>
<event>
 7    1  0.6173324E-006  0.8859991E+02  0.7818608E-02  0.1353421E+00
          2   -1    0    0  502    0  0.00000000000E+00  0.00000000000E+00  0.82908063321E+03  0.82908063321E+03  0.00000000000E+00 0. -1.
          1   -1    0    0  501    0 -0.00000000000E+00 -0.00000000000E+00 -0.25422089864E+03  0.25422089864E+03  0.00000000000E+00 0. -1.
         25    2    1    2    0    0 -0.50458072825E+02  0.25324421442E+02  0.10783901173E+03  0.17447276629E+03  0.12499660113E+03 0.  0.
          2    1    1    2  501    0 -0.40663935483E+02 -0.42069842847E+02 -0.21383655038E+03  0.22169685971E+03  0.00000000000E+00 0. -1.
          1    1    1    2  502    0  0.91122008308E+02  0.16745421405E+02  0.68085727322E+03  0.68713190585E+03  0.00000000000E+00 0. -1.
         22    1    3    3    0    0  0.22101623722E+02  0.44002954976E+02  0.81178140091E+02  0.94945417195E+02  0.00000000000E+00 0.  1.
         22    1    3    3    0    0 -0.72559696548E+02 -0.18678533534E+02  0.26660871637E+02  0.79527349098E+02  0.00000000000E+00 0.  1.
</event>
<event>
 7    1  0.6173324E-006  0.1565053E+03  0.7818608E-02  0.1302262E+00
          2   -1    0    0  502    0  0.00000000000E+00  0.00000000000E+00  0.29732340617E+03  0.29732340617E+03  0.00000000000E+00 0. -1.
          1   -1    0    0  501    0 -0.00000000000E+00 -0.00000000000E+00 -0.12896965234E+04  0.12896965234E+04  0.00000000000E+00 0. -1.
         25    2    1    2    0    0 -0.28789685424E+02 -0.14236011910E+03 -0.18162324730E+03  0.26402081589E+03  0.12499895108E+03 0.  0.
          2    1    1    2  501    0 -0.20914717471E+02  0.15776256692E+03 -0.10582187993E+04  0.10701184421E+04  0.00000000000E+00 0. -1.
          1    1    1    2  502    0  0.49704402895E+02 -0.15402447825E+02  0.24746892936E+03  0.25288067159E+03  0.00000000000E+00 0. -1.
         22    1    3    3    0    0 -0.32070369505E+01 -0.70858924184E+01  0.19098972069E+02  0.20621971086E+02  0.00000000000E+00 0.  1.
         22    1    3    3    0    0 -0.25582648474E+02 -0.13527422668E+03 -0.20072221937E+03  0.24339884481E+03  0.00000000000E+00 0.  1.
</event>
<event>
 7    1  0.6173324E-006  0.8600505E+02  0.7818608E-02  0.1483820E+00
          2   -1    0    0  502    0  0.00000000000E+00  0.00000000000E+00  0.17456337528E+03  0.17456337528E+03  0.00000000000E+00 0. -1.
          1   -1    0    0  501    0 -0.00000000000E+00 -0.00000000000E+00 -0.21257814359E+04  0.21257814359E+04  0.00000000000E+00 0. -1.
         25    2    1    2    0    0  0.95143683093E+02 -0.48759196909E+02  0.17202992202E+02  0.16538061243E+03  0.12500009724E+03 0.  0.
          2    1    1    2  501    0 -0.73636829469E+02  0.44040315749E+02 -0.20493235475E+04  0.20511189469E+04  0.00000000000E+00 0. -1.
          1    1    1    2  502    0 -0.21506853624E+02  0.47188811597E+01  0.80902494728E+02  0.83845251776E+02  0.00000000000E+00 0. -1.
         22    1    3    3    0    0  0.56444054904E+02 -0.74886815777E+02  0.51924661732E+02  0.10719205664E+03  0.00000000000E+00 0.  1.
         22    1    3    3    0    0  0.38699628189E+02  0.26127618868E+02 -0.34721669529E+02  0.58188555787E+02  0.00000000000E+00 0.  1.
</event>
<event>
 7    1  0.6173324E-006  0.7983004E+02  0.7818608E-02  0.1467718E+00
          2   -1    0    0  502    0  0.00000000000E+00  0.00000000000E+00  0.18915386073E+04  0.18915386073E+04  0.00000000000E+00 0. -1.
          1   -1    0    0  501    0 -0.00000000000E+00 -0.00000000000E+00 -0.24643572398E+04  0.24643572398E+04  0.00000000000E+00 0. -1.
         25    2    1    2    0    0 -0.48413068754E+02  0.31962596817E+02  0.94708815706E+03  0.95706088235E+03  0.12499648984E+03 0.  0.
          2    1    1    2  501    0  0.74730831696E+02 -0.28118786456E+02 -0.24585343836E+04  0.24598306199E+04  0.00000000000E+00 0. -1.
          1    1    1    2  502    0 -0.26317762941E+02 -0.38438103608E+01  0.93862759398E+03  0.93900434488E+03  0.00000000000E+00 0. -1.
         22    1    3    3    0    0 -0.83406257315E+01 -0.34262951407E+02  0.61746315286E+03  0.61846928866E+03  0.00000000000E+00 0. -1.
         22    1    3    3    0    0 -0.40072443023E+02  0.66225548224E+02  0.32962500420E+03  0.33859159370E+03  0.00000000000E+00 0. -1.
</event>
<event>
 7    1  0.6173324E-006  0.9880142E+02  0.7818608E-02  0.1362418E+00
          2   -1    0    0  502    0  0.00000000000E+00  0.00000000000E+00  0.22429844945E+04  0.22429844945E+04  0.00000000000E+00 0. -1.
          1   -1    0    0  501    0 -0.00000000000E+00 -0.00000000000E+00 -0.62192762069E+02  0.62192762069E+02  0.00000000000E+00 0. -1.
         25    2    1    2    0    0 -0.75760420511E+02 -0.11699386717E+03  0.50297072294E+03  0.53668491179E+03  0.12499576045E+03 0.  0.
          2    1    1    2  501    0  0.37056991642E+02  0.87539139214E+02  0.52395221762E+01  0.95203855576E+02  0.00000000000E+00 0. -1.
          1    1    1    2  502    0  0.38703428869E+02  0.29454727960E+02  0.16725814873E+04  0.16732884892E+04  0.00000000000E+00 0. -1.
         22    1    3    3    0    0 -0.29219327394E+02 -0.91368980014E+02  0.45532713847E+03  0.46532232122E+03  0.00000000000E+00 0.  1.
         22    1    3    3    0    0 -0.46541093117E+02 -0.25624887160E+02  0.47643584473E+02  0.71362590563E+02  0.00000000000E+00 0.  1.
</event>
<event>
 7    1  0.6173324E-006  0.9765572E+02  0.7818608E-02  0.1330961E+00
          2   -1    0    0  502    0  0.00000000000E+00  0.00000000000E+00  0.40658627428E+03  0.40658627428E+03  0.00000000000E+00 0. -1.
          1   -1    0    0  501    0 -0.00000000000E+00 -0.00000000000E+00 -0.38306464922E+03  0.38306464922E+03  0.00000000000E+00 0. -1.
         25    2    1    2    0    0  0.14213425768E+03 -0.11440724721E+02  0.24578541219E+03  0.31043246670E+03  0.12499924059E+03 0.  0.
          2    1    1    2  501    0 -0.62130031152E+02  0.17117396691E+02 -0.33484423319E+03  0.34098945224E+03  0.00000000000E+00 0. -1.
          1    1    1    2  502    0 -0.80004226530E+02 -0.56766719703E+01  0.11258044606E+03  0.13822900456E+03  0.00000000000E+00 0. -1.
         22    1    3    3    0    0  0.84709203845E+02  0.14457182107E+02  0.39193934071E+02  0.94450112750E+02  0.00000000000E+00 0.  1.
         22    1    3    3    0    0  0.57425053837E+02 -0.25897906828E+02  0.20659147812E+03  0.21598235395E+03  0.00000000000E+00 0.  1.
</event>
<event>
 7    1  0.6173324E-006  0.1199267E+03  0.7818608E-02  0.1319244E+00
          2   -1    0    0  502    0  0.00000000000E+00  0.00000000000E+00  0.25432041335E+04  0.25432041335E+04  0.00000000000E+00 0. -1.
          1   -1    0    0  501    0 -0.00000000000E+00 -0.00000000000E+00 -0.22388637838E+03  0.22388637838E+03  0.00000000000E+00 0. -1.
         25    2    1    2    0    0 -0.53517478843E+02  0.64986484192E+02  0.10973817481E+04  0.11076813640E+04  0.12499575778E+03 0.  0.
          2    1    1    2  501    0  0.27976744858E+02 -0.11730506559E+03 -0.20147435798E+03  0.23480863184E+03  0.00000000000E+00 0. -1.
          1    1    1    2  502    0  0.25540733985E+02  0.52318581400E+02  0.14234103650E+04  0.14246005160E+04  0.00000000000E+00 0. -1.
         22    1    3    3    0    0 -0.10320920542E+02  0.69094140822E+02  0.26140283309E+03  0.27057709224E+03  0.00000000000E+00 0. -1.
         22    1    3    3    0    0 -0.43196558300E+02 -0.41076566301E+01  0.83597891498E+03  0.83710427175E+03  0.00000000000E+00 0. -1.
</event>
<event>
 7    1  0.6173324E-006  0.1280053E+03  0.7818608E-02  0.1298016E+00
          2   -1    0    0  502    0  0.00000000000E+00  0.00000000000E+00  0.99611165104E+03  0.99611165104E+03  0.00000000000E+00 0. -1.
          1   -1    0    0  501    0 -0.00000000000E+00 -0.00000000000E+00 -0.15702524828E+03  0.15702524828E+03  0.00000000000E+00 0. -1.
         25    2    1    2    0    0  0.67688278979E+02 -0.90353917077E+01  0.10217907660E+02  0.14280377670E+03  0.12500068635E+03 0.  0.
          2    1    1    2  501    0  0.58689731440E+02 -0.30542216390E+02 -0.73157644264E+02  0.98637480061E+02  0.00000000000E+00 0. -1.
          1    1    1    2  502    0 -0.12637801042E+03  0.39577608098E+02  0.90202613936E+03  0.91169564256E+03  0.00000000000E+00 0. -1.
         22    1    3    3    0    0 -0.81003222295E+01  0.39690236979E+02 -0.23228445104E+02  0.46695725646E+02  0.00000000000E+00 0.  1.
         22    1    3    3    0    0  0.75788601209E+02 -0.48725628686E+02  0.33446352764E+02  0.96108051053E+02  0.00000000000E+00 0.  1.
</event>
<event>
 7    1  0.6173324E-006  0.5988648E+02  0.7818608E-02  0.1456704E+00
          2   -1    0    0  502    0  0.00000000000E+00  0.00000000000E+00  0.11626386097E+04  0.11626386097E+04  0.00000000000E+00 0. -1.
          1   -1    0    0  501    0 -0.00000000000E+00 -0.00000000000E+00 -0.25489512696E+03  0.25489512696E+03  0.00000000000E+00 0. -1.
         25    2    1    2    0    0 -0.17394048148E+01  0.86466316780E+02 -0.13606077766E+03  0.20400001335E+03  0.12499608299E+03 0.  0.
          2    1    1    2  501    0  0.16832583270E+02 -0.51158956318E+02 -0.75957684905E+02  0.93113611074E+02  0.00000000000E+00 0. -1.
          1    1    1    2  502    0 -0.15093178456E+02 -0.35307360462E+02  0.11197619453E+04  0.11204201122E+04  0.00000000000E+00 0. -1.
         22    1    3    3    0    0  0.25299075171E+02 -0.21413287165E+02 -0.62235533294E+02  0.70511230851E+02  0.00000000000E+00 0. -1.
         22    1    3    3    0    0 -0.27038479986E+02  0.10787960394E+03 -0.73825244366E+02  0.13348878250E+03  0.00000000000E+00 0. -1.
</event>
<event>
 7    1  0.6173324E-006  0.9735948E+02  0.7818608E-02  0.1428275E+00
          2   -1    0    0  502    0  0.00000000000E+00  0.00000000000E+00  0.17095727389E+04  0.17095727389E+04  0.00000000000E+00 0. -1.
          1   -1    0    0  501    0 -0.00000000000E+00 -0.00000000000E+00 -0.48548685717E+03  0.48548685717E+03  0.00000000000E+00 0. -1.
         25    2    1    2    0    0 -0.93756132835E+02  0.16748896812E+02  0.42368815650E+03  0.45188710601E+03  0.12497825662E+03 0.  0.
          2    1    1    2  501    0  0.86419262704E+02 -0.44999595251E+02 -0.46618271199E+03  0.47625578579E+03  0.00000000000E+00 0. -1.
          1    1    1    2  502    0  0.73368701306E+01  0.28250698439E+02  0.12665804372E+04  0.12669167043E+04  0.00000000000E+00 0. -1.
         22    1    3    3    0    0 -0.64308842826E+02 -0.41786146495E+02  0.12963500315E+03  0.15062185547E+03  0.00000000000E+00 0. -1.
         22    1    3    3    0    0 -0.29447290008E+02  0.58535043307E+02  0.29405315335E+03  0.30126525053E+03  0.00000000000E+00 0. -1.
</event>
<event>
 7    1  0.6173324E-006  0.9722781E+02  0.7818608E-02  0.1415967E+00
          2   -1    0    0  502    0  0.00000000000E+00  0.00000000000E+00  0.25779120654E+04  0.25779120654E+04  0.00000000000E+00 0. -1.
          1   -1    0    0  501    0 -0.00000000000E+00 -0.00000000000E+00 -0.31600220573E+02  0.31600220573E+02  0.00000000000E+00 0. -1.
         25    2    1    2    0    0  0.84418834740E+02  0.67903891077E+02  0.12052721359E+04  0.12165705780E+04  0.12500228640E+03 0.  0.
          2    1    1    2  501    0 -0.89678298838E+02 -0.36217549705E+02  0.65069649785E+02  0.11656743762E+03  0.00000000000E+00 0. -1.
          1    1    1    2  502    0  0.52594640978E+01 -0.31686341372E+02  0.12759700591E+04  0.12763742704E+04  0.00000000000E+00 0. -1.
         22    1    3    3    0    0  0.79733105000E+02  0.76330160796E+02  0.12009377228E+04  0.12059996168E+04  0.00000000000E+00 0. -1.
         22    1    3    3    0    0  0.46857297398E+01 -0.84262697192E+01  0.43344130182E+01  0.10570961205E+02  0.00000000000E+00 0. -1.
</event>
<event>
 7    1  0.6173324E-006  0.1380844E+03  0.7818608E-02  0.1247419E+00
          2   -1    0    0  502    0  0.00000000000E+00  0.00000000000E+00  0.84974504294E+03  0.84974504294E+03  0.00000000000E+00 0. -1.
          1   -1    0    0  501    0 -0.00000000000E+00 -0.00000000000E+00 -0.16271864717E+04  0.16271864717E+04  0.00000000000E+00 0. -1.
         25    2    1    2    0    0  0.78879357846E+00  0.51242385676E+02  0.10781500922E+03  0.17284688850E+03  0.12500226544E+03 0.  0.
          2    1    1    2  501    0 -0.74226632330E+02 -0.11888583431E+03 -0.15880557852E+04  0.15942285317E+04  0.00000000000E+00 0. -1.
          1    1    1    2  502    0  0.73437838751E+02  0.67643448633E+02  0.70279934722E+03  0.70985609440E+03  0.00000000000E+00 0. -1.
         22    1    3    3    0    0  0.32845921106E+02  0.62287084114E+02  0.12288042397E+02  0.71480986050E+02  0.00000000000E+00 0.  1.
         22    1    3    3    0    0 -0.32057127528E+02 -0.11044698438E+02  0.95526966823E+02  0.10136590245E+03  0.00000000000E+00 0.  1.
</event>
<event>
 7    1  0.6173324E-006  0.4028780E+02  0.7818608E-02  0.1555864E+00
          2   -1    0    0  502    0  0.00000000000E+00  0.00000000000E+00  0.18506726250E+04  0.18506726250E+04  0.00000000000E+00 0. -1.
          1   -1    0    0  501    0 -0.00000000000E+00 -0.00000000000E+00 -0.34733908527E+02  0.34733908527E+02  0.00000000000E+00 0. -1.
         25    2    1    2    0    0 -0.63906547713E+02  0.22329859276E+02  0.46542059101E+03  0.48664535008E+03  0.12499880303E+03 0.  0.
          2    1    1    2  501    0  0.28710234351E+02 -0.42586837366E+01 -0.14999113428E+02  0.32670894498E+02  0.00000000000E+00 0. -1.
          1    1    1    2  502    0  0.35196313363E+02 -0.18071175540E+02  0.13655172389E+04  0.13660902890E+04  0.00000000000E+00 0. -1.
         22    1    3    3    0    0 -0.69601941471E+02  0.65450599061E+02  0.26889836520E+03  0.28536738072E+03  0.00000000000E+00 0. -1.
         22    1    3    3    0    0  0.56953937579E+01 -0.43120739784E+02  0.19652222581E+03  0.20127796936E+03  0.00000000000E+00 0. -1.
</event>
<event>
 7    1  0.6173324E-006  0.1816389E+03  0.7818608E-02  0.1186345E+00
          2   -1    0    0  502    0  0.00000000000E+00  0.00000000000E+00  0.12545433685E+03  0.12545433685E+03  0.00000000000E+00 0. -1.
          1   -1    0    0  501    0 -0.00000000000E+00 -0.00000000000E+00 -0.14285851685E+04  0.14285851685E+04  0.00000000000E+00 0. -1.
         25    2    1    2    0    0  0.14795650694E+02 -0.26010045926E+03 -0.44374529891E+03  0.52953521172E+03  0.12500595969E+03 0.  0.
          2    1    1    2  501    0 -0.97626990405E+02  0.14149642770E+03 -0.86283975956E+03  0.87979811263E+03  0.00000000000E+00 0. -1.
          1    1    1    2  502    0  0.82831339711E+02  0.11860403156E+03  0.34542268099E+01  0.14470618101E+03  0.00000000000E+00 0. -1.
         22    1    3    3    0    0  0.10517567980E+02 -0.54876620678E+02 -0.21185999260E+02  0.59757085755E+02  0.00000000000E+00 0.  1.
         22    1    3    3    0    0  0.42780827140E+01 -0.20522383858E+03 -0.42255929965E+03  0.46977812596E+03  0.00000000000E+00 0.  1.
</event>
<event>
 7    1  0.6173324E-006  0.1579781E+03  0.7818608E-02  0.1200120E+00
          2   -1    0    0  502    0  0.00000000000E+00  0.00000000000E+00  0.79412070930E+02  0.79412070930E+02  0.00000000000E+00 0. -1.
          1   -1    0    0  501    0 -0.00000000000E+00 -0.00000000000E+00 -0.21669250862E+04  0.21669250862E+04  0.00000000000E+00 0. -1.
         25    2    1    2    0    0  0.21351299152E+03 -0.13984576758E+03 -0.81251622124E+03  0.86078588010E+03  0.12500034140E+03 0.  0.
          2    1    1    2  501    0 -0.14391674770E+03  0.14957533315E+02 -0.12258636814E+04  0.12343733323E+04  0.00000000000E+00 0. -1.
          1    1    1    2  502    0 -0.69596243823E+02  0.12488823426E+03 -0.49133112584E+02  0.15117794470E+03  0.00000000000E+00 0. -1.
         22    1    3    3    0    0  0.13568876831E+03 -0.77004360596E+02 -0.29524871968E+03  0.33393550255E+03  0.00000000000E+00 0.  1.
         22    1    3    3    0    0  0.77824223218E+02 -0.62841406981E+02 -0.51726750156E+03  0.52685037755E+03  0.00000000000E+00 0.  1.
</event>
<event>
 7    1  0.6173324E-006  0.4704156E+02  0.7818608E-02  0.1466233E+00
          2   -1    0    0  502    0  0.00000000000E+00  0.00000000000E+00  0.73730871732E+03  0.73730871732E+03  0.00000000000E+00 0. -1.
          1   -1    0    0  501    0 -0.00000000000E+00 -0.00000000000E+00 -0.19912364447E+03  0.19912364447E+03  0.00000000000E+00 0. -1.
         25    2    1    2    0    0  0.61745782157E+01  0.40508438425E+01  0.75829690259E+02  0.14639158083E+03  0.12500327300E+03 0.  0.
          2    1    1    2  501    0 -0.13401073544E+02  0.43607440652E+02 -0.15971652989E+03  0.16610408657E+03  0.00000000000E+00 0. -1.
          1    1    1    2  502    0  0.72264953280E+01 -0.47658284495E+02  0.62207191249E+03  0.62393669440E+03  0.00000000000E+00 0. -1.
         22    1    3    3    0    0 -0.46047564373E+01 -0.58470789060E+02  0.52739263078E+02  0.78876275426E+02  0.00000000000E+00 0. -1.
         22    1    3    3    0    0  0.10779334653E+02  0.62521632902E+02  0.23090427181E+02  0.67515305404E+02  0.00000000000E+00 0. -1.
</event>
<event>
 7    1  0.6173324E-006  0.8241029E+02  0.7818608E-02  0.1483270E+00
          2   -1    0    0  502    0  0.00000000000E+00  0.00000000000E+00  0.14051626501E+03  0.14051626501E+03  0.00000000000E+00 0. -1.
          1   -1    0    0  501    0 -0.00000000000E+00 -0.00000000000E+00 -0.13851403465E+04  0.13851403465E+04  0.00000000000E+00 0. -1.
         25    2    1    2    0    0 -0.47620034180E+02 -0.59762127741E+02 -0.31401007096E+03  0.34650595674E+03  0.12499949529E+03 0.  0.
          2    1    1    2  501    0  0.15909493662E+02 -0.16703764071E+02 -0.10409544835E+04  0.10412100482E+04  0.00000000000E+00 0. -1.
          1    1    1    2  502    0  0.31710540518E+02  0.76465891812E+02  0.11034047292E+03  0.13794060662E+03  0.00000000000E+00 0. -1.
         22    1    3    3    0    0  0.35145134159E+02  0.11383957135E+02 -0.91288543677E+02  0.98480318551E+02  0.00000000000E+00 0. -1.
         22    1    3    3    0    0 -0.82765168340E+02 -0.71146084876E+02 -0.22272152729E+03  0.24802563819E+03  0.00000000000E+00 0. -1.
</event>
<event>
 7    1  0.6173324E-006  0.6119737E+02  0.7818608E-02  0.1393052E+00
          2   -1    0    0  502    0  0.00000000000E+00  0.00000000000E+00  0.35407050930E+03  0.35407050930E+03  0.00000000000E+00 0. -1.
          1   -1    0    0  501    0 -0.00000000000E+00 -0.00000000000E+00 -0.12292587479E+03  0.12292587479E+03  0.00000000000E+00 0. -1.
         25    2    1    2    0    0  0.28343766998E+02  0.18294014402E+02  0.15094930997E+03  0.19887550318E+03  0.12501092549E+03 0.  0.
          2    1    1    2  501    0 -0.23421875743E+02  0.56443676100E+02 -0.80358806418E+02  0.10095548823E+03  0.00000000000E+00 0. -1.
          1    1    1    2  502    0 -0.49218912553E+01 -0.74737690503E+02  0.16055413096E+03  0.17716539268E+03  0.00000000000E+00 0. -1.
         22    1    3    3    0    0 -0.32442954808E+01  0.13030512671E+02 -0.20475045596E+02  0.24485653060E+02  0.00000000000E+00 0.  1.
         22    1    3    3    0    0  0.31588062479E+02  0.52635017311E+01  0.17142435557E+03  0.17438985012E+03  0.00000000000E+00 0.  1.
</event>
<event>
 7    1  0.6173324E-006  0.6479992E+02  0.7818608E-02  0.1432037E+00
          2   -1    0    0  502    0  0.00000000000E+00  0.00000000000E+00  0.10945564281E+04  0.10945564281E+04  0.00000000000E+00 0. -1.
          1   -1    0    0  501    0 -0.00000000000E+00 -0.00000000000E+00 -0.17460618165E+03  0.17460618165E+03  0.00000000000E+00 0. -1.
         25    2    1    2    0    0 -0.40926611985E+02 -0.92256719761E+02  0.41077008282E+02  0.16582669316E+03  0.12499952658E+03 0.  0.
          2    1    1    2  501    0  0.36850522997E+02  0.49830992408E+02 -0.10317754695E+03  0.12036068729E+03  0.00000000000E+00 0. -1.
          1    1    1    2  502    0  0.40760889873E+01  0.42425727353E+02  0.98205078509E+03  0.98297522926E+03  0.00000000000E+00 0. -1.
         22    1    3    3    0    0  0.11031077395E+02 -0.36185849906E+02 -0.39544900562E+02  0.54725675531E+02  0.00000000000E+00 0. -1.
         22    1    3    3    0    0 -0.51957689380E+02 -0.56070869855E+02  0.80621908844E+02  0.11110101763E+03  0.00000000000E+00 0. -1.
</event>
<event>
 7    1  0.6173324E-006  0.1033342E+03  0.7818608E-02  0.1436897E+00
          2   -1    0    0  502    0  0.00000000000E+00  0.00000000000E+00  0.42751231040E+03  0.42751231040E+03  0.00000000000E+00 0. -1.
          1   -1    0    0  501    0 -0.00000000000E+00 -0.00000000000E+00 -0.64139282211E+03  0.64139282211E+03  0.00000000000E+00 0. -1.
         25    2    1    2    0    0  0.66748657587E+01  0.98292833319E+02 -0.42864482451E+03  0.45723917850E+03  0.12500098346E+03 0.  0.
          2    1    1    2  501    0 -0.25538283795E+02  0.34222496312E+01 -0.19109789534E+03  0.19282717997E+03  0.00000000000E+00 0. -1.
          1    1    1    2  502    0  0.18863418037E+02 -0.10171508295E+03  0.40586220814E+03  0.41883877404E+03  0.00000000000E+00 0. -1.
         22    1    3    3    0    0  0.35162194754E+02 -0.32598949575E+01 -0.35038737835E+02  0.49746557711E+02  0.00000000000E+00 0.  1.
         22    1    3    3    0    0 -0.28487328995E+02  0.10155272828E+03 -0.39360608667E+03  0.40749262079E+03  0.00000000000E+00 0.  1.
</event>
<event>
 7    1  0.6173324E-006  0.1636635E+03  0.7818608E-02  0.1236160E+00
          2   -1    0    0  502    0  0.00000000000E+00  0.00000000000E+00  0.31620399560E+04  0.31620399560E+04  0.00000000000E+00 0. -1.
          1   -1    0    0  501    0 -0.00000000000E+00 -0.00000000000E+00 -0.14608171673E+04  0.14608171673E+04  0.00000000000E+00 0. -1.
         25    2    1    2    0    0 -0.10191077368E+03 -0.81485625995E+02  0.16244934318E+03  0.24298125328E+03  0.12499754921E+03 0.  0.
          2    1    1    2  501    0  0.46872255275E+02  0.15819422167E+03 -0.14150036291E+04  0.14245903588E+04  0.00000000000E+00 0. -1.
          1    1    1    2  502    0  0.55038518406E+02 -0.76708595677E+02  0.29537770746E+04  0.29552855113E+04  0.00000000000E+00 0. -1.
         22    1    3    3    0    0 -0.58000799142E+02  0.22154967023E+02  0.29371193553E+02  0.68684803819E+02  0.00000000000E+00 0.  1.
         22    1    3    3    0    0 -0.43909974539E+02 -0.10364059302E+03  0.13307814963E+03  0.17429644946E+03  0.00000000000E+00 0.  1.
</event>
<event>
 7    1  0.6173324E-006  0.8659593E+02  0.7818608E-02  0.1313629E+00
          2   -1    0    0  502    0  0.00000000000E+00  0.00000000000E+00  0.11962688629E+04  0.11962688629E+04  0.00000000000E+00 0. -1.
          1   -1    0    0  501    0 -0.00000000000E+00 -0.00000000000E+00 -0.42654565786E+03  0.42654565786E+03  0.00000000000E+00 0. -1.
         25    2    1    2    0    0  0.72766920381E+02 -0.31398984999E+01 -0.94285584233E+02  0.17268467558E+03  0.12500136847E+03 0.  0.
          2    1    1    2  501    0 -0.53235357003E+02 -0.79380156954E+02 -0.28366145603E+03  0.29933097766E+03  0.00000000000E+00 0. -1.
          1    1    1    2  502    0 -0.19531563377E+02  0.82520055454E+02  0.11476702453E+04  0.11507988675E+04  0.00000000000E+00 0. -1.
         22    1    3    3    0    0 -0.20025097165E+02  0.94088890419E+01 -0.73514542170E+02  0.76771867373E+02  0.00000000000E+00 0.  1.
         22    1    3    3    0    0  0.92792017546E+02 -0.12548787542E+02 -0.20771042063E+02  0.95912808203E+02  0.00000000000E+00 0.  1.
</event>
<event>
 7    1  0.6173324E-006  0.6643595E+02  0.7818608E-02  0.1399957E+00
          2   -1    0    0  502    0  0.00000000000E+00  0.00000000000E+00  0.20574044695E+04  0.20574044695E+04  0.00000000000E+00 0. -1.
          1   -1    0    0  501    0 -0.00000000000E+00 -0.00000000000E+00 -0.12469445540E+04  0.12469445540E+04  0.00000000000E+00 0. -1.
         25    2    1    2    0    0  0.86753332994E+01  0.79583241211E+02  0.20561771264E+03  0.25358835140E+03  0.12497861627E+03 0.  0.
          2    1    1    2  501    0  0.40468652085E+02 -0.34659129165E+02 -0.12217720346E+04  0.12229333062E+04  0.00000000000E+00 0. -1.
          1    1    1    2  502    0 -0.49143985385E+02 -0.44924112046E+02  0.18266142374E+04  0.18278273659E+04  0.00000000000E+00 0. -1.
         22    1    3    3    0    0 -0.44045658814E+02 -0.11489233574E+01  0.30200041097E+02  0.53417062513E+02  0.00000000000E+00 0.  1.
         22    1    3    3    0    0  0.52720992113E+02  0.80732164568E+02  0.17541767155E+03  0.20017128889E+03  0.00000000000E+00 0.  1.
</event>
<event>
 7    1  0.6173324E-006  0.1196103E+03  0.7818608E-02  0.1249734E+00
          2   -1    0    0  502    0  0.00000000000E+00  0.00000000000E+00  0.15655248115E+04  0.15655248115E+04  0.00000000000E+00 0. -1.
          1   -1    0    0  501    0 -0.00000000000E+00 -0.00000000000E+00 -0.61914508475E+03  0.61914508475E+03  0.00000000000E+00 0. -1.
         25    2    1    2    0    0 -0.70926827972E+02  0.34187008838E+02 -0.30673179579E+03  0.34045748019E+03  0.12501013868E+03 0.  0.
          2    1    1    2  501    0  0.95796006184E+02 -0.15118337953E+03 -0.26588590538E+03  0.32051303207E+03  0.00000000000E+00 0. -1.
          1    1    1    2  502    0 -0.24869178211E+02  0.11699637070E+03  0.15189974279E+04  0.15236993840E+04  0.00000000000E+00 0. -1.
         22    1    3    3    0    0  0.20857850088E+02 -0.29119662270E+02 -0.64002346666E+02  0.73343745608E+02  0.00000000000E+00 0.  1.
         22    1    3    3    0    0 -0.91784678060E+02  0.63306671109E+02 -0.24272944912E+03  0.26711373459E+03  0.00000000000E+00 0.  1.
</event>
<event>
 7    1  0.6173324E-006  0.3848579E+02  0.7818608E-02  0.1611287E+00
          2   -1    0    0  502    0  0.00000000000E+00  0.00000000000E+00  0.25392664584E+03  0.25392664584E+03  0.00000000000E+00 0. -1.
          1   -1    0    0  501    0 -0.00000000000E+00 -0.00000000000E+00 -0.10695782561E+03  0.10695782561E+03  0.00000000000E+00 0. -1.
         25    2    1    2    0    0  0.54631833114E+02  0.12214318804E+02  0.13114663721E+03  0.18962689526E+03  0.12500036872E+03 0.  0.
          2    1    1    2  501    0 -0.21426671014E+02  0.28124941734E+01 -0.72531073673E+02  0.75682025622E+02  0.00000000000E+00 0. -1.
          1    1    1    2  502    0 -0.33205162101E+02 -0.15026812978E+02  0.88353256688E+02  0.95575550565E+02  0.00000000000E+00 0. -1.
         22    1    3    3    0    0 -0.46509915659E+01  0.25475608704E+02  0.12603079140E+03  0.12866389837E+03  0.00000000000E+00 0.  1.
         22    1    3    3    0    0  0.59282824680E+02 -0.13261289899E+02  0.51158458070E+01  0.60962996893E+02  0.00000000000E+00 0.  1.
</event>
<event>
 7    1  0.6173324E-006  0.6490271E+02  0.7818608E-02  0.1424091E+00
          2   -1    0    0  502    0  0.00000000000E+00  0.00000000000E+00  0.82516038350E+03  0.82516038350E+03  0.00000000000E+00 0. -1.
          1   -1    0    0  501    0 -0.00000000000E+00 -0.00000000000E+00 -0.46270319762E+03  0.46270319762E+03  0.00000000000E+00 0. -1.
         25    2    1    2    0    0  0.70646762747E+02 -0.41321718031E+02 -0.18928405011E+03  0.24114715760E+03  0.12500020209E+03 0.  0.
          2    1    1    2  501    0 -0.28386016938E+02  0.57364374159E+02 -0.24269630600E+03  0.25099389300E+03  0.00000000000E+00 0. -1.
          1    1    1    2  502    0 -0.42260745808E+02 -0.16042656128E+02  0.79443754199E+03  0.79572253052E+03  0.00000000000E+00 0. -1.
         22    1    3    3    0    0  0.43845181863E+02  0.19385978510E+02 -0.86562451230E+01  0.48714953711E+02  0.00000000000E+00 0.  1.
         22    1    3    3    0    0  0.26801580884E+02 -0.60707696542E+02 -0.18062780499E+03  0.19243220389E+03  0.00000000000E+00 0.  1.
</event>
<event>
 7    1  0.6173324E-006  0.3993237E+02  0.7818608E-02  0.1602376E+00
          2   -1    0    0  502    0  0.00000000000E+00  0.00000000000E+00  0.25056230371E+03  0.25056230371E+03  0.00000000000E+00 0. -1.
          1   -1    0    0  501    0 -0.00000000000E+00 -0.00000000000E+00 -0.10280327234E+04  0.10280327234E+04  0.00000000000E+00 0. -1.
         25    2    1    2    0    0  0.41319263006E+02 -0.36270786345E+02 -0.66394781876E+03  0.67784510963E+03  0.12499774068E+03 0.  0.
          2    1    1    2  501    0 -0.21919624150E+02  0.14004803006E+01 -0.35516069183E+03  0.35583921691E+03  0.00000000000E+00 0. -1.
          1    1    1    2  502    0 -0.19399638857E+02  0.34870306045E+02  0.24163809095E+03  0.24491070052E+03  0.00000000000E+00 0. -1.
         22    1    3    3    0    0  0.24825915817E+02 -0.66653109619E+02 -0.60752018302E+03  0.61166962970E+03  0.00000000000E+00 0. -1.
         22    1    3    3    0    0  0.16493347190E+02  0.30382323274E+02 -0.56427635738E+02  0.66175479931E+02  0.00000000000E+00 0. -1.
</event>
<event>
 7    1  0.6173324E-006  0.6354926E+02  0.7818608E-02  0.1482084E+00
          2   -1    0    0  502    0  0.00000000000E+00  0.00000000000E+00  0.92187367039E+03  0.92187367039E+03  0.00000000000E+00 0. -1.
          1   -1    0    0  501    0 -0.00000000000E+00 -0.00000000000E+00 -0.37582934737E+03  0.37582934737E+03  0.00000000000E+00 0. -1.
         25    2    1    2    0    0 -0.14849197357E+02 -0.40819342732E+02 -0.81116107293E+02  0.15521486901E+03  0.12500046119E+03 0.  0.
          2    1    1    2  501    0 -0.15171974056E+01  0.66158389256E+02 -0.25315228078E+03  0.26165876943E+03  0.00000000000E+00 0. -1.
          1    1    1    2  502    0  0.16366394762E+02 -0.25339046523E+02  0.88031271109E+03  0.88082937932E+03  0.00000000000E+00 0. -1.
         22    1    3    3    0    0 -0.42223855231E+02 -0.62149512270E+02 -0.96303323781E+01  0.75750637804E+02  0.00000000000E+00 0.  1.
         22    1    3    3    0    0  0.27374657875E+02  0.21330169538E+02 -0.71485774915E+02  0.79464231208E+02  0.00000000000E+00 0.  1.
</event>
<event>
 7    1  0.6173324E-006  0.1074695E+03  0.7818608E-02  0.1339624E+00
          2   -1    0    0  502    0  0.00000000000E+00  0.00000000000E+00  0.23154911642E+04  0.23154911642E+04  0.00000000000E+00 0. -1.
          1   -1    0    0  501    0 -0.00000000000E+00 -0.00000000000E+00 -0.40591329417E+03  0.40591329417E+03  0.00000000000E+00 0. -1.
         25    2    1    2    0    0 -0.56847286335E+02 -0.17250182310E+02  0.82001064859E+01  0.13864277909E+03  0.12500158277E+03 0.  0.
          2    1    1    2  501    0  0.10819586545E+03  0.34898364751E+02 -0.33086881496E+03  0.34985484687E+03  0.00000000000E+00 0. -1.
          1    1    1    2  502    0 -0.51348579118E+02 -0.17648182441E+02  0.22322465785E+04  0.22329068324E+04  0.00000000000E+00 0. -1.
         22    1    3    3    0    0 -0.61385588678E+02  0.38737957934E+02  0.29793950035E+02  0.78463363049E+02  0.00000000000E+00 0.  1.
         22    1    3    3    0    0  0.45383023438E+01 -0.55988140243E+02 -0.21593843549E+02  0.60179416043E+02  0.00000000000E+00 0.  1.
</event>
<event>
 7    1  0.6173324E-006  0.3284615E+02  0.7818608E-02  0.1630470E+00
          2   -1    0    0  502    0  0.00000000000E+00  0.00000000000E+00  0.67157930537E+03  0.67157930537E+03  0.00000000000E+00 0. -1.
          1   -1    0    0  501    0 -0.00000000000E+00 -0.00000000000E+00 -0.16544555410E+03  0.16544555410E+03  0.00000000000E+00 0. -1.
         25    2    1    2    0    0  0.49566406716E+02 -0.21602098681E+02 -0.41173196653E+02  0.14228596863E+03  0.12500634146E+03 0.  0.
          2    1    1    2  501    0 -0.22382065011E+02  0.33379248987E+01 -0.71535988312E+02  0.75029968683E+02  0.00000000000E+00 0. -1.
          1    1    1    2  502    0 -0.27184341705E+02  0.18264173782E+02  0.61884293623E+03  0.61970892215E+03  0.00000000000E+00 0. -1.
         22    1    3    3    0    0  0.11240953357E+02 -0.71871400516E+02 -0.26243027862E+02  0.77334040085E+02  0.00000000000E+00 0.  1.
         22    1    3    3    0    0  0.38325453359E+02  0.50269301834E+02 -0.14930168790E+02  0.64951928549E+02  0.00000000000E+00 0.  1.
</event>
<event>
 7    1  0.6173324E-006  0.1179703E+03  0.7818608E-02  0.1327163E+00
          2   -1    0    0  502    0  0.00000000000E+00  0.00000000000E+00  0.35994306308E+03  0.35994306308E+03  0.00000000000E+00 0. -1.
          1   -1    0    0  501    0 -0.00000000000E+00 -0.00000000000E+00 -0.47700967682E+03  0.47700967682E+03  0.00000000000E+00 0. -1.
         25    2    1    2    0    0 -0.64625728162E+02  0.89323633387E+01 -0.21962824060E+03  0.26099581856E+03  0.12500392546E+03 0.  0.
          2    1    1    2  501    0 -0.54022057655E+02  0.11157172249E+02 -0.22255251873E+03  0.22928691372E+03  0.00000000000E+00 0. -1.
          1    1    1    2  502    0  0.11864778582E+03 -0.20089535588E+02  0.32511414560E+03  0.34667000762E+03  0.00000000000E+00 0. -1.
         22    1    3    3    0    0 -0.65942526502E+02 -0.16821456564E+02 -0.38799507845E+02  0.78337602794E+02  0.00000000000E+00 0. -1.
         22    1    3    3    0    0  0.13167983401E+01  0.25753819903E+02 -0.18082873275E+03  0.18265821577E+03  0.00000000000E+00 0. -1.
</event>
<event>
 7    1  0.6173324E-006  0.4044604E+02  0.7818608E-02  0.1511092E+00
          2   -1    0    0  502    0  0.00000000000E+00  0.00000000000E+00  0.27278894917E+03  0.27278894917E+03  0.00000000000E+00 0. -1.
          1   -1    0    0  501    0 -0.00000000000E+00 -0.00000000000E+00 -0.62266383197E+03  0.62266383197E+03  0.00000000000E+00 0. -1.
         25    2    1    2    0    0 -0.67626900075E+02 -0.21142375125E+02 -0.12381696189E+03  0.18967266337E+03  0.12499872614E+03 0.  0.
          2    1    1    2  501    0  0.29277871512E+02  0.26999185162E+02 -0.46349087870E+03  0.46519882244E+03  0.00000000000E+00 0. -1.
          1    1    1    2  502    0  0.38349028563E+02 -0.58568100368E+01  0.23743295780E+03  0.24058129533E+03  0.00000000000E+00 0. -1.
         22    1    3    3    0    0 -0.92935895835E+02 -0.31754997040E+02 -0.12860213416E+03  0.16181461455E+03  0.00000000000E+00 0. -1.
         22    1    3    3    0    0  0.25308995760E+02  0.10612621914E+02  0.47851722683E+01  0.27858048818E+02  0.00000000000E+00 0. -1.
</event>
<event>
 7    1  0.6173324E-006  0.5503034E+02  0.7818608E-02  0.1449796E+00
          2   -1    0    0  502    0  0.00000000000E+00  0.00000000000E+00  0.84449117118E+03  0.84449117118E+03  0.00000000000E+00 0. -1.
          1   -1    0    0  501    0 -0.00000000000E+00 -0.00000000000E+00 -0.54699839265E+03  0.54699839265E+03  0.00000000000E+00 0. -1.
         25    2    1    2    0    0 -0.73577231791E+00  0.96690813634E+02  0.23806256488E+03  0.28574146854E+03  0.12499898898E+03 0.  0.
          2    1    1    2  501    0  0.34105221779E+01 -0.43825193311E+02 -0.52102916603E+03  0.52288016895E+03  0.00000000000E+00 0. -1.
          1    1    1    2  502    0 -0.26747498599E+01 -0.52865620322E+02  0.58045937968E+03  0.58286792634E+03  0.00000000000E+00 0. -1.
         22    1    3    3    0    0 -0.41866703050E+02 -0.87173758935E+01  0.87608719869E+02  0.97488980217E+02  0.00000000000E+00 0. -1.
         22    1    3    3    0    0  0.41130930732E+02  0.10540818953E+03  0.15045384501E+03  0.18825248832E+03  0.00000000000E+00 0. -1.
</event>
<event>
 7    1  0.6173324E-006  0.1547321E+03  0.7818608E-02  0.1272900E+00
          2   -1    0    0  502    0  0.00000000000E+00  0.00000000000E+00  0.82046711781E+03  0.82046711781E+03  0.00000000000E+00 0. -1.
          1   -1    0    0  501    0 -0.00000000000E+00 -0.00000000000E+00 -0.19936936997E+04  0.19936936997E+04  0.00000000000E+00 0. -1.
         25    2    1    2    0    0 -0.72297564197E+02 -0.18575727938E+03 -0.19720928655E+03  0.30700637348E+03  0.12501482321E+03 0.  0.
          2    1    1    2  501    0  0.94191994406E+02  0.11993676091E+03 -0.17366661938E+04  0.17433491983E+04  0.00000000000E+00 0. -1.
          1    1    1    2  502    0 -0.21894430210E+02  0.65820518470E+02  0.76064889846E+03  0.76380524576E+03  0.00000000000E+00 0. -1.
         22    1    3    3    0    0 -0.10494389911E+03 -0.16779832432E+03 -0.16235757536E+03  0.25598726899E+03  0.00000000000E+00 0. -1.
         22    1    3    3    0    0  0.32646334912E+02 -0.17958955053E+02 -0.34851711192E+02  0.51019104489E+02  0.00000000000E+00 0. -1.
</event>
<event>
 7    1  0.6173324E-006  0.8017277E+02  0.7818608E-02  0.1421432E+00
          2   -1    0    0  502    0  0.00000000000E+00  0.00000000000E+00  0.31396417643E+03  0.31396417643E+03  0.00000000000E+00 0. -1.
          1   -1    0    0  501    0 -0.00000000000E+00 -0.00000000000E+00 -0.22929843375E+03  0.22929843375E+03  0.00000000000E+00 0. -1.
         25    2    1    2    0    0  0.12699713073E+02 -0.99763767677E+02  0.17566110155E+03  0.23789937528E+03  0.12500079244E+03 0.  0.
          2    1    1    2  501    0 -0.24957619989E+02  0.27782686489E+02 -0.18364236071E+03  0.18740137969E+03  0.00000000000E+00 0. -1.
          1    1    1    2  502    0  0.12257906916E+02  0.71981081188E+02  0.92647001842E+02  0.11796185520E+03  0.00000000000E+00 0. -1.
         22    1    3    3    0    0  0.44433124409E+02 -0.11764938202E+02  0.90845641252E+01  0.46853448336E+02  0.00000000000E+00 0. -1.
         22    1    3    3    0    0 -0.31733411336E+02 -0.87998829475E+02  0.16657653742E+03  0.19104592695E+03  0.00000000000E+00 0. -1.
</event>
<event>
 7    1  0.6173324E-006  0.2820686E+03  0.7818608E-02  0.1164454E+00
          2   -1    0    0  502    0  0.00000000000E+00  0.00000000000E+00  0.61260668801E+03  0.61260668801E+03  0.00000000000E+00 0. -1.
          1   -1    0    0  501    0 -0.00000000000E+00 -0.00000000000E+00 -0.12561899959E+04  0.12561899959E+04  0.00000000000E+00 0. -1.
         25    2    1    2    0    0 -0.15542493574E+03  0.29507253269E+03 -0.36321313638E+03  0.50869826261E+03  0.12500171895E+03 0.  0.
          2    1    1    2  501    0  0.11797408743E+03 -0.18281574916E+02 -0.77925415608E+03  0.78834582580E+03  0.00000000000E+00 0. -1.
          1    1    1    2  502    0  0.37450848315E+02 -0.27679095778E+03  0.49888398460E+03  0.57175259548E+03  0.00000000000E+00 0. -1.
         22    1    3    3    0    0 -0.66207829296E+02  0.20203365685E+03 -0.29271213547E+03  0.36177544059E+03  0.00000000000E+00 0.  1.
         22    1    3    3    0    0 -0.89217106449E+02  0.93038875840E+02 -0.70501000911E+02  0.14692282202E+03  0.00000000000E+00 0.  1.
</event>
<event>
 7    1  0.6173324E-006  0.1361650E+03  0.7818608E-02  0.1296878E+00
          2   -1    0    0  502    0  0.00000000000E+00  0.00000000000E+00  0.12972199582E+03  0.12972199582E+03  0.00000000000E+00 0. -1.
          1   -1    0    0  501    0 -0.00000000000E+00 -0.00000000000E+00 -0.17347731696E+04  0.17347731696E+04  0.00000000000E+00 0. -1.
         25    2    1    2    0    0 -0.26323490528E+02  0.19197200376E+03 -0.46270342553E+03  0.51697732948E+03  0.12499969125E+03 0.  0.
          2    1    1    2  501    0  0.13420905681E+02 -0.61405452906E+02 -0.12018221673E+04  0.12034646950E+04  0.00000000000E+00 0. -1.
          1    1    1    2  502    0  0.12902584846E+02 -0.13056655085E+03  0.59474419032E+02  0.14405314095E+03  0.00000000000E+00 0. -1.
         22    1    3    3    0    0 -0.61898861645E+02  0.15481449659E+03 -0.41326076479E+03  0.44562703816E+03  0.00000000000E+00 0.  1.
         22    1    3    3    0    0  0.35575371117E+02  0.37157507172E+02 -0.49442660746E+02  0.71350291317E+02  0.00000000000E+00 0.  1.
</event>
<event>
 7    1  0.6173324E-006  0.4638793E+02  0.7818608E-02  0.1545328E+00
          2   -1    0    0  502    0  0.00000000000E+00  0.00000000000E+00  0.32727761539E+03  0.32727761539E+03  0.00000000000E+00 0. -1.
          1   -1    0    0  501    0 -0.00000000000E+00 -0.00000000000E+00 -0.25328571283E+03  0.25328571283E+03  0.00000000000E+00 0. -1.
         25    2    1    2    0    0  0.15251303506E+02 -0.60910863328E+02 -0.11546902275E+03  0.18138651734E+03  0.12500095172E+03 0.  0.
          2    1    1    2  501    0 -0.22278214884E+02  0.15202445229E+02 -0.10126529005E+03  0.10479547780E+03  0.00000000000E+00 0. -1.
          1    1    1    2  502    0  0.70269113774E+01  0.45708418099E+02  0.29072621535E+03  0.29438133307E+03  0.00000000000E+00 0. -1.
         22    1    3    3    0    0  0.16168322622E+02 -0.17058916711E+02 -0.13232607635E+03  0.13439721641E+03  0.00000000000E+00 0. -1.
         22    1    3    3    0    0 -0.91701911541E+00 -0.43851946616E+02  0.16857053605E+02  0.46989300935E+02  0.00000000000E+00 0. -1.
</event>
<event>
 7    1  0.6173324E-006  0.7117906E+02  0.7818608E-02  0.1461395E+00
          2   -1    0    0  502    0  0.00000000000E+00  0.00000000000E+00  0.61918893203E+03  0.61918893203E+03  0.00000000000E+00 0. -1.
          1   -1    0    0  501    0 -0.00000000000E+00 -0.00000000000E+00 -0.75015678014E+03  0.75015678014E+03  0.00000000000E+00 0. -1.
         25    2    1    2    0    0  0.71516696787E+02 -0.48044973712E+02 -0.61898652385E+03  0.63733219976E+03  0.12500023487E+03 0.  0.
          2    1    1    2  501    0 -0.56284721370E+02  0.20790123116E+02 -0.11419084554E+03  0.12899514829E+03  0.00000000000E+00 0. -1.
          1    1    1    2  502    0 -0.15231975417E+02  0.27254850595E+02  0.60220952128E+03  0.60301836413E+03  0.00000000000E+00 0. -1.
         22    1    3    3    0    0 -0.19113277419E+02 -0.84615686993E+01 -0.35195800594E+03  0.35257815228E+03  0.00000000000E+00 0. -1.
         22    1    3    3    0    0  0.90629974205E+02 -0.39583405013E+02 -0.26702851791E+03  0.28475404748E+03  0.00000000000E+00 0. -1.
</event>
<event>
 7    1  0.6173324E-006  0.6425797E+02  0.7818608E-02  0.1491957E+00
          2   -1    0    0  502    0  0.00000000000E+00  0.00000000000E+00  0.20265800902E+03  0.20265800902E+03  0.00000000000E+00 0. -1.
          1   -1    0    0  501    0 -0.00000000000E+00 -0.00000000000E+00 -0.13494935163E+04  0.13494935163E+04  0.00000000000E+00 0. -1.
         25    2    1    2    0    0 -0.88089853530E+01  0.85830599154E+02  0.73199653734E+02  0.16860345967E+03  0.12499778931E+03 0.  0.
          2    1    1    2  501    0  0.85899484625E+01 -0.26483346570E+02 -0.12908514616E+04  0.12911516762E+04  0.00000000000E+00 0. -1.
          1    1    1    2  502    0  0.21903689055E+00 -0.59347252584E+02  0.70816300586E+02  0.92396389514E+02  0.00000000000E+00 0. -1.
         22    1    3    3    0    0 -0.38752126902E+02 -0.15562686171E+02  0.33583531299E+01  0.41895143824E+02  0.00000000000E+00 0. -1.
         22    1    3    3    0    0  0.29943141549E+02  0.10139328533E+03  0.69841300604E+02  0.12670831585E+03  0.00000000000E+00 0. -1.
</event>
<event>
 7    1  0.6173324E-006  0.5438755E+02  0.7818608E-02  0.1453190E+00
          2   -1    0    0  502    0  0.00000000000E+00  0.00000000000E+00  0.15703262961E+03  0.15703262961E+03  0.00000000000E+00 0. -1.
          1   -1    0    0  501    0 -0.00000000000E+00 -0.00000000000E+00 -0.13935076781E+04  0.13935076781E+04  0.00000000000E+00 0. -1.
         25    2    1    2    0    0  0.30122822980E+02  0.61352885804E+02 -0.13418041956E+03  0.19570673515E+03  0.12500072051E+03 0.  0.
          2    1    1    2  501    0  0.12440879483E+02 -0.52970046487E+02 -0.12242158494E+04  0.12254244355E+04  0.00000000000E+00 0. -1.
          1    1    1    2  502    0 -0.42563702464E+02 -0.83828393166E+01  0.12192122044E+03  0.12940913706E+03  0.00000000000E+00 0. -1.
         22    1    3    3    0    0 -0.17749783251E+02  0.85051356472E+02 -0.66089449144E+02  0.10916319586E+03  0.00000000000E+00 0. -1.
         22    1    3    3    0    0  0.47872606231E+02 -0.23698470668E+02 -0.68090970420E+02  0.86543539286E+02  0.00000000000E+00 0. -1.
</event>
<event>
 7    1  0.6173324E-006  0.3496501E+02  0.7818608E-02  0.1604595E+00
          2   -1    0    0  502    0  0.00000000000E+00  0.00000000000E+00  0.14081386719E+04  0.14081386719E+04  0.00000000000E+00 0. -1.
          1   -1    0    0  501    0 -0.00000000000E+00 -0.00000000000E+00 -0.22527247479E+03  0.22527247479E+03  0.00000000000E+00 0. -1.
         25    2    1    2    0    0 -0.13243991978E+01  0.16275864489E+02  0.84027269267E+03  0.84967615284E+03  0.12499883543E+03 0.  0.
          2    1    1    2  501    0 -0.19588413166E+02  0.15133854256E+02 -0.21924136521E+03  0.22063434840E+03  0.00000000000E+00 0. -1.
          1    1    1    2  502    0  0.20912812364E+02 -0.31409718745E+02  0.56183486964E+03  0.56310064544E+03  0.00000000000E+00 0. -1.
         22    1    3    3    0    0 -0.42813712078E+02 -0.38336115376E+02  0.37844431344E+03  0.38278292812E+03  0.00000000000E+00 0. -1.
         22    1    3    3    0    0  0.41489312881E+02  0.54611979865E+02  0.46182837923E+03  0.46689322472E+03  0.00000000000E+00 0. -1.
</event>
<event>
 7    1  0.6173324E-006  0.7793157E+02  0.7818608E-02  0.1458588E+00
          2   -1    0    0  502    0  0.00000000000E+00  0.00000000000E+00  0.17925895430E+04  0.17925895430E+04  0.00000000000E+00 0. -1.
          1   -1    0    0  501    0 -0.00000000000E+00 -0.00000000000E+00 -0.17177999384E+03  0.17177999384E+03  0.00000000000E+00 0. -1.
         25    2    1    2    0    0 -0.10342398077E+03  0.20275786237E+02  0.26435005727E+03  0.31082726799E+03  0.12500004178E+03 0.  0.
          2    1    1    2  501    0  0.74320043426E+02 -0.20087255551E+02 -0.13841493897E+03  0.15838453845E+03  0.00000000000E+00 0. -1.
          1    1    1    2  502    0  0.29103937345E+02 -0.18853068650E+00  0.14948744309E+04  0.14951577304E+04  0.00000000000E+00 0. -1.
         22    1    3    3    0    0 -0.38073390215E+02 -0.43147769487E+02  0.17096525013E+03  0.18038966103E+03  0.00000000000E+00 0.  1.
         22    1    3    3    0    0 -0.65350590556E+02  0.63423555724E+02  0.93384807137E+02  0.13043760696E+03  0.00000000000E+00 0.  1.
</event>
<event>
 7    1  0.6173324E-006  0.4425473E+02  0.7818608E-02  0.1479222E+00
          2   -1    0    0  502    0  0.00000000000E+00  0.00000000000E+00  0.14482603846E+04  0.14482603846E+04  0.00000000000E+00 0. -1.
          1   -1    0    0  501    0 -0.00000000000E+00 -0.00000000000E+00 -0.31073165802E+03  0.31073165802E+03  0.00000000000E+00 0. -1.
         25    2    1    2    0    0 -0.29711750363E+02  0.39735125212E+01 -0.10958429509E+03  0.16890775671E+03  0.12499014215E+03 0.  0.
          2    1    1    2  501    0  0.14258787013E+02 -0.45442617808E+02 -0.16782609401E+03  0.17445326695E+03  0.00000000000E+00 0. -1.
          1    1    1    2  502    0  0.15452963350E+02  0.41469105287E+02  0.14149391156E+04  0.14156310189E+04  0.00000000000E+00 0. -1.
         22    1    3    3    0    0 -0.62935277039E+02  0.90015567844E+01 -0.11820529698E+03  0.13421761939E+03  0.00000000000E+00 0.  1.
         22    1    3    3    0    0  0.33223526676E+02 -0.50280442632E+01  0.86210018866E+01  0.34690137322E+02  0.00000000000E+00 0.  1.
</event>
<event>
 7    1  0.6173324E-006  0.1061947E+03  0.7818608E-02  0.1273393E+00
          2   -1    0    0  502    0  0.00000000000E+00  0.00000000000E+00  0.14263174742E+04  0.14263174742E+04  0.00000000000E+00 0. -1.
          1   -1    0    0  501    0 -0.00000000000E+00 -0.00000000000E+00 -0.12978593452E+04  0.12978593452E+04  0.00000000000E+00 0. -1.
         25    2    1    2    0    0 -0.59512010848E+02 -0.15376968467E+03  0.73310479262E+03  0.76174362342E+03  0.12499566192E+03 0.  0.
          2    1    1    2  501    0 -0.27092087200E+02  0.10259732628E+03 -0.12776019792E+04  0.12820011738E+04  0.00000000000E+00 0. -1.
          1    1    1    2  502    0  0.86604098048E+02  0.51172358394E+02  0.67295531554E+03  0.68043202215E+03  0.00000000000E+00 0. -1.
         22    1    3    3    0    0 -0.16381355148E+02  0.13952164858E+02  0.26041925479E+02  0.33781556852E+02  0.00000000000E+00 0. -1.
         22    1    3    3    0    0 -0.43130655700E+02 -0.16772184953E+03  0.70706286714E+03  0.72796206656E+03  0.00000000000E+00 0. -1.
</event>
<event>
 7    1  0.6173324E-006  0.1727224E+03  0.7818608E-02  0.1346895E+00
          2   -1    0    0  502    0  0.00000000000E+00  0.00000000000E+00  0.25663757825E+04  0.25663757825E+04  0.00000000000E+00 0. -1.
          1   -1    0    0  501    0 -0.00000000000E+00 -0.00000000000E+00 -0.37969833417E+03  0.37969833417E+03  0.00000000000E+00 0. -1.
         25    2    1    2    0    0 -0.70533477364E+02 -0.14695100937E+03  0.26859484510E+03  0.33813955789E+03  0.12500239682E+03 0.  0.
          2    1    1    2  501    0 -0.31174660404E+02  0.59179654444E+01 -0.34084785215E+03  0.34232169093E+03  0.00000000000E+00 0. -1.
          1    1    1    2  502    0  0.10170813777E+03  0.14103304393E+03  0.22589304554E+04  0.22656128678E+04  0.00000000000E+00 0. -1.
         22    1    3    3    0    0  0.25047687403E+01 -0.73733012891E+02  0.32949871300E+02  0.80799288828E+02  0.00000000000E+00 0. -1.
         22    1    3    3    0    0 -0.73038246104E+02 -0.73217996484E+02  0.23564497380E+03  0.25734026906E+03  0.00000000000E+00 0. -1.
</event>
<event>
 7    1  0.6173324E-006  0.1261714E+03  0.7818608E-02  0.1280407E+00
          2   -1    0    0  502    0  0.00000000000E+00  0.00000000000E+00  0.16510157980E+03  0.16510157980E+03  0.00000000000E+00 0. -1.
          1   -1    0    0  501    0 -0.00000000000E+00 -0.00000000000E+00 -0.16704196323E+04  0.16704196323E+04  0.00000000000E+00 0. -1.
         25    2    1    2    0    0  0.12978037030E+01  0.74059965956E+02 -0.48923202443E+03  0.51035256278E+03  0.12500080698E+03 0.  0.
          2    1    1    2  501    0 -0.30169319837E+02 -0.14778170376E+03 -0.11552524233E+04  0.11650569863E+04  0.00000000000E+00 0. -1.
          1    1    1    2  502    0  0.28871516134E+02  0.73721737806E+02  0.13916639523E+03  0.16011166301E+03  0.00000000000E+00 0. -1.
         22    1    3    3    0    0 -0.21009425610E+02 -0.30908728422E+02 -0.14789081439E+03  0.15253995686E+03  0.00000000000E+00 0. -1.
         22    1    3    3    0    0  0.22307229313E+02  0.10496869438E+03 -0.34134121004E+03  0.35781260591E+03  0.00000000000E+00 0. -1.
</event>
<event>
 7    1  0.6173324E-006  0.1476190E+03  0.7818608E-02  0.1243974E+00
          2   -1    0    0  502    0  0.00000000000E+00  0.00000000000E+00  0.26013630902E+03  0.26013630902E+03  0.00000000000E+00 0. -1.
          1   -1    0    0  501    0 -0.00000000000E+00 -0.00000000000E+00 -0.71764515209E+03  0.71764515209E+03  0.00000000000E+00 0. -1.
         25    2    1    2    0    0  0.90730798739E+02 -0.24846737377E+02 -0.65687511304E+02  0.16967370637E+03  0.12499951718E+03 0.  0.
          2    1    1    2  501    0 -0.15475430208E+03 -0.47608029524E+02 -0.57695655061E+03  0.59924475782E+03  0.00000000000E+00 0. -1.
          1    1    1    2  502    0  0.64023503341E+02  0.72454766902E+02  0.18513521884E+03  0.20886299692E+03  0.00000000000E+00 0. -1.
         22    1    3    3    0    0  0.76401419880E+02  0.15891418546E+02 -0.90793582686E+02  0.11972129635E+03  0.00000000000E+00 0. -1.
         22    1    3    3    0    0  0.14329378858E+02 -0.40738155923E+02  0.25106071382E+02  0.49952410019E+02  0.00000000000E+00 0. -1.
</event>
<event>
 7    1  0.6173324E-006  0.5573561E+02  0.7818608E-02  0.1431289E+00
          2   -1    0    0  502    0  0.00000000000E+00  0.00000000000E+00  0.18218150061E+04  0.18218150061E+04  0.00000000000E+00 0. -1.
          1   -1    0    0  501    0 -0.00000000000E+00 -0.00000000000E+00 -0.64198916558E+03  0.64198916558E+03  0.00000000000E+00 0. -1.
         25    2    1    2    0    0  0.58472689672E+02 -0.78661286141E+02  0.39391844446E+03  0.42473791339E+03  0.12499560318E+03 0.  0.
          2    1    1    2  501    0 -0.15502661794E+02  0.53422651309E+02 -0.62490402791E+03  0.62737497263E+03  0.00000000000E+00 0. -1.
          1    1    1    2  502    0 -0.42970027878E+02  0.25238634832E+02  0.14108114240E+04  0.14116912856E+04  0.00000000000E+00 0. -1.
         22    1    3    3    0    0  0.85024769926E+02 -0.48407354136E+02  0.16123246506E+03  0.18859584095E+03  0.00000000000E+00 0. -1.
         22    1    3    3    0    0 -0.26552080254E+02 -0.30253932005E+02  0.23268597940E+03  0.23614207244E+03  0.00000000000E+00 0. -1.
</event>
<event>
 7    1  0.6173324E-006  0.7313307E+02  0.7818608E-02  0.1400491E+00
          2   -1    0    0  502    0  0.00000000000E+00  0.00000000000E+00  0.16148856712E+04  0.16148856712E+04  0.00000000000E+00 0. -1.
          1   -1    0    0  501    0 -0.00000000000E+00 -0.00000000000E+00 -0.61382451191E+03  0.61382451191E+03  0.00000000000E+00 0. -1.
         25    2    1    2    0    0 -0.97446055327E+01 -0.24316006194E+02  0.80553057472E+02  0.15099407523E+03  0.12499676072E+03 0.  0.
          2    1    1    2  501    0 -0.20591052052E+02 -0.43578492459E+02 -0.57667584041E+03  0.57868653115E+03  0.00000000000E+00 0. -1.
          1    1    1    2  502    0  0.30335657585E+02  0.67894498653E+02  0.14971839422E+04  0.14990295767E+04  0.00000000000E+00 0. -1.
         22    1    3    3    0    0  0.54162654231E+02  0.10131809607E+02  0.33828179156E+02  0.64657500603E+02  0.00000000000E+00 0.  1.
         22    1    3    3    0    0 -0.63907259764E+02 -0.34447815800E+02  0.46724878316E+02  0.86336574623E+02  0.00000000000E+00 0.  1.
</event>
<event>
 7    1  0.6173324E-006  0.1411309E+03  0.7818608E-02  0.1246146E+00
          2   -1    0    0  502    0  0.00000000000E+00  0.00000000000E+00  0.13923676354E+04  0.13923676354E+04  0.00000000000E+00 0. -1.
          1   -1    0    0  501    0 -0.00000000000E+00 -0.00000000000E+00 -0.18233818529E+03  0.18233818529E+03  0.00000000000E+00 0. -1.
         25    2    1    2    0    0 -0.15910805543E+03 -0.13929023724E+03  0.57481290481E+03  0.62510041845E+03  0.12499405633E+03 0.  0.
          2    1    1    2  501    0  0.94736821559E+02  0.28551361423E+02 -0.13579894967E+03  0.16802261850E+03  0.00000000000E+00 0. -1.
          1    1    1    2  502    0  0.64371233875E+02  0.11073887582E+03  0.77101549495E+03  0.78158278373E+03  0.00000000000E+00 0. -1.
         22    1    3    3    0    0  0.31985278483E+01 -0.24110901744E+02  0.10087088518E+02  0.26330885251E+02  0.00000000000E+00 0. -1.
         22    1    3    3    0    0 -0.16230658328E+03 -0.11517933550E+03  0.56472581629E+03  0.59876953320E+03  0.00000000000E+00 0. -1.
</event>
<event>
 7    1  0.6173324E-006  0.7069388E+02  0.7818608E-02  0.1459982E+00
          2   -1    0    0  502    0  0.00000000000E+00  0.00000000000E+00  0.22780095260E+04  0.22780095260E+04  0.00000000000E+00 0. -1.
          1   -1    0    0  501    0 -0.00000000000E+00 -0.00000000000E+00 -0.11483997304E+03  0.11483997304E+03  0.00000000000E+00 0. -1.
         25    2    1    2    0    0 -0.44640909834E+00  0.56404765270E+02  0.10596676180E+04  0.10685049845E+04  0.12500297838E+03 0.  0.
          2    1    1    2  501    0 -0.30375194234E+02 -0.64071307712E+02 -0.98806726478E+02  0.12161642197E+03  0.00000000000E+00 0. -1.
          1    1    1    2  502    0  0.30821603333E+02  0.76665424418E+01  0.12023086615E+04  0.12027280925E+04  0.00000000000E+00 0. -1.
         22    1    3    3    0    0 -0.16986369372E+02  0.22755953430E+01  0.16457472705E+02  0.23760544742E+02  0.00000000000E+00 0. -1.
         22    1    3    3    0    0  0.16539960274E+02  0.54129169927E+02  0.10432101453E+04  0.10447444398E+04  0.00000000000E+00 0. -1.
</event>
<event>
 7    1  0.6173324E-006  0.1474966E+03  0.7818608E-02  0.1251953E+00
          2   -1    0    0  502    0  0.00000000000E+00  0.00000000000E+00  0.75734569607E+03  0.75734569607E+03  0.00000000000E+00 0. -1.
          1   -1    0    0  501    0 -0.00000000000E+00 -0.00000000000E+00 -0.10713270849E+04  0.10713270849E+04  0.00000000000E+00 0. -1.
         25    2    1    2    0    0 -0.13621243117E+03  0.51560041229E+00 -0.26392699275E+03  0.32223679133E+03  0.12499999975E+03 0.  0.
          2    1    1    2  501    0  0.12837012640E+03  0.88471269682E+02 -0.76763981413E+03  0.78331152114E+03  0.00000000000E+00 0. -1.
          1    1    1    2  502    0  0.78423047745E+01 -0.88986870094E+02  0.71758541803E+03  0.72312446852E+03  0.00000000000E+00 0. -1.
         22    1    3    3    0    0 -0.82123938896E+02 -0.47217812431E+02 -0.21535603076E+03  0.23527023427E+03  0.00000000000E+00 0. -1.
         22    1    3    3    0    0 -0.54088492277E+02  0.47733412843E+02 -0.48570961991E+02  0.86966557062E+02  0.00000000000E+00 0. -1.
</event>
<event>
 7    1  0.6173324E-006  0.1105206E+03  0.7818608E-02  0.1357939E+00
          2   -1    0    0  502    0  0.00000000000E+00  0.00000000000E+00  0.21188088756E+04  0.21188088756E+04  0.00000000000E+00 0. -1.
          1   -1    0    0  501    0 -0.00000000000E+00 -0.00000000000E+00 -0.56208888005E+02  0.56208888005E+02  0.00000000000E+00 0. -1.
         25    2    1    2    0    0 -0.74012133641E+02  0.12570510622E+03  0.11884543402E+04  0.12038805979E+04  0.12500082314E+03 0.  0.
          2    1    1    2  501    0  0.73181842840E+02 -0.80565943554E+02  0.13920356685E+02  0.10972798054E+03  0.00000000000E+00 0. -1.
          1    1    1    2  502    0  0.83029080050E+00 -0.45139162661E+02  0.86022529079E+03  0.86140918517E+03  0.00000000000E+00 0. -1.
         22    1    3    3    0    0 -0.91383639275E+02  0.33022039879E+02  0.65224691254E+03  0.65944481161E+03  0.00000000000E+00 0. -1.
         22    1    3    3    0    0  0.17371505634E+02  0.92683066336E+02  0.53620742761E+03  0.54443578632E+03  0.00000000000E+00 0. -1.
</event>
<event>
 7    1  0.6173324E-006  0.1380697E+03  0.7818608E-02  0.1233922E+00
          2   -1    0    0  502    0  0.00000000000E+00  0.00000000000E+00  0.18394568159E+03  0.18394568159E+03  0.00000000000E+00 0. -1.
          1   -1    0    0  501    0 -0.00000000000E+00 -0.00000000000E+00 -0.57811782305E+03  0.57811782305E+03  0.00000000000E+00 0. -1.
         25    2    1    2    0    0 -0.19190760083E+00 -0.85157350169E+02 -0.62061739364E+02  0.16348862635E+03  0.12500024134E+03 0.  0.
          2    1    1    2  501    0  0.11096346430E+03  0.11416366831E+03 -0.42326499343E+03  0.45221619634E+03  0.00000000000E+00 0. -1.
          1    1    1    2  502    0 -0.11077155670E+03 -0.29006318145E+02  0.91154591322E+02  0.14635868196E+03  0.00000000000E+00 0. -1.
         22    1    3    3    0    0  0.12076587810E+02 -0.10078203658E+03 -0.34060544562E+01  0.10156015004E+03  0.00000000000E+00 0.  1.
         22    1    3    3    0    0 -0.12268495411E+02  0.15624686409E+02 -0.58655684908E+02  0.61928476302E+02  0.00000000000E+00 0.  1.
</event>
<event>
 7    1  0.6173324E-006  0.4193984E+02  0.7818608E-02  0.1526142E+00
          2   -1    0    0  502    0  0.00000000000E+00  0.00000000000E+00  0.32989904760E+03  0.32989904760E+03  0.00000000000E+00 0. -1.
          1   -1    0    0  501    0 -0.00000000000E+00 -0.00000000000E+00 -0.87436507609E+03  0.87436507609E+03  0.00000000000E+00 0. -1.
         25    2    1    2    0    0 -0.22793437148E+02  0.28350935573E+02 -0.47966173355E+02  0.13874135581E+03  0.12500037480E+03 0.  0.
          2    1    1    2  501    0 -0.19452825208E+02 -0.27670170658E+02 -0.77907367686E+03  0.77980756904E+03  0.00000000000E+00 0. -1.
          1    1    1    2  502    0  0.42246262355E+02 -0.68076491459E+00  0.28257382173E+03  0.28571519884E+03  0.00000000000E+00 0. -1.
         22    1    3    3    0    0 -0.31963321629E+02  0.24712559685E+02  0.36050194615E+02  0.54147770661E+02  0.00000000000E+00 0.  1.
         22    1    3    3    0    0  0.91698844813E+01  0.36383758882E+01 -0.84016367971E+02  0.84593585144E+02  0.00000000000E+00 0.  1.
</event>
<event>
 7    1  0.6173324E-006  0.1108749E+03  0.7818608E-02  0.1334361E+00
          2   -1    0    0  502    0  0.00000000000E+00  0.00000000000E+00  0.35879448370E+03  0.35879448370E+03  0.00000000000E+00 0. -1.
          1   -1    0    0  501    0 -0.00000000000E+00 -0.00000000000E+00 -0.15287403162E+03  0.15287403162E+03  0.00000000000E+00 0. -1.
         25    2    1    2    0    0 -0.11999164423E+03 -0.15007211058E+02  0.17258525585E+03  0.24501794816E+03  0.12499965326E+03 0.  0.
          2    1    1    2  501    0  0.91899784125E+02  0.62403109490E+02 -0.82507422067E+02  0.13837338289E+03  0.00000000000E+00 0. -1.
          1    1    1    2  502    0  0.28091860102E+02 -0.47395898433E+02  0.11584261830E+03  0.12827718428E+03  0.00000000000E+00 0. -1.
         22    1    3    3    0    0 -0.11124753808E+03 -0.61154864127E+02  0.12538379838E+03  0.17842933905E+03  0.00000000000E+00 0.  1.
         22    1    3    3    0    0 -0.87441061425E+01  0.46147653069E+02  0.47201457472E+02  0.66588609112E+02  0.00000000000E+00 0.  1.
</event>
<event>
 7    1  0.6173324E-006  0.9746396E+02  0.7818608E-02  0.1357999E+00
          2   -1    0    0  502    0  0.00000000000E+00  0.00000000000E+00  0.76929984387E+03  0.76929984387E+03  0.00000000000E+00 0. -1.
          1   -1    0    0  501    0 -0.00000000000E+00 -0.00000000000E+00 -0.52907802338E+02  0.52907802338E+02  0.00000000000E+00 0. -1.
         25    2    1    2    0    0  0.19877089256E+01 -0.12334894556E+03  0.13306793653E+03  0.22034221784E+03  0.12499881548E+03 0.  0.
          2    1    1    2  501    0  0.35278991548E+01  0.72478267218E+02  0.16280000365E+03  0.17823968829E+03  0.00000000000E+00 0. -1.
          1    1    1    2  502    0 -0.55156080804E+01  0.50870678342E+02  0.42052410135E+03  0.42362574009E+03  0.00000000000E+00 0. -1.
         22    1    3    3    0    0 -0.59785278733E+02 -0.60482622969E+02  0.83688250686E+02  0.11931534075E+03  0.00000000000E+00 0.  1.
         22    1    3    3    0    0  0.61772987659E+02 -0.62866322590E+02  0.49379685844E+02  0.10102687709E+03  0.00000000000E+00 0.  1.
</event>
<event>
 7    1  0.6173324E-006  0.5979079E+02  0.7818608E-02  0.1520943E+00
          2   -1    0    0  502    0  0.00000000000E+00  0.00000000000E+00  0.18970971274E+04  0.18970971274E+04  0.00000000000E+00 0. -1.
          1   -1    0    0  501    0 -0.00000000000E+00 -0.00000000000E+00 -0.35058102071E+02  0.35058102071E+02  0.00000000000E+00 0. -1.
         25    2    1    2    0    0 -0.10487556707E+02  0.63562178882E+02  0.89837481998E+03  0.90931277532E+03  0.12498906653E+03 0.  0.
          2    1    1    2  501    0 -0.20960012283E+02 -0.12802728839E+02 -0.23429898244E+02  0.33943955462E+02  0.00000000000E+00 0. -1.
          1    1    1    2  502    0  0.31447568991E+02 -0.50759450043E+02  0.98709410359E+03  0.98889849869E+03  0.00000000000E+00 0. -1.
         22    1    3    3    0    0 -0.11382375777E+02  0.49356408595E+02  0.89246423381E+03  0.89390045429E+03  0.00000000000E+00 0.  1.
         22    1    3    3    0    0  0.89481906997E+00  0.14205770287E+02  0.59105861705E+01  0.15412321029E+02  0.00000000000E+00 0.  1.
</event>
<event>
 7    1  0.6173324E-006  0.9912941E+02  0.7818608E-02  0.1297883E+00
          2   -1    0    0  502    0  0.00000000000E+00  0.00000000000E+00  0.19723889929E+04  0.19723889929E+04  0.00000000000E+00 0. -1.
          1   -1    0    0  501    0 -0.00000000000E+00 -0.00000000000E+00 -0.17828830532E+02  0.17828830532E+02  0.00000000000E+00 0. -1.
         25    2    1    2    0    0  0.41357792683E+02  0.66573021759E+02  0.71820830837E+03  0.73320586296E+03  0.12500091605E+03 0.  0.
          2    1    1    2  501    0  0.25080905928E+02 -0.12045064601E+03  0.46758618764E+03  0.48350207118E+03  0.00000000000E+00 0. -1.
          1    1    1    2  502    0 -0.66438698611E+02  0.53877624252E+02  0.76876566635E+03  0.77350988929E+03  0.00000000000E+00 0. -1.
         22    1    3    3    0    0  0.65325136221E+02  0.74722385653E+02  0.68104840056E+03  0.68824249523E+03  0.00000000000E+00 0. -1.
         22    1    3    3    0    0 -0.23967343539E+02 -0.81493638937E+01  0.37159907814E+02  0.44963367722E+02  0.00000000000E+00 0. -1.
</event>
<event>
 7    1  0.6173324E-006  0.5100568E+02  0.7818608E-02  0.1497850E+00
          2   -1    0    0  502    0  0.00000000000E+00  0.00000000000E+00  0.36408878399E+02  0.36408878399E+02  0.00000000000E+00 0. -1.
          1   -1    0    0  501    0 -0.00000000000E+00 -0.00000000000E+00 -0.15664146922E+04  0.15664146922E+04  0.00000000000E+00 0. -1.
         25    2    1    2    0    0  0.67415810380E+02  0.11344095406E+02 -0.53056712995E+03  0.54937561705E+03  0.12505402530E+03 0.  0.
          2    1    1    2  501    0 -0.39880502619E+02 -0.30728054567E+02 -0.10150736307E+04  0.10163213781E+04  0.00000000000E+00 0. -1.
          1    1    1    2  502    0 -0.27535307762E+02  0.19383959161E+02  0.15634946805E+02  0.37126575493E+02  0.00000000000E+00 0. -1.
         22    1    3    3    0    0  0.77636456279E+02 -0.31260335476E+02 -0.21388028575E+03  0.22967238526E+03  0.00000000000E+00 0.  1.
         22    1    3    3    0    0 -0.10220645899E+02  0.42604430882E+02 -0.31668684419E+03  0.31970323179E+03  0.00000000000E+00 0.  1.
</event>
<event>
 7    1  0.6173324E-006  0.1055397E+03  0.7818608E-02  0.1292850E+00
          2   -1    0    0  502    0  0.00000000000E+00  0.00000000000E+00  0.71613286360E+03  0.71613286360E+03  0.00000000000E+00 0. -1.
          1   -1    0    0  501    0 -0.00000000000E+00 -0.00000000000E+00 -0.11653690017E+04  0.11653690017E+04  0.00000000000E+00 0. -1.
         25    2    1    2    0    0 -0.80552848917E+02  0.17009140284E+03  0.81883367622E+02  0.24031244318E+03  0.12500135066E+03 0.  0.
          2    1    1    2  501    0  0.40302751414E+02 -0.96149995931E+02 -0.10804384896E+04  0.10854567994E+04  0.00000000000E+00 0. -1.
          1    1    1    2  502    0  0.40250097502E+02 -0.73941406909E+02  0.54931898385E+03  0.55573262278E+03  0.00000000000E+00 0. -1.
         22    1    3    3    0    0 -0.23703572214E-01  0.79595475383E+02 -0.19950420164E+02  0.82057659777E+02  0.00000000000E+00 0. -1.
         22    1    3    3    0    0 -0.80529145344E+02  0.90495927457E+02  0.10183378779E+03  0.15825478341E+03  0.00000000000E+00 0. -1.
</event>
<event>
 7    1  0.6173324E-006  0.7069923E+02  0.7818608E-02  0.1469119E+00
          2   -1    0    0  502    0  0.00000000000E+00  0.00000000000E+00  0.33158383139E+03  0.33158383139E+03  0.00000000000E+00 0. -1.
          1   -1    0    0  501    0 -0.00000000000E+00 -0.00000000000E+00 -0.29653108391E+03  0.29653108391E+03  0.00000000000E+00 0. -1.
         25    2    1    2    0    0 -0.31502454217E+02  0.72571552267E+02 -0.19298471501E+03  0.24315832828E+03  0.12499535017E+03 0.  0.
          2    1    1    2  501    0  0.47950286136E+02 -0.47804085822E+02 -0.62951972382E+02  0.92452211377E+02  0.00000000000E+00 0. -1.
          1    1    1    2  502    0 -0.16447831919E+02 -0.24767466446E+02  0.29098943486E+03  0.29250437564E+03  0.00000000000E+00 0. -1.
         22    1    3    3    0    0 -0.44925915515E+02 -0.19739875215E+02 -0.10029225502E+03  0.11165364739E+03  0.00000000000E+00 0. -1.
         22    1    3    3    0    0  0.13423461298E+02  0.92311427483E+02 -0.92692459984E+02  0.13150468089E+03  0.00000000000E+00 0. -1.
</event>
<event>
 7    1  0.6173324E-006  0.6812438E+02  0.7818608E-02  0.1433898E+00
          2   -1    0    0  502    0  0.00000000000E+00  0.00000000000E+00  0.25835311066E+02  0.25835311066E+02  0.00000000000E+00 0. -1.
          1   -1    0    0  501    0 -0.00000000000E+00 -0.00000000000E+00 -0.87244266685E+03  0.87244266685E+03  0.00000000000E+00 0. -1.
         25    2    1    2    0    0 -0.12910207529E+02  0.80300182553E+02 -0.46019730575E+03  0.48375724025E+03  0.12499885798E+03 0.  0.
          2    1    1    2  501    0  0.41467892091E+02 -0.52326730233E+02 -0.36106840102E+03  0.36718941023E+03  0.00000000000E+00 0. -1.
          1    1    1    2  502    0 -0.28557684562E+02 -0.27973452320E+02 -0.25341649019E+02  0.47331327440E+02  0.00000000000E+00 0. -1.
         22    1    3    3    0    0 -0.51364316539E+02  0.28256456158E+02 -0.35819779563E+03  0.36296333303E+03  0.00000000000E+00 0.  1.
         22    1    3    3    0    0  0.38454109010E+02  0.52043726395E+02 -0.10199951012E+03  0.12079390722E+03  0.00000000000E+00 0.  1.
</event>
<event>
 7    1  0.6173324E-006  0.1052378E+03  0.7818608E-02  0.1349575E+00
          2   -1    0    0  502    0  0.00000000000E+00  0.00000000000E+00  0.12662349937E+04  0.12662349937E+04  0.00000000000E+00 0. -1.
          1   -1    0    0  501    0 -0.00000000000E+00 -0.00000000000E+00 -0.12078126691E+03  0.12078126691E+03  0.00000000000E+00 0. -1.
         25    2    1    2    0    0  0.39150211729E+02  0.46332664034E+02  0.21193075022E+03  0.25341485187E+03  0.12499995770E+03 0.  0.
          2    1    1    2  501    0 -0.77667719345E+02 -0.79606546868E+02 -0.68280600810E+02  0.13050562202E+03  0.00000000000E+00 0. -1.
          1    1    1    2  502    0  0.38517507616E+02  0.33273882834E+02  0.10018035774E+04  0.10030957867E+04  0.00000000000E+00 0. -1.
         22    1    3    3    0    0  0.25655179481E+02 -0.25432204007E+02  0.15944671288E+03  0.16348773496E+03  0.00000000000E+00 0. -1.
         22    1    3    3    0    0  0.13495032248E+02  0.71764868041E+02  0.52484037343E+02  0.89927116912E+02  0.00000000000E+00 0. -1.
</event>
<event>
 7    1  0.6173324E-006  0.1496664E+03  0.7818608E-02  0.1218399E+00
          2   -1    0    0  502    0  0.00000000000E+00  0.00000000000E+00  0.42360988375E+03  0.42360988375E+03  0.00000000000E+00 0. -1.
          1   -1    0    0  501    0 -0.00000000000E+00 -0.00000000000E+00 -0.10251490978E+04  0.10251490978E+04  0.00000000000E+00 0. -1.
         25    2    1    2    0    0 -0.11490076886E+02  0.17091009634E+03 -0.78041812971E+03  0.80871743633E+03  0.12501660591E+03 0.  0.
          2    1    1    2  501    0 -0.95094478902E+02 -0.10729791923E+03 -0.19731252913E+03  0.24390169647E+03  0.00000000000E+00 0. -1.
          1    1    1    2  502    0  0.10658455579E+03 -0.63612177105E+02  0.37619144481E+03  0.39613984873E+03  0.00000000000E+00 0. -1.
         22    1    3    3    0    0 -0.57749576326E+02  0.15085572787E+03 -0.58327730879E+03  0.60523126419E+03  0.00000000000E+00 0. -1.
         22    1    3    3    0    0  0.46259499440E+02  0.20054368464E+02 -0.19714082091E+03  0.20348617214E+03  0.00000000000E+00 0. -1.
</event>
<event>
 7    1  0.6173324E-006  0.1328296E+03  0.7818608E-02  0.1235662E+00
          2   -1    0    0  502    0  0.00000000000E+00  0.00000000000E+00  0.90432688020E+03  0.90432688020E+03  0.00000000000E+00 0. -1.
          1   -1    0    0  501    0 -0.00000000000E+00 -0.00000000000E+00 -0.29802962803E+04  0.29802962803E+04  0.00000000000E+00 0. -1.
         25    2    1    2    0    0 -0.67473807909E+02 -0.21624984637E+03  0.37431059213E+03  0.45502771803E+03  0.12500037594E+03 0.  0.
          2    1    1    2  501    0  0.62312037809E+02  0.98932247658E+02 -0.29317149887E+04  0.29340455270E+04  0.00000000000E+00 0. -1.
          1    1    1    2  502    0  0.51617700992E+01  0.11731759871E+03  0.48143499650E+03  0.49554991544E+03  0.00000000000E+00 0. -1.
         22    1    3    3    0    0 -0.74897934235E+02 -0.45319905704E+02  0.13267099043E+03  0.15895026299E+03  0.00000000000E+00 0. -1.
         22    1    3    3    0    0  0.74241263268E+01 -0.17092994066E+03  0.24163960170E+03  0.29607745503E+03  0.00000000000E+00 0. -1.
</event>
<event>
 7    1  0.6173324E-006  0.8110915E+02  0.7818608E-02  0.1371340E+00
          2   -1    0    0  502    0  0.00000000000E+00  0.00000000000E+00  0.11033331524E+04  0.11033331524E+04  0.00000000000E+00 0. -1.
          1   -1    0    0  501    0 -0.00000000000E+00 -0.00000000000E+00 -0.13018981670E+03  0.13018981670E+03  0.00000000000E+00 0. -1.
         25    2    1    2    0    0  0.11552297180E+03 -0.54242540448E+02  0.51802631166E+03  0.54796411952E+03  0.12500242596E+03 0.  0.
          2    1    1    2  501    0 -0.78907842713E+02  0.13190353956E+02 -0.99807850431E+02  0.12791419033E+03  0.00000000000E+00 0. -1.
          1    1    1    2  502    0 -0.36615129086E+02  0.41052186492E+02  0.55492487447E+03  0.55764465925E+03  0.00000000000E+00 0. -1.
         22    1    3    3    0    0  0.59659180344E+02 -0.88780173348E+02  0.38537695340E+03  0.39994566280E+03  0.00000000000E+00 0. -1.
         22    1    3    3    0    0  0.55863791455E+02  0.34537632900E+02  0.13264935826E+03  0.14801845672E+03  0.00000000000E+00 0. -1.
</event>
<event>
 7    1  0.6173324E-006  0.3966681E+02  0.7818608E-02  0.1611084E+00
          2   -1    0    0  502    0  0.00000000000E+00  0.00000000000E+00  0.47543920125E+03  0.47543920125E+03  0.00000000000E+00 0. -1.
          1   -1    0    0  501    0 -0.00000000000E+00 -0.00000000000E+00 -0.75195842188E+03  0.75195842188E+03  0.00000000000E+00 0. -1.
         25    2    1    2    0    0  0.20821179716E+02  0.40995593056E+02  0.13198876172E+03  0.18751551467E+03  0.12500749917E+03 0.  0.
          2    1    1    2  501    0  0.11228319969E+02 -0.17736959378E+02 -0.72280021593E+03  0.72310499033E+03  0.00000000000E+00 0. -1.
          1    1    1    2  502    0 -0.32049499685E+02 -0.23258633677E+02  0.31429223359E+03  0.31677711812E+03  0.00000000000E+00 0. -1.
         22    1    3    3    0    0 -0.26103313600E+02  0.71691068454E+02  0.65637553289E+02  0.10064432760E+03  0.00000000000E+00 0.  1.
         22    1    3    3    0    0  0.46924493316E+02 -0.30695475398E+02  0.66351208431E+02  0.86871187071E+02  0.00000000000E+00 0.  1.
</event>
<event>
 7    1  0.6173324E-006  0.4635805E+02  0.7818608E-02  0.1477902E+00
          2   -1    0    0  502    0  0.00000000000E+00  0.00000000000E+00  0.27097719364E+03  0.27097719364E+03  0.00000000000E+00 0. -1.
          1   -1    0    0  501    0 -0.00000000000E+00 -0.00000000000E+00 -0.20058313465E+04  0.20058313465E+04  0.00000000000E+00 0. -1.
         25    2    1    2    0    0 -0.77993485123E+02  0.31861275922E+02  0.12798101750E+03  0.19774245935E+03  0.12499925905E+03 0.  0.
          2    1    1    2  501    0  0.35453119798E+02 -0.29780775207E+02 -0.19664729021E+04  0.19670179188E+04  0.00000000000E+00 0. -1.
          1    1    1    2  502    0  0.42540365325E+02 -0.20805007150E+01  0.10363773173E+03  0.11204816198E+03  0.00000000000E+00 0. -1.
         22    1    3    3    0    0 -0.86514570118E+01 -0.25422956371E+02  0.10000619923E+03  0.10354909127E+03  0.00000000000E+00 0. -1.
         22    1    3    3    0    0 -0.69342028111E+02  0.57284232293E+02  0.27974818270E+02  0.94193368074E+02  0.00000000000E+00 0. -1.
</event>
<event>
 7    1  0.6173324E-006  0.1192799E+03  0.7818608E-02  0.1281267E+00
          2   -1    0    0  502    0  0.00000000000E+00  0.00000000000E+00  0.20985167791E+04  0.20985167791E+04  0.00000000000E+00 0. -1.
          1   -1    0    0  501    0 -0.00000000000E+00 -0.00000000000E+00 -0.54689475978E+02  0.54689475978E+02  0.00000000000E+00 0. -1.
         25    2    1    2    0    0 -0.15572233171E+02 -0.16894278324E+03  0.56324212213E+03  0.60137456690E+03  0.12500209242E+03 0.  0.
          2    1    1    2  501    0 -0.43939035208E+02  0.70493301056E+02  0.18337635170E+02  0.85065934266E+02  0.00000000000E+00 0. -1.
          1    1    1    2  502    0  0.59511268379E+02  0.98449482183E+02  0.14622475458E+04  0.14667657539E+04  0.00000000000E+00 0. -1.
         22    1    3    3    0    0 -0.59831924984E+02 -0.15189013120E+03  0.43060837891E+03  0.46051498042E+03  0.00000000000E+00 0.  1.
         22    1    3    3    0    0  0.44259691814E+02 -0.17052652039E+02  0.13263374322E+03  0.14085958647E+03  0.00000000000E+00 0.  1.
</event>
<event>
 7    1  0.6173324E-006  0.5471587E+02  0.7818608E-02  0.1447105E+00
          2   -1    0    0  502    0  0.00000000000E+00  0.00000000000E+00  0.41560954192E+04  0.41560954192E+04  0.00000000000E+00 0. -1.
          1   -1    0    0  501    0 -0.00000000000E+00 -0.00000000000E+00 -0.18044714725E+02  0.18044714725E+02  0.00000000000E+00 0. -1.
         25    2    1    2    0    0  0.65350170738E+01 -0.70021727063E+00  0.23766113880E+04  0.23799054052E+04  0.12499940558E+03 0.  0.
          2    1    1    2  501    0  0.12326796888E+02 -0.53309250880E+02  0.31073886053E+02  0.62923863083E+02  0.00000000000E+00 0. -1.
          1    1    1    2  502    0 -0.18861813961E+02  0.54009468150E+02  0.17303654304E+04  0.17313108656E+04  0.00000000000E+00 0. -1.
         22    1    3    3    0    0 -0.87007302319E+01 -0.12317111918E+02  0.33752345020E+02  0.36968023303E+02  0.00000000000E+00 0. -1.
         22    1    3    3    0    0  0.15235747306E+02  0.11616894647E+02  0.23428590430E+04  0.23429373819E+04  0.00000000000E+00 0. -1.
</event>
<event>
 7    1  0.6173324E-006  0.5257324E+02  0.7818608E-02  0.1494973E+00
          2   -1    0    0  502    0  0.00000000000E+00  0.00000000000E+00  0.11840594353E+03  0.11840594353E+03  0.00000000000E+00 0. -1.
          1   -1    0    0  501    0 -0.00000000000E+00 -0.00000000000E+00 -0.13377397817E+04  0.13377397817E+04  0.00000000000E+00 0. -1.
         25    2    1    2    0    0  0.43831711500E+02  0.67710614358E+02 -0.11416573486E+04  0.11513109497E+04  0.12501781901E+03 0.  0.
          2    1    1    2  501    0 -0.45082971864E+01 -0.33019041757E+02 -0.18362215320E+03  0.18662174848E+03  0.00000000000E+00 0. -1.
          1    1    1    2  502    0 -0.39323414314E+02 -0.34691572601E+02  0.10594566362E+03  0.11821302705E+03  0.00000000000E+00 0. -1.
         22    1    3    3    0    0 -0.40207885984E+02  0.32717683638E+02 -0.58135565460E+03  0.58366216089E+03  0.00000000000E+00 0. -1.
         22    1    3    3    0    0  0.84039597484E+02  0.34992930720E+02 -0.56030169401E+03  0.56764878882E+03  0.00000000000E+00 0. -1.
</event>
<event>
 7    1  0.6173324E-006  0.1733886E+03  0.7818608E-02  0.1328968E+00
          2   -1    0    0  502    0  0.00000000000E+00  0.00000000000E+00  0.43794906354E+03  0.43794906354E+03  0.00000000000E+00 0. -1.
          1   -1    0    0  501    0 -0.00000000000E+00 -0.00000000000E+00 -0.17502856285E+04  0.17502856285E+04  0.00000000000E+00 0. -1.
         25    2    1    2    0    0  0.11821898217E+03 -0.96974171606E+02 -0.23513469183E+03  0.30707256878E+03  0.12500208595E+03 0.  0.
          2    1    1    2  501    0 -0.51411379422E+01 -0.36578912756E+02 -0.14598921936E+04  0.14603594301E+04  0.00000000000E+00 0. -1.
          1    1    1    2  502    0 -0.11307784423E+03  0.13355308436E+03  0.38269032047E+03  0.42080269317E+03  0.00000000000E+00 0. -1.
         22    1    3    3    0    0  0.11806436372E+03 -0.35578521045E+02 -0.20365585394E+03  0.23807715553E+03  0.00000000000E+00 0. -1.
         22    1    3    3    0    0  0.15461845135E+00 -0.61395650561E+02 -0.31478837885E+02  0.68995413248E+02  0.00000000000E+00 0. -1.
</event>
<event>
 7    1  0.6173324E-006  0.5485505E+02  0.7818608E-02  0.1469273E+00
          2   -1    0    0  502    0  0.00000000000E+00  0.00000000000E+00  0.63617383432E+03  0.63617383432E+03  0.00000000000E+00 0. -1.
          1   -1    0    0  501    0 -0.00000000000E+00 -0.00000000000E+00 -0.21721983665E+03  0.21721983665E+03  0.00000000000E+00 0. -1.
         25    2    1    2    0    0 -0.56240876351E+02  0.24916380677E+02  0.54660149893E+02  0.14965299342E+03  0.12499769700E+03 0.  0.
          2    1    1    2  501    0  0.53486974596E+02  0.13261130984E+02 -0.16454037039E+03  0.17352304612E+03  0.00000000000E+00 0. -1.
          1    1    1    2  502    0  0.27539017553E+01 -0.38177511660E+02  0.52883421817E+03  0.53021763143E+03  0.00000000000E+00 0. -1.
         22    1    3    3    0    0  0.30728404815E+02 -0.18128666525E+02  0.36290259031E+02  0.50890729145E+02  0.00000000000E+00 0. -1.
         22    1    3    3    0    0 -0.86969281166E+02  0.43045047201E+02  0.18369890863E+02  0.98762264279E+02  0.00000000000E+00 0. -1.
</event>
<event>
 7    1  0.6173324E-006  0.4130447E+03  0.7818608E-02  0.1055211E+00
          2   -1    0    0  502    0  0.00000000000E+00  0.00000000000E+00  0.11725896697E+04  0.11725896697E+04  0.00000000000E+00 0. -1.
          1   -1    0    0  501    0 -0.00000000000E+00 -0.00000000000E+00 -0.21419839729E+04  0.21419839729E+04  0.00000000000E+00 0. -1.
         25    2    1    2    0    0 -0.45540378058E+03 -0.14352265965E+03 -0.24703721942E+03  0.55194575327E+03  0.12500147830E+03 0.  0.
          2    1    1    2  501    0  0.38108451801E+03 -0.17699781766E+03 -0.16895434285E+04  0.17410085107E+04  0.00000000000E+00 0. -1.
          1    1    1    2  502    0  0.74319262568E+02  0.32052047731E+03  0.96718634484E+03  0.10216193786E+04  0.00000000000E+00 0. -1.
         22    1    3    3    0    0 -0.22674014446E+03 -0.91905184868E+02 -0.59619326913E+02  0.25181763293E+03  0.00000000000E+00 0.  1.
         22    1    3    3    0    0 -0.22866363612E+03 -0.51617474782E+02 -0.18741789250E+03  0.30012812034E+03  0.00000000000E+00 0.  1.
</event>
<event>
 7    1  0.6173324E-006  0.1236749E+03  0.7818608E-02  0.1263465E+00
          2   -1    0    0  502    0  0.00000000000E+00  0.00000000000E+00  0.41919525771E+03  0.41919525771E+03  0.00000000000E+00 0. -1.
          1   -1    0    0  501    0 -0.00000000000E+00 -0.00000000000E+00 -0.22356275943E+04  0.22356275943E+04  0.00000000000E+00 0. -1.
         25    2    1    2    0    0  0.28002276462E+02 -0.42624862469E+02  0.13587577779E+03  0.19154044766E+03  0.12499803883E+03 0.  0.
          2    1    1    2  501    0 -0.91212162852E+02 -0.83521434816E+02 -0.21864327800E+04  0.21899278048E+04  0.00000000000E+00 0. -1.
          1    1    1    2  502    0  0.63209886390E+02  0.12614629729E+03  0.23412466561E+03  0.27335459957E+03  0.00000000000E+00 0. -1.
         22    1    3    3    0    0 -0.48028496588E+02 -0.31589814579E+02  0.48694757685E+02  0.75338119804E+02  0.00000000000E+00 0.  1.
         22    1    3    3    0    0  0.76030773050E+02 -0.11035047890E+02  0.87181020105E+02  0.11620232786E+03  0.00000000000E+00 0.  1.
</event>
<event>
 7    1  0.6173324E-006  0.7044460E+02  0.7818608E-02  0.1492052E+00
          2   -1    0    0  502    0  0.00000000000E+00  0.00000000000E+00  0.20129113581E+04  0.20129113581E+04  0.00000000000E+00 0. -1.
          1   -1    0    0  501    0 -0.00000000000E+00 -0.00000000000E+00 -0.78472727817E+03  0.78472727817E+03  0.00000000000E+00 0. -1.
         25    2    1    2    0    0 -0.86071201327E+02  0.35935130625E+02  0.17040811534E+04  0.17112036329E+04  0.12500284199E+03 0.  0.
          2    1    1    2  501    0  0.60692448776E+02 -0.35721023281E+02 -0.77904746226E+03  0.78222408126E+03  0.00000000000E+00 0. -1.
          1    1    1    2  502    0  0.25378752551E+02 -0.21410734462E+00  0.30315038879E+03  0.30421092213E+03  0.00000000000E+00 0. -1.
         22    1    3    3    0    0 -0.10268514453E+03 -0.60924504324E+01  0.90122109005E+03  0.90707265972E+03  0.00000000000E+00 0. -1.
         22    1    3    3    0    0  0.16613943201E+02  0.42027581058E+02  0.80286006333E+03  0.80413097314E+03  0.00000000000E+00 0. -1.
</event>
<event>
 7    1  0.6173324E-006  0.1654724E+03  0.7818608E-02  0.1372803E+00
          2   -1    0    0  502    0  0.00000000000E+00  0.00000000000E+00  0.11052476725E+04  0.11052476725E+04  0.00000000000E+00 0. -1.
          1   -1    0    0  501    0 -0.00000000000E+00 -0.00000000000E+00 -0.11252448940E+03  0.11252448940E+03  0.00000000000E+00 0. -1.
         25    2    1    2    0    0 -0.11820755035E+03 -0.14129205687E+03  0.35722589414E+03  0.42091122891E+03  0.12497780956E+03 0.  0.
          2    1    1    2  501    0  0.72691670807E+01  0.25629050530E+02 -0.69209617963E+02  0.74159694172E+02  0.00000000000E+00 0. -1.
          1    1    1    2  502    0  0.11093838327E+03  0.11566300634E+03  0.70470690693E+03  0.72270123882E+03  0.00000000000E+00 0. -1.
         22    1    3    3    0    0 -0.49713285851E+02 -0.85437351447E+02  0.29939547677E+03  0.31529129916E+03  0.00000000000E+00 0.  1.
         22    1    3    3    0    0 -0.68494264503E+02 -0.55854705422E+02  0.57830417364E+02  0.10561992975E+03  0.00000000000E+00 0.  1.
</event>
<event>
 7    1  0.6173324E-006  0.2383249E+03  0.7818608E-02  0.1182705E+00
          2   -1    0    0  502    0  0.00000000000E+00  0.00000000000E+00  0.16798495977E+04  0.16798495977E+04  0.00000000000E+00 0. -1.
          1   -1    0    0  501    0 -0.00000000000E+00 -0.00000000000E+00 -0.30729347887E+03  0.30729347887E+03  0.00000000000E+00 0. -1.
         25    2    1    2    0    0 -0.11936638385E+03 -0.20669565499E+03  0.94030506101E+02  0.28537500907E+03  0.12500292933E+03 0.  0.
          2    1    1    2  501    0 -0.84239139735E+02  0.78027810460E+02 -0.18544573978E+03  0.21811624027E+03  0.00000000000E+00 0. -1.
          1    1    1    2  502    0  0.20360552358E+03  0.12866784453E+03  0.14639713525E+04  0.14836518272E+04  0.00000000000E+00 0. -1.
         22    1    3    3    0    0 -0.68538286545E+02 -0.15724631962E+02  0.38178100918E+02  0.80014549693E+02  0.00000000000E+00 0. -1.
         22    1    3    3    0    0 -0.50828097302E+02 -0.19097102303E+03  0.55852405183E+02  0.20536045938E+03  0.00000000000E+00 0. -1.
</event>
<event>
 7    1  0.6173324E-006  0.6754431E+02  0.7818608E-02  0.1393359E+00
          2   -1    0    0  502    0  0.00000000000E+00  0.00000000000E+00  0.28475912139E+02  0.28475912139E+02  0.00000000000E+00 0. -1.
          1   -1    0    0  501    0 -0.00000000000E+00 -0.00000000000E+00 -0.14818945469E+04  0.14818945469E+04  0.00000000000E+00 0. -1.
         25    2    1    2    0    0  0.36845622191E+02  0.10746062172E+03 -0.11847558318E+04  0.11967364116E+04  0.12500509148E+03 0.  0.
          2    1    1    2  501    0  0.28011186944E+01 -0.55161265088E+02 -0.23194901370E+03  0.23843438592E+03  0.00000000000E+00 0. -1.
          1    1    1    2  502    0 -0.39646740885E+02 -0.52299356630E+02 -0.36713789312E+02  0.75199661518E+02  0.00000000000E+00 0. -1.
         22    1    3    3    0    0  0.72490524968E+02  0.30925737494E+02 -0.72703193551E+03  0.73129112718E+03  0.00000000000E+00 0. -1.
         22    1    3    3    0    0 -0.35644902777E+02  0.76534884224E+02 -0.45772389625E+03  0.46544528443E+03  0.00000000000E+00 0. -1.
</event>
<event>
 7    1  0.6173324E-006  0.2785276E+03  0.7818608E-02  0.1190982E+00
          2   -1    0    0  502    0  0.00000000000E+00  0.00000000000E+00  0.40173835791E+03  0.40173835791E+03  0.00000000000E+00 0. -1.
          1   -1    0    0  501    0 -0.00000000000E+00 -0.00000000000E+00 -0.15617694445E+04  0.15617694445E+04  0.00000000000E+00 0. -1.
         25    2    1    2    0    0 -0.87504038669E+02  0.17996517400E+03 -0.18443468801E+02  0.23666155441E+03  0.12499643659E+03 0.  0.
          2    1    1    2  501    0  0.11457331979E+03 -0.26539941272E+03 -0.14123540096E+04  0.14416337060E+04  0.00000000000E+00 0. -1.
          1    1    1    2  502    0 -0.27069281125E+02  0.85434238718E+02  0.27076639185E+03  0.28521254194E+03  0.00000000000E+00 0. -1.
         22    1    3    3    0    0 -0.11819891575E+02  0.13959916778E+03  0.22023509471E+02  0.14181915403E+03  0.00000000000E+00 0.  1.
         22    1    3    3    0    0 -0.75684147094E+02  0.40366006218E+02 -0.40466978271E+02  0.94842400379E+02  0.00000000000E+00 0.  1.
</event>
<event>
 7    1  0.6173324E-006  0.7779131E+02  0.7818608E-02  0.1336249E+00
          2   -1    0    0  502    0  0.00000000000E+00  0.00000000000E+00  0.27164088591E+04  0.27164088591E+04  0.00000000000E+00 0. -1.
          1   -1    0    0  501    0 -0.00000000000E+00 -0.00000000000E+00 -0.27493300957E+02  0.27493300957E+02  0.00000000000E+00 0. -1.
         25    2    1    2    0    0 -0.75210553526E+02  0.12850299211E+02  0.22886387825E+04  0.22933193309E+04  0.12499727566E+03 0.  0.
          2    1    1    2  501    0  0.85888675074E+01  0.77315714367E+02  0.25783721475E+03  0.26931676079E+03  0.00000000000E+00 0. -1.
          1    1    1    2  502    0  0.66621686019E+02 -0.90166013578E+02  0.14243956090E+03  0.18126606842E+03  0.00000000000E+00 0. -1.
         22    1    3    3    0    0  0.64701323790E+01  0.54376557602E+02  0.82616850351E+03  0.82798132154E+03  0.00000000000E+00 0.  1.
         22    1    3    3    0    0 -0.81680685905E+02 -0.41526258391E+02  0.14624702790E+04  0.14653380093E+04  0.00000000000E+00 0.  1.
</event>
<event>
 7    1  0.6173324E-006  0.1680367E+03  0.7818608E-02  0.1247917E+00
          2   -1    0    0  502    0  0.00000000000E+00  0.00000000000E+00  0.20733532019E+04  0.20733532019E+04  0.00000000000E+00 0. -1.
          1   -1    0    0  501    0 -0.00000000000E+00 -0.00000000000E+00 -0.56716836169E+03  0.56716836169E+03  0.00000000000E+00 0. -1.
         25    2    1    2    0    0 -0.18014561848E+02  0.24258809184E+03  0.34983302314E+03  0.44404789802E+03  0.12498753903E+03 0.  0.
          2    1    1    2  501    0  0.16318141521E+01 -0.81621921066E+02 -0.51292131052E+03  0.51937758096E+03  0.00000000000E+00 0. -1.
          1    1    1    2  502    0  0.16382747696E+02 -0.16096617078E+03  0.16692731276E+04  0.16770960847E+04  0.00000000000E+00 0. -1.
         22    1    3    3    0    0 -0.36518377953E+02  0.38866766610E+02  0.22131563734E+02  0.57741004393E+02  0.00000000000E+00 0. -1.
         22    1    3    3    0    0  0.18503816104E+02  0.20372132523E+03  0.32770145941E+03  0.38630689362E+03  0.00000000000E+00 0. -1.
</event>
<event>
 7    1  0.6173324E-006  0.5514037E+02  0.7818608E-02  0.1468146E+00
          2   -1    0    0  502    0  0.00000000000E+00  0.00000000000E+00  0.19919626618E+03  0.19919626618E+03  0.00000000000E+00 0. -1.
          1   -1    0    0  501    0 -0.00000000000E+00 -0.00000000000E+00 -0.25520252856E+03  0.25520252856E+03  0.00000000000E+00 0. -1.
         25    2    1    2    0    0  0.23984405305E+02  0.82222600261E+02  0.86671511497E+02  0.17456186874E+03  0.12499634963E+03 0.  0.
          2    1    1    2  501    0 -0.18928206057E+02 -0.33396806845E+02 -0.20041230391E+03  0.20405566704E+03  0.00000000000E+00 0. -1.
          1    1    1    2  502    0 -0.50561992478E+01 -0.48825793416E+02  0.57734530030E+02  0.75781258972E+02  0.00000000000E+00 0. -1.
         22    1    3    3    0    0  0.13655604254E+02 -0.32238861677E+02  0.10015397707E+02  0.36416039338E+02  0.00000000000E+00 0.  1.
         22    1    3    3    0    0  0.10328801051E+02  0.11446146194E+03  0.76656113790E+02  0.13814582940E+03  0.00000000000E+00 0.  1.
</event>
<event>
 7    1  0.6173324E-006  0.6867538E+02  0.7818608E-02  0.1517499E+00
          2   -1    0    0  502    0  0.00000000000E+00  0.00000000000E+00  0.16797293061E+02  0.16797293061E+02  0.00000000000E+00 0. -1.
          1   -1    0    0  501    0 -0.00000000000E+00 -0.00000000000E+00 -0.14042243453E+04  0.14042243453E+04  0.00000000000E+00 0. -1.
         25    2    1    2    0    0  0.32367113586E+02  0.63738899798E+02 -0.71933641869E+03  0.73360824858E+03  0.12500360693E+03 0.  0.
          2    1    1    2  501    0 -0.48325660297E+02 -0.48767560167E+02 -0.66078802706E+03  0.66434513701E+03  0.00000000000E+00 0. -1.
          1    1    1    2  502    0  0.15958546711E+02 -0.14971339631E+02 -0.73026064673E+01  0.23068252745E+02  0.00000000000E+00 0. -1.
         22    1    3    3    0    0 -0.29743609135E+02  0.74985794110E+02 -0.42311006587E+03  0.43073156309E+03  0.00000000000E+00 0.  1.
         22    1    3    3    0    0  0.62110722721E+02 -0.11246894312E+02 -0.29622635282E+03  0.30287668549E+03  0.00000000000E+00 0.  1.
</event>
<event>
 7    1  0.6173324E-006  0.8571606E+02  0.7818608E-02  0.1424452E+00
          2   -1    0    0  502    0  0.00000000000E+00  0.00000000000E+00  0.79318912405E+03  0.79318912405E+03  0.00000000000E+00 0. -1.
          1   -1    0    0  501    0 -0.00000000000E+00 -0.00000000000E+00 -0.40603012599E+03  0.40603012599E+03  0.00000000000E+00 0. -1.
         25    2    1    2    0    0 -0.66946719637E+02  0.31941615591E+02  0.18422968895E+03  0.23466692284E+03  0.12500342519E+03 0.  0.
          2    1    1    2  501    0 -0.20808762450E+02 -0.27056314319E+02 -0.37672721603E+03  0.37827033195E+03  0.00000000000E+00 0. -1.
          1    1    1    2  502    0  0.87755482087E+02 -0.48853012723E+01  0.57965652514E+03  0.58628199524E+03  0.00000000000E+00 0. -1.
         22    1    3    3    0    0  0.19047016166E+02  0.13538339932E+02  0.12838163255E+03  0.13049106884E+03  0.00000000000E+00 0.  1.
         22    1    3    3    0    0 -0.85993735803E+02  0.18403275659E+02  0.55848056406E+02  0.10417585400E+03  0.00000000000E+00 0.  1.
</event>
<event>
 7    1  0.6173324E-006  0.1287817E+03  0.7818608E-02  0.1346563E+00
          2   -1    0    0  502    0  0.00000000000E+00  0.00000000000E+00  0.13684715914E+04  0.13684715914E+04  0.00000000000E+00 0. -1.
          1   -1    0    0  501    0 -0.00000000000E+00 -0.00000000000E+00 -0.65274778776E+03  0.65274778776E+03  0.00000000000E+00 0. -1.
         25    2    1    2    0    0 -0.89488784049E+02  0.47292685916E+02  0.63861171358E+03  0.65855481606E+03  0.12499873768E+03 0.  0.
          2    1    1    2  501    0  0.12645900073E+03 -0.25967828421E+02 -0.63564934129E+03  0.64862646574E+03  0.00000000000E+00 0. -1.
          1    1    1    2  502    0 -0.36970216679E+02 -0.21324857495E+02  0.71276143136E+03  0.71403809738E+03  0.00000000000E+00 0. -1.
         22    1    3    3    0    0 -0.37909488968E+02  0.75185242728E+02  0.51381353368E+03  0.52066716573E+03  0.00000000000E+00 0. -1.
         22    1    3    3    0    0 -0.51579295081E+02 -0.27892556812E+02  0.12479817990E+03  0.13788765033E+03  0.00000000000E+00 0. -1.
</event>
<event>
 7    1  0.6173324E-006  0.3874477E+02  0.7818608E-02  0.1575287E+00
          2   -1    0    0  502    0  0.00000000000E+00  0.00000000000E+00  0.49221503317E+03  0.49221503317E+03  0.00000000000E+00 0. -1.
          1   -1    0    0  501    0 -0.00000000000E+00 -0.00000000000E+00 -0.52452547419E+03  0.52452547419E+03  0.00000000000E+00 0. -1.
         25    2    1    2    0    0 -0.57242620617E+02  0.29427036432E+02 -0.12794132130E+03  0.19009690310E+03  0.12500073113E+03 0.  0.
          2    1    1    2  501    0  0.20736534887E+02 -0.16832161815E+02 -0.36420801471E+03  0.36518598485E+03  0.00000000000E+00 0. -1.
          1    1    1    2  502    0  0.36506085731E+02 -0.12594874617E+02  0.45983889500E+03  0.46145761941E+03  0.00000000000E+00 0. -1.
         22    1    3    3    0    0  0.29019734426E+02 -0.15672921760E+02 -0.68541248603E+02  0.76063711603E+02  0.00000000000E+00 0. -1.
         22    1    3    3    0    0 -0.86262355043E+02  0.45099958192E+02 -0.59400072701E+02  0.11403319150E+03  0.00000000000E+00 0. -1.
</event>
<event>
 7    1  0.6173324E-006  0.6959441E+02  0.7818608E-02  0.1437904E+00
          2   -1    0    0  502    0  0.00000000000E+00  0.00000000000E+00  0.34477071586E+04  0.34477071586E+04  0.00000000000E+00 0. -1.
          1   -1    0    0  501    0 -0.00000000000E+00 -0.00000000000E+00 -0.24303612935E+02  0.24303612935E+02  0.00000000000E+00 0. -1.
         25    2    1    2    0    0  0.71041310864E+02 -0.65333662267E+02  0.91406210672E+03  0.92760433421E+03  0.12499964251E+03 0.  0.
          2    1    1    2  501    0 -0.92542408378E+01  0.36825494548E+02  0.40441978266E+01  0.38185253152E+02  0.00000000000E+00 0. -1.
          1    1    1    2  502    0 -0.61787070027E+02  0.28508167719E+02  0.25052972411E+04  0.25062211841E+04  0.00000000000E+00 0. -1.
         22    1    3    3    0    0  0.90504716084E+02 -0.29919463096E+02  0.37131969078E+03  0.38335961011E+03  0.00000000000E+00 0. -1.
         22    1    3    3    0    0 -0.19463405220E+02 -0.35414199171E+02  0.54274241594E+03  0.54424472410E+03  0.00000000000E+00 0. -1.
</event>
<event>
 7    1  0.6173324E-006  0.1428492E+03  0.7818608E-02  0.1248023E+00
          2   -1    0    0  502    0  0.00000000000E+00  0.00000000000E+00  0.14691760176E+04  0.14691760176E+04  0.00000000000E+00 0. -1.
          1   -1    0    0  501    0 -0.00000000000E+00 -0.00000000000E+00 -0.25328198899E+03  0.25328198899E+03  0.00000000000E+00 0. -1.
         25    2    1    2    0    0 -0.10265918845E+03 -0.19065821747E+03  0.71579417231E+02  0.26007694613E+03  0.12500776006E+03 0.  0.
          2    1    1    2  501    0 -0.86357069178E+00  0.95927452599E+02 -0.14038988278E+03  0.17003570538E+03  0.00000000000E+00 0. -1.
          1    1    1    2  502    0  0.10352275915E+03  0.94730764872E+02  0.12847044941E+04  0.12923453550E+04  0.00000000000E+00 0. -1.
         22    1    3    3    0    0 -0.11346336991E+03 -0.95639506294E+02  0.15464484363E+02  0.14919786108E+03  0.00000000000E+00 0.  1.
         22    1    3    3    0    0  0.10804181456E+02 -0.95018711177E+02  0.56114932867E+02  0.11087908505E+03  0.00000000000E+00 0.  1.
</event>
<event>
 7    1  0.6173324E-006  0.5182730E+02  0.7818608E-02  0.1454894E+00
          2   -1    0    0  502    0  0.00000000000E+00  0.00000000000E+00  0.25377753673E+04  0.25377753673E+04  0.00000000000E+00 0. -1.
          1   -1    0    0  501    0 -0.00000000000E+00 -0.00000000000E+00 -0.32998346985E+02  0.32998346985E+02  0.00000000000E+00 0. -1.
         25    2    1    2    0    0 -0.49402177833E+01  0.17513765291E+02  0.13352361474E+04  0.13411975590E+04  0.12499674115E+03 0.  0.
          2    1    1    2  501    0 -0.33902256586E+02 -0.40154870606E+02 -0.62527457291E+01  0.52923279038E+02  0.00000000000E+00 0. -1.
          1    1    1    2  502    0  0.38842474369E+02  0.22641105315E+02  0.11757936186E+04  0.11766528762E+04  0.00000000000E+00 0. -1.
         22    1    3    3    0    0 -0.43400559409E+02 -0.35725149717E+02  0.44392405001E+03  0.44746894535E+03  0.00000000000E+00 0.  1.
         22    1    3    3    0    0  0.38460341626E+02  0.53238915008E+02  0.89131209740E+03  0.89372861369E+03  0.00000000000E+00 0.  1.
</event>
<event>
 7    1  0.6173324E-006  0.7708128E+02  0.7818608E-02  0.1363616E+00
          2   -1    0    0  502    0  0.00000000000E+00  0.00000000000E+00  0.21461877977E+04  0.21461877977E+04  0.00000000000E+00 0. -1.
          1   -1    0    0  501    0 -0.00000000000E+00 -0.00000000000E+00 -0.21026304133E+03  0.21026304133E+03  0.00000000000E+00 0. -1.
         25    2    1    2    0    0 -0.39836260658E+02 -0.11453844263E+03  0.84929431475E+03  0.86696739335E+03  0.12500258224E+03 0.  0.
          2    1    1    2  501    0 -0.86252756348E+01  0.76317877935E+02 -0.19333447745E+03  0.20803132947E+03  0.00000000000E+00 0. -1.
          1    1    1    2  502    0  0.48461536293E+02  0.38220564696E+02  0.12799649191E+04  0.12814521162E+04  0.00000000000E+00 0. -1.
         22    1    3    3    0    0  0.23689641134E+02 -0.59886646815E+02  0.61066872879E+03  0.61405529547E+03  0.00000000000E+00 0.  1.
         22    1    3    3    0    0 -0.63525901791E+02 -0.54651795815E+02  0.23862558595E+03  0.25291209788E+03  0.00000000000E+00 0.  1.
</event>
<event>
 7    1  0.6173324E-006  0.4784793E+02  0.7818608E-02  0.1486375E+00
          2   -1    0    0  502    0  0.00000000000E+00  0.00000000000E+00  0.31804312929E+04  0.31804312929E+04  0.00000000000E+00 0. -1.
          1   -1    0    0  501    0 -0.00000000000E+00 -0.00000000000E+00 -0.42960987448E+02  0.42960987448E+02  0.00000000000E+00 0. -1.
         25    2    1    2    0    0  0.24149519095E+02 -0.65566598346E+02  0.13950952874E+04  0.14024257422E+04  0.12499969367E+03 0.  0.
          2    1    1    2  501    0 -0.37783742530E+02  0.29161346252E+02 -0.24510047186E+02  0.53653869645E+02  0.00000000000E+00 0. -1.
          1    1    1    2  502    0  0.13634223435E+02  0.36405252094E+02  0.17668850653E+04  0.17673126686E+04  0.00000000000E+00 0. -1.
         22    1    3    3    0    0 -0.49574940051E+02 -0.17455329072E+02  0.65702571874E+03  0.65912453928E+03  0.00000000000E+00 0. -1.
         22    1    3    3    0    0  0.73724459146E+02 -0.48111269274E+02  0.73806956861E+03  0.74330120289E+03  0.00000000000E+00 0. -1.
</event>
<event>
 7    1  0.6173324E-006  0.1145970E+03  0.7818608E-02  0.1379031E+00
          2   -1    0    0  502    0  0.00000000000E+00  0.00000000000E+00  0.15301454642E+04  0.15301454642E+04  0.00000000000E+00 0. -1.
          1   -1    0    0  501    0 -0.00000000000E+00 -0.00000000000E+00 -0.95133520374E+02  0.95133520374E+02  0.00000000000E+00 0. -1.
         25    2    1    2    0    0  0.20019425687E+02 -0.87821682265E+02  0.28887573484E+02  0.15674969838E+03  0.12499020266E+03 0.  0.
          2    1    1    2  501    0 -0.23826713378E+02 -0.27716916976E+02 -0.17286282919E+02  0.40432107714E+02  0.00000000000E+00 0. -1.
          1    1    1    2  502    0  0.38072876909E+01  0.11553859924E+03  0.14234106533E+04  0.14280971785E+04  0.00000000000E+00 0. -1.
         22    1    3    3    0    0  0.22882965519E+02 -0.10030725694E+03 -0.21203640805E+02  0.10504651488E+03  0.00000000000E+00 0. -1.
         22    1    3    3    0    0 -0.28635398314E+01  0.12485574673E+02  0.50091214289E+02  0.51703183502E+02  0.00000000000E+00 0. -1.
</event>
<event>
 7    1  0.6173324E-006  0.2296964E+03  0.7818608E-02  0.1244012E+00
          2   -1    0    0  502    0  0.00000000000E+00  0.00000000000E+00  0.39773979250E+04  0.39773979250E+04  0.00000000000E+00 0. -1.
          1   -1    0    0  501    0 -0.00000000000E+00 -0.00000000000E+00 -0.18870799747E+04  0.18870799747E+04  0.00000000000E+00 0. -1.
         25    2    1    2    0    0  0.64444202603E+02  0.15908843431E+03  0.16165371001E+03  0.26686375580E+03  0.12498862757E+03 0.  0.
          2    1    1    2  501    0  0.20376234022E+02  0.58677778912E+02 -0.18303192054E+04  0.18313728911E+04  0.00000000000E+00 0. -1.
          1    1    1    2  502    0 -0.84820436625E+02 -0.21776621322E+03  0.37589834456E+04  0.37662412528E+04  0.00000000000E+00 0. -1.
         22    1    3    3    0    0  0.49906579464E+02  0.17964554548E+03  0.14907415660E+03  0.23871801953E+03  0.00000000000E+00 0.  1.
         22    1    3    3    0    0  0.14537623139E+02 -0.20557111169E+02  0.12579553415E+02  0.28145736272E+02  0.00000000000E+00 0.  1.
</event>
<event>
 7    1  0.6173324E-006  0.5535039E+02  0.7818608E-02  0.1477542E+00
          2   -1    0    0  502    0  0.00000000000E+00  0.00000000000E+00  0.15030734226E+04  0.15030734226E+04  0.00000000000E+00 0. -1.
          1   -1    0    0  501    0 -0.00000000000E+00 -0.00000000000E+00 -0.10526732922E+03  0.10526732922E+03  0.00000000000E+00 0. -1.
         25    2    1    2    0    0 -0.35930346772E+01  0.38447430632E+02  0.92314194379E+03  0.93236483764E+03  0.12498810854E+03 0.  0.
          2    1    1    2  501    0  0.30290491447E+02  0.19011999774E+02 -0.95668695427E+02  0.10213456463E+03  0.00000000000E+00 0. -1.
          1    1    1    2  502    0 -0.26697456769E+02 -0.57459430406E+02  0.57033284507E+03  0.57384134959E+03  0.00000000000E+00 0. -1.
         22    1    3    3    0    0  0.20744584225E+02 -0.18117951630E+02  0.70926420296E+03  0.70979877962E+03  0.00000000000E+00 0.  1.
         22    1    3    3    0    0 -0.24337618902E+02  0.56565382262E+02  0.21387774082E+03  0.22256605802E+03  0.00000000000E+00 0.  1.
</event>
<event>
 7    1  0.6173324E-006  0.3860555E+02  0.7818608E-02  0.1534385E+00
          2   -1    0    0  502    0  0.00000000000E+00  0.00000000000E+00  0.83425447083E+02  0.83425447083E+02  0.00000000000E+00 0. -1.
          1   -1    0    0  501    0 -0.00000000000E+00 -0.00000000000E+00 -0.48670517556E+03  0.48670517556E+03  0.00000000000E+00 0. -1.
         25    2    1    2    0    0 -0.72178866930E+01 -0.71294943090E+02 -0.46549450054E+02  0.15141845301E+03  0.12500251923E+03 0.  0.
          2    1    1    2  501    0  0.10213890767E+02  0.36623135631E+02 -0.37668307067E+03  0.37859703295E+03  0.00000000000E+00 0. -1.
          1    1    1    2  502    0 -0.29960040741E+01  0.34671807459E+02  0.19952792243E+02  0.40115136685E+02  0.00000000000E+00 0. -1.
         22    1    3    3    0    0 -0.35115412517E+02 -0.15626025543E+02 -0.73986046287E+02  0.83373856308E+02  0.00000000000E+00 0.  1.
         22    1    3    3    0    0  0.27897525824E+02 -0.55668917547E+02  0.27436596233E+02  0.68044596706E+02  0.00000000000E+00 0.  1.
</event>
<event>
 7    1  0.6173324E-006  0.1333378E+03  0.7818608E-02  0.1242961E+00
          2   -1    0    0  502    0  0.00000000000E+00  0.00000000000E+00  0.15941497771E+04  0.15941497771E+04  0.00000000000E+00 0. -1.
          1   -1    0    0  501    0 -0.00000000000E+00 -0.00000000000E+00 -0.47632187826E+03  0.47632187826E+03  0.00000000000E+00 0. -1.
         25    2    1    2    0    0  0.99033258222E+01  0.75336183267E+01  0.34370687510E+03  0.36594511885E+03  0.12500633085E+03 0.  0.
          2    1    1    2  501    0  0.12561601754E+03  0.44716730545E+02 -0.45127059594E+03  0.47055724477E+03  0.00000000000E+00 0. -1.
          1    1    1    2  502    0 -0.13551934336E+03 -0.52250348871E+02  0.12253916196E+04  0.12339692917E+04  0.00000000000E+00 0. -1.
         22    1    3    3    0    0 -0.38088355656E+02 -0.26522540102E+02  0.25698075474E+03  0.26113842359E+03  0.00000000000E+00 0. -1.
         22    1    3    3    0    0  0.47991681478E+02  0.34056158429E+02  0.86726120359E+02  0.10480669526E+03  0.00000000000E+00 0. -1.
</event>
<event>
 7    1  0.6173324E-006  0.1450425E+03  0.7818608E-02  0.1301802E+00
          2   -1    0    0  502    0  0.00000000000E+00  0.00000000000E+00  0.18201702497E+04  0.18201702497E+04  0.00000000000E+00 0. -1.
          1   -1    0    0  501    0 -0.00000000000E+00 -0.00000000000E+00 -0.94192579960E+03  0.94192579960E+03  0.00000000000E+00 0. -1.
         25    2    1    2    0    0 -0.80380378397E+02 -0.39057659661E+02  0.11048556121E+04  0.11154896115E+04  0.12499857527E+03 0.  0.
          2    1    1    2  501    0  0.13433170518E+03  0.55450374378E+02 -0.92983620164E+03  0.94112438759E+03  0.00000000000E+00 0. -1.
          1    1    1    2  502    0 -0.53951326787E+02 -0.16392714717E+02  0.70322503964E+03  0.70548205018E+03  0.00000000000E+00 0. -1.
         22    1    3    3    0    0 -0.23477341202E+02 -0.76536865995E+02  0.74074406210E+03  0.74505761049E+03  0.00000000000E+00 0.  1.
         22    1    3    3    0    0 -0.56903037195E+02  0.37479206334E+02  0.36411155000E+03  0.37043200103E+03  0.00000000000E+00 0.  1.
</event>
<event>
 7    1  0.6173324E-006  0.2199568E+03  0.7818608E-02  0.1255108E+00
          2   -1    0    0  502    0  0.00000000000E+00  0.00000000000E+00  0.34819879988E+03  0.34819879988E+03  0.00000000000E+00 0. -1.
          1   -1    0    0  501    0 -0.00000000000E+00 -0.00000000000E+00 -0.61826594560E+03  0.61826594560E+03  0.00000000000E+00 0. -1.
         25    2    1    2    0    0 -0.13567650508E+03 -0.20265336627E+03 -0.27151020415E+03  0.38578904166E+03  0.12505555891E+03 0.  0.
          2    1    1    2  501    0  0.78917124525E+02  0.19045613784E+03 -0.24918539034E+03  0.32341121153E+03  0.00000000000E+00 0. -1.
          1    1    1    2  502    0  0.56759380558E+02  0.12197228426E+02  0.25062844877E+03  0.25726449229E+03  0.00000000000E+00 0. -1.
         22    1    3    3    0    0 -0.71548066929E+00  0.14872252868E+02 -0.31675895558E+02  0.35000831095E+02  0.00000000000E+00 0. -1.
         22    1    3    3    0    0 -0.13496102441E+03 -0.21752561914E+03 -0.23983430859E+03  0.35078821056E+03  0.00000000000E+00 0. -1.
</event>
<event>
 7    1  0.6173324E-006  0.9612805E+02  0.7818608E-02  0.1348657E+00
          2   -1    0    0  502    0  0.00000000000E+00  0.00000000000E+00  0.39858454783E+03  0.39858454783E+03  0.00000000000E+00 0. -1.
          1   -1    0    0  501    0 -0.00000000000E+00 -0.00000000000E+00 -0.81343617759E+03  0.81343617759E+03  0.00000000000E+00 0. -1.
         25    2    1    2    0    0  0.12123550985E+03 -0.21674432153E+02  0.13698479317E+03  0.22261657396E+03  0.12500190233E+03 0.  0.
          2    1    1    2  501    0 -0.77327515221E+02  0.56691945492E+02 -0.76396934615E+03  0.76996278036E+03  0.00000000000E+00 0. -1.
          1    1    1    2  502    0 -0.43907994633E+02 -0.35017513339E+02  0.21213292322E+03  0.21944137109E+03  0.00000000000E+00 0. -1.
         22    1    3    3    0    0  0.96246704853E+02 -0.26150591726E+02  0.18493324588E+02  0.10143611141E+03  0.00000000000E+00 0.  1.
         22    1    3    3    0    0  0.24988805001E+02  0.44761595737E+01  0.11849146858E+03  0.12118046256E+03  0.00000000000E+00 0.  1.
</event>
<event>
 7    1  0.6173324E-006  0.3861923E+02  0.7818608E-02  0.1562798E+00
          2   -1    0    0  502    0  0.00000000000E+00  0.00000000000E+00  0.10010782958E+04  0.10010782958E+04  0.00000000000E+00 0. -1.
          1   -1    0    0  501    0 -0.00000000000E+00 -0.00000000000E+00 -0.69405661434E+03  0.69405661434E+03  0.00000000000E+00 0. -1.
         25    2    1    2    0    0  0.40075513903E+02 -0.89563368691E+01 -0.14233896240E+03  0.19383545061E+03  0.12500215562E+03 0.  0.
          2    1    1    2  501    0 -0.22276459419E+02  0.31820355987E+02 -0.52503661381E+03  0.52647148217E+03  0.00000000000E+00 0. -1.
          1    1    1    2  502    0 -0.17799054484E+02 -0.22864019118E+02  0.97439725770E+03  0.97482797740E+03  0.00000000000E+00 0. -1.
         22    1    3    3    0    0  0.78041099133E+02 -0.24470040220E+02 -0.12483971347E+03  0.14924526820E+03  0.00000000000E+00 0. -1.
         22    1    3    3    0    0 -0.37965585230E+02  0.15513703351E+02 -0.17499248938E+02  0.44590182405E+02  0.00000000000E+00 0. -1.
</event>
<event>
 7    1  0.6173324E-006  0.1098378E+03  0.7818608E-02  0.1300558E+00
          2   -1    0    0  502    0  0.00000000000E+00  0.00000000000E+00  0.51650481184E+03  0.51650481184E+03  0.00000000000E+00 0. -1.
          1   -1    0    0  501    0 -0.00000000000E+00 -0.00000000000E+00 -0.21046803933E+03  0.21046803933E+03  0.00000000000E+00 0. -1.
         25    2    1    2    0    0 -0.69757880648E+02 -0.52463904195E+02  0.67992634211E+01  0.15261050099E+03  0.12500044749E+03 0.  0.
          2    1    1    2  501    0  0.46265577245E+02 -0.59431664050E+02 -0.11897038008E+03  0.14080688075E+03  0.00000000000E+00 0. -1.
          1    1    1    2  502    0  0.23492303403E+02  0.11189556825E+03  0.41820788916E+03  0.43355546943E+03  0.00000000000E+00 0. -1.
         22    1    3    3    0    0 -0.98331724866E+02 -0.39615156568E+02 -0.23981077221E+02  0.10869029768E+03  0.00000000000E+00 0. -1.
         22    1    3    3    0    0  0.28573844218E+02 -0.12848747627E+02  0.30780340642E+02  0.43920203312E+02  0.00000000000E+00 0. -1.
</event>
<event>
 7    1  0.6173324E-006  0.7302569E+02  0.7818608E-02  0.1422092E+00
          2   -1    0    0  502    0  0.00000000000E+00  0.00000000000E+00  0.19789140870E+04  0.19789140870E+04  0.00000000000E+00 0. -1.
          1   -1    0    0  501    0 -0.00000000000E+00 -0.00000000000E+00 -0.18510064023E+03  0.18510064023E+03  0.00000000000E+00 0. -1.
         25    2    1    2    0    0  0.48879080340E+02  0.27925451226E+01  0.21405327748E+03  0.25266832350E+03  0.12500205319E+03 0.  0.
          2    1    1    2  501    0 -0.61319170151E+02 -0.41644026053E+02 -0.15725682523E+03  0.17385043749E+03  0.00000000000E+00 0. -1.
          1    1    1    2  502    0  0.12440089811E+02  0.38851480931E+02  0.17370169945E+04  0.17374959662E+04  0.00000000000E+00 0. -1.
         22    1    3    3    0    0  0.32191655108E+02  0.54716009589E+02  0.53222867908E+02  0.82842127160E+02  0.00000000000E+00 0.  1.
         22    1    3    3    0    0  0.16687425231E+02 -0.51923464467E+02  0.16083040957E+03  0.16982619634E+03  0.00000000000E+00 0.  1.
</event>
<event>
 7    1  0.6173324E-006  0.3696643E+03  0.7818608E-02  0.1085867E+00
          2   -1    0    0  502    0  0.00000000000E+00  0.00000000000E+00  0.40789625335E+03  0.40789625335E+03  0.00000000000E+00 0. -1.
          1   -1    0    0  501    0 -0.00000000000E+00 -0.00000000000E+00 -0.36008294363E+04  0.36008294363E+04  0.00000000000E+00 0. -1.
         25    2    1    2    0    0  0.13735091093E+03  0.18130012469E+02 -0.98594299120E+02  0.21104706866E+03  0.12500423707E+03 0.  0.
          2    1    1    2  501    0 -0.17647006667E+02 -0.36924279548E+03 -0.33350450713E+04  0.33554697565E+04  0.00000000000E+00 0. -1.
          1    1    1    2  502    0 -0.11970390426E+03  0.35111278301E+03  0.24070618754E+03  0.44220886446E+03  0.00000000000E+00 0. -1.
         22    1    3    3    0    0  0.15764342484E+03  0.42252363188E+01 -0.67860639500E+02  0.17168100772E+03  0.00000000000E+00 0. -1.
         22    1    3    3    0    0 -0.20292513912E+02  0.13904776150E+02 -0.30733659620E+02  0.39366060944E+02  0.00000000000E+00 0. -1.
</event>
<event>
 7    1  0.1684779E-005  0.1053415E+03  0.7818608E-02  0.1309863E+00
          2   -1    0    0  502    0  0.00000000000E+00  0.00000000000E+00  0.18729628594E+04  0.18729628594E+04  0.00000000000E+00 0. -1.
          1   -1    0    0  501    0 -0.00000000000E+00 -0.00000000000E+00 -0.14195430828E+04  0.14195430828E+04  0.00000000000E+00 0. -1.
         25    2    1    2    0    0  0.40887553332E+01  0.47601450830E+02 -0.34980873575E+03  0.37453544463E+03  0.12501212593E+03 0.  0.
          2    1    1    2  501    0  0.64113849089E+02  0.33040944825E+02 -0.10546394299E+04  0.10571029358E+04  0.00000000000E+00 0. -1.
          1    1    1    2  502    0 -0.68202604422E+02 -0.80642395656E+02  0.18578679423E+04  0.18608675617E+04  0.00000000000E+00 0. -1.
         22    1    3    3    0    0  0.50824839193E+02 -0.17375413325E+02 -0.13422093304E+03  0.14456945782E+03  0.00000000000E+00 0.  1.
         22    1    3    3    0    0 -0.46736083860E+02  0.64976864156E+02 -0.21558780271E+03  0.22996598681E+03  0.00000000000E+00 0.  1.
</event>
<event>
 7    1  0.6173324E-006  0.1633489E+03  0.7818608E-02  0.1361435E+00
          2   -1    0    0  502    0  0.00000000000E+00  0.00000000000E+00  0.25697914489E+03  0.25697914489E+03  0.00000000000E+00 0. -1.
          1   -1    0    0  501    0 -0.00000000000E+00 -0.00000000000E+00 -0.31811646183E+03  0.31811646183E+03  0.00000000000E+00 0. -1.
         25    2    1    2    0    0 -0.12584099393E+03  0.76107682877E+02 -0.54005254695E+02  0.20042050205E+03  0.12499389970E+03 0.  0.
          2    1    1    2  501    0  0.15545127726E+03 -0.74371938540E+02 -0.15018068231E+03  0.22858373123E+03  0.00000000000E+00 0. -1.
          1    1    1    2  502    0 -0.29610283324E+02 -0.17357443373E+01  0.14304862007E+03  0.14609137343E+03  0.00000000000E+00 0. -1.
         22    1    3    3    0    0 -0.89750745950E+02  0.25361923861E+02 -0.89062656342E+02  0.12895960738E+03  0.00000000000E+00 0.  1.
         22    1    3    3    0    0 -0.36090247984E+02  0.50745759016E+02  0.35057401647E+02  0.71460894675E+02  0.00000000000E+00 0.  1.
</event>
<event>
 7    1  0.6173324E-006  0.8999225E+02  0.7818608E-02  0.1407335E+00
          2   -1    0    0  502    0  0.00000000000E+00  0.00000000000E+00  0.94016201090E+03  0.94016201090E+03  0.00000000000E+00 0. -1.
          1   -1    0    0  501    0 -0.00000000000E+00 -0.00000000000E+00 -0.29816205394E+03  0.29816205394E+03  0.00000000000E+00 0. -1.
         25    2    1    2    0    0  0.20638624427E+02  0.49402352603E+02 -0.12442852977E+03  0.18431941791E+03  0.12499857413E+03 0.  0.
          2    1    1    2  501    0  0.10522561351E+02  0.35591306583E+02 -0.13909807774E+03  0.14396437279E+03  0.00000000000E+00 0. -1.
          1    1    1    2  502    0 -0.31161185778E+02 -0.84993659185E+02  0.90552656447E+03  0.91004027414E+03  0.00000000000E+00 0. -1.
         22    1    3    3    0    0 -0.39441240884E+01 -0.37478623808E+02 -0.10835105678E+02  0.39212279612E+02  0.00000000000E+00 0. -1.
         22    1    3    3    0    0  0.24582748516E+02  0.86880976410E+02 -0.11359342410E+03  0.14510713830E+03  0.00000000000E+00 0. -1.
</event>
<event>
 7    1  0.6173324E-006  0.5147656E+02  0.7818608E-02  0.1470062E+00
          2   -1    0    0  502    0  0.00000000000E+00  0.00000000000E+00  0.25792812610E+04  0.25792812610E+04  0.00000000000E+00 0. -1.
          1   -1    0    0  501    0 -0.00000000000E+00 -0.00000000000E+00 -0.14264502361E+03  0.14264502361E+03  0.00000000000E+00 0. -1.
         25    2    1    2    0    0  0.67087903132E+01 -0.31738133855E+02  0.10190237435E+03  0.16450343408E+03  0.12499987567E+03 0.  0.
          2    1    1    2  501    0  0.32617544108E+02  0.41661389313E+02 -0.10488055802E+03  0.11747130285E+03  0.00000000000E+00 0. -1.
          1    1    1    2  502    0 -0.39326334421E+02 -0.99232554588E+01  0.24396144211E+04  0.24399515477E+04  0.00000000000E+00 0. -1.
         22    1    3    3    0    0  0.59809863595E+02 -0.44190876260E+02  0.53861387320E+02  0.91821034474E+02  0.00000000000E+00 0. -1.
         22    1    3    3    0    0 -0.53101073281E+02  0.12452742405E+02  0.48040987030E+02  0.72682399601E+02  0.00000000000E+00 0. -1.
</event>
<event>
 7    1  0.6173324E-006  0.6556797E+02  0.7818608E-02  0.1412003E+00
          2   -1    0    0  502    0  0.00000000000E+00  0.00000000000E+00  0.13075803736E+03  0.13075803736E+03  0.00000000000E+00 0. -1.
          1   -1    0    0  501    0 -0.00000000000E+00 -0.00000000000E+00 -0.45568180030E+03  0.45568180030E+03  0.00000000000E+00 0. -1.
         25    2    1    2    0    0 -0.80484133323E+02  0.38619883727E+02 -0.28933717411E+03  0.32757901612E+03  0.12499128107E+03 0.  0.
          2    1    1    2  501    0  0.60238610766E+02  0.61303301110E+01 -0.13501039471E+03  0.14796647544E+03  0.00000000000E+00 0. -1.
          1    1    1    2  502    0  0.20245522557E+02 -0.44750213838E+02  0.99423805883E+02  0.11089434611E+03  0.00000000000E+00 0. -1.
         22    1    3    3    0    0 -0.84681590672E+02  0.71190698225E+02 -0.26353764345E+03  0.28581668396E+03  0.00000000000E+00 0. -1.
         22    1    3    3    0    0  0.41974573494E+01 -0.32570814498E+02 -0.25799530652E+02  0.41762332157E+02  0.00000000000E+00 0. -1.
</event>
<event>
 7    1  0.6173324E-006  0.8132006E+02  0.7818608E-02  0.1363511E+00
          2   -1    0    0  502    0  0.00000000000E+00  0.00000000000E+00  0.13594086423E+04  0.13594086423E+04  0.00000000000E+00 0. -1.
          1   -1    0    0  501    0 -0.00000000000E+00 -0.00000000000E+00 -0.31380265386E+03  0.31380265386E+03  0.00000000000E+00 0. -1.
         25    2    1    2    0    0  0.17311438415E+02 -0.12230189545E+03 -0.19257990261E+02  0.17678588959E+03  0.12499976415E+03 0.  0.
          2    1    1    2  501    0  0.18513410977E+02  0.75985763261E+02 -0.20799892031E+03  0.22221641130E+03  0.00000000000E+00 0. -1.
          1    1    1    2  502    0 -0.35824849393E+02  0.46316132191E+02  0.12728628990E+04  0.12742089953E+04  0.00000000000E+00 0. -1.
         22    1    3    3    0    0 -0.44970932552E+02 -0.76100114181E+02 -0.39227616629E+02  0.96707900708E+02  0.00000000000E+00 0. -1.
         22    1    3    3    0    0  0.62282370967E+02 -0.46201781271E+02  0.19969626368E+02  0.80077988881E+02  0.00000000000E+00 0. -1.
</event>
<event>
 7    1  0.6173324E-006  0.8994247E+02  0.7818608E-02  0.1446631E+00
          2   -1    0    0  502    0  0.00000000000E+00  0.00000000000E+00  0.50977385051E+03  0.50977385051E+03  0.00000000000E+00 0. -1.
          1   -1    0    0  501    0 -0.00000000000E+00 -0.00000000000E+00 -0.21115807697E+03  0.21115807697E+03  0.00000000000E+00 0. -1.
         25    2    1    2    0    0  0.71291648250E+02 -0.11632839022E+02  0.97838687519E+02  0.17440325193E+03  0.12500505372E+03 0.  0.
          2    1    1    2  501    0 -0.91423495493E+02 -0.71467769021E+01 -0.16015361377E+03  0.18454948375E+03  0.00000000000E+00 0. -1.
          1    1    1    2  502    0  0.20131847243E+02  0.18779615925E+02  0.36093069979E+03  0.36197919180E+03  0.00000000000E+00 0. -1.
         22    1    3    3    0    0 -0.13390267022E+02  0.37664046710E+02  0.65968268322E+01  0.40514167766E+02  0.00000000000E+00 0.  1.
         22    1    3    3    0    0  0.84681915272E+02 -0.49296885733E+02  0.91241860686E+02  0.13388908417E+03  0.00000000000E+00 0.  1.
</event>
<event>
 7    1  0.6173324E-006  0.9445595E+02  0.7818608E-02  0.1363818E+00
          2   -1    0    0  502    0  0.00000000000E+00  0.00000000000E+00  0.15209758349E+04  0.15209758349E+04  0.00000000000E+00 0. -1.
          1   -1    0    0  501    0 -0.00000000000E+00 -0.00000000000E+00 -0.20438058276E+03  0.20438058276E+03  0.00000000000E+00 0. -1.
         25    2    1    2    0    0 -0.86983746847E+02  0.19618838022E+02  0.10171017975E+03  0.18417926222E+03  0.12500387571E+03 0.  0.
          2    1    1    2  501    0  0.91201226916E+02  0.30485856698E+02 -0.14847232278E+03  0.17689285424E+03  0.00000000000E+00 0. -1.
          1    1    1    2  502    0 -0.42174800687E+01 -0.50104694720E+02  0.13633573952E+04  0.13642843012E+04  0.00000000000E+00 0. -1.
         22    1    3    3    0    0 -0.61506992442E+01  0.40805608440E+02 -0.12083237753E+02  0.42999225760E+02  0.00000000000E+00 0. -1.
         22    1    3    3    0    0 -0.80833047603E+02 -0.21186770419E+02  0.11379341751E+03  0.14118003646E+03  0.00000000000E+00 0. -1.
</event>
<event>
 7    1  0.6173324E-006  0.4217709E+02  0.7818608E-02  0.1602738E+00
          2   -1    0    0  502    0  0.00000000000E+00  0.00000000000E+00  0.87500935764E+02  0.87500935764E+02  0.00000000000E+00 0. -1.
          1   -1    0    0  501    0 -0.00000000000E+00 -0.00000000000E+00 -0.13477859338E+04  0.13477859338E+04  0.00000000000E+00 0. -1.
         25    2    1    2    0    0  0.23952205110E+02 -0.48981666991E+02 -0.91360321872E+01  0.13667635051E+03  0.12499618343E+03 0.  0.
          2    1    1    2  501    0  0.37667120475E+01  0.20405493746E+02 -0.12580367149E+04  0.12582078319E+04  0.00000000000E+00 0. -1.
          1    1    1    2  502    0 -0.27718917157E+02  0.28576173245E+02  0.68877489923E+01  0.40402687186E+02  0.00000000000E+00 0. -1.
         22    1    3    3    0    0 -0.13111939778E+02  0.37641124315E+02  0.86646542633E+01  0.40790359620E+02  0.00000000000E+00 0. -1.
         22    1    3    3    0    0  0.37064144888E+02 -0.86622791306E+02 -0.17800686451E+02  0.95885990885E+02  0.00000000000E+00 0. -1.
</event>
<event>
 7    1  0.6173324E-006  0.9825914E+02  0.7818608E-02  0.1335951E+00
          2   -1    0    0  502    0  0.00000000000E+00  0.00000000000E+00  0.21248180346E+04  0.21248180346E+04  0.00000000000E+00 0. -1.
          1   -1    0    0  501    0 -0.00000000000E+00 -0.00000000000E+00 -0.18913667167E+03  0.18913667167E+03  0.00000000000E+00 0. -1.
         25    2    1    2    0    0 -0.66440473944E+02 -0.10873482625E+03  0.18081948953E+03  0.25408576561E+03  0.12500515779E+03 0.  0.
          2    1    1    2  501    0  0.83392055878E+02  0.49812222720E+02 -0.13648855525E+03  0.16752497793E+03  0.00000000000E+00 0. -1.
          1    1    1    2  502    0 -0.16951581934E+02  0.58922603528E+02  0.18913504287E+04  0.18923439628E+04  0.00000000000E+00 0. -1.
         22    1    3    3    0    0  0.20844219792E+02 -0.18660708333E+02  0.10241957366E+03  0.10617190119E+03  0.00000000000E+00 0. -1.
         22    1    3    3    0    0 -0.87284693736E+02 -0.90074117915E+02  0.78399915872E+02  0.14791386442E+03  0.00000000000E+00 0. -1.
</event>
<event>
 7    1  0.8657700E-006  0.1115165E+03  0.7818608E-02  0.1291572E+00
          2   -1    0    0  502    0  0.00000000000E+00  0.00000000000E+00  0.18347790070E+04  0.18347790070E+04  0.00000000000E+00 0. -1.
          1   -1    0    0  501    0 -0.00000000000E+00 -0.00000000000E+00 -0.11558804949E+04  0.11558804949E+04  0.00000000000E+00 0. -1.
         25    2    1    2    0    0 -0.75558927039E+02 -0.15180398694E+03 -0.43249065889E+03  0.48107448207E+03  0.12502353922E+03 0.  0.
          2    1    1    2  501    0  0.75335087502E+02  0.71173752789E+02 -0.69435228880E+03  0.70204428596E+03  0.00000000000E+00 0. -1.
          1    1    1    2  502    0  0.22383953697E+00  0.80630234151E+02  0.18057414599E+04  0.18075407339E+04  0.00000000000E+00 0. -1.
         22    1    3    3    0    0 -0.22716423855E+02 -0.12211746731E+03 -0.16345264519E+03  0.20529364080E+03  0.00000000000E+00 0. -1.
         22    1    3    3    0    0 -0.52842503184E+02 -0.29686519632E+02 -0.26903801370E+03  0.27578084126E+03  0.00000000000E+00 0. -1.
</event>
<event>
 7    1  0.6173324E-006  0.1103501E+03  0.7818608E-02  0.1342036E+00
          2   -1    0    0  502    0  0.00000000000E+00  0.00000000000E+00  0.24575713752E+03  0.24575713752E+03  0.00000000000E+00 0. -1.
          1   -1    0    0  501    0 -0.00000000000E+00 -0.00000000000E+00 -0.64939926604E+03  0.64939926604E+03  0.00000000000E+00 0. -1.
         25    2    1    2    0    0  0.17474479855E+02 -0.72629142935E+02 -0.11860338869E+03  0.18780794106E+03  0.12499883626E+03 0.  0.
          2    1    1    2  501    0 -0.60316386014E+02  0.10172360546E+03 -0.48581443265E+03  0.50000142130E+03  0.00000000000E+00 0. -1.
          1    1    1    2  502    0  0.42841906158E+02 -0.29094462521E+02  0.20077569282E+03  0.20734704121E+03  0.00000000000E+00 0. -1.
         22    1    3    3    0    0 -0.23724335681E+02 -0.91643106149E+02 -0.10283224804E+03  0.13977043408E+03  0.00000000000E+00 0. -1.
         22    1    3    3    0    0  0.41198815536E+02  0.19013963214E+02 -0.15771140657E+02  0.48037506974E+02  0.00000000000E+00 0. -1.
</event>
<event>
 7    1  0.6173324E-006  0.1271771E+03  0.7818608E-02  0.1275158E+00
          2   -1    0    0  502    0  0.00000000000E+00  0.00000000000E+00  0.74699898863E+03  0.74699898863E+03  0.00000000000E+00 0. -1.
          1   -1    0    0  501    0 -0.00000000000E+00 -0.00000000000E+00 -0.11974315933E+04  0.11974315933E+04  0.00000000000E+00 0. -1.
         25    2    1    2    0    0 -0.49732508156E+02 -0.15104464487E+03  0.16317498176E+03  0.25988405367E+03  0.12500335822E+03 0.  0.
          2    1    1    2  501    0  0.77371989122E+02  0.28876529791E+02 -0.11402382891E+04  0.11432251023E+04  0.00000000000E+00 0. -1.
          1    1    1    2  502    0 -0.27639480966E+02  0.12216811508E+03  0.52663070263E+03  0.54132142596E+03  0.00000000000E+00 0. -1.
         22    1    3    3    0    0 -0.16421531262E+02 -0.14987311920E+03  0.80877554608E+02  0.17109294955E+03  0.00000000000E+00 0. -1.
         22    1    3    3    0    0 -0.33310976893E+02 -0.11715256759E+01  0.82297427156E+02  0.88791104118E+02  0.00000000000E+00 0. -1.
</event>
<event>
 7    1  0.6173324E-006  0.2947799E+03  0.7818608E-02  0.1187395E+00
          2   -1    0    0  502    0  0.00000000000E+00  0.00000000000E+00  0.20765377845E+04  0.20765377845E+04  0.00000000000E+00 0. -1.
          1   -1    0    0  501    0 -0.00000000000E+00 -0.00000000000E+00 -0.17966366595E+04  0.17966366595E+04  0.00000000000E+00 0. -1.
         25    2    1    2    0    0  0.34747841037E+03  0.13130142998E+03 -0.67841667324E+03  0.78348919835E+03  0.12499932082E+03 0.  0.
          2    1    1    2  501    0 -0.87895048330E+02  0.60956192178E+01 -0.10531797456E+04  0.10568586815E+04  0.00000000000E+00 0. -1.
          1    1    1    2  502    0 -0.25958336204E+03 -0.13739704920E+03  0.20114975438E+04  0.20328265641E+04  0.00000000000E+00 0. -1.
         22    1    3    3    0    0  0.17081091052E+03  0.94852631647E+01 -0.37143892016E+03  0.40894157136E+03  0.00000000000E+00 0.  1.
         22    1    3    3    0    0  0.17666749985E+03  0.12181616681E+03 -0.30697775308E+03  0.37454762699E+03  0.00000000000E+00 0.  1.
</event>
<event>
 7    1  0.6173324E-006  0.1772641E+03  0.7818608E-02  0.1228371E+00
          2   -1    0    0  502    0  0.00000000000E+00  0.00000000000E+00  0.39034981291E+04  0.39034981291E+04  0.00000000000E+00 0. -1.
          1   -1    0    0  501    0 -0.00000000000E+00 -0.00000000000E+00 -0.45272626712E+03  0.45272626712E+03  0.00000000000E+00 0. -1.
         25    2    1    2    0    0 -0.22272134009E+03 -0.93214564885E+02  0.75079340717E+03  0.79850512413E+03  0.12500377023E+03 0.  0.
          2    1    1    2  501    0  0.92496623609E+02 -0.19051871594E+02 -0.42127665625E+03  0.43173211635E+03  0.00000000000E+00 0. -1.
          1    1    1    2  502    0  0.13022471648E+03  0.11226643648E+03  0.31212551110E+04  0.31259871557E+04  0.00000000000E+00 0. -1.
         22    1    3    3    0    0 -0.12639249405E+02  0.11232380913E+02  0.65088051301E+01  0.18118541628E+02  0.00000000000E+00 0.  1.
         22    1    3    3    0    0 -0.21008209069E+03 -0.10444694580E+03  0.74428460204E+03  0.78038658250E+03  0.00000000000E+00 0.  1.
</event>
<event>
 7    1  0.6173324E-006  0.8675948E+02  0.7818608E-02  0.1415057E+00
          2   -1    0    0  502    0  0.00000000000E+00  0.00000000000E+00  0.43452819651E+03  0.43452819651E+03  0.00000000000E+00 0. -1.
          1   -1    0    0  501    0 -0.00000000000E+00 -0.00000000000E+00 -0.92083605705E+03  0.92083605705E+03  0.00000000000E+00 0. -1.
         25    2    1    2    0    0  0.11167238818E+03 -0.21707247362E+02 -0.16725103820E+03  0.23778176551E+03  0.12500132542E+03 0.  0.
          2    1    1    2  501    0 -0.33325529592E+02 -0.14264386110E+02 -0.71320026416E+03  0.71412091443E+03  0.00000000000E+00 0. -1.
          1    1    1    2  502    0 -0.78346858591E+02  0.35971633473E+02  0.39414344181E+03  0.40346157362E+03  0.00000000000E+00 0. -1.
         22    1    3    3    0    0  0.91627680703E+02 -0.64647753779E+02 -0.15014719908E+03  0.18740102810E+03  0.00000000000E+00 0. -1.
         22    1    3    3    0    0  0.20044707479E+02  0.42940506416E+02 -0.17103839116E+02  0.50380737407E+02  0.00000000000E+00 0. -1.
</event>
<event>
 7    1  0.6173324E-006  0.5067974E+02  0.7818608E-02  0.1466454E+00
          2   -1    0    0  502    0  0.00000000000E+00  0.00000000000E+00  0.12020893182E+04  0.12020893182E+04  0.00000000000E+00 0. -1.
          1   -1    0    0  501    0 -0.00000000000E+00 -0.00000000000E+00 -0.16991190358E+03  0.16991190358E+03  0.00000000000E+00 0. -1.
         25    2    1    2    0    0  0.32496283922E+01  0.94531731760E+01  0.95469977653E+02  0.15760505544E+03  0.12499965719E+03 0.  0.
          2    1    1    2  501    0 -0.18723877815E+02 -0.48797240998E+02 -0.13349342183E+03  0.14336055246E+03  0.00000000000E+00 0. -1.
          1    1    1    2  502    0  0.15474249423E+02  0.39344067822E+02  0.10702008588E+04  0.10710356139E+04  0.00000000000E+00 0. -1.
         22    1    3    3    0    0 -0.43103821123E+01  0.45506650907E+02  0.10912988202E+03  0.11831638019E+03  0.00000000000E+00 0.  1.
         22    1    3    3    0    0  0.75600105045E+01 -0.36053477731E+02 -0.13659904370E+02  0.39288675248E+02  0.00000000000E+00 0.  1.
</event>
<event>
 7    1  0.6173324E-006  0.7726344E+02  0.7818608E-02  0.1350380E+00
          2   -1    0    0  502    0  0.00000000000E+00  0.00000000000E+00  0.12363544524E+03  0.12363544524E+03  0.00000000000E+00 0. -1.
          1   -1    0    0  501    0 -0.00000000000E+00 -0.00000000000E+00 -0.12786775848E+04  0.12786775848E+04  0.00000000000E+00 0. -1.
         25    2    1    2    0    0 -0.95826972274E+02  0.10205012587E+03 -0.39892215292E+03  0.44086397705E+03  0.12500050144E+03 0.  0.
          2    1    1    2  501    0  0.33138704601E+02 -0.60354223941E+02 -0.84338719830E+03  0.84619310582E+03  0.00000000000E+00 0. -1.
          1    1    1    2  502    0  0.62688267673E+02 -0.41695901934E+02  0.87267211619E+02  0.11525594720E+03  0.00000000000E+00 0. -1.
         22    1    3    3    0    0 -0.18652500167E+02 -0.18602924999E+02 -0.16113889983E+03  0.16327807452E+03  0.00000000000E+00 0.  1.
         22    1    3    3    0    0 -0.77174472107E+02  0.12065305087E+03 -0.23778325309E+03  0.27758590253E+03  0.00000000000E+00 0.  1.
</event>
<event>
 7    1  0.6173324E-006  0.2785293E+02  0.7818608E-02  0.1633480E+00
          2   -1    0    0  502    0  0.00000000000E+00  0.00000000000E+00  0.51980709339E+03  0.51980709339E+03  0.00000000000E+00 0. -1.
          1   -1    0    0  501    0 -0.00000000000E+00 -0.00000000000E+00 -0.18844391004E+03  0.18844391004E+03  0.00000000000E+00 0. -1.
         25    2    1    2    0    0 -0.48796028218E+02  0.21788355324E+02  0.31906141337E+03  0.34681606943E+03  0.12500166287E+03 0.  0.
          2    1    1    2  501    0  0.26684965528E+02 -0.76842884085E+01 -0.17253063882E+03  0.17475112876E+03  0.00000000000E+00 0. -1.
          1    1    1    2  502    0  0.22111062690E+02 -0.14104066916E+02  0.18483240880E+03  0.18668380524E+03  0.00000000000E+00 0. -1.
         22    1    3    3    0    0 -0.15262579632E+02  0.72273094303E+02  0.20024709468E+03  0.21343674807E+03  0.00000000000E+00 0. -1.
         22    1    3    3    0    0 -0.33533448586E+02 -0.50484738979E+02  0.11881431868E+03  0.13337932136E+03  0.00000000000E+00 0. -1.
</event>
<event>
 7    1  0.6173324E-006  0.4046811E+02  0.7818608E-02  0.1520269E+00
          2   -1    0    0  502    0  0.00000000000E+00  0.00000000000E+00  0.68108492938E+03  0.68108492938E+03  0.00000000000E+00 0. -1.
          1   -1    0    0  501    0 -0.00000000000E+00 -0.00000000000E+00 -0.30904627367E+03  0.30904627367E+03  0.00000000000E+00 0. -1.
         25    2    1    2    0    0  0.62981272955E+02 -0.37183667383E+02  0.31020527920E+03  0.34234644391E+03  0.12499802620E+03 0.  0.
          2    1    1    2  501    0 -0.34706683399E+02  0.11143633582E+02 -0.29079338076E+03  0.29306914668E+03  0.00000000000E+00 0. -1.
          1    1    1    2  502    0 -0.28274589556E+02  0.26040033801E+02  0.35262675727E+03  0.35471561246E+03  0.00000000000E+00 0. -1.
         22    1    3    3    0    0  0.51075589599E+01 -0.58011080758E+02  0.24846001649E+03  0.25519355878E+03  0.00000000000E+00 0.  1.
         22    1    3    3    0    0  0.57873713995E+02  0.20827413376E+02  0.61745262704E+02  0.87152885127E+02  0.00000000000E+00 0.  1.
</event>
<event>
 7    1  0.6173324E-006  0.8899752E+02  0.7818608E-02  0.1434145E+00
          2   -1    0    0  502    0  0.00000000000E+00  0.00000000000E+00  0.15877626863E+04  0.15877626863E+04  0.00000000000E+00 0. -1.
          1   -1    0    0  501    0 -0.00000000000E+00 -0.00000000000E+00 -0.87739392875E+02  0.87739392875E+02  0.00000000000E+00 0. -1.
         25    2    1    2    0    0 -0.90478787458E+02  0.54360948009E+02  0.62250939398E+02  0.17504365151E+03  0.12499430719E+03 0.  0.
          2    1    1    2  501    0  0.77689408791E+02 -0.26624401761E+02  0.22902023173E+02  0.85258463937E+02  0.00000000000E+00 0. -1.
          1    1    1    2  502    0  0.12789378667E+02 -0.27736546248E+02  0.14148703308E+04  0.14151999637E+04  0.00000000000E+00 0. -1.
         22    1    3    3    0    0  0.14560420283E+02 -0.45632326327E+01  0.51974555531E+02  0.54168102731E+02  0.00000000000E+00 0.  1.
         22    1    3    3    0    0 -0.10503920774E+03  0.58924180641E+02  0.10276383868E+02  0.12087554878E+03  0.00000000000E+00 0.  1.
</event>
<event>
 7    1  0.6173324E-006  0.5257255E+02  0.7818608E-02  0.1490909E+00
          2   -1    0    0  502    0  0.00000000000E+00  0.00000000000E+00  0.14674827820E+03  0.14674827820E+03  0.00000000000E+00 0. -1.
          1   -1    0    0  501    0 -0.00000000000E+00 -0.00000000000E+00 -0.66978019353E+03  0.66978019353E+03  0.00000000000E+00 0. -1.
         25    2    1    2    0    0  0.41543577797E+02 -0.20381948933E+02 -0.22730634829E+03  0.26351309972E+03  0.12501873881E+03 0.  0.
          2    1    1    2  501    0 -0.22774629954E+02  0.49065971063E+02 -0.42032250111E+03  0.42378904920E+03  0.00000000000E+00 0. -1.
          1    1    1    2  502    0 -0.18768947843E+02 -0.28684022130E+02  0.12459693406E+03  0.12922632281E+03  0.00000000000E+00 0. -1.
         22    1    3    3    0    0  0.54886284149E+02  0.37045437805E+02 -0.74218342391E+02  0.99464722375E+02  0.00000000000E+00 0. -1.
         22    1    3    3    0    0 -0.13342706353E+02 -0.57427386738E+02 -0.15308800590E+03  0.16404837735E+03  0.00000000000E+00 0. -1.
</event>
<event>
 7    1  0.6173324E-006  0.1176743E+03  0.7818608E-02  0.1339354E+00
          2   -1    0    0  502    0  0.00000000000E+00  0.00000000000E+00  0.14396454288E+04  0.14396454288E+04  0.00000000000E+00 0. -1.
          1   -1    0    0  501    0 -0.00000000000E+00 -0.00000000000E+00 -0.50372295825E+03  0.50372295825E+03  0.00000000000E+00 0. -1.
         25    2    1    2    0    0 -0.90463717071E+01 -0.14698919509E+03 -0.11961906869E+03  0.22720330735E+03  0.12499984384E+03 0.  0.
          2    1    1    2  501    0 -0.32788429641E+02  0.37355439400E+02 -0.32594039254E+03  0.32970843098E+03  0.00000000000E+00 0. -1.
          1    1    1    2  502    0  0.41834801348E+02  0.10963375569E+03  0.13814819317E+04  0.13864566487E+04  0.00000000000E+00 0. -1.
         22    1    3    3    0    0 -0.60952248790E+02 -0.11026834093E+03 -0.58144700287E+02  0.13876271047E+03  0.00000000000E+00 0.  1.
         22    1    3    3    0    0  0.51905877083E+02 -0.36720854155E+02 -0.61474368405E+02  0.88440596880E+02  0.00000000000E+00 0.  1.
</event>
<event>
 7    1  0.6173324E-006  0.5168442E+02  0.7818608E-02  0.1473304E+00
          2   -1    0    0  502    0  0.00000000000E+00  0.00000000000E+00  0.19470826072E+03  0.19470826072E+03  0.00000000000E+00 0. -1.
          1   -1    0    0  501    0 -0.00000000000E+00 -0.00000000000E+00 -0.26861155937E+03  0.26861155937E+03  0.00000000000E+00 0. -1.
         25    2    1    2    0    0  0.26011351891E+02  0.61153835853E+02 -0.19516045455E+03  0.24109964039E+03  0.12500020604E+03 0.  0.
          2    1    1    2  501    0  0.10720818258E+02 -0.46707544424E+02 -0.36093853362E+02  0.59994140553E+02  0.00000000000E+00 0. -1.
          1    1    1    2  502    0 -0.36732170149E+02 -0.14446291429E+02  0.15735100926E+03  0.16222603914E+03  0.00000000000E+00 0. -1.
         22    1    3    3    0    0 -0.34231153318E+02  0.47164246354E+01 -0.64874265959E+01  0.35158259665E+02  0.00000000000E+00 0.  1.
         22    1    3    3    0    0  0.60242505208E+02  0.56437411217E+02 -0.18867302796E+03  0.20594138073E+03  0.00000000000E+00 0.  1.
</event>
<event>
 7    1  0.6173324E-006  0.1959361E+03  0.7818608E-02  0.1308823E+00
          2   -1    0    0  502    0  0.00000000000E+00  0.00000000000E+00  0.18859791087E+04  0.18859791087E+04  0.00000000000E+00 0. -1.
          1   -1    0    0  501    0 -0.00000000000E+00 -0.00000000000E+00 -0.56017871713E+02  0.56017871713E+02  0.00000000000E+00 0. -1.
         25    2    1    2    0    0  0.11373638916E+03  0.19655187954E+03  0.11698813933E+04  0.11982548182E+04  0.12499410956E+03 0.  0.
          2    1    1    2  501    0 -0.84685428882E+02 -0.17031396601E+03  0.17937388446E+03  0.26144494508E+03  0.00000000000E+00 0. -1.
          1    1    1    2  502    0 -0.29050960283E+02 -0.26237913528E+02  0.48070595923E+03  0.48229721712E+03  0.00000000000E+00 0. -1.
         22    1    3    3    0    0  0.66729606993E+01 -0.64100237858E+01  0.41289005439E+01  0.10132355557E+02  0.00000000000E+00 0.  1.
         22    1    3    3    0    0  0.10706342846E+03  0.20296190332E+03  0.11657524928E+04  0.11881224627E+04  0.00000000000E+00 0.  1.
</event>
<event>
 7    1  0.6173324E-006  0.1756207E+03  0.7818608E-02  0.1213374E+00
          2   -1    0    0  502    0  0.00000000000E+00  0.00000000000E+00  0.19824758764E+04  0.19824758764E+04  0.00000000000E+00 0. -1.
          1   -1    0    0  501    0 -0.00000000000E+00 -0.00000000000E+00 -0.81200528877E+02  0.81200528877E+02  0.00000000000E+00 0. -1.
         25    2    1    2    0    0  0.50467129802E+02  0.23825009879E+03  0.11863032623E+04  0.12174770289E+04  0.12499938015E+03 0.  0.
          2    1    1    2  501    0  0.19559998348E+02 -0.10982307285E+03 -0.48578338778E+01  0.11165706165E+03  0.00000000000E+00 0. -1.
          1    1    1    2  502    0 -0.70027128150E+02 -0.12842702594E+03  0.71982991913E+03  0.73454231474E+03  0.00000000000E+00 0. -1.
         22    1    3    3    0    0  0.34838305305E+02  0.30273987518E+02  0.86204521117E+02  0.97782622678E+02  0.00000000000E+00 0. -1.
         22    1    3    3    0    0  0.15628824497E+02  0.20797611127E+03  0.11000987411E+04  0.11196944062E+04  0.00000000000E+00 0. -1.
</event>
<event>
 7    1  0.6173324E-006  0.1333303E+03  0.7818608E-02  0.1240766E+00
          2   -1    0    0  502    0  0.00000000000E+00  0.00000000000E+00  0.67295075708E+02  0.67295075708E+02  0.00000000000E+00 0. -1.
          1   -1    0    0  501    0 -0.00000000000E+00 -0.00000000000E+00 -0.25886491473E+04  0.25886491473E+04  0.00000000000E+00 0. -1.
         25    2    1    2    0    0 -0.11477113339E+03 -0.12892726019E+03 -0.35996294509E+03  0.41832139262E+03  0.12499925681E+03 0.  0.
          2    1    1    2  501    0  0.11057266235E+03 -0.14001051371E+01 -0.20820540235E+04  0.20849885445E+04  0.00000000000E+00 0. -1.
          1    1    1    2  502    0  0.41984710399E+01  0.13032736532E+03 -0.79337102984E+02  0.15263428586E+03  0.00000000000E+00 0. -1.
         22    1    3    3    0    0 -0.63637389827E+01 -0.44229396783E+01 -0.15476594998E+03  0.15495986203E+03  0.00000000000E+00 0.  1.
         22    1    3    3    0    0 -0.10840739441E+03 -0.12450432051E+03 -0.20519699511E+03  0.26336153058E+03  0.00000000000E+00 0.  1.
</event>
<event>
 7    1  0.6173324E-006  0.5614250E+02  0.7818608E-02  0.1468678E+00
          2   -1    0    0  502    0  0.00000000000E+00  0.00000000000E+00  0.37372077303E+03  0.37372077303E+03  0.00000000000E+00 0. -1.
          1   -1    0    0  501    0 -0.00000000000E+00 -0.00000000000E+00 -0.24655225730E+04  0.24655225730E+04  0.00000000000E+00 0. -1.
         25    2    1    2    0    0  0.48315386361E+02 -0.70705914257E+02 -0.14628751384E+03  0.21061616227E+03  0.12500171293E+03 0.  0.
          2    1    1    2  501    0 -0.14724230862E+02  0.53903637087E+02 -0.22856956972E+04  0.22863786268E+04  0.00000000000E+00 0. -1.
          1    1    1    2  502    0 -0.33591155499E+02  0.16802277170E+02  0.34018141109E+03  0.34224855690E+03  0.00000000000E+00 0. -1.
         22    1    3    3    0    0  0.77198808207E+02 -0.81281532153E+02 -0.13977745279E+03  0.17917611383E+03  0.00000000000E+00 0. -1.
         22    1    3    3    0    0 -0.28883421846E+02  0.10575617896E+02 -0.65100610521E+01  0.31440048446E+02  0.00000000000E+00 0. -1.
</event>
<event>
 7    1  0.6173324E-006  0.6995400E+02  0.7818608E-02  0.1368253E+00
          2   -1    0    0  502    0  0.00000000000E+00  0.00000000000E+00  0.16904216245E+04  0.16904216245E+04  0.00000000000E+00 0. -1.
          1   -1    0    0  501    0 -0.00000000000E+00 -0.00000000000E+00 -0.35752730654E+02  0.35752730654E+02  0.00000000000E+00 0. -1.
         25    2    1    2    0    0 -0.21474642574E+02  0.29417094899E+02  0.49494080219E+03  0.51177905089E+03  0.12499949404E+03 0.  0.
          2    1    1    2  501    0 -0.56053353560E+02 -0.33754799273E+02  0.15119965617E+02  0.67156371846E+02  0.00000000000E+00 0. -1.
          1    1    1    2  502    0  0.77527996134E+02  0.43377043747E+01  0.11446081261E+04  0.11472389325E+04  0.00000000000E+00 0. -1.
         22    1    3    3    0    0  0.26330450637E+02  0.47243719015E+02  0.10119872477E+03  0.11474512413E+03  0.00000000000E+00 0.  1.
         22    1    3    3    0    0 -0.47805093211E+02 -0.17826624116E+02  0.39374207742E+03  0.39703392676E+03  0.00000000000E+00 0.  1.
</event>
<event>
 7    1  0.6173324E-006  0.1128414E+03  0.7818608E-02  0.1402999E+00
          2   -1    0    0  502    0  0.00000000000E+00  0.00000000000E+00  0.13101862876E+04  0.13101862876E+04  0.00000000000E+00 0. -1.
          1   -1    0    0  501    0 -0.00000000000E+00 -0.00000000000E+00 -0.90700772535E+02  0.90700772535E+02  0.00000000000E+00 0. -1.
         25    2    1    2    0    0 -0.36705111393E+02 -0.82029774258E+02  0.22408312219E+03  0.27187149185E+03  0.12499885345E+03 0.  0.
          2    1    1    2  501    0 -0.26569909749E+02 -0.15229366835E+02 -0.59941777566E+02  0.67312037676E+02  0.00000000000E+00 0. -1.
          1    1    1    2  502    0  0.63275021141E+02  0.97259141093E+02  0.10553441705E+04  0.10617035306E+04  0.00000000000E+00 0. -1.
         22    1    3    3    0    0 -0.39836585254E+02 -0.30224554036E+02  0.21301381999E+03  0.21880439826E+03  0.00000000000E+00 0. -1.
         22    1    3    3    0    0  0.31314738612E+01 -0.51805220222E+02  0.11069302202E+02  0.53067093590E+02  0.00000000000E+00 0. -1.
</event>
<event>
 7    1  0.6173324E-006  0.7657478E+02  0.7818608E-02  0.1445001E+00
          2   -1    0    0  502    0  0.00000000000E+00  0.00000000000E+00  0.38671722246E+03  0.38671722246E+03  0.00000000000E+00 0. -1.
          1   -1    0    0  501    0 -0.00000000000E+00 -0.00000000000E+00 -0.70031055302E+03  0.70031055302E+03  0.00000000000E+00 0. -1.
         25    2    1    2    0    0  0.21764432017E+02  0.10573652022E+03 -0.19077859685E+03  0.25233882172E+03  0.12499802287E+03 0.  0.
          2    1    1    2  501    0 -0.64637891470E+00 -0.32724090473E+02 -0.47412374842E+03  0.47525215698E+03  0.00000000000E+00 0. -1.
          1    1    1    2  502    0 -0.21118053102E+02 -0.73012429749E+02  0.35130901471E+03  0.35943679678E+03  0.00000000000E+00 0. -1.
         22    1    3    3    0    0  0.13058783982E+00 -0.20678188334E+02  0.20220045091E+01  0.20777223784E+02  0.00000000000E+00 0. -1.
         22    1    3    3    0    0  0.21633844177E+02  0.12641470856E+03 -0.19280060136E+03  0.23156159793E+03  0.00000000000E+00 0. -1.
</event>
<event>
 7    1  0.6173324E-006  0.7099269E+02  0.7818608E-02  0.1397176E+00
          2   -1    0    0  502    0  0.00000000000E+00  0.00000000000E+00  0.78749607425E+03  0.78749607425E+03  0.00000000000E+00 0. -1.
          1   -1    0    0  501    0 -0.00000000000E+00 -0.00000000000E+00 -0.52764726086E+03  0.52764726086E+03  0.00000000000E+00 0. -1.
         25    2    1    2    0    0  0.99935464556E+02  0.12441510058E+02 -0.15160356413E+03  0.22079516288E+03  0.12499990018E+03 0.  0.
          2    1    1    2  501    0 -0.33900659464E+02 -0.38067727365E+02 -0.33786582247E+03  0.34168950902E+03  0.00000000000E+00 0. -1.
          1    1    1    2  502    0 -0.66034805092E+02  0.25626217306E+02  0.74931819998E+03  0.75265866322E+03  0.00000000000E+00 0. -1.
         22    1    3    3    0    0  0.12866406444E+03  0.17179655788E+02 -0.11077496153E+03  0.17064780735E+03  0.00000000000E+00 0. -1.
         22    1    3    3    0    0 -0.28728599884E+02 -0.47381457296E+01 -0.40828602601E+02  0.50147355529E+02  0.00000000000E+00 0. -1.
</event>
<event>
 7    1  0.6173324E-006  0.1015433E+03  0.7818608E-02  0.1303230E+00
          2   -1    0    0  502    0  0.00000000000E+00  0.00000000000E+00  0.41205789451E+03  0.41205789451E+03  0.00000000000E+00 0. -1.
          1   -1    0    0  501    0 -0.00000000000E+00 -0.00000000000E+00 -0.35846766363E+03  0.35846766363E+03  0.00000000000E+00 0. -1.
         25    2    1    2    0    0 -0.83147129697E+01 -0.55062925509E+02  0.52666004613E+02  0.14662664374E+03  0.12499841757E+03 0.  0.
          2    1    1    2  501    0 -0.76367922812E+02 -0.22067011168E+02 -0.29555703642E+03  0.30606040972E+03  0.00000000000E+00 0. -1.
          1    1    1    2  502    0  0.84682635782E+02  0.77129936677E+02  0.29648126269E+03  0.31783850469E+03  0.00000000000E+00 0. -1.
         22    1    3    3    0    0 -0.13476036225E+01 -0.77339421274E+02  0.79595813603E+02  0.11098961961E+03  0.00000000000E+00 0. -1.
         22    1    3    3    0    0 -0.69671093473E+01  0.22276495765E+02 -0.26929808989E+02  0.35637024124E+02  0.00000000000E+00 0. -1.
</event>
<event>
 7    1  0.6173324E-006  0.8328163E+02  0.7818608E-02  0.1384278E+00
          2   -1    0    0  502    0  0.00000000000E+00  0.00000000000E+00  0.80607845552E+03  0.80607845552E+03  0.00000000000E+00 0. -1.
          1   -1    0    0  501    0 -0.00000000000E+00 -0.00000000000E+00 -0.79175501963E+02  0.79175501963E+02  0.00000000000E+00 0. -1.
         25    2    1    2    0    0  0.15231782757E+02 -0.10751575510E+03  0.25813533248E+03  0.30668130351E+03  0.12501170846E+03 0.  0.
          2    1    1    2  501    0 -0.43774701543E+02  0.68685315554E+02 -0.22854203953E+02  0.84594395241E+02  0.00000000000E+00 0. -1.
          1    1    1    2  502    0  0.28542918786E+02  0.38830439545E+02  0.49162182503E+03  0.49397825873E+03  0.00000000000E+00 0. -1.
         22    1    3    3    0    0  0.26206437811E+02 -0.13139212089E+02 -0.23490805975E+01  0.29409768050E+02  0.00000000000E+00 0. -1.
         22    1    3    3    0    0 -0.10974655054E+02 -0.94376543009E+02  0.26048441307E+03  0.27727153546E+03  0.00000000000E+00 0. -1.
</event>
<event>
 7    1  0.6173324E-006  0.7356425E+02  0.7818608E-02  0.1451279E+00
          2   -1    0    0  502    0  0.00000000000E+00  0.00000000000E+00  0.14993589054E+04  0.14993589054E+04  0.00000000000E+00 0. -1.
          1   -1    0    0  501    0 -0.00000000000E+00 -0.00000000000E+00 -0.53769838902E+03  0.53769838902E+03  0.00000000000E+00 0. -1.
         25    2    1    2    0    0  0.16291341051E+01 -0.58366268272E+02  0.97853882234E+03  0.98821590105E+03  0.12499265942E+03 0.  0.
          2    1    1    2  501    0  0.22040289527E+02 -0.23920039790E+02 -0.52880461807E+03  0.52980398900E+03  0.00000000000E+00 0. -1.
          1    1    1    2  502    0 -0.23669423633E+02  0.82286308062E+02  0.51192631210E+03  0.51903740437E+03  0.00000000000E+00 0. -1.
         22    1    3    3    0    0  0.61616160906E+02 -0.15143521436E+02  0.40743229147E+03  0.41234324253E+03  0.00000000000E+00 0.  1.
         22    1    3    3    0    0 -0.59987026801E+02 -0.43222746836E+02  0.57110653087E+03  0.57587265852E+03  0.00000000000E+00 0.  1.
</event>
<event>
 7    1  0.6173324E-006  0.8501690E+02  0.7818608E-02  0.1407442E+00
          2   -1    0    0  502    0  0.00000000000E+00  0.00000000000E+00  0.51899140403E+03  0.51899140403E+03  0.00000000000E+00 0. -1.
          1   -1    0    0  501    0 -0.00000000000E+00 -0.00000000000E+00 -0.91984374614E+03  0.91984374614E+03  0.00000000000E+00 0. -1.
         25    2    1    2    0    0 -0.37805929407E+02  0.82275165936E+02  0.52839511896E+02  0.16313056647E+03  0.12498430491E+03 0.  0.
          2    1    1    2  501    0  0.65427082581E+02 -0.54384400861E+02 -0.86166116552E+03  0.86585121722E+03  0.00000000000E+00 0. -1.
          1    1    1    2  502    0 -0.27621153175E+02 -0.27890765075E+02  0.40796931152E+03  0.40985336648E+03  0.00000000000E+00 0. -1.
         22    1    3    3    0    0 -0.83769900489E+02  0.44620347719E+02  0.33123779859E+02  0.10052639679E+03  0.00000000000E+00 0.  1.
         22    1    3    3    0    0  0.45963971083E+02  0.37654818217E+02  0.19715732036E+02  0.62604169688E+02  0.00000000000E+00 0.  1.
</event>
<event>
 7    1  0.6173324E-006  0.4871283E+02  0.7818608E-02  0.1490713E+00
          2   -1    0    0  502    0  0.00000000000E+00  0.00000000000E+00  0.17820811636E+04  0.17820811636E+04  0.00000000000E+00 0. -1.
          1   -1    0    0  501    0 -0.00000000000E+00 -0.00000000000E+00 -0.10487903504E+04  0.10487903504E+04  0.00000000000E+00 0. -1.
         25    2    1    2    0    0  0.57607866135E+02 -0.38363236127E+02  0.59853526369E+02  0.15491218435E+03  0.12499974446E+03 0.  0.
          2    1    1    2  501    0 -0.48592510689E+02  0.24316336604E+01 -0.10004649209E+04  0.10016472447E+04  0.00000000000E+00 0. -1.
          1    1    1    2  502    0 -0.90153554459E+01  0.35931602466E+02  0.16739022077E+04  0.16743120849E+04  0.00000000000E+00 0. -1.
         22    1    3    3    0    0  0.94781173245E+02 -0.44256492227E+02  0.37420476728E+02  0.11109635451E+03  0.00000000000E+00 0.  1.
         22    1    3    3    0    0 -0.37173307110E+02  0.58932561002E+01  0.22433049640E+02  0.43815829846E+02  0.00000000000E+00 0.  1.
</event>
<event>
 7    1  0.6173324E-006  0.4630486E+02  0.7818608E-02  0.1474010E+00
          2   -1    0    0  502    0  0.00000000000E+00  0.00000000000E+00  0.43188878752E+03  0.43188878752E+03  0.00000000000E+00 0. -1.
          1   -1    0    0  501    0 -0.00000000000E+00 -0.00000000000E+00 -0.12482127544E+04  0.12482127544E+04  0.00000000000E+00 0. -1.
         25    2    1    2    0    0  0.97859204554E+01 -0.65593295744E+02 -0.24349910680E+03  0.28162565639E+03  0.12499180228E+03 0.  0.
          2    1    1    2  501    0  0.24956485842E+02  0.38863283337E+02 -0.98394349995E+03  0.98502689916E+03  0.00000000000E+00 0. -1.
          1    1    1    2  502    0 -0.34742406297E+02  0.26730012407E+02  0.41111863982E+03  0.41344898642E+03  0.00000000000E+00 0. -1.
         22    1    3    3    0    0 -0.39437477795E+02 -0.11748942173E+02 -0.18541896062E+02  0.45134844705E+02  0.00000000000E+00 0. -1.
         22    1    3    3    0    0  0.49223398250E+02 -0.53844353571E+02 -0.22495721074E+03  0.23649081168E+03  0.00000000000E+00 0. -1.
</event>
<event>
 7    1  0.6173324E-006  0.2465814E+02  0.7818608E-02  0.1679677E+00
          2   -1    0    0  502    0  0.00000000000E+00  0.00000000000E+00  0.10531149807E+03  0.10531149807E+03  0.00000000000E+00 0. -1.
          1   -1    0    0  501    0 -0.00000000000E+00 -0.00000000000E+00 -0.40531208828E+03  0.40531208828E+03  0.00000000000E+00 0. -1.
         25    2    1    2    0    0 -0.28394114192E+02 -0.12760263807E+02 -0.25502201973E+03  0.28571035180E+03  0.12500049809E+03 0.  0.
          2    1    1    2  501    0  0.55832205433E+01  0.22177890198E+02 -0.13225346940E+03  0.13421628565E+03  0.00000000000E+00 0. -1.
          1    1    1    2  502    0  0.22810893649E+02 -0.94176263903E+01  0.87274898928E+02  0.90696948895E+02  0.00000000000E+00 0. -1.
         22    1    3    3    0    0 -0.32997187460E+02  0.75660936226E+01 -0.26165755433E+03  0.26383846552E+03  0.00000000000E+00 0. -1.
         22    1    3    3    0    0  0.46030732683E+01 -0.20326357430E+02  0.66355345960E+01  0.21871886276E+02  0.00000000000E+00 0. -1.
</event>
<event>
 7    1  0.6173324E-006  0.5169302E+02  0.7818608E-02  0.1497870E+00
          2   -1    0    0  502    0  0.00000000000E+00  0.00000000000E+00  0.12592297738E+04  0.12592297738E+04  0.00000000000E+00 0. -1.
          1   -1    0    0  501    0 -0.00000000000E+00 -0.00000000000E+00 -0.24774625906E+02  0.24774625906E+02  0.00000000000E+00 0. -1.
         25    2    1    2    0    0 -0.66629142163E+00 -0.71339452410E+02  0.10780959586E+04  0.10876606904E+04  0.12500048032E+03 0.  0.
          2    1    1    2  501    0 -0.21448416753E+02  0.46547911229E+02  0.18421655805E+02  0.54461913514E+02  0.00000000000E+00 0. -1.
          1    1    1    2  502    0  0.22114708175E+02  0.24791541181E+02  0.13793753352E+03  0.14188179582E+03  0.00000000000E+00 0. -1.
         22    1    3    3    0    0  0.38594104688E+02 -0.68512542078E+02  0.36006291182E+03  0.36854955407E+03  0.00000000000E+00 0.  1.
         22    1    3    3    0    0 -0.39260396110E+02 -0.28269103324E+01  0.71803304677E+03  0.71911113632E+03  0.00000000000E+00 0.  1.
</event>
<event>
 7    1  0.6173324E-006  0.9802239E+02  0.7818608E-02  0.1304835E+00
          2   -1    0    0  502    0  0.00000000000E+00  0.00000000000E+00  0.25743327125E+04  0.25743327125E+04  0.00000000000E+00 0. -1.
          1   -1    0    0  501    0 -0.00000000000E+00 -0.00000000000E+00 -0.11539889835E+04  0.11539889835E+04  0.00000000000E+00 0. -1.
         25    2    1    2    0    0  0.16307176358E+03 -0.41085418793E+02  0.84145656592E+03  0.86715314048E+03  0.12500002001E+03 0.  0.
          2    1    1    2  501    0 -0.97627617424E+02 -0.68906758359E+01 -0.11380822304E+04  0.11422827129E+04  0.00000000000E+00 0. -1.
          1    1    1    2  502    0 -0.65444146153E+02  0.47976094629E+02  0.17169693934E+04  0.17188858426E+04  0.00000000000E+00 0. -1.
         22    1    3    3    0    0  0.14275859158E+03 -0.31085098380E+02  0.82804906319E+03  0.84083978847E+03  0.00000000000E+00 0.  1.
         22    1    3    3    0    0  0.20313171996E+02 -0.10000320413E+02  0.13407502724E+02  0.26313352014E+02  0.00000000000E+00 0.  1.
</event>
<event>
 7    1  0.6173324E-006  0.1146415E+03  0.7818608E-02  0.1360536E+00
          2   -1    0    0  502    0  0.00000000000E+00  0.00000000000E+00  0.60638440790E+03  0.60638440790E+03  0.00000000000E+00 0. -1.
          1   -1    0    0  501    0 -0.00000000000E+00 -0.00000000000E+00 -0.13989046125E+04  0.13989046125E+04  0.00000000000E+00 0. -1.
         25    2    1    2    0    0 -0.12112393290E+03  0.75086513398E+02 -0.61363212367E+02  0.19924677757E+03  0.12499937170E+03 0.  0.
          2    1    1    2  501    0  0.12954012714E+02 -0.40565110407E+02 -0.12622394275E+04  0.12629575238E+04  0.00000000000E+00 0. -1.
          1    1    1    2  502    0  0.10816992018E+03 -0.34521402990E+02  0.53108243531E+03  0.54308471898E+03  0.00000000000E+00 0. -1.
         22    1    3    3    0    0 -0.87571770976E+02 -0.79317379801E+00 -0.74833966697E+02  0.11519360559E+03  0.00000000000E+00 0.  1.
         22    1    3    3    0    0 -0.33552161921E+02  0.75879687196E+02  0.13470754330E+02  0.84053171985E+02  0.00000000000E+00 0.  1.
</event>
<event>
 7    1  0.6173324E-006  0.1194954E+03  0.7818608E-02  0.1438094E+00
          2   -1    0    0  502    0  0.00000000000E+00  0.00000000000E+00  0.67537557624E+03  0.67537557624E+03  0.00000000000E+00 0. -1.
          1   -1    0    0  501    0 -0.00000000000E+00 -0.00000000000E+00 -0.56744335447E+02  0.56744335447E+02  0.00000000000E+00 0. -1.
         25    2    1    2    0    0 -0.11405959180E+03  0.63568754259E+02  0.28524891817E+03  0.33769950437E+03  0.12499373158E+03 0.  0.
          2    1    1    2  501    0  0.10778147129E+03 -0.42397249157E+02  0.81617676146E+02  0.14168915749E+03  0.00000000000E+00 0. -1.
          1    1    1    2  502    0  0.62781205121E+01 -0.21171505102E+02  0.25176464647E+03  0.25273124983E+03  0.00000000000E+00 0. -1.
         22    1    3    3    0    0 -0.54038660704E+02  0.51634665191E+01  0.23243388045E+03  0.23868880790E+03  0.00000000000E+00 0.  1.
         22    1    3    3    0    0 -0.60020931098E+02  0.58405287740E+02  0.52815037722E+02  0.99010696470E+02  0.00000000000E+00 0.  1.
</event>
<event>
 7    1  0.6173324E-006  0.8043234E+02  0.7818608E-02  0.1347879E+00
          2   -1    0    0  502    0  0.00000000000E+00  0.00000000000E+00  0.92021241785E+03  0.92021241785E+03  0.00000000000E+00 0. -1.
          1   -1    0    0  501    0 -0.00000000000E+00 -0.00000000000E+00 -0.15824935422E+04  0.15824935422E+04  0.00000000000E+00 0. -1.
         25    2    1    2    0    0 -0.50846441454E+02  0.97706301289E+02 -0.10582941771E+04  0.10713276399E+04  0.12499785919E+03 0.  0.
          2    1    1    2  501    0  0.64976599134E+02 -0.18536486081E+02 -0.51369634630E+03  0.51812112093E+03  0.00000000000E+00 0. -1.
          1    1    1    2  502    0 -0.14130157680E+02 -0.79169815208E+02  0.90970939911E+03  0.91325719916E+03  0.00000000000E+00 0. -1.
         22    1    3    3    0    0 -0.77350472123E+02  0.18822299229E+02 -0.63133232328E+03  0.63633157780E+03  0.00000000000E+00 0. -1.
         22    1    3    3    0    0  0.26504030669E+02  0.78884002061E+02 -0.42696185385E+03  0.43499606212E+03  0.00000000000E+00 0. -1.
</event>
<event>
 7    1  0.6173324E-006  0.6224161E+02  0.7818608E-02  0.1524777E+00
          2   -1    0    0  502    0  0.00000000000E+00  0.00000000000E+00  0.14252623227E+03  0.14252623227E+03  0.00000000000E+00 0. -1.
          1   -1    0    0  501    0 -0.00000000000E+00 -0.00000000000E+00 -0.26328392764E+03  0.26328392764E+03  0.00000000000E+00 0. -1.
         25    2    1    2    0    0  0.16295267079E+02 -0.64373718570E+02  0.88113868319E+02  0.16672817702E+03  0.12499887940E+03 0.  0.
          2    1    1    2  501    0 -0.35222284500E+02  0.51308030421E+02 -0.20683293080E+03  0.21599301974E+03  0.00000000000E+00 0. -1.
          1    1    1    2  502    0  0.18927017421E+02  0.13065688149E+02 -0.20386328806E+01  0.23088963149E+02  0.00000000000E+00 0. -1.
         22    1    3    3    0    0 -0.72422239610E+01 -0.14357761137E+02 -0.31272929854E+02  0.35165199479E+02  0.00000000000E+00 0. -1.
         22    1    3    3    0    0  0.23537491040E+02 -0.50015957433E+02  0.11938679817E+03  0.13156297754E+03  0.00000000000E+00 0. -1.
</event>
<event>
 7    1  0.6173324E-006  0.1692491E+03  0.7818608E-02  0.1231346E+00
          2   -1    0    0  502    0  0.00000000000E+00  0.00000000000E+00  0.72862299414E+03  0.72862299414E+03  0.00000000000E+00 0. -1.
          1   -1    0    0  501    0 -0.00000000000E+00 -0.00000000000E+00 -0.39637387080E+03  0.39637387080E+03  0.00000000000E+00 0. -1.
         25    2    1    2    0    0 -0.64079578920E+02  0.11526967134E+03  0.22138239927E+03  0.28640741649E+03  0.12500300775E+03 0.  0.
          2    1    1    2  501    0  0.15381884850E+03 -0.81401811428E+02 -0.33768784306E+03  0.37989415948E+03  0.00000000000E+00 0. -1.
          1    1    1    2  502    0 -0.89739269581E+02 -0.33867859916E+02  0.44855456712E+03  0.45869528897E+03  0.00000000000E+00 0. -1.
         22    1    3    3    0    0 -0.66976207557E+02  0.20353956181E+02  0.37402788383E+02  0.79366645953E+02  0.00000000000E+00 0. -1.
         22    1    3    3    0    0  0.28966286375E+01  0.94915715163E+02  0.18397961089E+03  0.20704077054E+03  0.00000000000E+00 0. -1.
</event>
<event>
 7    1  0.6173324E-006  0.1714134E+03  0.7818608E-02  0.1222763E+00
          2   -1    0    0  502    0  0.00000000000E+00  0.00000000000E+00  0.12514216166E+04  0.12514216166E+04  0.00000000000E+00 0. -1.
          1   -1    0    0  501    0 -0.00000000000E+00 -0.00000000000E+00 -0.33777082748E+03  0.33777082748E+03  0.00000000000E+00 0. -1.
         25    2    1    2    0    0  0.96394471056E+02 -0.22297899004E+03  0.58816507027E+03  0.64851678436E+03  0.12499738263E+03 0.  0.
          2    1    1    2  501    0 -0.80168845384E+01  0.16905871693E+03 -0.27957935267E+03  0.32681758620E+03  0.00000000000E+00 0. -1.
          1    1    1    2  502    0 -0.88377586517E+02  0.53920273108E+02  0.60506507155E+03  0.61385807355E+03  0.00000000000E+00 0. -1.
         22    1    3    3    0    0  0.44005931270E+02 -0.18892271064E+03  0.52489865731E+03  0.55959531184E+03  0.00000000000E+00 0. -1.
         22    1    3    3    0    0  0.52388539785E+02 -0.34056279399E+02  0.63266412957E+02  0.88921472524E+02  0.00000000000E+00 0. -1.
</event>
<event>
 7    1  0.6173324E-006  0.4305859E+02  0.7818608E-02  0.1594742E+00
          2   -1    0    0  502    0  0.00000000000E+00  0.00000000000E+00  0.11021596236E+04  0.11021596236E+04  0.00000000000E+00 0. -1.
          1   -1    0    0  501    0 -0.00000000000E+00 -0.00000000000E+00 -0.60725318267E+02  0.60725318267E+02  0.00000000000E+00 0. -1.
         25    2    1    2    0    0  0.62251298422E+02  0.29937234185E+01  0.15033421684E+03  0.20520299758E+03  0.12499482760E+03 0.  0.
          2    1    1    2  501    0 -0.41182107254E+02 -0.63119768999E+01 -0.20081943968E+02  0.46250313337E+02  0.00000000000E+00 0. -1.
          1    1    1    2  502    0 -0.21069191168E+02  0.33182534814E+01  0.91118203249E+03  0.91143163099E+03  0.00000000000E+00 0. -1.
         22    1    3    3    0    0  0.17818603264E+01 -0.43466367899E+02  0.11137701037E+03  0.11957147905E+03  0.00000000000E+00 0. -1.
         22    1    3    3    0    0  0.60469438096E+02  0.46460091318E+02  0.38957206477E+02  0.85631518527E+02  0.00000000000E+00 0. -1.
</event>
<event>
 7    1  0.6173324E-006  0.1081766E+03  0.7818608E-02  0.1323813E+00
          2   -1    0    0  502    0  0.00000000000E+00  0.00000000000E+00  0.59626358279E+03  0.59626358279E+03  0.00000000000E+00 0. -1.
          1   -1    0    0  501    0 -0.00000000000E+00 -0.00000000000E+00 -0.16682190397E+04  0.16682190397E+04  0.00000000000E+00 0. -1.
         25    2    1    2    0    0  0.11237099702E+02  0.57589565088E+02 -0.48496557390E+02  0.14635570116E+03  0.12500097906E+03 0.  0.
          2    1    1    2  501    0  0.51607479602E+02  0.34303191026E+02 -0.15645122345E+04  0.15657389861E+04  0.00000000000E+00 0. -1.
          1    1    1    2  502    0 -0.62844579304E+02 -0.91892756114E+02  0.54105333492E+03  0.55238793524E+03  0.00000000000E+00 0. -1.
         22    1    3    3    0    0 -0.22540921177E+02 -0.14986354824E+02 -0.59675590994E+02  0.65527552365E+02  0.00000000000E+00 0.  1.
         22    1    3    3    0    0  0.33778020878E+02  0.72575919912E+02  0.11179033604E+02  0.80828148796E+02  0.00000000000E+00 0.  1.
</event>
<event>
 7    1  0.6173324E-006  0.1197086E+03  0.7818608E-02  0.1397462E+00
          2   -1    0    0  502    0  0.00000000000E+00  0.00000000000E+00  0.88284603591E+03  0.88284603591E+03  0.00000000000E+00 0. -1.
          1   -1    0    0  501    0 -0.00000000000E+00 -0.00000000000E+00 -0.24466191754E+03  0.24466191754E+03  0.00000000000E+00 0. -1.
         25    2    1    2    0    0 -0.30489919661E+02 -0.88984131631E+02 -0.61868084749E+02  0.16822529142E+03  0.12499711148E+03 0.  0.
          2    1    1    2  501    0  0.67909026266E+01 -0.29387071174E+02 -0.12339794216E+03  0.12703058073E+03  0.00000000000E+00 0. -1.
          1    1    1    2  502    0  0.23699017034E+02  0.11837120281E+03  0.82345014528E+03  0.83225208130E+03  0.00000000000E+00 0. -1.
         22    1    3    3    0    0 -0.17236899397E+02 -0.82099544025E+02  0.18979664707E+02  0.86009729115E+02  0.00000000000E+00 0. -1.
         22    1    3    3    0    0 -0.13253020264E+02 -0.68845876060E+01 -0.80847749456E+02  0.82215562302E+02  0.00000000000E+00 0. -1.
</event>
<event>
 7    1  0.6173324E-006  0.5749855E+02  0.7818608E-02  0.1469754E+00
          2   -1    0    0  502    0  0.00000000000E+00  0.00000000000E+00  0.82269110178E+03  0.82269110178E+03  0.00000000000E+00 0. -1.
          1   -1    0    0  501    0 -0.00000000000E+00 -0.00000000000E+00 -0.16401633592E+04  0.16401633592E+04  0.00000000000E+00 0. -1.
         25    2    1    2    0    0 -0.60862101096E+02 -0.21863101230E+02 -0.44630589400E+02  0.14764460893E+03  0.12499940197E+03 0.  0.
          2    1    1    2  501    0  0.34002028223E+02  0.46416264419E+02 -0.15430599628E+04  0.15441323313E+04  0.00000000000E+00 0. -1.
          1    1    1    2  502    0  0.26860072873E+02 -0.24553163189E+02  0.77021829484E+03  0.77107752077E+03  0.00000000000E+00 0. -1.
         22    1    3    3    0    0  0.18237624080E+02  0.33523762523E+02  0.59685834180E+01  0.38627419973E+02  0.00000000000E+00 0.  1.
         22    1    3    3    0    0 -0.79099725176E+02 -0.55386863753E+02 -0.50599172818E+02  0.10901718896E+03  0.00000000000E+00 0.  1.
</event>
<event>
 7    1  0.6173324E-006  0.1611529E+03  0.7818608E-02  0.1250994E+00
          2   -1    0    0  502    0  0.00000000000E+00  0.00000000000E+00  0.48257959953E+03  0.48257959953E+03  0.00000000000E+00 0. -1.
          1   -1    0    0  501    0 -0.00000000000E+00 -0.00000000000E+00 -0.14346494706E+03  0.14346494706E+03  0.00000000000E+00 0. -1.
         25    2    1    2    0    0 -0.38347621301E+02  0.11528040953E+03  0.10505411784E+03  0.20352152698E+03  0.12499812554E+03 0.  0.
          2    1    1    2  501    0  0.40197262518E+02  0.72098039433E+02 -0.39042475498E+02  0.91314084877E+02  0.00000000000E+00 0. -1.
          1    1    1    2  502    0 -0.18496412168E+01 -0.18737844896E+03  0.27310301012E+03  0.33120893473E+03  0.00000000000E+00 0. -1.
         22    1    3    3    0    0 -0.30030519206E+02  0.97853793358E+02  0.59253096659E+01  0.10252953844E+03  0.00000000000E+00 0. -1.
         22    1    3    3    0    0 -0.83171020952E+01  0.17426616169E+02  0.99128808179E+02  0.10099198854E+03  0.00000000000E+00 0. -1.
</event>
<event>
 7    1  0.6173324E-006  0.2793051E+03  0.7818608E-02  0.1166414E+00
          2   -1    0    0  502    0  0.00000000000E+00  0.00000000000E+00  0.26969323681E+03  0.26969323681E+03  0.00000000000E+00 0. -1.
          1   -1    0    0  501    0 -0.00000000000E+00 -0.00000000000E+00 -0.50126306882E+03  0.50126306882E+03  0.00000000000E+00 0. -1.
         25    2    1    2    0    0  0.16968722451E+03  0.13000259516E+03 -0.15866096794E+03  0.29409725961E+03  0.12500186581E+03 0.  0.
          2    1    1    2  501    0  0.11521567764E+03  0.24868761597E+02 -0.95636847435E+02  0.15178772765E+03  0.00000000000E+00 0. -1.
          1    1    1    2  502    0 -0.28490290215E+03 -0.15487135676E+03  0.22727983362E+02  0.32507131837E+03  0.00000000000E+00 0. -1.
         22    1    3    3    0    0  0.18846851297E+02  0.35127232692E+02 -0.98100486003E+02  0.10589065886E+03  0.00000000000E+00 0. -1.
         22    1    3    3    0    0  0.15084037321E+03  0.94875362469E+02 -0.60560481932E+02  0.18820660075E+03  0.00000000000E+00 0. -1.
</event>
<event>
 7    1  0.6173324E-006  0.8410999E+02  0.7818608E-02  0.1382103E+00
          2   -1    0    0  502    0  0.00000000000E+00  0.00000000000E+00  0.18196058839E+03  0.18196058839E+03  0.00000000000E+00 0. -1.
          1   -1    0    0  501    0 -0.00000000000E+00 -0.00000000000E+00 -0.43524877167E+03  0.43524877167E+03  0.00000000000E+00 0. -1.
         25    2    1    2    0    0  0.77200411054E+02 -0.30671879681E+01 -0.12488844167E+03  0.19285067585E+03  0.12499979682E+03 0.  0.
          2    1    1    2  501    0 -0.71292861113E+02  0.51274127637E+02 -0.26511093922E+03  0.27927677724E+03  0.00000000000E+00 0. -1.
          1    1    1    2  502    0 -0.59075499407E+01 -0.48206939669E+02  0.13671119761E+03  0.14508190697E+03  0.00000000000E+00 0. -1.
         22    1    3    3    0    0  0.15101472049E+02  0.56428398809E+02 -0.33405933072E+02  0.67291715795E+02  0.00000000000E+00 0.  1.
         22    1    3    3    0    0  0.62098939004E+02 -0.59495586777E+02 -0.91482508594E+02  0.12555896005E+03  0.00000000000E+00 0.  1.
</event>
<event>
 7    1  0.6173324E-006  0.2282217E+03  0.7818608E-02  0.1292752E+00
          2   -1    0    0  502    0  0.00000000000E+00  0.00000000000E+00  0.23900950162E+04  0.23900950162E+04  0.00000000000E+00 0. -1.
          1   -1    0    0  501    0 -0.00000000000E+00 -0.00000000000E+00 -0.98552508091E+03  0.98552508091E+03  0.00000000000E+00 0. -1.
         25    2    1    2    0    0  0.22546390898E+03 -0.90235082515E+02  0.13632473361E+04  0.13903395249E+04  0.12499740284E+03 0.  0.
          2    1    1    2  501    0 -0.22224001923E+03  0.51401443164E+02 -0.95821091863E+03  0.98498776596E+03  0.00000000000E+00 0. -1.
          1    1    1    2  502    0 -0.32238897479E+01  0.38833639352E+02  0.99953351780E+03  0.10002928062E+04  0.00000000000E+00 0. -1.
         22    1    3    3    0    0  0.19659708133E+03 -0.60448154013E+02  0.12888648293E+04  0.13051731456E+04  0.00000000000E+00 0.  1.
         22    1    3    3    0    0  0.28866827649E+02 -0.29786928503E+02  0.74382506786E+02  0.85166379305E+02  0.00000000000E+00 0.  1.
</event>
<event>
 7    1  0.6173324E-006  0.1874548E+03  0.7818608E-02  0.1246410E+00
          2   -1    0    0  502    0  0.00000000000E+00  0.00000000000E+00  0.12182642941E+04  0.12182642941E+04  0.00000000000E+00 0. -1.
          1   -1    0    0  501    0 -0.00000000000E+00 -0.00000000000E+00 -0.13737227036E+03  0.13737227036E+03  0.00000000000E+00 0. -1.
         25    2    1    2    0    0  0.13615214978E+03 -0.12412630677E+03  0.17635474049E+03  0.28402305221E+03  0.12499340690E+03 0.  0.
          2    1    1    2  501    0 -0.18228432788E+03  0.65887186573E+02  0.32638852258E+02  0.19655531594E+03  0.00000000000E+00 0. -1.
          1    1    1    2  502    0  0.46132178108E+02  0.58239120201E+02  0.87189843095E+03  0.87505819628E+03  0.00000000000E+00 0. -1.
         22    1    3    3    0    0  0.14857651540E+03 -0.71958220257E+02  0.15452995194E+03  0.22612490450E+03  0.00000000000E+00 0. -1.
         22    1    3    3    0    0 -0.12424365622E+02 -0.52168086518E+02  0.21824788557E+02  0.57898147704E+02  0.00000000000E+00 0. -1.
</event>
<event>
 7    1  0.6173324E-006  0.9414159E+02  0.7818608E-02  0.1386068E+00
          2   -1    0    0  502    0  0.00000000000E+00  0.00000000000E+00  0.55695840832E+03  0.55695840832E+03  0.00000000000E+00 0. -1.
          1   -1    0    0  501    0 -0.00000000000E+00 -0.00000000000E+00 -0.29624569305E+03  0.29624569305E+03  0.00000000000E+00 0. -1.
         25    2    1    2    0    0  0.74536329283E+01 -0.58718975082E+02 -0.38385847580E+01  0.13835958165E+03  0.12500065769E+03 0.  0.
          2    1    1    2  501    0  0.33248244414E+00  0.10001113390E+03 -0.21307203648E+03  0.23537635858E+03  0.00000000000E+00 0. -1.
          1    1    1    2  502    0 -0.77861153725E+01 -0.41292158818E+02  0.47762333651E+03  0.47946816114E+03  0.00000000000E+00 0. -1.
         22    1    3    3    0    0  0.37767669626E+02 -0.63428370056E+02 -0.45428570713E+02  0.86679351832E+02  0.00000000000E+00 0. -1.
         22    1    3    3    0    0 -0.30314036698E+02  0.47093949738E+01  0.41589985955E+02  0.51680229814E+02  0.00000000000E+00 0. -1.
</event>
<event>
 7    1  0.6173324E-006  0.1002394E+03  0.7818608E-02  0.1330718E+00
          2   -1    0    0  502    0  0.00000000000E+00  0.00000000000E+00  0.29982520016E+03  0.29982520016E+03  0.00000000000E+00 0. -1.
          1   -1    0    0  501    0 -0.00000000000E+00 -0.00000000000E+00 -0.73135814603E+03  0.73135814603E+03  0.00000000000E+00 0. -1.
         25    2    1    2    0    0  0.10112211712E+03  0.11654408906E+03 -0.46387489928E+02  0.20393558214E+03  0.12501885928E+03 0.  0.
          2    1    1    2  501    0 -0.25515156873E+02 -0.57511877153E+02 -0.59405029818E+03  0.59737291202E+03  0.00000000000E+00 0. -1.
          1    1    1    2  502    0 -0.75606960247E+02 -0.59032211904E+02  0.20890484224E+03  0.22987485202E+03  0.00000000000E+00 0. -1.
         22    1    3    3    0    0  0.12362060976E+03  0.12017795868E+03 -0.52707295421E+02  0.18028548444E+03  0.00000000000E+00 0.  1.
         22    1    3    3    0    0 -0.22498492644E+02 -0.36338696186E+01  0.63198054924E+01  0.23650097698E+02  0.00000000000E+00 0.  1.
</event>
<event>
 7    1  0.6173324E-006  0.2106026E+03  0.7818608E-02  0.1377767E+00
          2   -1    0    0  502    0  0.00000000000E+00  0.00000000000E+00  0.28118148876E+03  0.28118148876E+03  0.00000000000E+00 0. -1.
          1   -1    0    0  501    0 -0.00000000000E+00 -0.00000000000E+00 -0.67683914813E+03  0.67683914813E+03  0.00000000000E+00 0. -1.
         25    2    1    2    0    0  0.37298849363E+02  0.20212296727E+03 -0.15722645158E+03  0.28738669303E+03  0.12500422469E+03 0.  0.
          2    1    1    2  501    0 -0.17993090662E+02  0.89476658291E+01 -0.40225094297E+03  0.40275257064E+03  0.00000000000E+00 0. -1.
          1    1    1    2  502    0 -0.19305758701E+02 -0.21107063310E+03  0.16381973519E+03  0.26788137321E+03  0.00000000000E+00 0. -1.
         22    1    3    3    0    0  0.80889949017E+02  0.15834371990E+03 -0.12769679007E+03  0.21891182626E+03  0.00000000000E+00 0. -1.
         22    1    3    3    0    0 -0.43591099654E+02  0.43779247375E+02 -0.29529661514E+02  0.68474866768E+02  0.00000000000E+00 0. -1.
</event>
<event>
 7    1  0.6173324E-006  0.4906158E+03  0.7818608E-02  0.1109287E+00
          2   -1    0    0  502    0  0.00000000000E+00  0.00000000000E+00  0.94131385572E+03  0.94131385572E+03  0.00000000000E+00 0. -1.
          1   -1    0    0  501    0 -0.00000000000E+00 -0.00000000000E+00 -0.18571866197E+04  0.18571866197E+04  0.00000000000E+00 0. -1.
         25    2    1    2    0    0 -0.81309725195E+02  0.48153694920E+03  0.23768772094E+03  0.55732324530E+03  0.12499856880E+03 0.  0.
          2    1    1    2  501    0  0.13315152601E+03  0.15609666062E+02 -0.15790676838E+04  0.15847484787E+04  0.00000000000E+00 0. -1.
          1    1    1    2  502    0 -0.51841800818E+02 -0.49714661527E+03  0.42550719892E+03  0.65642875144E+03  0.00000000000E+00 0. -1.
         22    1    3    3    0    0 -0.77436019127E+02  0.36586394081E+03  0.23475987517E+03  0.44154836568E+03  0.00000000000E+00 0. -1.
         22    1    3    3    0    0 -0.38737060683E+01  0.11567300839E+03  0.29278457690E+01  0.11577487961E+03  0.00000000000E+00 0. -1.
</event>
<event>
 7    1  0.7551557E-006  0.8610063E+02  0.7818608E-02  0.1325531E+00
          2   -1    0    0  502    0  0.00000000000E+00  0.00000000000E+00  0.28361661288E+04  0.28361661288E+04  0.00000000000E+00 0. -1.
          1   -1    0    0  501    0 -0.00000000000E+00 -0.00000000000E+00 -0.50917135773E+03  0.50917135773E+03  0.00000000000E+00 0. -1.
         25    2    1    2    0    0 -0.29889025718E+02  0.54264989986E+02 -0.15397220714E+03  0.20777199360E+03  0.12499487092E+03 0.  0.
          2    1    1    2  501    0  0.74058420618E+02  0.19876814592E+02 -0.32314890137E+03  0.33212189009E+03  0.00000000000E+00 0. -1.
          1    1    1    2  502    0 -0.44169394901E+02 -0.74141804578E+02  0.28041158796E+04  0.28054436029E+04  0.00000000000E+00 0. -1.
         22    1    3    3    0    0 -0.42176136720E+02  0.22780998692E+01  0.26200923697E+01  0.42318803524E+02  0.00000000000E+00 0.  1.
         22    1    3    3    0    0  0.12287111002E+02  0.51986890117E+02 -0.15659229951E+03  0.16545319007E+03  0.00000000000E+00 0.  1.
</event>
<event>
 7    1  0.6173324E-006  0.9652001E+02  0.7818608E-02  0.1320732E+00
          2   -1    0    0  502    0  0.00000000000E+00  0.00000000000E+00  0.10030800386E+04  0.10030800386E+04  0.00000000000E+00 0. -1.
          1   -1    0    0  501    0 -0.00000000000E+00 -0.00000000000E+00 -0.15696376825E+03  0.15696376825E+03  0.00000000000E+00 0. -1.
         25    2    1    2    0    0 -0.44242170943E+02  0.14093847079E+03  0.12677787937E+03  0.23134168577E+03  0.12500129055E+03 0.  0.
          2    1    1    2  501    0 -0.17222375247E+02 -0.69274568110E+02 -0.89438907798E+02  0.11443292456E+03  0.00000000000E+00 0. -1.
          1    1    1    2  502    0  0.61464546190E+02 -0.71663902676E+02  0.80877729879E+03  0.81426919654E+03  0.00000000000E+00 0. -1.
         22    1    3    3    0    0  0.31132271207E+02  0.76791684481E+02  0.97857968065E+02  0.12822777792E+03  0.00000000000E+00 0.  1.
         22    1    3    3    0    0 -0.75374442150E+02  0.64146786305E+02  0.28919911306E+02  0.10311390785E+03  0.00000000000E+00 0.  1.
</event>
<event>
 7    1  0.6173324E-006  0.1025028E+03  0.7818608E-02  0.1333730E+00
          2   -1    0    0  502    0  0.00000000000E+00  0.00000000000E+00  0.13652718949E+04  0.13652718949E+04  0.00000000000E+00 0. -1.
          1   -1    0    0  501    0 -0.00000000000E+00 -0.00000000000E+00 -0.10115337425E+04  0.10115337425E+04  0.00000000000E+00 0. -1.
         25    2    1    2    0    0 -0.10913066545E+02 -0.72289865742E+02  0.29505632413E+03  0.32867552411E+03  0.12499778410E+03 0.  0.
          2    1    1    2  501    0 -0.58799733718E+02 -0.11560282112E+02 -0.99099465170E+03  0.99280483908E+03  0.00000000000E+00 0. -1.
          1    1    1    2  502    0  0.69712800263E+02  0.83850147854E+02  0.10496764800E+04  0.10553252742E+04  0.00000000000E+00 0. -1.
         22    1    3    3    0    0 -0.67725745862E+02 -0.33387112473E+02  0.14143578731E+03  0.16032952899E+03  0.00000000000E+00 0. -1.
         22    1    3    3    0    0  0.56812679317E+02 -0.38902753269E+02  0.15362053682E+03  0.16834599513E+03  0.00000000000E+00 0. -1.
</event>
<event>
 7    1  0.6173324E-006  0.9574702E+02  0.7818608E-02  0.1398895E+00
          2   -1    0    0  502    0  0.00000000000E+00  0.00000000000E+00  0.54435219156E+03  0.54435219156E+03  0.00000000000E+00 0. -1.
          1   -1    0    0  501    0 -0.00000000000E+00 -0.00000000000E+00 -0.40838050131E+03  0.40838050131E+03  0.00000000000E+00 0. -1.
         25    2    1    2    0    0 -0.83814358341E+02  0.95489458205E+02 -0.11034541574E+03  0.20962847560E+03  0.12499961486E+03 0.  0.
          2    1    1    2  501    0  0.64454484536E+02 -0.63626783565E+02 -0.23939953974E+03  0.25595876190E+03  0.00000000000E+00 0. -1.
          1    1    1    2  502    0  0.19359873804E+02 -0.31862674640E+02  0.48571664573E+03  0.48714545537E+03  0.00000000000E+00 0. -1.
         22    1    3    3    0    0 -0.11654936096E+03  0.69530267359E+02 -0.76002078870E+02  0.15554590194E+03  0.00000000000E+00 0. -1.
         22    1    3    3    0    0  0.32735002619E+02  0.25959190846E+02 -0.34343336873E+02  0.54082573658E+02  0.00000000000E+00 0. -1.
</event>
<event>
 7    1  0.6173324E-006  0.8274226E+02  0.7818608E-02  0.1425084E+00
          2   -1    0    0  502    0  0.00000000000E+00  0.00000000000E+00  0.11541310111E+04  0.11541310111E+04  0.00000000000E+00 0. -1.
          1   -1    0    0  501    0 -0.00000000000E+00 -0.00000000000E+00 -0.62531138583E+02  0.62531138583E+02  0.00000000000E+00 0. -1.
         25    2    1    2    0    0  0.52612521756E+02 -0.72376707684E+01  0.56622228414E+03  0.58228366440E+03  0.12500451769E+03 0.  0.
          2    1    1    2  501    0 -0.78704196776E+02  0.30849278532E+02 -0.20810454629E+02  0.87058047290E+02  0.00000000000E+00 0. -1.
          1    1    1    2  502    0  0.26091675020E+02 -0.23611607763E+02  0.54618804296E+03  0.54732043795E+03  0.00000000000E+00 0. -1.
         22    1    3    3    0    0  0.58580282594E+02  0.28798638863E+02  0.13967892272E+03  0.15417915735E+03  0.00000000000E+00 0.  1.
         22    1    3    3    0    0 -0.59677608375E+01 -0.36036309631E+02  0.42654336142E+03  0.42810450705E+03  0.00000000000E+00 0.  1.
</event>
<event>
 7    1  0.6173324E-006  0.5158431E+02  0.7818608E-02  0.1511462E+00
          2   -1    0    0  502    0  0.00000000000E+00  0.00000000000E+00  0.24499765218E+03  0.24499765218E+03  0.00000000000E+00 0. -1.
          1   -1    0    0  501    0 -0.00000000000E+00 -0.00000000000E+00 -0.49209929841E+03  0.49209929841E+03  0.00000000000E+00 0. -1.
         25    2    1    2    0    0 -0.24703742714E+02 -0.76511038365E+02 -0.11863648790E+03  0.19016728997E+03  0.12499907206E+03 0.  0.
          2    1    1    2  501    0  0.16304968579E+02  0.47355543542E+02 -0.33472446368E+03  0.33845068487E+03  0.00000000000E+00 0. -1.
          1    1    1    2  502    0  0.83987741344E+01  0.29155494823E+02  0.20625930535E+03  0.20847897575E+03  0.00000000000E+00 0. -1.
         22    1    3    3    0    0 -0.50458765797E+02 -0.43493637023E+02 -0.13060734192E+03  0.14661535142E+03  0.00000000000E+00 0.  1.
         22    1    3    3    0    0  0.25755023084E+02 -0.33017401342E+02  0.11970854018E+02  0.43551938549E+02  0.00000000000E+00 0.  1.
</event>
<event>
 7    1  0.6173324E-006  0.1694473E+03  0.7818608E-02  0.1198418E+00
          2   -1    0    0  502    0  0.00000000000E+00  0.00000000000E+00  0.63561438138E+03  0.63561438138E+03  0.00000000000E+00 0. -1.
          1   -1    0    0  501    0 -0.00000000000E+00 -0.00000000000E+00 -0.68976649463E+03  0.68976649463E+03  0.00000000000E+00 0. -1.
         25    2    1    2    0    0 -0.11363463467E+03 -0.20965456760E+03  0.87445868482E+02  0.28308715868E+03  0.12499476622E+03 0.  0.
          2    1    1    2  501    0 -0.15165425671E+02  0.16666608101E+03 -0.56938696406E+03  0.59347206129E+03  0.00000000000E+00 0. -1.
          1    1    1    2  502    0  0.12880006034E+03  0.42988486595E+02  0.42778898233E+03  0.44882165603E+03  0.00000000000E+00 0. -1.
         22    1    3    3    0    0 -0.28660331125E+01 -0.13616960083E+03  0.40112565529E+02  0.14198377459E+03  0.00000000000E+00 0.  1.
         22    1    3    3    0    0 -0.11076860155E+03 -0.73484966777E+02  0.47333302953E+02  0.14110338409E+03  0.00000000000E+00 0.  1.
</event>
<event>
 7    1  0.6173324E-006  0.6470547E+02  0.7818608E-02  0.1421520E+00
          2   -1    0    0  502    0  0.00000000000E+00  0.00000000000E+00  0.15419034309E+04  0.15419034309E+04  0.00000000000E+00 0. -1.
          1   -1    0    0  501    0 -0.00000000000E+00 -0.00000000000E+00 -0.36789954659E+03  0.36789954659E+03  0.00000000000E+00 0. -1.
         25    2    1    2    0    0 -0.81817877282E+02 -0.16479846268E+02 -0.19552121134E+03  0.24661452478E+03  0.12499771748E+03 0.  0.
          2    1    1    2  501    0  0.35927188915E+02 -0.29114205297E+02 -0.14248193737E+03  0.14979820537E+03  0.00000000000E+00 0. -1.
          1    1    1    2  502    0  0.45890688367E+02  0.45594051565E+02  0.15120070330E+04  0.15133902473E+04  0.00000000000E+00 0. -1.
         22    1    3    3    0    0 -0.81880853621E+02  0.31189116807E+02 -0.69366170058E+02  0.11175375048E+03  0.00000000000E+00 0.  1.
         22    1    3    3    0    0  0.62976339199E-01 -0.47668963075E+02 -0.12615504128E+03  0.13486077431E+03  0.00000000000E+00 0.  1.
</event>
<event>
 7    1  0.6173324E-006  0.3650504E+02  0.7818608E-02  0.1535958E+00
          2   -1    0    0  502    0  0.00000000000E+00  0.00000000000E+00  0.11043937077E+04  0.11043937077E+04  0.00000000000E+00 0. -1.
          1   -1    0    0  501    0 -0.00000000000E+00 -0.00000000000E+00 -0.18654537583E+02  0.18654537583E+02  0.00000000000E+00 0. -1.
         25    2    1    2    0    0 -0.67799310439E+01  0.11031073879E+02  0.21444461805E+03  0.24855423619E+03  0.12500024825E+03 0.  0.
          2    1    1    2  501    0 -0.29821639786E+02 -0.20917298301E+02  0.38200601930E+03  0.38373879443E+03  0.00000000000E+00 0. -1.
          1    1    1    2  502    0  0.36601570830E+02  0.98862244212E+01  0.48928853278E+03  0.49075521467E+03  0.00000000000E+00 0. -1.
         22    1    3    3    0    0  0.36793142681E+02 -0.15163640228E+02  0.18617877285E+03  0.19038436593E+03  0.00000000000E+00 0. -1.
         22    1    3    3    0    0 -0.43573073725E+02  0.26194714108E+02  0.28265845204E+02  0.58169870261E+02  0.00000000000E+00 0. -1.
</event>
<event>
 7    1  0.6173324E-006  0.1579568E+03  0.7818608E-02  0.1383885E+00
          2   -1    0    0  502    0  0.00000000000E+00  0.00000000000E+00  0.60641566762E+03  0.60641566762E+03  0.00000000000E+00 0. -1.
          1   -1    0    0  501    0 -0.00000000000E+00 -0.00000000000E+00 -0.88440080871E+03  0.88440080871E+03  0.00000000000E+00 0. -1.
         25    2    1    2    0    0  0.16941252598E+03  0.69280285409E+02 -0.63094352320E+03  0.66874034697E+03  0.12499424104E+03 0.  0.
          2    1    1    2  501    0 -0.23810337685E+02 -0.91003008628E+01 -0.22325851789E+03  0.22470895280E+03  0.00000000000E+00 0. -1.
          1    1    1    2  502    0 -0.14560218829E+03 -0.60179984546E+02  0.57621690000E+03  0.59736717655E+03  0.00000000000E+00 0. -1.
         22    1    3    3    0    0  0.20052328231E+02  0.36840848460E+02 -0.38624282070E+02  0.57019112130E+02  0.00000000000E+00 0. -1.
         22    1    3    3    0    0  0.14936019775E+03  0.32439436950E+02 -0.59231924113E+03  0.61172123484E+03  0.00000000000E+00 0. -1.
</event>
<event>
 7    1  0.6173324E-006  0.4476826E+02  0.7818608E-02  0.1520209E+00
          2   -1    0    0  502    0  0.00000000000E+00  0.00000000000E+00  0.37917558071E+03  0.37917558071E+03  0.00000000000E+00 0. -1.
          1   -1    0    0  501    0 -0.00000000000E+00 -0.00000000000E+00 -0.39660200330E+03  0.39660200330E+03  0.00000000000E+00 0. -1.
         25    2    1    2    0    0 -0.23087316838E+02 -0.14846185825E+01 -0.16241503828E+03  0.20624933666E+03  0.12499966370E+03 0.  0.
          2    1    1    2  501    0  0.39759428453E+02 -0.26952085809E+02 -0.20877641650E+03  0.21423076149E+03  0.00000000000E+00 0. -1.
          1    1    1    2  502    0 -0.16672111615E+02  0.28436704391E+02  0.35376503218E+03  0.35529748586E+03  0.00000000000E+00 0. -1.
         22    1    3    3    0    0 -0.19521258113E+02  0.42247466853E+02 -0.15489092602E+03  0.16173165100E+03  0.00000000000E+00 0. -1.
         22    1    3    3    0    0 -0.35660587248E+01 -0.43732085436E+02 -0.75241122609E+01  0.44517685662E+02  0.00000000000E+00 0. -1.
</event>
<event>
 7    1  0.6173324E-006  0.7704197E+02  0.7818608E-02  0.1368089E+00
          2   -1    0    0  502    0  0.00000000000E+00  0.00000000000E+00  0.90361207262E+03  0.90361207262E+03  0.00000000000E+00 0. -1.
          1   -1    0    0  501    0 -0.00000000000E+00 -0.00000000000E+00 -0.94672382429E+03  0.94672382429E+03  0.00000000000E+00 0. -1.
         25    2    1    2    0    0 -0.12990614259E+03 -0.38511271674E+02  0.62810187345E+03  0.65459560387E+03  0.12499886895E+03 0.  0.
          2    1    1    2  501    0  0.75553871533E+02  0.14319159051E+02 -0.92849297113E+03  0.93167195045E+03  0.00000000000E+00 0. -1.
          1    1    1    2  502    0  0.54352271060E+02  0.24192112623E+02  0.25727934600E+03  0.26406834260E+03  0.00000000000E+00 0. -1.
         22    1    3    3    0    0  0.18646972428E+02 -0.16870986381E+02  0.18620504460E+03  0.18789533895E+03  0.00000000000E+00 0.  1.
         22    1    3    3    0    0 -0.14855311502E+03 -0.21640285293E+02  0.44189682885E+03  0.46670026492E+03  0.00000000000E+00 0.  1.
</event>
<event>
 7    1  0.6173324E-006  0.6160241E+02  0.7818608E-02  0.1470351E+00
          2   -1    0    0  502    0  0.00000000000E+00  0.00000000000E+00  0.11310688905E+04  0.11310688905E+04  0.00000000000E+00 0. -1.
          1   -1    0    0  501    0 -0.00000000000E+00 -0.00000000000E+00 -0.20709342192E+03  0.20709342192E+03  0.00000000000E+00 0. -1.
         25    2    1    2    0    0  0.10206343551E+01 -0.91750339007E+02  0.44386032262E+03  0.47016753074E+03  0.12500541813E+03 0.  0.
          2    1    1    2  501    0 -0.60998571278E+01  0.33267460805E+02 -0.19117449346E+03  0.19414329542E+03  0.00000000000E+00 0. -1.
          1    1    1    2  502    0  0.50792227726E+01  0.58482878201E+02  0.67128963941E+03  0.67385148625E+03  0.00000000000E+00 0. -1.
         22    1    3    3    0    0 -0.16564621630E+02  0.89601991536E+01  0.49007906852E+01  0.19459948817E+02  0.00000000000E+00 0.  1.
         22    1    3    3    0    0  0.17585255985E+02 -0.10071053816E+03  0.43895953194E+03  0.45070758192E+03  0.00000000000E+00 0.  1.
</event>
<event>
 7    1  0.6173324E-006  0.1837726E+03  0.7818608E-02  0.1237940E+00
          2   -1    0    0  502    0  0.00000000000E+00  0.00000000000E+00  0.47116218341E+02  0.47116218341E+02  0.00000000000E+00 0. -1.
          1   -1    0    0  501    0 -0.00000000000E+00 -0.00000000000E+00 -0.17799010419E+04  0.17799010419E+04  0.00000000000E+00 0. -1.
         25    2    1    2    0    0  0.31211924306E+02  0.15403011307E+03 -0.45761182627E+03  0.49973134853E+03  0.12499350864E+03 0.  0.
          2    1    1    2  501    0  0.75755071139E+02  0.32840671669E+02 -0.81564149828E+03  0.81980997447E+03  0.00000000000E+00 0. -1.
          1    1    1    2  502    0 -0.10696699545E+03 -0.18687078474E+03 -0.45953149897E+03  0.50747593721E+03  0.00000000000E+00 0. -1.
         22    1    3    3    0    0  0.77116872466E+02  0.67955816893E+02 -0.25182004927E+03  0.27198959959E+03  0.00000000000E+00 0. -1.
         22    1    3    3    0    0 -0.45904948160E+02  0.86074296179E+02 -0.20579177700E+03  0.22774174894E+03  0.00000000000E+00 0. -1.
</event>
<event>
 7    1  0.6173324E-006  0.1402663E+03  0.7818608E-02  0.1289401E+00
          2   -1    0    0  502    0  0.00000000000E+00  0.00000000000E+00  0.17175475972E+04  0.17175475972E+04  0.00000000000E+00 0. -1.
          1   -1    0    0  501    0 -0.00000000000E+00 -0.00000000000E+00 -0.34722077894E+03  0.34722077894E+03  0.00000000000E+00 0. -1.
         25    2    1    2    0    0 -0.18277196195E+03 -0.27843138577E+02 -0.13183214198E+03  0.25920170059E+03  0.12499990995E+03 0.  0.
          2    1    1    2  501    0  0.12314983052E+03  0.91789296946E+00 -0.12594428835E+03  0.17614961553E+03  0.00000000000E+00 0. -1.
          1    1    1    2  502    0  0.59622131431E+02  0.26925245607E+02  0.16281032486E+04  0.16294170600E+04  0.00000000000E+00 0. -1.
         22    1    3    3    0    0 -0.94559659173E+02 -0.73750474684E+02 -0.95605015374E+02  0.15336551315E+03  0.00000000000E+00 0.  1.
         22    1    3    3    0    0 -0.88212302773E+02  0.45907336107E+02 -0.36227126603E+02  0.10583618744E+03  0.00000000000E+00 0.  1.
</event>
<event>
 7    1  0.6173324E-006  0.8320927E+02  0.7818608E-02  0.1385674E+00
          2   -1    0    0  502    0  0.00000000000E+00  0.00000000000E+00  0.19592851818E+03  0.19592851818E+03  0.00000000000E+00 0. -1.
          1   -1    0    0  501    0 -0.00000000000E+00 -0.00000000000E+00 -0.48793504731E+03  0.48793504731E+03  0.00000000000E+00 0. -1.
         25    2    1    2    0    0 -0.36807704737E+02  0.24715748518E+02 -0.12666259594E+03  0.18339117978E+03  0.12499294484E+03 0.  0.
          2    1    1    2  501    0  0.77167761263E+02 -0.50124686443E+02 -0.32295251950E+03  0.33580601159E+03  0.00000000000E+00 0. -1.
          1    1    1    2  502    0 -0.40360056526E+02  0.25408937925E+02  0.15760858631E+03  0.16466637412E+03  0.00000000000E+00 0. -1.
         22    1    3    3    0    0 -0.36926437635E+02 -0.35781098370E+02 -0.10875809773E+03  0.12030034339E+03  0.00000000000E+00 0.  1.
         22    1    3    3    0    0  0.11873289838E+00  0.60496846888E+02 -0.17904498206E+02  0.63090836394E+02  0.00000000000E+00 0.  1.
</event>
<event>
 7    1  0.6173324E-006  0.8894687E+02  0.7818608E-02  0.1407340E+00
          2   -1    0    0  502    0  0.00000000000E+00  0.00000000000E+00  0.76394403930E+03  0.76394403930E+03  0.00000000000E+00 0. -1.
          1   -1    0    0  501    0 -0.00000000000E+00 -0.00000000000E+00 -0.73951383760E+03  0.73951383760E+03  0.00000000000E+00 0. -1.
         25    2    1    2    0    0 -0.24350139609E+02 -0.56889165038E+02  0.80423808813E+02  0.16100435859E+03  0.12500043226E+03 0.  0.
          2    1    1    2  501    0  0.15798506857E+02 -0.34063832490E+02 -0.69547092569E+03  0.69648384474E+03  0.00000000000E+00 0. -1.
          1    1    1    2  502    0  0.85516327518E+01  0.90952997529E+02  0.63947731858E+03  0.64596967356E+03  0.00000000000E+00 0. -1.
         22    1    3    3    0    0  0.47131202256E+02 -0.21518840743E+01  0.14303011624E+02  0.49300679231E+02  0.00000000000E+00 0.  1.
         22    1    3    3    0    0 -0.71481341864E+02 -0.54737280964E+02  0.66120797189E+02  0.11170367936E+03  0.00000000000E+00 0.  1.
</event>
<event>
 7    1  0.6173324E-006  0.1787985E+03  0.7818608E-02  0.1368241E+00
          2   -1    0    0  502    0  0.00000000000E+00  0.00000000000E+00  0.18157724331E+03  0.18157724331E+03  0.00000000000E+00 0. -1.
          1   -1    0    0  501    0 -0.00000000000E+00 -0.00000000000E+00 -0.57250014330E+03  0.57250014330E+03  0.00000000000E+00 0. -1.
         25    2    1    2    0    0 -0.10036934166E+03 -0.13518529359E+03 -0.54819354234E+02  0.21675429515E+03  0.12501277743E+03 0.  0.
          2    1    1    2  501    0  0.89046815695E+02  0.15814796125E+03 -0.41576284538E+03  0.45365058870E+03  0.00000000000E+00 0. -1.
          1    1    1    2  502    0  0.11322525961E+02 -0.22962667658E+02  0.79659299626E+02  0.83672502753E+02  0.00000000000E+00 0. -1.
         22    1    3    3    0    0  0.41299817604E+01 -0.67771020600E+02 -0.62332537756E+02  0.92170023574E+02  0.00000000000E+00 0. -1.
         22    1    3    3    0    0 -0.10449932342E+03 -0.67414272987E+02  0.75131835229E+01  0.12458427157E+03  0.00000000000E+00 0. -1.
</event>
<event>
 7    1  0.7775702E-006  0.6632256E+02  0.7818608E-02  0.1378613E+00
          2   -1    0    0  502    0  0.00000000000E+00  0.00000000000E+00  0.13573865323E+04  0.13573865323E+04  0.00000000000E+00 0. -1.
          1   -1    0    0  501    0 -0.00000000000E+00 -0.00000000000E+00 -0.71057713752E+03  0.71057713752E+03  0.00000000000E+00 0. -1.
         25    2    1    2    0    0  0.12157825492E+02  0.10686042601E+02 -0.24750412679E+02  0.12845250061E+03  0.12500183102E+03 0.  0.
          2    1    1    2  501    0 -0.62599675287E+02  0.27673659826E+02 -0.63135604825E+03  0.63505512395E+03  0.00000000000E+00 0. -1.
          1    1    1    2  502    0  0.50441849795E+02 -0.38359702427E+02  0.13029158557E+04  0.13044560452E+04  0.00000000000E+00 0. -1.
         22    1    3    3    0    0  0.10583997813E+02  0.67215240311E+02 -0.23167119831E+02  0.71879238873E+02  0.00000000000E+00 0. -1.
         22    1    3    3    0    0  0.15738276797E+01 -0.56529197710E+02 -0.15832928478E+01  0.56573261736E+02  0.00000000000E+00 0. -1.
</event>
<event>
 7    1  0.6173324E-006  0.5168563E+02  0.7818608E-02  0.1519375E+00
          2   -1    0    0  502    0  0.00000000000E+00  0.00000000000E+00  0.19918642567E+04  0.19918642567E+04  0.00000000000E+00 0. -1.
          1   -1    0    0  501    0 -0.00000000000E+00 -0.00000000000E+00 -0.56343413432E+03  0.56343413432E+03  0.00000000000E+00 0. -1.
         25    2    1    2    0    0 -0.48400974980E+02 -0.64040119181E+02  0.58289105950E+03  0.60152237355E+03  0.12499354937E+03 0.  0.
          2    1    1    2  501    0  0.29869697772E+02  0.42109544839E+02 -0.55276824153E+03  0.55517397404E+03  0.00000000000E+00 0. -1.
          1    1    1    2  502    0  0.18531277208E+02  0.21930574341E+02  0.13983073044E+04  0.13986020434E+04  0.00000000000E+00 0. -1.
         22    1    3    3    0    0 -0.27714223545E+02 -0.14045515833E+02  0.50896243939E+03  0.50990991304E+03  0.00000000000E+00 0. -1.
         22    1    3    3    0    0 -0.20686751434E+02 -0.49994603347E+02  0.73928620110E+02  0.91612460507E+02  0.00000000000E+00 0. -1.
</event>
<event>
 7    1  0.6173324E-006  0.9394644E+02  0.7818608E-02  0.1338302E+00
          2   -1    0    0  502    0  0.00000000000E+00  0.00000000000E+00  0.67108091046E+03  0.67108091046E+03  0.00000000000E+00 0. -1.
          1   -1    0    0  501    0 -0.00000000000E+00 -0.00000000000E+00 -0.13223880262E+04  0.13223880262E+04  0.00000000000E+00 0. -1.
         25    2    1    2    0    0 -0.35350401748E+02  0.81903505750E+02 -0.93232880633E+02  0.17962479416E+03  0.12495943937E+03 0.  0.
          2    1    1    2  501    0 -0.49077347132E+02 -0.39228010700E+02 -0.11815565696E+04  0.11832258237E+04  0.00000000000E+00 0. -1.
          1    1    1    2  502    0  0.84427748880E+02 -0.42675495050E+02  0.62348233443E+03  0.63061831880E+03  0.00000000000E+00 0. -1.
         22    1    3    3    0    0 -0.72252448823E+02  0.66389775096E+02 -0.26218677250E+02  0.10156494294E+03  0.00000000000E+00 0.  1.
         22    1    3    3    0    0  0.36902047075E+02  0.15513730654E+02 -0.67014203383E+02  0.78059851218E+02  0.00000000000E+00 0.  1.
</event>
<event>
 7    1  0.6173324E-006  0.1416182E+03  0.7818608E-02  0.1273419E+00
          2   -1    0    0  502    0  0.00000000000E+00  0.00000000000E+00  0.40952809357E+03  0.40952809357E+03  0.00000000000E+00 0. -1.
          1   -1    0    0  501    0 -0.00000000000E+00 -0.00000000000E+00 -0.60714465297E+03  0.60714465297E+03  0.00000000000E+00 0. -1.
         25    2    1    2    0    0  0.44399518456E+02 -0.85159201509E+02 -0.93608317695E+02  0.18333348262E+03  0.12500096746E+03 0.  0.
          2    1    1    2  501    0 -0.17600523433E+02  0.15564951359E+03 -0.45142623051E+03  0.47783071385E+03  0.00000000000E+00 0. -1.
          1    1    1    2  502    0 -0.26798995023E+02 -0.70490312078E+02  0.34741798880E+03  0.35550855007E+03  0.00000000000E+00 0. -1.
         22    1    3    3    0    0 -0.29996019387E+02 -0.57440130940E+02 -0.59600809738E+01  0.65074206769E+02  0.00000000000E+00 0. -1.
         22    1    3    3    0    0  0.74395537843E+02 -0.27719070569E+02 -0.87648236721E+02  0.11825927585E+03  0.00000000000E+00 0. -1.
</event>
<event>
 7    1  0.6173324E-006  0.1243150E+03  0.7818608E-02  0.1290338E+00
          2   -1    0    0  502    0  0.00000000000E+00  0.00000000000E+00  0.26855764961E+03  0.26855764961E+03  0.00000000000E+00 0. -1.
          1   -1    0    0  501    0 -0.00000000000E+00 -0.00000000000E+00 -0.19985914468E+04  0.19985914468E+04  0.00000000000E+00 0. -1.
         25    2    1    2    0    0 -0.60909963087E+02 -0.18436014226E+03 -0.16342709846E+03  0.28289999804E+03  0.12500122688E+03 0.  0.
          2    1    1    2  501    0  0.46661150167E+02  0.11259208743E+03 -0.17668541023E+04  0.17710526983E+04  0.00000000000E+00 0. -1.
          1    1    1    2  502    0  0.14248812920E+02  0.71768054832E+02  0.20024740361E+03  0.21319640010E+03  0.00000000000E+00 0. -1.
         22    1    3    3    0    0 -0.67263688808E+02 -0.12320914555E+03 -0.17068394718E+03  0.22099300261E+03  0.00000000000E+00 0. -1.
         22    1    3    3    0    0  0.63537257211E+01 -0.61150996712E+02  0.72568487207E+01  0.61906995427E+02  0.00000000000E+00 0. -1.
</event>
<event>
 7    1  0.6173324E-006  0.2389765E+03  0.7818608E-02  0.1156193E+00
          2   -1    0    0  502    0  0.00000000000E+00  0.00000000000E+00  0.15577775224E+04  0.15577775224E+04  0.00000000000E+00 0. -1.
          1   -1    0    0  501    0 -0.00000000000E+00 -0.00000000000E+00 -0.91707740224E+03  0.91707740224E+03  0.00000000000E+00 0. -1.
         25    2    1    2    0    0 -0.83914869395E+02 -0.14593134965E+03 -0.24807664937E+03  0.32481362295E+03  0.12499680626E+03 0.  0.
          2    1    1    2  501    0  0.91556709787E+02  0.30086493002E+03 -0.58710548949E+03  0.66602942353E+03  0.00000000000E+00 0. -1.
          1    1    1    2  502    0 -0.76418403924E+01 -0.15493358037E+03  0.14758822590E+04  0.14840118781E+04  0.00000000000E+00 0. -1.
         22    1    3    3    0    0 -0.76194761677E+02 -0.93011671163E+02 -0.24296733870E+03  0.27109028082E+03  0.00000000000E+00 0. -1.
         22    1    3    3    0    0 -0.77201077180E+01 -0.52919678490E+02 -0.51093106734E+01  0.53723342136E+02  0.00000000000E+00 0. -1.
</event>
<event>
 7    1  0.6173324E-006  0.1112137E+03  0.7818608E-02  0.1310223E+00
          2   -1    0    0  502    0  0.00000000000E+00  0.00000000000E+00  0.28224501466E+04  0.28224501466E+04  0.00000000000E+00 0. -1.
          1   -1    0    0  501    0 -0.00000000000E+00 -0.00000000000E+00 -0.25237739918E+03  0.25237739918E+03  0.00000000000E+00 0. -1.
         25    2    1    2    0    0  0.82961936485E+02  0.10098337240E+03 -0.92759189462E+02  0.20325373685E+03  0.12500995924E+03 0.  0.
          2    1    1    2  501    0  0.22066129372E+02 -0.64421524115E+02 -0.92021219948E+02  0.11447686122E+03  0.00000000000E+00 0. -1.
          1    1    1    2  502    0 -0.10502806586E+03 -0.36561848283E+02  0.27548531568E+04  0.27570969477E+04  0.00000000000E+00 0. -1.
         22    1    3    3    0    0  0.75830461502E+02 -0.16070300703E+01 -0.55052221550E+02  0.93720800972E+02  0.00000000000E+00 0.  1.
         22    1    3    3    0    0  0.71314749836E+01  0.10259040247E+03 -0.37706967912E+02  0.10953293588E+03  0.00000000000E+00 0.  1.
</event>
<event>
 7    1  0.6173324E-006  0.5571761E+02  0.7818608E-02  0.1423423E+00
          2   -1    0    0  502    0  0.00000000000E+00  0.00000000000E+00  0.41262741830E+03  0.41262741830E+03  0.00000000000E+00 0. -1.
          1   -1    0    0  501    0 -0.00000000000E+00 -0.00000000000E+00 -0.71239061938E+03  0.71239061938E+03  0.00000000000E+00 0. -1.
         25    2    1    2    0    0  0.21787688236E+02  0.37643885101E+01  0.40724697426E+02  0.13329058036E+03  0.12497601311E+03 0.  0.
          2    1    1    2  501    0  0.11513525198E+02 -0.51657170736E+02 -0.66243129283E+03  0.66454212979E+03  0.00000000000E+00 0. -1.
          1    1    1    2  502    0 -0.33301213433E+02  0.47892782226E+02  0.32194339432E+03  0.32718532753E+03  0.00000000000E+00 0. -1.
         22    1    3    3    0    0  0.47033353295E+02 -0.83055617612E+01  0.75078414219E+02  0.88982509293E+02  0.00000000000E+00 0. -1.
         22    1    3    3    0    0 -0.25245665059E+02  0.12069950271E+02 -0.34353716793E+02  0.44308071063E+02  0.00000000000E+00 0. -1.
</event>
<event>
 7    1  0.6173324E-006  0.7598427E+02  0.7818608E-02  0.1447013E+00
          2   -1    0    0  502    0  0.00000000000E+00  0.00000000000E+00  0.52560630770E+03  0.52560630770E+03  0.00000000000E+00 0. -1.
          1   -1    0    0  501    0 -0.00000000000E+00 -0.00000000000E+00 -0.26931930342E+03  0.26931930342E+03  0.00000000000E+00 0. -1.
         25    2    1    2    0    0 -0.85573719840E+01 -0.88032001178E+02  0.29318458755E+03  0.33076638923E+03  0.12500535998E+03 0.  0.
          2    1    1    2  501    0  0.33999816270E+02  0.67815121622E+02 -0.24348625787E+03  0.25503026486E+03  0.00000000000E+00 0. -1.
          1    1    1    2  502    0 -0.25442444286E+02  0.20216879556E+02  0.20658867460E+03  0.20912895702E+03  0.00000000000E+00 0. -1.
         22    1    3    3    0    0  0.45585574399E+02  0.26025850297E+01  0.11382507605E+03  0.12264161602E+03  0.00000000000E+00 0.  1.
         22    1    3    3    0    0 -0.54142946383E+02 -0.90634586207E+02  0.17935951150E+03  0.20812477321E+03  0.00000000000E+00 0.  1.
</event>
<event>
 7    1  0.6173324E-006  0.7983641E+02  0.7818608E-02  0.1412058E+00
          2   -1    0    0  502    0  0.00000000000E+00  0.00000000000E+00  0.92109613966E+03  0.92109613966E+03  0.00000000000E+00 0. -1.
          1   -1    0    0  501    0 -0.00000000000E+00 -0.00000000000E+00 -0.11647310739E+04  0.11647310739E+04  0.00000000000E+00 0. -1.
         25    2    1    2    0    0  0.11257477720E+03  0.39326765456E+02  0.28197130531E+03  0.33068751582E+03  0.12500696443E+03 0.  0.
          2    1    1    2  501    0 -0.72907246838E+02 -0.32094996430E+02 -0.11383183957E+04  0.11411022414E+04  0.00000000000E+00 0. -1.
          1    1    1    2  502    0 -0.39667530359E+02 -0.72317690261E+01  0.61271215614E+03  0.61403745629E+03  0.00000000000E+00 0. -1.
         22    1    3    3    0    0  0.13457130837E+03  0.26508262914E+02  0.26937452361E+03  0.30228258139E+03  0.00000000000E+00 0.  1.
         22    1    3    3    0    0 -0.21996531169E+02  0.12818502543E+02  0.12596781700E+02  0.28404934432E+02  0.00000000000E+00 0.  1.
</event>
<event>
 7    1  0.6173324E-006  0.1137205E+03  0.7818608E-02  0.1427260E+00
          2   -1    0    0  502    0  0.00000000000E+00  0.00000000000E+00  0.38927153722E+03  0.38927153722E+03  0.00000000000E+00 0. -1.
          1   -1    0    0  501    0 -0.00000000000E+00 -0.00000000000E+00 -0.93010652635E+03  0.93010652635E+03  0.00000000000E+00 0. -1.
         25    2    1    2    0    0 -0.90385548025E+02  0.45899505945E+02 -0.15598277645E+02  0.16169739222E+03  0.12500571366E+03 0.  0.
          2    1    1    2  501    0  0.89747792692E+02 -0.71073681678E+02 -0.83705486794E+03  0.84484731547E+03  0.00000000000E+00 0. -1.
          1    1    1    2  502    0  0.63775533265E+00  0.25174175732E+02  0.31181815645E+03  0.31283335587E+03  0.00000000000E+00 0. -1.
         22    1    3    3    0    0  0.52357925795E+01  0.13594337632E+01 -0.50346071298E+02  0.50635841844E+02  0.00000000000E+00 0.  1.
         22    1    3    3    0    0 -0.95621340605E+02  0.44540072182E+02  0.34747793653E+02  0.11106155038E+03  0.00000000000E+00 0.  1.
</event>
<event>
 7    1  0.6173324E-006  0.3403057E+02  0.7818608E-02  0.1582191E+00
          2   -1    0    0  502    0  0.00000000000E+00  0.00000000000E+00  0.15897396092E+04  0.15897396092E+04  0.00000000000E+00 0. -1.
          1   -1    0    0  501    0 -0.00000000000E+00 -0.00000000000E+00 -0.12922380871E+02  0.12922380871E+02  0.00000000000E+00 0. -1.
         25    2    1    2    0    0 -0.32991112802E+02  0.49774085443E+02  0.11333154808E+04  0.11417498600E+04  0.12499156309E+03 0.  0.
          2    1    1    2  501    0  0.14628036365E+02 -0.25198900776E+02  0.17878821357E+02  0.34185030369E+02  0.00000000000E+00 0. -1.
          1    1    1    2  502    0  0.18363076437E+02 -0.24575184667E+02  0.42562292615E+03  0.42672709961E+03  0.00000000000E+00 0. -1.
         22    1    3    3    0    0 -0.55758253664E+02 -0.41202620440E+01  0.87964169365E+03  0.88141673947E+03  0.00000000000E+00 0.  1.
         22    1    3    3    0    0  0.22767140863E+02  0.53894347487E+02  0.25367378713E+03  0.26033312058E+03  0.00000000000E+00 0.  1.
</event>
<event>
 7    1  0.6173324E-006  0.4203395E+02  0.7818608E-02  0.1569923E+00
          2   -1    0    0  502    0  0.00000000000E+00  0.00000000000E+00  0.10241860687E+02  0.10241860687E+02  0.00000000000E+00 0. -1.
          1   -1    0    0  501    0 -0.00000000000E+00 -0.00000000000E+00 -0.10682377466E+04  0.10682377466E+04  0.00000000000E+00 0. -1.
         25    2    1    2    0    0  0.34687298671E+02 -0.80216007433E+01 -0.75113980619E+03  0.76230229217E+03  0.12500488563E+03 0.  0.
          2    1    1    2  501    0 -0.33141027623E+01 -0.25238821801E+02 -0.60874811154E+02  0.65982755596E+02  0.00000000000E+00 0. -1.
          1    1    1    2  502    0 -0.31373195909E+02  0.33260422544E+02 -0.24598126858E+03  0.25019455954E+03  0.00000000000E+00 0. -1.
         22    1    3    3    0    0 -0.40142066688E+02 -0.30079198118E+02 -0.35799128966E+03  0.36148846061E+03  0.00000000000E+00 0. -1.
         22    1    3    3    0    0  0.74829365359E+02  0.22057597375E+02 -0.39314851653E+03  0.40081383156E+03  0.00000000000E+00 0. -1.
</event>
<event>
 7    1  0.6173324E-006  0.5072501E+02  0.7818608E-02  0.1483354E+00
          2   -1    0    0  502    0  0.00000000000E+00  0.00000000000E+00  0.10250850808E+04  0.10250850808E+04  0.00000000000E+00 0. -1.
          1   -1    0    0  501    0 -0.00000000000E+00 -0.00000000000E+00 -0.61251929214E+03  0.61251929214E+03  0.00000000000E+00 0. -1.
         25    2    1    2    0    0  0.58018601233E+02 -0.32159227308E+02  0.12881758255E+03  0.19136047631E+03  0.12499795330E+03 0.  0.
          2    1    1    2  501    0 -0.35130851949E+02 -0.12988855155E+02 -0.57990263972E+03  0.58111096932E+03  0.00000000000E+00 0. -1.
          1    1    1    2  502    0 -0.22887749284E+02  0.45148082463E+02  0.86365084583E+03  0.86513292731E+03  0.00000000000E+00 0. -1.
         22    1    3    3    0    0  0.16985234101E+02 -0.26353745886E+01  0.13877734418E+03  0.13983774396E+03  0.00000000000E+00 0.  1.
         22    1    3    3    0    0  0.41033367132E+02 -0.29523852719E+02 -0.99597616312E+01  0.51522732355E+02  0.00000000000E+00 0.  1.
</event>
<event>
 7    1  0.6173324E-006  0.6483280E+02  0.7818608E-02  0.1444972E+00
          2   -1    0    0  502    0  0.00000000000E+00  0.00000000000E+00  0.25340416435E+04  0.25340416435E+04  0.00000000000E+00 0. -1.
          1   -1    0    0  501    0 -0.00000000000E+00 -0.00000000000E+00 -0.15122495346E+03  0.15122495346E+03  0.00000000000E+00 0. -1.
         25    2    1    2    0    0 -0.33852265674E+01  0.44662289653E+02 -0.22043551438E+02  0.13459898554E+03  0.12499915549E+03 0.  0.
          2    1    1    2  501    0 -0.38318085501E+02  0.51795790646E+01 -0.67319478480E+02  0.77633857939E+02  0.00000000000E+00 0. -1.
          1    1    1    2  502    0  0.41703312068E+02 -0.49841868718E+02  0.24721797199E+04  0.24730337535E+04  0.00000000000E+00 0. -1.
         22    1    3    3    0    0  0.93081800294E+01  0.74963138468E+02  0.22895420395E+02  0.78932342037E+02  0.00000000000E+00 0.  1.
         22    1    3    3    0    0 -0.12693406597E+02 -0.30300848815E+02 -0.44938971833E+02  0.55666643507E+02  0.00000000000E+00 0.  1.
</event>
<event>
 7    1  0.6173324E-006  0.3048180E+02  0.7818608E-02  0.1613374E+00
          2   -1    0    0  502    0  0.00000000000E+00  0.00000000000E+00  0.29760233154E+03  0.29760233154E+03  0.00000000000E+00 0. -1.
          1   -1    0    0  501    0 -0.00000000000E+00 -0.00000000000E+00 -0.37356058948E+03  0.37356058948E+03  0.00000000000E+00 0. -1.
         25    2    1    2    0    0  0.19637240575E+02  0.51057078234E+02 -0.24283180898E+03  0.27854045470E+03  0.12500020398E+03 0.  0.
          2    1    1    2  501    0 -0.70673132321E+01 -0.27218298746E+02 -0.11045962733E+03  0.11398294597E+03  0.00000000000E+00 0. -1.
          1    1    1    2  502    0 -0.12569927343E+02 -0.23838779489E+02  0.27733317837E+03  0.27863952036E+03  0.00000000000E+00 0. -1.
         22    1    3    3    0    0  0.20277294844E+02  0.10152635346E+02 -0.23597287841E+03  0.23706000092E+03  0.00000000000E+00 0. -1.
         22    1    3    3    0    0 -0.64005426970E+00  0.40904442888E+02 -0.68589305744E+01  0.41480453783E+02  0.00000000000E+00 0. -1.
</event>
<event>
 7    1  0.6173324E-006  0.7846159E+02  0.7818608E-02  0.1339290E+00
          2   -1    0    0  502    0  0.00000000000E+00  0.00000000000E+00  0.41973786542E+03  0.41973786542E+03  0.00000000000E+00 0. -1.
          1   -1    0    0  501    0 -0.00000000000E+00 -0.00000000000E+00 -0.18439727979E+04  0.18439727979E+04  0.00000000000E+00 0. -1.
         25    2    1    2    0    0  0.39957791445E+02 -0.12947491210E+03 -0.21754071514E+03  0.28514771407E+03  0.12499951253E+03 0.  0.
          2    1    1    2  501    0 -0.52737512954E+02  0.52743186026E+02 -0.15878244974E+04  0.15895753280E+04  0.00000000000E+00 0. -1.
          1    1    1    2  502    0  0.12779721509E+02  0.76731726075E+02  0.38113028007E+03  0.38898762121E+03  0.00000000000E+00 0. -1.
         22    1    3    3    0    0 -0.69659000380E+01 -0.35013930593E+02 -0.16211189368E+03  0.16599628060E+03  0.00000000000E+00 0.  1.
         22    1    3    3    0    0  0.46923691483E+02 -0.94460981508E+02 -0.55428821458E+02  0.11915143347E+03  0.00000000000E+00 0.  1.
</event>
<event>
 7    1  0.6173324E-006  0.9089599E+02  0.7818608E-02  0.1321754E+00
          2   -1    0    0  502    0  0.00000000000E+00  0.00000000000E+00  0.16720559272E+03  0.16720559272E+03  0.00000000000E+00 0. -1.
          1   -1    0    0  501    0 -0.00000000000E+00 -0.00000000000E+00 -0.84335603627E+03  0.84335603627E+03  0.00000000000E+00 0. -1.
         25    2    1    2    0    0 -0.10409928860E+03  0.88623297848E+02  0.25249591691E+02  0.18695914727E+03  0.12500172022E+03 0.  0.
          2    1    1    2  501    0  0.73436974527E+02 -0.15776236766E+02 -0.73419815435E+03  0.73803035759E+03  0.00000000000E+00 0. -1.
          1    1    1    2  502    0  0.30662314070E+02 -0.72847061083E+02  0.32798119101E+02  0.85572124135E+02  0.00000000000E+00 0. -1.
         22    1    3    3    0    0 -0.11163039024E+03  0.74721289767E+02  0.61253377000E+02  0.14763668705E+03  0.00000000000E+00 0. -1.
         22    1    3    3    0    0  0.75311016440E+01  0.13902008081E+02 -0.36003785309E+02  0.39322460214E+02  0.00000000000E+00 0. -1.
</event>
<event>
 7    1  0.6173324E-006  0.4908285E+02  0.7818608E-02  0.1518984E+00
          2   -1    0    0  502    0  0.00000000000E+00  0.00000000000E+00  0.17009028661E+03  0.17009028661E+03  0.00000000000E+00 0. -1.
          1   -1    0    0  501    0 -0.00000000000E+00 -0.00000000000E+00 -0.15877915903E+04  0.15877915903E+04  0.00000000000E+00 0. -1.
         25    2    1    2    0    0 -0.31923838381E+02 -0.11003336526E+01 -0.72494856843E+03  0.73634015616E+03  0.12500422596E+03 0.  0.
          2    1    1    2  501    0  0.45013524388E+02 -0.26241317839E+02 -0.85494992494E+03  0.85653616286E+03  0.00000000000E+00 0. -1.
          1    1    1    2  502    0 -0.13089686007E+02  0.27341651491E+02  0.16219718969E+03  0.16500555787E+03  0.00000000000E+00 0. -1.
         22    1    3    3    0    0  0.37299736918E+02 -0.18281387073E+02 -0.11569704746E+03  0.12292797192E+03  0.00000000000E+00 0.  1.
         22    1    3    3    0    0 -0.69223575300E+02  0.17181053421E+02 -0.60925152097E+03  0.61341218424E+03  0.00000000000E+00 0.  1.
</event>
<event>
 7    1  0.6173324E-006  0.1010104E+03  0.7818608E-02  0.1392648E+00
          2   -1    0    0  502    0  0.00000000000E+00  0.00000000000E+00  0.58447762844E+03  0.58447762844E+03  0.00000000000E+00 0. -1.
          1   -1    0    0  501    0 -0.00000000000E+00 -0.00000000000E+00 -0.36943785615E+03  0.36943785615E+03  0.00000000000E+00 0. -1.
         25    2    1    2    0    0  0.46544431441E+02  0.47515994891E+02  0.12380553767E+03  0.18808800623E+03  0.12500053225E+03 0.  0.
          2    1    1    2  501    0 -0.78756885052E+02 -0.66009750756E+02 -0.32863077033E+03  0.34432269363E+03  0.00000000000E+00 0. -1.
          1    1    1    2  502    0  0.32212453612E+02  0.18493755865E+02  0.41986500495E+03  0.42150478474E+03  0.00000000000E+00 0. -1.
         22    1    3    3    0    0  0.55735855409E+02  0.45944325640E+01 -0.84855371011E+00  0.55931336764E+02  0.00000000000E+00 0. -1.
         22    1    3    3    0    0 -0.91914239688E+01  0.42921562327E+02  0.12465409138E+03  0.13215666947E+03  0.00000000000E+00 0. -1.
</event>
<event>
 7    1  0.6173324E-006  0.8450199E+02  0.7818608E-02  0.1390653E+00
          2   -1    0    0  502    0  0.00000000000E+00  0.00000000000E+00  0.84923975089E+02  0.84923975089E+02  0.00000000000E+00 0. -1.
          1   -1    0    0  501    0 -0.00000000000E+00 -0.00000000000E+00 -0.52147707529E+03  0.52147707529E+03  0.00000000000E+00 0. -1.
         25    2    1    2    0    0 -0.19042344574E+02  0.47113856121E+02 -0.42299930793E+03  0.44399868738E+03  0.12499637420E+03 0.  0.
          2    1    1    2  501    0  0.21126750284E+02  0.39863521606E+02 -0.50642846761E+02  0.67824316144E+02  0.00000000000E+00 0. -1.
          1    1    1    2  502    0 -0.20844057091E+01 -0.86977377727E+02  0.37089054489E+02  0.94578046852E+02  0.00000000000E+00 0. -1.
         22    1    3    3    0    0  0.30494076161E+01  0.65856270388E+01 -0.38256809468E+03  0.38263692509E+03  0.00000000000E+00 0. -1.
         22    1    3    3    0    0 -0.22091752191E+02  0.40528229082E+02 -0.40431213244E+02  0.61361762294E+02  0.00000000000E+00 0. -1.
</event>
<event>
 7    1  0.7106452E-006  0.7086613E+02  0.7818608E-02  0.1385574E+00
          2   -1    0    0  502    0  0.00000000000E+00  0.00000000000E+00  0.47519253209E+03  0.47519253209E+03  0.00000000000E+00 0. -1.
          1   -1    0    0  501    0 -0.00000000000E+00 -0.00000000000E+00 -0.16431287739E+04  0.16431287739E+04  0.00000000000E+00 0. -1.
         25    2    1    2    0    0  0.19233369587E+02  0.35485659920E+02 -0.66640231591E+03  0.67922516210E+03  0.12500247842E+03 0.  0.
          2    1    1    2  501    0 -0.47538448369E+02  0.29683117332E+02 -0.96680667336E+03  0.96842972650E+03  0.00000000000E+00 0. -1.
          1    1    1    2  502    0  0.28305078782E+02 -0.65168777253E+02  0.46527274741E+03  0.47066641743E+03  0.00000000000E+00 0. -1.
         22    1    3    3    0    0 -0.44185336284E+02  0.31463661295E+02 -0.16209713495E+03  0.17093211250E+03  0.00000000000E+00 0.  1.
         22    1    3    3    0    0  0.63418705871E+02  0.40219986256E+01 -0.50430518096E+03  0.50829304960E+03  0.00000000000E+00 0.  1.
</event>
<event>
 7    1  0.6173324E-006  0.5340400E+02  0.7818608E-02  0.1454677E+00
          2   -1    0    0  502    0  0.00000000000E+00  0.00000000000E+00  0.16802868470E+04  0.16802868470E+04  0.00000000000E+00 0. -1.
          1   -1    0    0  501    0 -0.00000000000E+00 -0.00000000000E+00 -0.97440897530E+02  0.97440897530E+02  0.00000000000E+00 0. -1.
         25    2    1    2    0    0 -0.49270348542E+02  0.35093934660E+01  0.48055353179E+02  0.14273878415E+03  0.12500064177E+03 0.  0.
          2    1    1    2  501    0  0.11980204004E+02 -0.42027299194E+02 -0.40025282442E+02  0.59260799860E+02  0.00000000000E+00 0. -1.
          1    1    1    2  502    0  0.37290144538E+02  0.38517905728E+02  0.15748158788E+04  0.15757281606E+04  0.00000000000E+00 0. -1.
         22    1    3    3    0    0 -0.74738448120E+02 -0.35355718975E+02  0.49288638537E+02  0.96256077110E+02  0.00000000000E+00 0.  1.
         22    1    3    3    0    0  0.25468099578E+02  0.38865112441E+02 -0.12332853578E+01  0.46482707042E+02  0.00000000000E+00 0.  1.
</event>
<event>
 7    1  0.6173324E-006  0.1047231E+03  0.7818608E-02  0.1331530E+00
          2   -1    0    0  502    0  0.00000000000E+00  0.00000000000E+00  0.43451295344E+03  0.43451295344E+03  0.00000000000E+00 0. -1.
          1   -1    0    0  501    0 -0.00000000000E+00 -0.00000000000E+00 -0.35035961898E+03  0.35035961898E+03  0.00000000000E+00 0. -1.
         25    2    1    2    0    0  0.10515504389E+03  0.98841179486E+02  0.81734426256E+02  0.20766976198E+03  0.12497620408E+03 0.  0.
          2    1    1    2  501    0 -0.45756441244E+02 -0.91958671242E+02 -0.27492522285E+03  0.29348582128E+03  0.00000000000E+00 0. -1.
          1    1    1    2  502    0 -0.59398602644E+02 -0.68825082441E+01  0.27734413105E+03  0.28371698917E+03  0.00000000000E+00 0. -1.
         22    1    3    3    0    0  0.41932747928E+02  0.57418481438E+02  0.10656949707E+03  0.12811047992E+03  0.00000000000E+00 0. -1.
         22    1    3    3    0    0  0.63222295960E+02  0.41422698048E+02 -0.24835070809E+02  0.79559282061E+02  0.00000000000E+00 0. -1.
</event>
<event>
 7    1  0.6173324E-006  0.7247856E+02  0.7818608E-02  0.1453453E+00
          2   -1    0    0  502    0  0.00000000000E+00  0.00000000000E+00  0.54053394795E+03  0.54053394795E+03  0.00000000000E+00 0. -1.
          1   -1    0    0  501    0 -0.00000000000E+00 -0.00000000000E+00 -0.50104718864E+03  0.50104718864E+03  0.00000000000E+00 0. -1.
         25    2    1    2    0    0 -0.50007771425E+02  0.46599634035E+02  0.83759402051E+02  0.16526753085E+03  0.12500166489E+03 0.  0.
          2    1    1    2  501    0 -0.20202149115E+02 -0.25446129904E+02 -0.45648007340E+03  0.45763488696E+03  0.00000000000E+00 0. -1.
          1    1    1    2  502    0  0.70209920540E+02 -0.21153504131E+02  0.41220743065E+03  0.41867871879E+03  0.00000000000E+00 0. -1.
         22    1    3    3    0    0  0.29761024781E+02 -0.13861651730E+02  0.49648414146E+02  0.59521668424E+02  0.00000000000E+00 0.  1.
         22    1    3    3    0    0 -0.79768796206E+02  0.60461285765E+02  0.34110987905E+02  0.10574586243E+03  0.00000000000E+00 0.  1.
</event>
<event>
 7    1  0.6173324E-006  0.1204581E+03  0.7818608E-02  0.1260691E+00
          2   -1    0    0  502    0  0.00000000000E+00  0.00000000000E+00  0.11094147307E+04  0.11094147307E+04  0.00000000000E+00 0. -1.
          1   -1    0    0  501    0 -0.00000000000E+00 -0.00000000000E+00 -0.13107253238E+04  0.13107253238E+04  0.00000000000E+00 0. -1.
         25    2    1    2    0    0  0.65751660762E+02  0.18702079055E+03 -0.87596949736E+02  0.25019793459E+03  0.12500289548E+03 0.  0.
          2    1    1    2  501    0  0.69458544232E+01 -0.11787339436E+03 -0.11363135974E+04  0.11424320434E+04  0.00000000000E+00 0. -1.
          1    1    1    2  502    0 -0.72697515185E+02 -0.69147396192E+02  0.10225999541E+04  0.10275100765E+04  0.00000000000E+00 0. -1.
         22    1    3    3    0    0  0.87795754667E+02  0.11289018903E+03 -0.96238444631E+02  0.17237786268E+03  0.00000000000E+00 0. -1.
         22    1    3    3    0    0 -0.22044093906E+02  0.74130601524E+02  0.86414948950E+01  0.77820071913E+02  0.00000000000E+00 0. -1.
</event>
<event>
 7    1  0.6173324E-006  0.6118339E+02  0.7818608E-02  0.1471551E+00
          2   -1    0    0  502    0  0.00000000000E+00  0.00000000000E+00  0.76356922369E+03  0.76356922369E+03  0.00000000000E+00 0. -1.
          1   -1    0    0  501    0 -0.00000000000E+00 -0.00000000000E+00 -0.83715524560E+03  0.83715524560E+03  0.00000000000E+00 0. -1.
         25    2    1    2    0    0  0.24415057139E+01 -0.93571745977E+02 -0.11165491278E+03  0.19199645250E+03  0.12503673712E+03 0.  0.
          2    1    1    2  501    0 -0.50563999275E+01  0.59910490067E+02 -0.68361548991E+03  0.68625430566E+03  0.00000000000E+00 0. -1.
          1    1    1    2  502    0  0.26148942136E+01  0.33661255909E+02  0.72168438078E+03  0.72247371114E+03  0.00000000000E+00 0. -1.
         22    1    3    3    0    0 -0.51104978998E+01  0.29643642321E+02 -0.37178366661E+02  0.47823568106E+02  0.00000000000E+00 0.  1.
         22    1    3    3    0    0  0.75520036137E+01 -0.12321538830E+03 -0.74476546117E+02  0.14417288439E+03  0.00000000000E+00 0.  1.
</event>
<event>
 7    1  0.6173324E-006  0.8263618E+02  0.7818608E-02  0.1369061E+00
          2   -1    0    0  502    0  0.00000000000E+00  0.00000000000E+00  0.36302155193E+04  0.36302155193E+04  0.00000000000E+00 0. -1.
          1   -1    0    0  501    0 -0.00000000000E+00 -0.00000000000E+00 -0.20079086650E+02  0.20079086650E+02  0.00000000000E+00 0. -1.
         25    2    1    2    0    0  0.57718478969E+02 -0.49593378184E+02  0.85005702735E+03  0.86256155908E+03  0.12499826991E+03 0.  0.
          2    1    1    2  501    0 -0.43119037961E+02 -0.34175652403E+02  0.44340680256E+02  0.70663445836E+02  0.00000000000E+00 0. -1.
          1    1    1    2  502    0 -0.14599441008E+02  0.83769030586E+02  0.27157387250E+04  0.27170696010E+04  0.00000000000E+00 0. -1.
         22    1    3    3    0    0  0.27266388987E+02 -0.24875534502E+02  0.78981494602E+03  0.79067686012E+03  0.00000000000E+00 0.  1.
         22    1    3    3    0    0  0.30452089982E+02 -0.24717843681E+02  0.60242081331E+02  0.71884698953E+02  0.00000000000E+00 0.  1.
</event>
<event>
 7    1  0.6173324E-006  0.1335779E+03  0.7818608E-02  0.1361844E+00
          2   -1    0    0  502    0  0.00000000000E+00  0.00000000000E+00  0.16969305427E+04  0.16969305427E+04  0.00000000000E+00 0. -1.
          1   -1    0    0  501    0 -0.00000000000E+00 -0.00000000000E+00 -0.10379705167E+03  0.10379705167E+03  0.00000000000E+00 0. -1.
         25    2    1    2    0    0  0.55253343067E+02 -0.15545212649E+03  0.10366371937E+04  0.10570999642E+04  0.12500146944E+03 0.  0.
          2    1    1    2  501    0 -0.56887341843E+02  0.11934122428E+03 -0.46050929289E+02  0.13999709126E+03  0.00000000000E+00 0. -1.
          1    1    1    2  502    0  0.16339987759E+01  0.36110902218E+02  0.60254722655E+03  0.60363053885E+03  0.00000000000E+00 0. -1.
         22    1    3    3    0    0  0.47258975272E+01  0.21682472614E+01 -0.18391895761E+01  0.55152535682E+01  0.00000000000E+00 0. -1.
         22    1    3    3    0    0  0.50527445540E+02 -0.15762037376E+03  0.10384763833E+04  0.10515847106E+04  0.00000000000E+00 0. -1.
</event>
<event>
 7    1  0.6173324E-006  0.7590761E+02  0.7818608E-02  0.1391997E+00
          2   -1    0    0  502    0  0.00000000000E+00  0.00000000000E+00  0.99053824098E+03  0.99053824098E+03  0.00000000000E+00 0. -1.
          1   -1    0    0  501    0 -0.00000000000E+00 -0.00000000000E+00 -0.25513688938E+03  0.25513688938E+03  0.00000000000E+00 0. -1.
         25    2    1    2    0    0  0.21699005801E+02  0.10981973378E+03 -0.19533400977E+02  0.16893241086E+03  0.12500153962E+03 0.  0.
          2    1    1    2  501    0 -0.36833568344E+02 -0.62495278816E+02 -0.15201304792E+03  0.16843496777E+03  0.00000000000E+00 0. -1.
          1    1    1    2  502    0  0.15134562543E+02 -0.47324454962E+02  0.90694780049E+03  0.90830775172E+03  0.00000000000E+00 0. -1.
         22    1    3    3    0    0 -0.67499424196E+01 -0.24488892796E+02 -0.18866984007E+02  0.31642229355E+02  0.00000000000E+00 0. -1.
         22    1    3    3    0    0  0.28448948221E+02  0.13430862657E+03 -0.66641697017E+00  0.13729018151E+03  0.00000000000E+00 0. -1.
</event>
<event>
 7    1  0.6173324E-006  0.3960073E+02  0.7818608E-02  0.1533917E+00
          2   -1    0    0  502    0  0.00000000000E+00  0.00000000000E+00  0.28654627703E+03  0.28654627703E+03  0.00000000000E+00 0. -1.
          1   -1    0    0  501    0 -0.00000000000E+00 -0.00000000000E+00 -0.15877589199E+03  0.15877589199E+03  0.00000000000E+00 0. -1.
         25    2    1    2    0    0 -0.22135552526E+02 -0.32795908142E+02  0.96558718481E+02  0.16283291156E+03  0.12500166678E+03 0.  0.
          2    1    1    2  501    0  0.33445958540E+02 -0.62822872709E+01 -0.12060606737E+03  0.12531529341E+03  0.00000000000E+00 0. -1.
          1    1    1    2  502    0 -0.11310406014E+02  0.39078195412E+02  0.15181773392E+03  0.15717396405E+03  0.00000000000E+00 0. -1.
         22    1    3    3    0    0 -0.19491976796E+02  0.47194402800E+02  0.38968988340E+02  0.64232630861E+02  0.00000000000E+00 0.  1.
         22    1    3    3    0    0 -0.26435757295E+01 -0.79990310941E+02  0.57589730141E+02  0.98600280703E+02  0.00000000000E+00 0.  1.
</event>
<event>
 7    1  0.6173324E-006  0.7454936E+02  0.7818608E-02  0.1484690E+00
          2   -1    0    0  502    0  0.00000000000E+00  0.00000000000E+00  0.16369123145E+04  0.16369123145E+04  0.00000000000E+00 0. -1.
          1   -1    0    0  501    0 -0.00000000000E+00 -0.00000000000E+00 -0.21400938249E+04  0.21400938249E+04  0.00000000000E+00 0. -1.
         25    2    1    2    0    0 -0.79436161481E+01  0.87889222341E+02  0.35725563771E+03  0.38864104066E+03  0.12499060511E+03 0.  0.
          2    1    1    2  501    0  0.25713520612E+02 -0.69954474690E+02 -0.21236212511E+04  0.21249287122E+04  0.00000000000E+00 0. -1.
          1    1    1    2  502    0 -0.17769904464E+02 -0.17934747651E+02  0.12631841030E+04  0.12634363865E+04  0.00000000000E+00 0. -1.
         22    1    3    3    0    0  0.44453276683E+02  0.44325261445E+02  0.72757101412E+02  0.96095881368E+02  0.00000000000E+00 0.  1.
         22    1    3    3    0    0 -0.52396892832E+02  0.43563960896E+02  0.28449853630E+03  0.29254515929E+03  0.00000000000E+00 0.  1.
</event>
<event>
 7    1  0.6173324E-006  0.7653571E+02  0.7818608E-02  0.1397264E+00
          2   -1    0    0  502    0  0.00000000000E+00  0.00000000000E+00  0.35270568237E+03  0.35270568237E+03  0.00000000000E+00 0. -1.
          1   -1    0    0  501    0 -0.00000000000E+00 -0.00000000000E+00 -0.41411976596E+03  0.41411976596E+03  0.00000000000E+00 0. -1.
         25    2    1    2    0    0 -0.31612402027E+02  0.57401995802E+02  0.30284629201E+03  0.33411638992E+03  0.12499420926E+03 0.  0.
          2    1    1    2  501    0 -0.11859323156E+02 -0.75914593431E+02 -0.37620666735E+03  0.38397281883E+03  0.00000000000E+00 0. -1.
          1    1    1    2  502    0  0.43471725183E+02  0.18512597629E+02  0.11946291750E+02  0.48736239575E+02  0.00000000000E+00 0. -1.
         22    1    3    3    0    0 -0.23770160391E+02  0.38749660523E+02  0.18545963755E+02  0.49096939693E+02  0.00000000000E+00 0. -1.
         22    1    3    3    0    0 -0.78422416368E+01  0.18652335279E+02  0.28430032825E+03  0.28501945023E+03  0.00000000000E+00 0. -1.
</event>
<event>
 7    1  0.6173324E-006  0.9703199E+02  0.7818608E-02  0.1308913E+00
          2   -1    0    0  502    0  0.00000000000E+00  0.00000000000E+00  0.18219444522E+04  0.18219444522E+04  0.00000000000E+00 0. -1.
          1   -1    0    0  501    0 -0.00000000000E+00 -0.00000000000E+00 -0.18627526139E+02  0.18627526139E+02  0.00000000000E+00 0. -1.
         25    2    1    2    0    0  0.13178036264E+02  0.85773212372E+02  0.10098458804E+04  0.10212493608E+04  0.12502339804E+03 0.  0.
          2    1    1    2  501    0  0.78975331168E+02 -0.10134152377E+01  0.30856434500E+03  0.31851229953E+03  0.00000000000E+00 0. -1.
          1    1    1    2  502    0 -0.92153367432E+02 -0.84759797134E+02  0.48490670065E+03  0.50081031806E+03  0.00000000000E+00 0. -1.
         22    1    3    3    0    0  0.37830311388E+01  0.11819595863E+03  0.76451472766E+03  0.77360672488E+03  0.00000000000E+00 0. -1.
         22    1    3    3    0    0  0.93950051253E+01 -0.32422746255E+02  0.24533115278E+03  0.24764263591E+03  0.00000000000E+00 0. -1.
</event>
<event>
 7    1  0.6173324E-006  0.1111063E+03  0.7818608E-02  0.1404967E+00
          2   -1    0    0  502    0  0.00000000000E+00  0.00000000000E+00  0.71905775431E+03  0.71905775431E+03  0.00000000000E+00 0. -1.
          1   -1    0    0  501    0 -0.00000000000E+00 -0.00000000000E+00 -0.12919117322E+04  0.12919117322E+04  0.00000000000E+00 0. -1.
         25    2    1    2    0    0 -0.13288896063E+03 -0.10417936226E+02 -0.68760120552E+03  0.71146913892E+03  0.12499963418E+03 0.  0.
          2    1    1    2  501    0  0.10226472591E+03  0.10640299678E+02 -0.58757896210E+03  0.59650677016E+03  0.00000000000E+00 0. -1.
          1    1    1    2  502    0  0.30624234729E+02 -0.22236345181E+00  0.70232618971E+03  0.70299357746E+03  0.00000000000E+00 0. -1.
         22    1    3    3    0    0 -0.15290598677E+03 -0.22437958783E+02 -0.64072896679E+03  0.65910341500E+03  0.00000000000E+00 0. -1.
         22    1    3    3    0    0  0.20017026133E+02  0.12020022557E+02 -0.46872238732E+02  0.52365723916E+02  0.00000000000E+00 0. -1.
</event>
<event>
 7    1  0.6173324E-006  0.7572858E+02  0.7818608E-02  0.1431113E+00
          2   -1    0    0  502    0  0.00000000000E+00  0.00000000000E+00  0.55361555091E+03  0.55361555091E+03  0.00000000000E+00 0. -1.
          1   -1    0    0  501    0 -0.00000000000E+00 -0.00000000000E+00 -0.25507610890E+03  0.25507610890E+03  0.00000000000E+00 0. -1.
         25    2    1    2    0    0 -0.41466101476E+02  0.11834938057E+02  0.10737071805E+03  0.17033421967E+03  0.12500308783E+03 0.  0.
          2    1    1    2  501    0 -0.36238058243E+02  0.59678973631E+01 -0.21821522058E+03  0.22128419545E+03  0.00000000000E+00 0. -1.
          1    1    1    2  502    0  0.77704159718E+02 -0.17802835420E+02  0.40938394454E+03  0.41707324469E+03  0.00000000000E+00 0. -1.
         22    1    3    3    0    0 -0.32862225142E+02  0.65417906643E+02  0.38698927362E+02  0.82807217860E+02  0.00000000000E+00 0.  1.
         22    1    3    3    0    0 -0.86038763340E+01 -0.53582968586E+02  0.68671790687E+02  0.87527001814E+02  0.00000000000E+00 0.  1.
</event>
<event>
 7    1  0.6173324E-006  0.6109148E+02  0.7818608E-02  0.1456482E+00
          2   -1    0    0  502    0  0.00000000000E+00  0.00000000000E+00  0.10684411491E+04  0.10684411491E+04  0.00000000000E+00 0. -1.
          1   -1    0    0  501    0 -0.00000000000E+00 -0.00000000000E+00 -0.46017300450E+02  0.46017300450E+02  0.00000000000E+00 0. -1.
         25    2    1    2    0    0 -0.92085137797E+02  0.25816462437E+02  0.33390644395E+03  0.36914015847E+03  0.12499912377E+03 0.  0.
          2    1    1    2  501    0  0.34220716489E+02 -0.15822471010E+02 -0.14099569435E+02  0.40251781130E+02  0.00000000000E+00 0. -1.
          1    1    1    2  502    0  0.57864421308E+02 -0.99939914278E+01  0.70261697412E+03  0.70506650994E+03  0.00000000000E+00 0. -1.
         22    1    3    3    0    0 -0.10509098929E+03  0.41242666655E+02  0.17047010336E+03  0.20446302776E+03  0.00000000000E+00 0. -1.
         22    1    3    3    0    0  0.13005851496E+02 -0.15426204218E+02  0.16343634059E+03  0.16467713070E+03  0.00000000000E+00 0. -1.
</event>
<event>
 7    1  0.6173324E-006  0.4456822E+02  0.7818608E-02  0.1522860E+00
          2   -1    0    0  502    0  0.00000000000E+00  0.00000000000E+00  0.28830412309E+04  0.28830412309E+04  0.00000000000E+00 0. -1.
          1   -1    0    0  501    0 -0.00000000000E+00 -0.00000000000E+00 -0.29218660945E+02  0.29218660945E+02  0.00000000000E+00 0. -1.
         25    2    1    2    0    0 -0.50361817144E+02  0.39742903815E+02  0.48147789731E+03  0.50155920266E+03  0.12499942860E+03 0.  0.
          2    1    1    2  501    0  0.32520605209E+02  0.82244902662E+00 -0.50260450918E+01  0.32916976088E+02  0.00000000000E+00 0. -1.
          1    1    1    2  502    0  0.17841211936E+02 -0.40565352841E+02  0.23773707177E+04  0.23777837131E+04  0.00000000000E+00 0. -1.
         22    1    3    3    0    0 -0.61724817523E+02  0.72451297802E+02  0.42319708335E+03  0.43376827340E+03  0.00000000000E+00 0.  1.
         22    1    3    3    0    0  0.11363000379E+02 -0.32708393987E+02  0.58280813955E+02  0.67790929261E+02  0.00000000000E+00 0.  1.
</event>
<event>
 7    1  0.6173324E-006  0.1154889E+03  0.7818608E-02  0.1300649E+00
          2   -1    0    0  502    0  0.00000000000E+00  0.00000000000E+00  0.71358414342E+03  0.71358414342E+03  0.00000000000E+00 0. -1.
          1   -1    0    0  501    0 -0.00000000000E+00 -0.00000000000E+00 -0.27761647143E+03  0.27761647143E+03  0.00000000000E+00 0. -1.
         25    2    1    2    0    0 -0.50457883019E+02 -0.72984632967E+02  0.51462857026E+02  0.16169826547E+03  0.12500059517E+03 0.  0.
          2    1    1    2  501    0  0.53873484531E+02 -0.47117520538E+02 -0.21057940343E+03  0.22240975299E+03  0.00000000000E+00 0. -1.
          1    1    1    2  502    0 -0.34156015119E+01  0.12010215350E+03  0.59508421840E+03  0.60709259639E+03  0.00000000000E+00 0. -1.
         22    1    3    3    0    0  0.25847788308E+02 -0.72476844737E+02  0.24114933081E+02  0.80638273673E+02  0.00000000000E+00 0. -1.
         22    1    3    3    0    0 -0.76305671327E+02 -0.50778823015E+00  0.27347923945E+02  0.81059991794E+02  0.00000000000E+00 0. -1.
</event>
<event>
 7    1  0.6173324E-006  0.2992065E+02  0.7818608E-02  0.1624024E+00
          2   -1    0    0  502    0  0.00000000000E+00  0.00000000000E+00  0.79536902408E+03  0.79536902408E+03  0.00000000000E+00 0. -1.
          1   -1    0    0  501    0 -0.00000000000E+00 -0.00000000000E+00 -0.10486654639E+04  0.10486654639E+04  0.00000000000E+00 0. -1.
         25    2    1    2    0    0 -0.32821354889E+02  0.83991621737E+01 -0.44635592056E+03  0.46476276708E+03  0.12499213808E+03 0.  0.
          2    1    1    2  501    0  0.18558775252E+02  0.17908284796E+02 -0.59254075377E+03  0.59310174480E+03  0.00000000000E+00 0. -1.
          1    1    1    2  502    0  0.14262579636E+02 -0.26307446970E+02  0.78560023449E+03  0.78616997613E+03  0.00000000000E+00 0. -1.
         22    1    3    3    0    0 -0.83294055976E+01  0.61762779233E+02 -0.14638315677E+03  0.15909760678E+03  0.00000000000E+00 0.  1.
         22    1    3    3    0    0 -0.24491949291E+02 -0.53363617060E+02 -0.29997276379E+03  0.30566516030E+03  0.00000000000E+00 0.  1.
</event>
<event>
 7    1  0.6173324E-006  0.5454155E+02  0.7818608E-02  0.1521763E+00
          2   -1    0    0  502    0  0.00000000000E+00  0.00000000000E+00  0.10668046817E+04  0.10668046817E+04  0.00000000000E+00 0. -1.
          1   -1    0    0  501    0 -0.00000000000E+00 -0.00000000000E+00 -0.94489285897E+03  0.94489285897E+03  0.00000000000E+00 0. -1.
         25    2    1    2    0    0 -0.10134671868E+01  0.45791125030E+02 -0.19380180127E+03  0.23512379450E+03  0.12500482517E+03 0.  0.
          2    1    1    2  501    0  0.27715068582E+02 -0.47807539125E+02 -0.72921312363E+03  0.73130394877E+03  0.00000000000E+00 0. -1.
          1    1    1    2  502    0 -0.26701601395E+02  0.20164140949E+01  0.10449267476E+04  0.10452697974E+04  0.00000000000E+00 0. -1.
         22    1    3    3    0    0  0.10818397166E+02 -0.58740949505E+01 -0.17991019987E+03  0.18033087014E+03  0.00000000000E+00 0. -1.
         22    1    3    3    0    0 -0.11831864353E+02  0.51665219980E+02 -0.13891601394E+02  0.54792924351E+02  0.00000000000E+00 0. -1.
</event>
<event>
 7    1  0.6173324E-006  0.9627906E+02  0.7818608E-02  0.1303203E+00
          2   -1    0    0  502    0  0.00000000000E+00  0.00000000000E+00  0.24895545520E+04  0.24895545520E+04  0.00000000000E+00 0. -1.
          1   -1    0    0  501    0 -0.00000000000E+00 -0.00000000000E+00 -0.37104489170E+03  0.37104489170E+03  0.00000000000E+00 0. -1.
         25    2    1    2    0    0 -0.40634138353E+02  0.33361972463E+02  0.29472675292E+03  0.32442376453E+03  0.12499106248E+03 0.  0.
          2    1    1    2  501    0  0.92093716799E+02  0.32852135734E+02 -0.34866199715E+03  0.36211283290E+03  0.00000000000E+00 0. -1.
          1    1    1    2  502    0 -0.51459578446E+02 -0.66214108197E+02  0.21724449045E+04  0.21740628462E+04  0.00000000000E+00 0. -1.
         22    1    3    3    0    0  0.25314698318E+02  0.44131218471E+02  0.21231265566E+03  0.21832329731E+03  0.00000000000E+00 0.  1.
         22    1    3    3    0    0 -0.65948836671E+02 -0.10769246007E+02  0.82414097257E+02  0.10610046722E+03  0.00000000000E+00 0.  1.
</event>
<event>
 7    1  0.6173324E-006  0.7351405E+02  0.7818608E-02  0.1411724E+00
          2   -1    0    0  502    0  0.00000000000E+00  0.00000000000E+00  0.13706053821E+04  0.13706053821E+04  0.00000000000E+00 0. -1.
          1   -1    0    0  501    0 -0.00000000000E+00 -0.00000000000E+00 -0.37088969547E+02  0.37088969547E+02  0.00000000000E+00 0. -1.
         25    2    1    2    0    0 -0.49807630893E+02  0.34480893361E+02  0.29431684459E+03  0.32544772107E+03  0.12499632811E+03 0.  0.
          2    1    1    2  501    0  0.78635238128E+02 -0.13682489199E+01  0.52475982613E+02  0.94546821901E+02  0.00000000000E+00 0. -1.
          1    1    1    2  502    0 -0.28827607234E+02 -0.33112644441E+02  0.98672358540E+03  0.98769980872E+03  0.00000000000E+00 0. -1.
         22    1    3    3    0    0 -0.48291163413E+02 -0.40987690438E+02  0.12887621280E+03  0.14360050647E+03  0.00000000000E+00 0.  1.
         22    1    3    3    0    0 -0.15164674801E+01  0.75468583800E+02  0.16544063178E+03  0.18184721460E+03  0.00000000000E+00 0.  1.
</event>
<event>
 7    1  0.6173324E-006  0.7200866E+02  0.7818608E-02  0.1364021E+00
          2   -1    0    0  502    0  0.00000000000E+00  0.00000000000E+00  0.55337421761E+03  0.55337421761E+03  0.00000000000E+00 0. -1.
          1   -1    0    0  501    0 -0.00000000000E+00 -0.00000000000E+00 -0.29373466015E+03  0.29373466015E+03  0.00000000000E+00 0. -1.
         25    2    1    2    0    0  0.14933273232E+01  0.20597318550E+02 -0.64437999531E+02  0.14213220267E+03  0.12499131048E+03 0.  0.
          2    1    1    2  501    0 -0.34060056402E+02 -0.77824238064E+02 -0.17872180497E+03  0.19788426679E+03  0.00000000000E+00 0. -1.
          1    1    1    2  502    0  0.32566729079E+02  0.57226919514E+02  0.50279936197E+03  0.50709240830E+03  0.00000000000E+00 0. -1.
         22    1    3    3    0    0 -0.35780504667E+02 -0.41157868180E+02 -0.26578657780E+02  0.60668275702E+02  0.00000000000E+00 0. -1.
         22    1    3    3    0    0  0.37273831990E+02  0.61755186730E+02 -0.37859341751E+02  0.81463926968E+02  0.00000000000E+00 0. -1.
</event>
<event>
 7    1  0.6173324E-006  0.2528622E+03  0.7818608E-02  0.1240375E+00
          2   -1    0    0  502    0  0.00000000000E+00  0.00000000000E+00  0.61016645652E+03  0.61016645652E+03  0.00000000000E+00 0. -1.
          1   -1    0    0  501    0 -0.00000000000E+00 -0.00000000000E+00 -0.82194069196E+03  0.82194069196E+03  0.00000000000E+00 0. -1.
         25    2    1    2    0    0 -0.26004577628E+01 -0.21671259159E+03  0.12556720932E+03  0.27993339835E+03  0.12499789487E+03 0.  0.
          2    1    1    2  501    0  0.88470223858E+01 -0.57867285598E+02 -0.69710346130E+03  0.69955709438E+03  0.00000000000E+00 0. -1.
          1    1    1    2  502    0 -0.62465646230E+01  0.27457987718E+03  0.35976201654E+03  0.45261665575E+03  0.00000000000E+00 0. -1.
         22    1    3    3    0    0  0.32606346622E+02 -0.33578873519E+02  0.72051707690E+02  0.85919515640E+02  0.00000000000E+00 0. -1.
         22    1    3    3    0    0 -0.35206804385E+02 -0.18313371807E+03  0.53515501632E+02  0.19401388271E+03  0.00000000000E+00 0. -1.
</event>
<event>
 7    1  0.6173324E-006  0.1108600E+03  0.7818608E-02  0.1322971E+00
          2   -1    0    0  502    0  0.00000000000E+00  0.00000000000E+00  0.23737419531E+04  0.23737419531E+04  0.00000000000E+00 0. -1.
          1   -1    0    0  501    0 -0.00000000000E+00 -0.00000000000E+00 -0.15626229934E+04  0.15626229934E+04  0.00000000000E+00 0. -1.
         25    2    1    2    0    0  0.15566821305E+03  0.51674893092E+02 -0.28549788132E+02  0.20818983166E+03  0.12500011390E+03 0.  0.
          2    1    1    2  501    0 -0.10898659845E+03 -0.12529311724E+02 -0.14417626891E+04  0.14459303973E+04  0.00000000000E+00 0. -1.
          1    1    1    2  502    0 -0.46681614595E+02 -0.39145581367E+02  0.22814314368E+04  0.22822447175E+04  0.00000000000E+00 0. -1.
         22    1    3    3    0    0 -0.13464115808E+02  0.30724870984E+02  0.65728682795E+01  0.34183368893E+02  0.00000000000E+00 0.  1.
         22    1    3    3    0    0  0.16913232886E+03  0.20950022108E+02 -0.35122656412E+02  0.17400646277E+03  0.00000000000E+00 0.  1.
</event>
<event>
 7    1  0.6173324E-006  0.8004313E+02  0.7818608E-02  0.1433583E+00
          2   -1    0    0  502    0  0.00000000000E+00  0.00000000000E+00  0.19609660390E+03  0.19609660390E+03  0.00000000000E+00 0. -1.
          1   -1    0    0  501    0 -0.00000000000E+00 -0.00000000000E+00 -0.11169024228E+04  0.11169024228E+04  0.00000000000E+00 0. -1.
         25    2    1    2    0    0 -0.23751640671E+02  0.48293532562E+02 -0.53683350371E+02  0.14629795282E+03  0.12499913267E+03 0.  0.
          2    1    1    2  501    0 -0.30813392104E+02  0.14615762044E+02 -0.10050256826E+04  0.10056041509E+04  0.00000000000E+00 0. -1.
          1    1    1    2  502    0  0.54565032774E+02 -0.62909294607E+02  0.13790321406E+03  0.16109692299E+03  0.00000000000E+00 0. -1.
         22    1    3    3    0    0 -0.57194864207E+02  0.55386543665E+02 -0.72147001166E+02  0.10744352697E+03  0.00000000000E+00 0. -1.
         22    1    3    3    0    0  0.33443223536E+02 -0.70930111028E+01  0.18463650795E+02  0.38854425844E+02  0.00000000000E+00 0. -1.
</event>
<event>
 7    1  0.6173324E-006  0.1017244E+03  0.7818608E-02  0.1297061E+00
          2   -1    0    0  502    0  0.00000000000E+00  0.00000000000E+00  0.14376745561E+04  0.14376745561E+04  0.00000000000E+00 0. -1.
          1   -1    0    0  501    0 -0.00000000000E+00 -0.00000000000E+00 -0.19239834543E+03  0.19239834543E+03  0.00000000000E+00 0. -1.
         25    2    1    2    0    0 -0.10972237970E+02 -0.26744074817E+02  0.21198871001E+03  0.24778922229E+03  0.12499859986E+03 0.  0.
          2    1    1    2  501    0 -0.17016298709E+02  0.10593686497E+03 -0.15638299366E+03  0.18965182437E+03  0.00000000000E+00 0. -1.
          1    1    1    2  502    0  0.27988536679E+02 -0.79192790154E+02  0.11896704943E+04  0.11926318549E+04  0.00000000000E+00 0. -1.
         22    1    3    3    0    0 -0.39467288798E+01 -0.69274479389E+02  0.66723043357E+02  0.96262633863E+02  0.00000000000E+00 0. -1.
         22    1    3    3    0    0 -0.70255090905E+01  0.42530404572E+02  0.14526566665E+03  0.15152658842E+03  0.00000000000E+00 0. -1.
</event>
<event>
 7    1  0.6173324E-006  0.5172384E+02  0.7818608E-02  0.1439876E+00
          2   -1    0    0  502    0  0.00000000000E+00  0.00000000000E+00  0.49130644951E+03  0.49130644951E+03  0.00000000000E+00 0. -1.
          1   -1    0    0  501    0 -0.00000000000E+00 -0.00000000000E+00 -0.11085121235E+03  0.11085121235E+03  0.00000000000E+00 0. -1.
         25    2    1    2    0    0 -0.38721979307E+02 -0.14633402192E+01  0.63085434326E+02  0.14528069184E+03  0.12500069740E+03 0.  0.
          2    1    1    2  501    0  0.24137636221E+02  0.49645363019E+02 -0.56876273270E+02  0.79260318021E+02  0.00000000000E+00 0. -1.
          1    1    1    2  502    0  0.14584343086E+02 -0.48182022800E+02  0.37424607611E+03  0.37761665200E+03  0.00000000000E+00 0. -1.
         22    1    3    3    0    0 -0.73075498248E+02  0.34232911050E+02  0.32096794439E+02  0.86845407802E+02  0.00000000000E+00 0.  1.
         22    1    3    3    0    0  0.34353518940E+02 -0.35696251270E+02  0.30988639887E+02  0.58435284036E+02  0.00000000000E+00 0.  1.
</event>
<event>
 7    1  0.6173324E-006  0.8637990E+02  0.7818608E-02  0.1336368E+00
          2   -1    0    0  502    0  0.00000000000E+00  0.00000000000E+00  0.76493347461E+03  0.76493347461E+03  0.00000000000E+00 0. -1.
          1   -1    0    0  501    0 -0.00000000000E+00 -0.00000000000E+00 -0.27367052669E+03  0.27367052669E+03  0.00000000000E+00 0. -1.
         25    2    1    2    0    0  0.25220245137E+02 -0.12934914689E+02  0.27585682302E+02  0.13111254551E+03  0.12500462768E+03 0.  0.
          2    1    1    2  501    0 -0.57358190649E+02  0.74548480607E+02 -0.21007153883E+03  0.23016839362E+03  0.00000000000E+00 0. -1.
          1    1    1    2  502    0  0.32137945512E+02 -0.61613565918E+02  0.67374880445E+03  0.67732306217E+03  0.00000000000E+00 0. -1.
         22    1    3    3    0    0 -0.12810926921E+02 -0.16719318843E+02  0.70539524097E+02  0.73617117106E+02  0.00000000000E+00 0.  1.
         22    1    3    3    0    0  0.38031172058E+02  0.37844041546E+01 -0.42953841795E+02  0.57495428408E+02  0.00000000000E+00 0.  1.
</event>
<event>
 7    1  0.6173324E-006  0.5028363E+02  0.7818608E-02  0.1508145E+00
          2   -1    0    0  502    0  0.00000000000E+00  0.00000000000E+00  0.31310833847E+03  0.31310833847E+03  0.00000000000E+00 0. -1.
          1   -1    0    0  501    0 -0.00000000000E+00 -0.00000000000E+00 -0.68262902262E+03  0.68262902262E+03  0.00000000000E+00 0. -1.
         25    2    1    2    0    0 -0.35208659024E+01  0.46959722354E+02 -0.24367113466E+03  0.27788081176E+03  0.12499804661E+03 0.  0.
          2    1    1    2  501    0 -0.28073062588E+02 -0.43058142940E+02 -0.41942361671E+03  0.42256155855E+03  0.00000000000E+00 0. -1.
          1    1    1    2  502    0  0.31593928490E+02 -0.39015794144E+01  0.29357406721E+03  0.29529499078E+03  0.00000000000E+00 0. -1.
         22    1    3    3    0    0  0.34320633076E+02  0.10616233992E+02 -0.21521625952E+03  0.21819406188E+03  0.00000000000E+00 0.  1.
         22    1    3    3    0    0 -0.37841498979E+02  0.36343488363E+02 -0.28454875141E+02  0.59686749875E+02  0.00000000000E+00 0.  1.
</event>
<event>
 7    1  0.6173324E-006  0.3069064E+02  0.7818608E-02  0.1643590E+00
          2   -1    0    0  502    0  0.00000000000E+00  0.00000000000E+00  0.81810501682E+03  0.81810501682E+03  0.00000000000E+00 0. -1.
          1   -1    0    0  501    0 -0.00000000000E+00 -0.00000000000E+00 -0.19974797085E+03  0.19974797085E+03  0.00000000000E+00 0. -1.
         25    2    1    2    0    0 -0.56810459409E+01 -0.20048622392E+02  0.16089289936E+02  0.12774068029E+03  0.12499837842E+03 0.  0.
          2    1    1    2  501    0 -0.21668464714E+02  0.59182538173E+01 -0.14272603632E+03  0.14448276553E+03  0.00000000000E+00 0. -1.
          1    1    1    2  502    0  0.27349510655E+02  0.14130368575E+02  0.74499379235E+03  0.74562954185E+03  0.00000000000E+00 0. -1.
         22    1    3    3    0    0 -0.95721314624E-01  0.82081614589E+01  0.67936080959E+02  0.68430213891E+02  0.00000000000E+00 0.  1.
         22    1    3    3    0    0 -0.55853246263E+01 -0.28256783851E+02 -0.51846791023E+02  0.59310466397E+02  0.00000000000E+00 0.  1.
</event>
<event>
 7    1  0.6173324E-006  0.9434508E+02  0.7818608E-02  0.1372078E+00
          2   -1    0    0  502    0  0.00000000000E+00  0.00000000000E+00  0.32009968382E+04  0.32009968382E+04  0.00000000000E+00 0. -1.
          1   -1    0    0  501    0 -0.00000000000E+00 -0.00000000000E+00 -0.13647810792E+03  0.13647810792E+03  0.00000000000E+00 0. -1.
         25    2    1    2    0    0 -0.56609941069E+02  0.34091002088E+02  0.15848994697E+03  0.21239397309E+03  0.12500101865E+03 0.  0.
          2    1    1    2  501    0 -0.38459460018E+02 -0.27023541991E+02 -0.10369329931E+03  0.11384947171E+03  0.00000000000E+00 0. -1.
          1    1    1    2  502    0  0.95069401087E+02 -0.70674600963E+01  0.30097220826E+04  0.30112315013E+04  0.00000000000E+00 0. -1.
         22    1    3    3    0    0 -0.66914720467E+02  0.43366871740E+00  0.20500798921E+02  0.69986074616E+02  0.00000000000E+00 0.  1.
         22    1    3    3    0    0  0.10304779398E+02  0.33657333370E+02  0.13798914805E+03  0.14240789848E+03  0.00000000000E+00 0.  1.
</event>
<event>
 7    1  0.6173324E-006  0.2257514E+02  0.7818608E-02  0.1708350E+00
          2   -1    0    0  502    0  0.00000000000E+00  0.00000000000E+00  0.15153662689E+04  0.15153662689E+04  0.00000000000E+00 0. -1.
          1   -1    0    0  501    0 -0.00000000000E+00 -0.00000000000E+00 -0.80800940911E+03  0.80800940911E+03  0.00000000000E+00 0. -1.
         25    2    1    2    0    0 -0.34616480791E+02  0.26431881094E+02 -0.12464337436E+03  0.18182031439E+03  0.12500284346E+03 0.  0.
          2    1    1    2  501    0  0.18731212072E+02 -0.10407630748E+02 -0.65451660606E+03  0.65486728785E+03  0.00000000000E+00 0. -1.
          1    1    1    2  502    0  0.15885268719E+02 -0.16024250346E+02  0.14865168402E+04  0.14866880758E+04  0.00000000000E+00 0. -1.
         22    1    3    3    0    0  0.42905704920E+02  0.53895443656E+01 -0.14730002921E+02  0.45682816126E+02  0.00000000000E+00 0. -1.
         22    1    3    3    0    0 -0.77522185711E+02  0.21042336728E+02 -0.10991337144E+03  0.13613749826E+03  0.00000000000E+00 0. -1.
</event>
<event>
 7    1  0.8692132E-006  0.1471487E+03  0.7818608E-02  0.1239330E+00
          2   -1    0    0  502    0  0.00000000000E+00  0.00000000000E+00  0.24687649810E+04  0.24687649810E+04  0.00000000000E+00 0. -1.
          1   -1    0    0  501    0 -0.00000000000E+00 -0.00000000000E+00 -0.11403551689E+04  0.11403551689E+04  0.00000000000E+00 0. -1.
         25    2    1    2    0    0  0.31392284765E+02  0.34361428396E+02 -0.19251201926E+03  0.23420523825E+03  0.12500013103E+03 0.  0.
          2    1    1    2  501    0  0.67515895256E+02  0.76013781999E+02 -0.92195629196E+03  0.92754509079E+03  0.00000000000E+00 0. -1.
          1    1    1    2  502    0 -0.98908180021E+02 -0.11037521040E+03  0.24428781232E+04  0.24473698209E+04  0.00000000000E+00 0. -1.
         22    1    3    3    0    0  0.59582203844E+02 -0.15079505164E+02 -0.45230900528E+02  0.76310319443E+02  0.00000000000E+00 0. -1.
         22    1    3    3    0    0 -0.28189919079E+02  0.49440933560E+02 -0.14728111873E+03  0.15789491881E+03  0.00000000000E+00 0. -1.
</event>
<event>
 7    1  0.6173324E-006  0.8476900E+02  0.7818608E-02  0.1471198E+00
          2   -1    0    0  502    0  0.00000000000E+00  0.00000000000E+00  0.43152820245E+03  0.43152820245E+03  0.00000000000E+00 0. -1.
          1   -1    0    0  501    0 -0.00000000000E+00 -0.00000000000E+00 -0.73798336742E+02  0.73798336742E+02  0.00000000000E+00 0. -1.
         25    2    1    2    0    0 -0.72434771533E+02  0.87960391480E+01  0.23916754549E+03  0.27955387817E+03  0.12500035821E+03 0.  0.
          2    1    1    2  501    0  0.80643093658E+02 -0.31806104674E+02 -0.16733374261E+02  0.88288972491E+02  0.00000000000E+00 0. -1.
          1    1    1    2  502    0 -0.82083221257E+01  0.23010065526E+02  0.13529569448E+03  0.13748368854E+03  0.00000000000E+00 0. -1.
         22    1    3    3    0    0 -0.41412535159E+02 -0.87532770721E+01  0.49225350688E+01  0.42612783050E+02  0.00000000000E+00 0. -1.
         22    1    3    3    0    0 -0.31022236374E+02  0.17549316220E+02  0.23424501042E+03  0.23694109512E+03  0.00000000000E+00 0. -1.
</event>
<event>
 7    1  0.6173324E-006  0.1196504E+03  0.7818608E-02  0.1392140E+00
          2   -1    0    0  502    0  0.00000000000E+00  0.00000000000E+00  0.59009323704E+03  0.59009323704E+03  0.00000000000E+00 0. -1.
          1   -1    0    0  501    0 -0.00000000000E+00 -0.00000000000E+00 -0.95965929814E+03  0.95965929814E+03  0.00000000000E+00 0. -1.
         25    2    1    2    0    0  0.18461848605E+02  0.10908252000E+03  0.64593675852E+02  0.17898943010E+03  0.12500014842E+03 0.  0.
          2    1    1    2  501    0  0.11236254928E+02 -0.11953900782E+03 -0.89793182073E+03  0.90592349705E+03  0.00000000000E+00 0. -1.
          1    1    1    2  502    0 -0.29698103533E+02  0.10456487827E+02  0.46377208378E+03  0.46483960802E+03  0.00000000000E+00 0. -1.
         22    1    3    3    0    0  0.26129292638E+02 -0.21490388782E+02  0.25841034462E+02  0.42571537508E+02  0.00000000000E+00 0.  1.
         22    1    3    3    0    0 -0.76674440334E+01  0.13057290878E+03  0.38752641390E+02  0.13641789259E+03  0.00000000000E+00 0.  1.
</event>
<event>
 7    1  0.6173324E-006  0.8175363E+02  0.7818608E-02  0.1430756E+00
          2   -1    0    0  502    0  0.00000000000E+00  0.00000000000E+00  0.71311152567E+03  0.71311152567E+03  0.00000000000E+00 0. -1.
          1   -1    0    0  501    0 -0.00000000000E+00 -0.00000000000E+00 -0.30668619669E+03  0.30668619669E+03  0.00000000000E+00 0. -1.
         25    2    1    2    0    0  0.56209866925E+02  0.33972256718E+01 -0.80390061897E+02  0.15893337520E+03  0.12500466159E+03 0.  0.
          2    1    1    2  501    0  0.20101176773E+02  0.27559650247E+02 -0.18292584979E+03  0.18607917172E+03  0.00000000000E+00 0. -1.
          1    1    1    2  502    0 -0.76311043698E+02 -0.30956875919E+02  0.66974124066E+03  0.67478517544E+03  0.00000000000E+00 0. -1.
         22    1    3    3    0    0  0.58204753513E+02 -0.25542169469E+02  0.96908432859E+01  0.64297031007E+02  0.00000000000E+00 0. -1.
         22    1    3    3    0    0 -0.19948865880E+01  0.28939395141E+02 -0.90080905183E+02  0.94636344193E+02  0.00000000000E+00 0. -1.
</event>
<event>
 7    1  0.6173324E-006  0.8745442E+02  0.7818608E-02  0.1333117E+00
          2   -1    0    0  502    0  0.00000000000E+00  0.00000000000E+00  0.43273729463E+03  0.43273729463E+03  0.00000000000E+00 0. -1.
          1   -1    0    0  501    0 -0.00000000000E+00 -0.00000000000E+00 -0.40868866721E+03  0.40868866721E+03  0.00000000000E+00 0. -1.
         25    2    1    2    0    0 -0.26718924401E+02  0.38550818182E+01 -0.18113526095E+02  0.12915679203E+03  0.12499845808E+03 0.  0.
          2    1    1    2  501    0 -0.45125615814E+02  0.54314482660E+02 -0.32554745460E+03  0.33311789118E+03  0.00000000000E+00 0. -1.
          1    1    1    2  502    0  0.71844540215E+02 -0.58169564478E+02  0.36770960812E+03  0.37915127864E+03  0.00000000000E+00 0. -1.
         22    1    3    3    0    0 -0.38210689150E+02  0.22277825300E+02  0.44586369603E+02  0.62803683171E+02  0.00000000000E+00 0. -1.
         22    1    3    3    0    0  0.11491764749E+02 -0.18422743482E+02 -0.62699895698E+02  0.66353108857E+02  0.00000000000E+00 0. -1.
</event>
<event>
 7    1  0.6173324E-006  0.1788773E+03  0.7818608E-02  0.1226811E+00
          2   -1    0    0  502    0  0.00000000000E+00  0.00000000000E+00  0.96582724974E+03  0.96582724974E+03  0.00000000000E+00 0. -1.
          1   -1    0    0  501    0 -0.00000000000E+00 -0.00000000000E+00 -0.16638803044E+04  0.16638803044E+04  0.00000000000E+00 0. -1.
         25    2    1    2    0    0  0.22415553245E+03 -0.14445371062E+03 -0.25188665851E+03  0.38753705551E+03  0.12500201363E+03 0.  0.
          2    1    1    2  501    0 -0.14156088883E+03  0.97289418105E+02 -0.13361365637E+04  0.13471323739E+04  0.00000000000E+00 0. -1.
          1    1    1    2  502    0 -0.82594643623E+02  0.47164292514E+02  0.88997016750E+03  0.89503812471E+03  0.00000000000E+00 0. -1.
         22    1    3    3    0    0 -0.10401920653E+02 -0.25990613246E+02 -0.82270325196E+01  0.29178690757E+02  0.00000000000E+00 0. -1.
         22    1    3    3    0    0  0.23455745311E+03 -0.11846309737E+03 -0.24365962600E+03  0.35835836475E+03  0.00000000000E+00 0. -1.
</event>
<event>
 7    1  0.6173324E-006  0.3555711E+02  0.7818608E-02  0.1612413E+00
          2   -1    0    0  502    0  0.00000000000E+00  0.00000000000E+00  0.86238834911E+01  0.86238834911E+01  0.00000000000E+00 0. -1.
          1   -1    0    0  501    0 -0.00000000000E+00 -0.00000000000E+00 -0.14781684595E+04  0.14781684595E+04  0.00000000000E+00 0. -1.
         25    2    1    2    0    0  0.20884606100E+02 -0.50730321404E+02 -0.69487920899E+03  0.70816087891E+03  0.12499993219E+03 0.  0.
          2    1    1    2  501    0 -0.78872631780E+01  0.21855239612E+02 -0.63485359043E+03  0.63527863313E+03  0.00000000000E+00 0. -1.
          1    1    1    2  502    0 -0.12997342922E+02  0.28875081793E+02 -0.13981177659E+03  0.14335283097E+03  0.00000000000E+00 0. -1.
         22    1    3    3    0    0  0.36671084764E+02 -0.30132736508E+02 -0.67167053726E+03  0.67334542464E+03  0.00000000000E+00 0. -1.
         22    1    3    3    0    0 -0.15786478664E+02 -0.20597584896E+02 -0.23208671732E+02  0.34815454266E+02  0.00000000000E+00 0. -1.
</event>
<event>
 7    1  0.6173324E-006  0.5698935E+02  0.7818608E-02  0.1451372E+00
          2   -1    0    0  502    0  0.00000000000E+00  0.00000000000E+00  0.23760833430E+02  0.23760833430E+02  0.00000000000E+00 0. -1.
          1   -1    0    0  501    0 -0.00000000000E+00 -0.00000000000E+00 -0.92266775702E+03  0.92266775702E+03  0.00000000000E+00 0. -1.
         25    2    1    2    0    0 -0.53819696723E+02  0.73000766631E+02 -0.35933296515E+03  0.39111436800E+03  0.12499838929E+03 0.  0.
          2    1    1    2  501    0  0.28393979790E+02 -0.30889792049E+02 -0.45898150668E+03  0.46089523844E+03  0.00000000000E+00 0. -1.
          1    1    1    2  502    0  0.25425716934E+02 -0.42110974582E+02 -0.80592451760E+02  0.94418984016E+02  0.00000000000E+00 0. -1.
         22    1    3    3    0    0 -0.49884609632E+02  0.88901104218E+01 -0.37768985732E+02  0.63198137826E+02  0.00000000000E+00 0.  1.
         22    1    3    3    0    0 -0.39350870913E+01  0.64110656209E+02 -0.32156397942E+03  0.32791623017E+03  0.00000000000E+00 0.  1.
</event>
<event>
 7    1  0.6173324E-006  0.3731864E+02  0.7818608E-02  0.1603265E+00
          2   -1    0    0  502    0  0.00000000000E+00  0.00000000000E+00  0.31522786797E+04  0.31522786797E+04  0.00000000000E+00 0. -1.
          1   -1    0    0  501    0 -0.00000000000E+00 -0.00000000000E+00 -0.11623020732E+02  0.11623020732E+02  0.00000000000E+00 0. -1.
         25    2    1    2    0    0  0.16770694878E+02  0.45744719237E+01  0.19530634625E+04  0.19571367836E+04  0.12500127553E+03 0.  0.
          2    1    1    2  501    0  0.22725456541E+02  0.54842554497E+01  0.55595395421E+01  0.24029812999E+02  0.00000000000E+00 0. -1.
          1    1    1    2  502    0 -0.39496151419E+02 -0.10058727373E+02  0.11820326569E+04  0.11827351039E+04  0.00000000000E+00 0. -1.
         22    1    3    3    0    0 -0.13253919463E+02  0.47169014999E+02  0.15426626911E+04  0.15434405596E+04  0.00000000000E+00 0. -1.
         22    1    3    3    0    0  0.30024614341E+02 -0.42594543076E+02  0.41040077143E+03  0.41369622400E+03  0.00000000000E+00 0. -1.
</event>
<event>
 7    1  0.6173324E-006  0.1905426E+03  0.7818608E-02  0.1184854E+00
          2   -1    0    0  502    0  0.00000000000E+00  0.00000000000E+00  0.96536585446E+03  0.96536585446E+03  0.00000000000E+00 0. -1.
          1   -1    0    0  501    0 -0.00000000000E+00 -0.00000000000E+00 -0.72197193475E+03  0.72197193475E+03  0.00000000000E+00 0. -1.
         25    2    1    2    0    0  0.10315562635E+03  0.52921006071E+02  0.52561673440E+03  0.55257785606E+03  0.12501047713E+03 0.  0.
          2    1    1    2  501    0 -0.18291845349E+03  0.62393047627E+02 -0.68318166417E+03  0.70999242198E+03  0.00000000000E+00 0. -1.
          1    1    1    2  502    0  0.79762827138E+02 -0.11531405370E+03  0.40095884948E+03  0.42476751117E+03  0.00000000000E+00 0. -1.
         22    1    3    3    0    0  0.32697972217E+01  0.22874145846E+02  0.78420187094E+01  0.24401134799E+02  0.00000000000E+00 0. -1.
         22    1    3    3    0    0  0.99885829126E+02  0.30046860225E+02  0.51777471569E+03  0.52817672126E+03  0.00000000000E+00 0. -1.
</event>
<event>
 7    1  0.6173324E-006  0.9071288E+02  0.7818608E-02  0.1323168E+00
          2   -1    0    0  502    0  0.00000000000E+00  0.00000000000E+00  0.19012811033E+03  0.19012811033E+03  0.00000000000E+00 0. -1.
          1   -1    0    0  501    0 -0.00000000000E+00 -0.00000000000E+00 -0.84583559996E+03  0.84583559996E+03  0.00000000000E+00 0. -1.
         25    2    1    2    0    0 -0.62572717064E+02 -0.74382950496E+01 -0.48425165785E+01  0.14006872217E+03  0.12500049524E+03 0.  0.
          2    1    1    2  501    0 -0.19437038387E+02  0.71736129210E+02 -0.74904296185E+03  0.75272121625E+03  0.00000000000E+00 0. -1.
          1    1    1    2  502    0  0.82009755451E+02 -0.64297834161E+02  0.98177988802E+02  0.14317377187E+03  0.00000000000E+00 0. -1.
         22    1    3    3    0    0  0.16769351365E+02 -0.78012038674E+01 -0.46794965254E+02  0.50317379703E+02  0.00000000000E+00 0. -1.
         22    1    3    3    0    0 -0.79342068428E+02  0.36290881784E+00  0.41952448676E+02  0.89751342470E+02  0.00000000000E+00 0. -1.
</event>
<event>
 7    1  0.6173324E-006  0.4374889E+03  0.7818608E-02  0.1240142E+00
          2   -1    0    0  502    0  0.00000000000E+00  0.00000000000E+00  0.14453632917E+04  0.14453632917E+04  0.00000000000E+00 0. -1.
          1   -1    0    0  501    0 -0.00000000000E+00 -0.00000000000E+00 -0.10761662465E+04  0.10761662465E+04  0.00000000000E+00 0. -1.
         25    2    1    2    0    0 -0.24686271253E+03 -0.32805132621E+03  0.29517411711E+03  0.52087593815E+03  0.12500044825E+03 0.  0.
          2    1    1    2  501    0  0.25227244604E+03  0.36153227277E+03 -0.91257168690E+03  0.10134762232E+04  0.00000000000E+00 0. -1.
          1    1    1    2  502    0 -0.54097335095E+01 -0.33480946562E+02  0.98659461502E+03  0.98717737686E+03  0.00000000000E+00 0. -1.
         22    1    3    3    0    0 -0.18809105007E+03 -0.30304103144E+03  0.20826729590E+03  0.41302224686E+03  0.00000000000E+00 0. -1.
         22    1    3    3    0    0 -0.58771662468E+02 -0.25010294763E+02  0.86906821203E+02  0.10785369129E+03  0.00000000000E+00 0. -1.
</event>
<event>
 7    1  0.6173324E-006  0.7402426E+02  0.7818608E-02  0.1445773E+00
          2   -1    0    0  502    0  0.00000000000E+00  0.00000000000E+00  0.10300601080E+04  0.10300601080E+04  0.00000000000E+00 0. -1.
          1   -1    0    0  501    0 -0.00000000000E+00 -0.00000000000E+00 -0.53009971777E+03  0.53009971777E+03  0.00000000000E+00 0. -1.
         25    2    1    2    0    0  0.38719751284E+02 -0.12837680549E+02  0.26991739213E+03  0.30024124555E+03  0.12500152708E+03 0.  0.
          2    1    1    2  501    0 -0.71671229958E+02  0.19731565376E+02 -0.51187120803E+03  0.51724098203E+03  0.00000000000E+00 0. -1.
          1    1    1    2  502    0  0.32951478674E+02 -0.68938848279E+01  0.74191420611E+03  0.74267759817E+03  0.00000000000E+00 0. -1.
         22    1    3    3    0    0  0.23143040871E+02  0.55239774128E+02  0.14930175441E+03  0.16086654983E+03  0.00000000000E+00 0.  1.
         22    1    3    3    0    0  0.15576710413E+02 -0.68077454676E+02  0.12061563772E+03  0.13937469571E+03  0.00000000000E+00 0.  1.
</event>
<event>
 7    1  0.6173324E-006  0.8203677E+02  0.7818608E-02  0.1392788E+00
          2   -1    0    0  502    0  0.00000000000E+00  0.00000000000E+00  0.27707367154E+04  0.27707367154E+04  0.00000000000E+00 0. -1.
          1   -1    0    0  501    0 -0.00000000000E+00 -0.00000000000E+00 -0.73343550417E+03  0.73343550417E+03  0.00000000000E+00 0. -1.
         25    2    1    2    0    0  0.42795370735E+02  0.15519430656E+02  0.17572655092E+04  0.17622938056E+04  0.12500036422E+03 0.  0.
          2    1    1    2  501    0 -0.81648329743E+02  0.85098961900E+01 -0.72809753557E+03  0.73271064506E+03  0.00000000000E+00 0. -1.
          1    1    1    2  502    0  0.38852959008E+02 -0.24029326846E+02  0.10081332376E+04  0.10091677689E+04  0.00000000000E+00 0. -1.
         22    1    3    3    0    0  0.33281497348E+02 -0.25128762072E+01  0.17154304531E+04  0.17157551142E+04  0.00000000000E+00 0. -1.
         22    1    3    3    0    0  0.95138733876E+01  0.18032306863E+02  0.41835056105E+02  0.46538691397E+02  0.00000000000E+00 0. -1.
</event>
<event>
 7    1  0.6173324E-006  0.3959169E+02  0.7818608E-02  0.1602264E+00
          2   -1    0    0  502    0  0.00000000000E+00  0.00000000000E+00  0.82111946691E+03  0.82111946691E+03  0.00000000000E+00 0. -1.
          1   -1    0    0  501    0 -0.00000000000E+00 -0.00000000000E+00 -0.15247749275E+04  0.15247749275E+04  0.00000000000E+00 0. -1.
         25    2    1    2    0    0  0.26311932195E+02  0.11549047373E+02  0.63139889610E+02  0.14295996235E+03  0.12500082762E+03 0.  0.
          2    1    1    2  501    0 -0.39083089791E+02  0.65708582817E+01 -0.14844292566E+04  0.14849582088E+04  0.00000000000E+00 0. -1.
          1    1    1    2  502    0  0.12771157596E+02 -0.18119905654E+02  0.71763390643E+03  0.71797622321E+03  0.00000000000E+00 0. -1.
         22    1    3    3    0    0 -0.20977942334E+02  0.57150595608E+02  0.41947123870E+02  0.73931223741E+02  0.00000000000E+00 0.  1.
         22    1    3    3    0    0  0.47289874529E+02 -0.45601548235E+02  0.21192765740E+02  0.69028738610E+02  0.00000000000E+00 0.  1.
</event>
<event>
 7    1  0.6173324E-006  0.1257920E+03  0.7818608E-02  0.1313410E+00
          2   -1    0    0  502    0  0.00000000000E+00  0.00000000000E+00  0.10416897519E+04  0.10416897519E+04  0.00000000000E+00 0. -1.
          1   -1    0    0  501    0 -0.00000000000E+00 -0.00000000000E+00 -0.86797735371E+03  0.86797735371E+03  0.00000000000E+00 0. -1.
         25    2    1    2    0    0 -0.11800937320E+03 -0.11480952099E+03 -0.64569114956E+03  0.67797432660E+03  0.12499875455E+03 0.  0.
          2    1    1    2  501    0  0.58821163951E+01  0.58195805769E+02 -0.19805411437E+03  0.20651097628E+03  0.00000000000E+00 0. -1.
          1    1    1    2  502    0  0.11212725681E+03  0.56613715225E+02  0.10174576621E+04  0.10251818027E+04  0.00000000000E+00 0. -1.
         22    1    3    3    0    0 -0.97998000722E+02 -0.18703143354E+02 -0.42299579563E+03  0.43460195448E+03  0.00000000000E+00 0.  1.
         22    1    3    3    0    0 -0.20011372480E+02 -0.96106377640E+02 -0.22269535393E+03  0.24337237212E+03  0.00000000000E+00 0.  1.
</event>
<event>
 7    1  0.7350787E-006  0.8710160E+02  0.7818608E-02  0.1458440E+00
          2   -1    0    0  502    0  0.00000000000E+00  0.00000000000E+00  0.18003959143E+04  0.18003959143E+04  0.00000000000E+00 0. -1.
          1   -1    0    0  501    0 -0.00000000000E+00 -0.00000000000E+00 -0.13846433831E+04  0.13846433831E+04  0.00000000000E+00 0. -1.
         25    2    1    2    0    0  0.66672225813E+02  0.44918423625E+02 -0.17839841462E+03  0.23219416754E+03  0.12500114649E+03 0.  0.
          2    1    1    2  501    0 -0.12140021194E+02  0.23069196590E+02 -0.11781320419E+04  0.11784204157E+04  0.00000000000E+00 0. -1.
          1    1    1    2  502    0 -0.54532204619E+02 -0.67987620215E+02  0.17722829877E+04  0.17744247142E+04  0.00000000000E+00 0. -1.
         22    1    3    3    0    0 -0.41356839601E+01 -0.31019302829E+01 -0.13709166418E+03  0.13718910395E+03  0.00000000000E+00 0.  1.
         22    1    3    3    0    0  0.70807909773E+02  0.48020353908E+02 -0.41306750437E+02  0.95005063588E+02  0.00000000000E+00 0.  1.
</event>
<event>
 7    1  0.6173324E-006  0.5130571E+02  0.7818608E-02  0.1530621E+00
          2   -1    0    0  502    0  0.00000000000E+00  0.00000000000E+00  0.90538770842E+01  0.90538770842E+01  0.00000000000E+00 0. -1.
          1   -1    0    0  501    0 -0.00000000000E+00 -0.00000000000E+00 -0.22617481169E+04  0.22617481169E+04  0.00000000000E+00 0. -1.
         25    2    1    2    0    0  0.68706776829E+01 -0.60987873181E+02 -0.20305554218E+04  0.20353247150E+04  0.12499859043E+03 0.  0.
          2    1    1    2  501    0  0.20146711905E+02  0.17737839878E+02 -0.86494945961E+02  0.90564323223E+02  0.00000000000E+00 0. -1.
          1    1    1    2  502    0 -0.27017389588E+02  0.43250033303E+02 -0.13564387206E+03  0.14491295577E+03  0.00000000000E+00 0. -1.
         22    1    3    3    0    0  0.65294471056E+02 -0.22168041398E+02 -0.10542924607E+04  0.10565450216E+04  0.00000000000E+00 0. -1.
         22    1    3    3    0    0 -0.58423793373E+02 -0.38819831783E+02 -0.97626296117E+03  0.97877969346E+03  0.00000000000E+00 0. -1.
</event>
<event>
 7    1  0.6173324E-006  0.1411783E+03  0.7818608E-02  0.1334875E+00
          2   -1    0    0  502    0  0.00000000000E+00  0.00000000000E+00  0.46573076973E+04  0.46573076973E+04  0.00000000000E+00 0. -1.
          1   -1    0    0  501    0 -0.00000000000E+00 -0.00000000000E+00 -0.75269351456E+02  0.75269351456E+02  0.00000000000E+00 0. -1.
         25    2    1    2    0    0  0.13294011818E+02  0.16191851474E+03  0.16924338312E+03  0.26582287301E+03  0.12499656363E+03 0.  0.
          2    1    1    2  501    0 -0.36400993022E+02 -0.23032031847E+02 -0.79200341316E+01  0.43797645195E+02  0.00000000000E+00 0. -1.
          1    1    1    2  502    0  0.23106981204E+02 -0.13888648290E+03  0.44207149968E+04  0.44229565305E+04  0.00000000000E+00 0. -1.
         22    1    3    3    0    0 -0.20253363326E+02  0.13770492669E+03  0.64894466333E+02  0.15357127765E+03  0.00000000000E+00 0.  1.
         22    1    3    3    0    0  0.33547375144E+02  0.24213588058E+02  0.10434891679E+03  0.11225159536E+03  0.00000000000E+00 0.  1.
</event>
<event>
 7    1  0.6173324E-006  0.2716566E+03  0.7818608E-02  0.1319812E+00
          2   -1    0    0  502    0  0.00000000000E+00  0.00000000000E+00  0.51350397814E+02  0.51350397814E+02  0.00000000000E+00 0. -1.
          1   -1    0    0  501    0 -0.00000000000E+00 -0.00000000000E+00 -0.25836067172E+04  0.25836067172E+04  0.00000000000E+00 0. -1.
         25    2    1    2    0    0  0.90415739582E+02 -0.24674654860E+03 -0.15803752289E+04  0.16069445893E+04  0.12500473443E+03 0.  0.
          2    1    1    2  501    0 -0.17972817853E+02 -0.18190532080E+02 -0.48977683259E+03  0.49044394519E+03  0.00000000000E+00 0. -1.
          1    1    1    2  502    0 -0.72442921729E+02  0.26493708068E+03 -0.46210425785E+03  0.53756858051E+03  0.00000000000E+00 0. -1.
         22    1    3    3    0    0  0.37271574785E+02 -0.32172432728E+02 -0.59711496856E+03  0.59914148696E+03  0.00000000000E+00 0. -1.
         22    1    3    3    0    0  0.53144164796E+02 -0.21457411587E+03 -0.98326026039E+03  0.10078031023E+04  0.00000000000E+00 0. -1.
</event>
<event>
 7    1  0.6173324E-006  0.8559641E+02  0.7818608E-02  0.1353025E+00
          2   -1    0    0  502    0  0.00000000000E+00  0.00000000000E+00  0.42399819379E+03  0.42399819379E+03  0.00000000000E+00 0. -1.
          1   -1    0    0  501    0 -0.00000000000E+00 -0.00000000000E+00 -0.50352158437E+03  0.50352158437E+03  0.00000000000E+00 0. -1.
         25    2    1    2    0    0 -0.17299632122E+02  0.26445860629E+02 -0.15909874228E+02  0.12991111604E+03  0.12500045262E+03 0.  0.
          2    1    1    2  501    0 -0.53497138623E+02  0.28822296632E+02 -0.42291154661E+03  0.42725501154E+03  0.00000000000E+00 0. -1.
          1    1    1    2  502    0  0.70796770745E+02 -0.55268157262E+02  0.35929803026E+03  0.37035365059E+03  0.00000000000E+00 0. -1.
         22    1    3    3    0    0  0.53045452135E+02  0.15331609527E+02 -0.19614923022E+02  0.58597128325E+02  0.00000000000E+00 0. -1.
         22    1    3    3    0    0 -0.70345084257E+02  0.11114251103E+02  0.37050487937E+01  0.71313987711E+02  0.00000000000E+00 0. -1.
</event>
<event>
 7    1  0.6173324E-006  0.9324968E+02  0.7818608E-02  0.1418782E+00
          2   -1    0    0  502    0  0.00000000000E+00  0.00000000000E+00  0.14972360079E+04  0.14972360079E+04  0.00000000000E+00 0. -1.
          1   -1    0    0  501    0 -0.00000000000E+00 -0.00000000000E+00 -0.65790972572E+03  0.65790972572E+03  0.00000000000E+00 0. -1.
         25    2    1    2    0    0  0.43937488919E+02  0.84930695378E+02 -0.40658387377E-01  0.15737651267E+03  0.12499455643E+03 0.  0.
          2    1    1    2  501    0  0.24619592334E+02 -0.21628005272E+02 -0.57720135793E+03  0.57813086973E+03  0.00000000000E+00 0. -1.
          1    1    1    2  502    0 -0.68557081253E+02 -0.63302690106E+02  0.14165682985E+04  0.14196383513E+04  0.00000000000E+00 0. -1.
         22    1    3    3    0    0 -0.29802217642E+02  0.76317674130E+02  0.96870663383E+01  0.82500901906E+02  0.00000000000E+00 0.  1.
         22    1    3    3    0    0  0.73739706561E+02  0.86130212473E+01 -0.97277247257E+01  0.74875610762E+02  0.00000000000E+00 0.  1.
</event>
<event>
 7    1  0.6173324E-006  0.2807379E+02  0.7818608E-02  0.1631527E+00
          2   -1    0    0  502    0  0.00000000000E+00  0.00000000000E+00  0.22202033667E+04  0.22202033667E+04  0.00000000000E+00 0. -1.
          1   -1    0    0  501    0 -0.00000000000E+00 -0.00000000000E+00 -0.11337317183E+03  0.11337317183E+03  0.00000000000E+00 0. -1.
         25    2    1    2    0    0  0.48575076760E+01 -0.22729161407E+02  0.91948519787E+03  0.92822801753E+03  0.12495604532E+03 0.  0.
          2    1    1    2  501    0 -0.26856579462E+02  0.82888817196E+01 -0.10705394982E+03  0.11068211054E+03  0.00000000000E+00 0. -1.
          1    1    1    2  502    0  0.21999071786E+02  0.14440279687E+02  0.12943989468E+04  0.12946664105E+04  0.00000000000E+00 0. -1.
         22    1    3    3    0    0  0.27495516607E+02  0.43064663383E+02  0.25209922771E+03  0.25722478356E+03  0.00000000000E+00 0. -1.
         22    1    3    3    0    0 -0.22638008931E+02 -0.65793824789E+02  0.66738597016E+03  0.67100323397E+03  0.00000000000E+00 0. -1.
</event>
<event>
 7    1  0.6173324E-006  0.6930135E+02  0.7818608E-02  0.1457784E+00
          2   -1    0    0  502    0  0.00000000000E+00  0.00000000000E+00  0.29545634218E+04  0.29545634218E+04  0.00000000000E+00 0. -1.
          1   -1    0    0  501    0 -0.00000000000E+00 -0.00000000000E+00 -0.17645093145E+04  0.17645093145E+04  0.00000000000E+00 0. -1.
         25    2    1    2    0    0  0.50311166492E+02  0.23433898379E+02  0.89761319107E+03  0.90797222855E+03  0.12499506377E+03 0.  0.
          2    1    1    2  501    0 -0.69227744984E+02  0.35097829732E+01 -0.17585148841E+04  0.17598805064E+04  0.00000000000E+00 0. -1.
          1    1    1    2  502    0  0.18916578492E+02 -0.26943681353E+02  0.20509558003E+04  0.20512200013E+04  0.00000000000E+00 0. -1.
         22    1    3    3    0    0 -0.30963847198E+02  0.42481413140E+02  0.39314909241E+03  0.39664800410E+03  0.00000000000E+00 0.  1.
         22    1    3    3    0    0  0.81275013689E+02 -0.19047514760E+02  0.50446409866E+03  0.51132422445E+03  0.00000000000E+00 0.  1.
</event>
<event>
 7    1  0.6173324E-006  0.2737839E+02  0.7818608E-02  0.1635264E+00
          2   -1    0    0  502    0  0.00000000000E+00  0.00000000000E+00  0.91406207337E+03  0.91406207337E+03  0.00000000000E+00 0. -1.
          1   -1    0    0  501    0 -0.00000000000E+00 -0.00000000000E+00 -0.28602058811E+03  0.28602058811E+03  0.00000000000E+00 0. -1.
         25    2    1    2    0    0  0.24731741364E+01  0.11999807583E+01  0.11176962788E+03  0.16770272974E+03  0.12499679717E+03 0.  0.
          2    1    1    2  501    0 -0.12262174744E+01  0.26379806459E+02 -0.25713146017E+03  0.25848401422E+03  0.00000000000E+00 0. -1.
          1    1    1    2  502    0 -0.12469566620E+01 -0.27579787217E+02  0.77340331755E+03  0.77389591752E+03  0.00000000000E+00 0. -1.
         22    1    3    3    0    0 -0.43335671450E+02  0.13120895290E+01  0.11387115670E+03  0.12184556754E+03  0.00000000000E+00 0.  1.
         22    1    3    3    0    0  0.45808845587E+02 -0.11210877079E+00 -0.21015288273E+01  0.45857162208E+02  0.00000000000E+00 0.  1.
</event>
<event>
 7    1  0.6173324E-006  0.2223313E+03  0.7818608E-02  0.1362980E+00
          2   -1    0    0  502    0  0.00000000000E+00  0.00000000000E+00  0.87511024299E+03  0.87511024299E+03  0.00000000000E+00 0. -1.
          1   -1    0    0  501    0 -0.00000000000E+00 -0.00000000000E+00 -0.18166492433E+03  0.18166492433E+03  0.00000000000E+00 0. -1.
         25    2    1    2    0    0 -0.43267948629E+02  0.23283930069E+03  0.16982239017E+03  0.31709622706E+03  0.12499647070E+03 0.  0.
          2    1    1    2  501    0  0.44172515152E+02 -0.21134612341E+03  0.29909220103E+00  0.21591314094E+03  0.00000000000E+00 0. -1.
          1    1    1    2  502    0 -0.90456652330E+00 -0.21493177285E+02  0.52332383629E+03  0.52376579933E+03  0.00000000000E+00 0. -1.
         22    1    3    3    0    0 -0.51098301085E+02  0.16356554620E+03  0.50065346462E+02  0.17852524526E+03  0.00000000000E+00 0. -1.
         22    1    3    3    0    0  0.78303524563E+01  0.69273754492E+02  0.11975704371E+03  0.13857098180E+03  0.00000000000E+00 0. -1.
</event>
<event>
 7    1  0.6173324E-006  0.8766917E+02  0.7818608E-02  0.1327009E+00
          2   -1    0    0  502    0  0.00000000000E+00  0.00000000000E+00  0.60067387822E+03  0.60067387822E+03  0.00000000000E+00 0. -1.
          1   -1    0    0  501    0 -0.00000000000E+00 -0.00000000000E+00 -0.24518676841E+04  0.24518676841E+04  0.00000000000E+00 0. -1.
         25    2    1    2    0    0 -0.61002670415E+02  0.50943380852E+02 -0.14628685906E+04  0.14703487126E+04  0.12499707766E+03 0.  0.
          2    1    1    2  501    0  0.98495871010E+01 -0.10487095704E+03 -0.98011231825E+03  0.98575609984E+03  0.00000000000E+00 0. -1.
          1    1    1    2  502    0  0.51153083314E+02  0.53927576184E+02  0.59178710295E+03  0.59643674989E+03  0.00000000000E+00 0. -1.
         22    1    3    3    0    0  0.26554153054E+02  0.19717296708E+02 -0.12654378608E+03  0.13079458945E+03  0.00000000000E+00 0.  1.
         22    1    3    3    0    0 -0.87556823469E+02  0.31226084144E+02 -0.13363248045E+04  0.13395541231E+04  0.00000000000E+00 0.  1.
</event>
<event>
 7    1  0.6173324E-006  0.3766367E+02  0.7818608E-02  0.1539214E+00
          2   -1    0    0  502    0  0.00000000000E+00  0.00000000000E+00  0.11337250965E+03  0.11337250965E+03  0.00000000000E+00 0. -1.
          1   -1    0    0  501    0 -0.00000000000E+00 -0.00000000000E+00 -0.46874524814E+03  0.46874524814E+03  0.00000000000E+00 0. -1.
         25    2    1    2    0    0 -0.10237424613E+02  0.14469743645E+02 -0.43516548666E+02  0.13353958905E+03  0.12499981397E+03 0.  0.
          2    1    1    2  501    0  0.37770627039E+02  0.64232470965E+01 -0.37480862800E+03  0.37676170983E+03  0.00000000000E+00 0. -1.
          1    1    1    2  502    0 -0.27533202426E+02 -0.20892990741E+02  0.62952438173E+02  0.71816458907E+02  0.00000000000E+00 0. -1.
         22    1    3    3    0    0 -0.41332945072E+02 -0.34613369488E+02 -0.51899960508E+02  0.74833839914E+02  0.00000000000E+00 0.  1.
         22    1    3    3    0    0  0.31095520459E+02  0.49083113132E+02  0.83834118422E+01  0.58705749135E+02  0.00000000000E+00 0.  1.
</event>
<event>
 7    1  0.6173324E-006  0.6401366E+02  0.7818608E-02  0.1532648E+00
          2   -1    0    0  502    0  0.00000000000E+00  0.00000000000E+00  0.79843989781E+02  0.79843989781E+02  0.00000000000E+00 0. -1.
          1   -1    0    0  501    0 -0.00000000000E+00 -0.00000000000E+00 -0.14822467109E+04  0.14822467109E+04  0.00000000000E+00 0. -1.
         25    2    1    2    0    0  0.72386021807E+02  0.42115948114E+02 -0.39515672746E+03  0.42283339912E+03  0.12500301961E+03 0.  0.
          2    1    1    2  501    0 -0.52923629752E+02 -0.33638409821E+02 -0.10706032197E+04  0.10724382067E+04  0.00000000000E+00 0. -1.
          1    1    1    2  502    0 -0.19462392055E+02 -0.84775382925E+01  0.63357225981E+02  0.66819094906E+02  0.00000000000E+00 0. -1.
         22    1    3    3    0    0 -0.33835766544E+02 -0.14477012637E+01 -0.11995477784E+03  0.12464390745E+03  0.00000000000E+00 0.  1.
         22    1    3    3    0    0  0.10622178835E+03  0.43563649378E+02 -0.27520194962E+03  0.29818949167E+03  0.00000000000E+00 0.  1.
</event>
<event>
 7    1  0.6173324E-006  0.5222388E+02  0.7818608E-02  0.1470872E+00
          2   -1    0    0  502    0  0.00000000000E+00  0.00000000000E+00  0.36084612376E+03  0.36084612376E+03  0.00000000000E+00 0. -1.
          1   -1    0    0  501    0 -0.00000000000E+00 -0.00000000000E+00 -0.10368514161E+04  0.10368514161E+04  0.00000000000E+00 0. -1.
         25    2    1    2    0    0  0.51604289336E+02  0.35491713985E+02  0.30179242135E+02  0.14303323823E+03  0.12500022457E+03 0.  0.
          2    1    1    2  501    0 -0.36904930748E+02  0.14761063594E+02 -0.97751774823E+03  0.97832551383E+03  0.00000000000E+00 0. -1.
          1    1    1    2  502    0 -0.14699358589E+02 -0.50252777579E+02  0.27133321371E+03  0.27633878783E+03  0.00000000000E+00 0. -1.
         22    1    3    3    0    0  0.42091924203E+02  0.17194384584E+02 -0.45661506414E+02  0.64438731461E+02  0.00000000000E+00 0. -1.
         22    1    3    3    0    0  0.95123651336E+01  0.18297329402E+02  0.75840748549E+02  0.78594506768E+02  0.00000000000E+00 0. -1.
</event>
<event>
 7    1  0.6173324E-006  0.3745772E+02  0.7818608E-02  0.1544652E+00
          2   -1    0    0  502    0  0.00000000000E+00  0.00000000000E+00  0.61969343539E+03  0.61969343539E+03  0.00000000000E+00 0. -1.
          1   -1    0    0  501    0 -0.00000000000E+00 -0.00000000000E+00 -0.74062617428E+03  0.74062617428E+03  0.00000000000E+00 0. -1.
         25    2    1    2    0    0  0.68093930784E+02  0.15535760800E+02  0.18257546504E+03  0.23200670621E+03  0.12496066588E+03 0.  0.
          2    1    1    2  501    0 -0.33087746779E+02 -0.55340646379E+01 -0.71471283623E+03  0.71549972965E+03  0.00000000000E+00 0. -1.
          1    1    1    2  502    0 -0.35006184004E+02 -0.10001696162E+02  0.41120463230E+03  0.41281317381E+03  0.00000000000E+00 0. -1.
         22    1    3    3    0    0 -0.10751176710E+01 -0.48272102080E+02  0.73574766002E+02  0.88003397148E+02  0.00000000000E+00 0. -1.
         22    1    3    3    0    0  0.69169048455E+02  0.63807862880E+02  0.10900069904E+03  0.14400330906E+03  0.00000000000E+00 0. -1.
</event>
<event>
 7    1  0.6173324E-006  0.6696799E+02  0.7818608E-02  0.1463438E+00
          2   -1    0    0  502    0  0.00000000000E+00  0.00000000000E+00  0.88904594024E+03  0.88904594024E+03  0.00000000000E+00 0. -1.
          1   -1    0    0  501    0 -0.00000000000E+00 -0.00000000000E+00 -0.37842412322E+03  0.37842412322E+03  0.00000000000E+00 0. -1.
         25    2    1    2    0    0 -0.60843353272E+02 -0.12418750791E+01  0.12398874697E+03  0.18627655277E+03  0.12498915492E+03 0.  0.
          2    1    1    2  501    0  0.58127661804E+02  0.33827575979E+02 -0.34365483916E+03  0.35017392598E+03  0.00000000000E+00 0. -1.
          1    1    1    2  502    0  0.27156914679E+01 -0.32585700900E+02  0.73028790921E+03  0.73101958470E+03  0.00000000000E+00 0. -1.
         22    1    3    3    0    0  0.78792431409E+01 -0.51350693575E+02  0.62790950948E+02  0.81496501299E+02  0.00000000000E+00 0. -1.
         22    1    3    3    0    0 -0.68722596413E+02  0.50108818495E+02  0.61197796018E+02  0.10478005147E+03  0.00000000000E+00 0. -1.
</event>
<event>
 7    1  0.6173324E-006  0.9943046E+02  0.7818608E-02  0.1356324E+00
          2   -1    0    0  502    0  0.00000000000E+00  0.00000000000E+00  0.24367857396E+04  0.24367857396E+04  0.00000000000E+00 0. -1.
          1   -1    0    0  501    0 -0.00000000000E+00 -0.00000000000E+00 -0.38752277537E+03  0.38752277537E+03  0.00000000000E+00 0. -1.
         25    2    1    2    0    0 -0.69642456478E+02 -0.70822276545E+02 -0.81657620904E+02  0.17932976902E+03  0.12500132962E+03 0.  0.
          2    1    1    2  501    0  0.26692496531E+02  0.98082692660E+02 -0.24669622740E+03  0.26681778911E+03  0.00000000000E+00 0. -1.
          1    1    1    2  502    0  0.42949959947E+02 -0.27260416115E+02  0.23776168125E+04  0.23781609568E+04  0.00000000000E+00 0. -1.
         22    1    3    3    0    0 -0.40870929601E+02 -0.10515266692E+03 -0.70960529621E+02  0.13327757880E+03  0.00000000000E+00 0. -1.
         22    1    3    3    0    0 -0.28771526878E+02  0.34330390375E+02 -0.10697091283E+02  0.46052190220E+02  0.00000000000E+00 0. -1.
</event>
<event>
 7    1  0.6173324E-006  0.1051004E+03  0.7818608E-02  0.1394893E+00
          2   -1    0    0  502    0  0.00000000000E+00  0.00000000000E+00  0.79893127175E+03  0.79893127175E+03  0.00000000000E+00 0. -1.
          1   -1    0    0  501    0 -0.00000000000E+00 -0.00000000000E+00 -0.43781413838E+02  0.43781413838E+02  0.00000000000E+00 0. -1.
         25    2    1    2    0    0 -0.96503536720E+02  0.94480845482E+02  0.58948705566E+03  0.61754314242E+03  0.12499992479E+03 0.  0.
          2    1    1    2  501    0  0.68328219634E+02 -0.73609324560E+02  0.67701779855E+02  0.12112229050E+03  0.00000000000E+00 0. -1.
          1    1    1    2  502    0  0.28175317086E+02 -0.20871520921E+02  0.97961022401E+02  0.10404725267E+03  0.00000000000E+00 0. -1.
         22    1    3    3    0    0 -0.10268966514E+03  0.90312087991E+02  0.32054363908E+03  0.34849629140E+03  0.00000000000E+00 0. -1.
         22    1    3    3    0    0  0.61861284169E+01  0.41687574908E+01  0.26894341658E+03  0.26904685102E+03  0.00000000000E+00 0. -1.
</event>
<event>
 7    1  0.6173324E-006  0.8601829E+02  0.7818608E-02  0.1393467E+00
          2   -1    0    0  502    0  0.00000000000E+00  0.00000000000E+00  0.99324974611E+03  0.99324974611E+03  0.00000000000E+00 0. -1.
          1   -1    0    0  501    0 -0.00000000000E+00 -0.00000000000E+00 -0.52000240718E+03  0.52000240718E+03  0.00000000000E+00 0. -1.
         25    2    1    2    0    0  0.72607819141E+02 -0.92632467911E+02 -0.30408904743E+03  0.34921044988E+03  0.12500048012E+03 0.  0.
          2    1    1    2  501    0 -0.53258273286E+02  0.53859760014E+02 -0.18542836974E+03  0.20030226590E+03  0.00000000000E+00 0. -1.
          1    1    1    2  502    0 -0.19349545855E+02  0.38772707898E+02  0.96276475610E+03  0.96373943750E+03  0.00000000000E+00 0. -1.
         22    1    3    3    0    0  0.53933875417E+02 -0.69477537179E+02 -0.67791988554E+02  0.11104838946E+03  0.00000000000E+00 0.  1.
         22    1    3    3    0    0  0.18673943724E+02 -0.23154930732E+02 -0.23629705888E+03  0.23816206042E+03  0.00000000000E+00 0.  1.
</event>
<event>
 7    1  0.6173324E-006  0.1704119E+03  0.7818608E-02  0.1256755E+00
          2   -1    0    0  502    0  0.00000000000E+00  0.00000000000E+00  0.17258475939E+04  0.17258475939E+04  0.00000000000E+00 0. -1.
          1   -1    0    0  501    0 -0.00000000000E+00 -0.00000000000E+00 -0.77702855872E+03  0.77702855872E+03  0.00000000000E+00 0. -1.
         25    2    1    2    0    0  0.13894562625E+03  0.19797747521E+03  0.26638717689E+03  0.38090290662E+03  0.12499571400E+03 0.  0.
          2    1    1    2  501    0 -0.99157139388E+02 -0.13591324961E+03 -0.70895036796E+03  0.72863926187E+03  0.00000000000E+00 0. -1.
          1    1    1    2  502    0 -0.39788486861E+02 -0.62064225600E+02  0.13913822262E+04  0.13933339841E+04  0.00000000000E+00 0. -1.
         22    1    3    3    0    0  0.24889379902E+02  0.16938397825E+02  0.11478592491E+03  0.11866844193E+03  0.00000000000E+00 0.  1.
         22    1    3    3    0    0  0.11405624635E+03  0.18103907738E+03  0.15160125198E+03  0.26223446469E+03  0.00000000000E+00 0.  1.
</event>
<event>
 7    1  0.6173324E-006  0.6658992E+02  0.7818608E-02  0.1523593E+00
          2   -1    0    0  502    0  0.00000000000E+00  0.00000000000E+00  0.35792075481E+03  0.35792075481E+03  0.00000000000E+00 0. -1.
          1   -1    0    0  501    0 -0.00000000000E+00 -0.00000000000E+00 -0.73869195265E+03  0.73869195265E+03  0.00000000000E+00 0. -1.
         25    2    1    2    0    0  0.34688571037E+02 -0.56392782714E+02  0.11031324994E+03  0.17938450182E+03  0.12500537381E+03 0.  0.
          2    1    1    2  501    0  0.16939050197E+02  0.13510031979E+02 -0.69869922227E+03  0.69903508895E+03  0.00000000000E+00 0. -1.
          1    1    1    2  502    0 -0.51627621234E+02  0.42882750736E+02  0.20761477449E+03  0.21819311669E+03  0.00000000000E+00 0. -1.
         22    1    3    3    0    0  0.28327226092E+02 -0.86914068722E+02  0.35021058934E+02  0.97892602625E+02  0.00000000000E+00 0. -1.
         22    1    3    3    0    0  0.63613449450E+01  0.30521286008E+02  0.75292191002E+02  0.81491899198E+02  0.00000000000E+00 0. -1.
</event>
<event>
 7    1  0.6173324E-006  0.1750120E+03  0.7818608E-02  0.1226313E+00
          2   -1    0    0  502    0  0.00000000000E+00  0.00000000000E+00  0.23226694990E+03  0.23226694990E+03  0.00000000000E+00 0. -1.
          1   -1    0    0  501    0 -0.00000000000E+00 -0.00000000000E+00 -0.65666241464E+03  0.65666241464E+03  0.00000000000E+00 0. -1.
         25    2    1    2    0    0 -0.10785407067E+03  0.20207521137E+03 -0.44787225652E+03  0.51834637237E+03  0.12500604775E+03 0.  0.
          2    1    1    2  501    0  0.73998161491E+02 -0.11041069417E+03 -0.13175790185E+03  0.18715339695E+03  0.00000000000E+00 0. -1.
          1    1    1    2  502    0  0.33855909177E+02 -0.91664517195E+02  0.15523469363E+03  0.18342959523E+03  0.00000000000E+00 0. -1.
         22    1    3    3    0    0  0.16256231867E+02  0.24280777576E+01 -0.80775372455E+02  0.82430706848E+02  0.00000000000E+00 0.  1.
         22    1    3    3    0    0 -0.12411030254E+03  0.19964713361E+03 -0.36709688407E+03  0.43591566552E+03  0.00000000000E+00 0.  1.
</event>
<event>
 7    1  0.6173324E-006  0.9677589E+02  0.7818608E-02  0.1288337E+00
          2   -1    0    0  502    0  0.00000000000E+00  0.00000000000E+00  0.46325205737E+03  0.46325205737E+03  0.00000000000E+00 0. -1.
          1   -1    0    0  501    0 -0.00000000000E+00 -0.00000000000E+00 -0.10314282526E+04  0.10314282526E+04  0.00000000000E+00 0. -1.
         25    2    1    2    0    0  0.28906855362E+02 -0.49746846850E+02  0.18513613084E+03  0.23067392168E+03  0.12499886457E+03 0.  0.
          2    1    1    2  501    0  0.96649241942E+02  0.49494211882E+01 -0.98873544700E+03  0.99346029457E+03  0.00000000000E+00 0. -1.
          1    1    1    2  502    0 -0.12555609730E+03  0.44797425662E+02  0.23542312097E+03  0.27054609367E+03  0.00000000000E+00 0. -1.
         22    1    3    3    0    0 -0.67775967062E+01 -0.83548628997E+02  0.86398623053E+02  0.12037869949E+03  0.00000000000E+00 0.  1.
         22    1    3    3    0    0  0.35684452068E+02  0.33801782146E+02  0.98737507785E+02  0.11029522220E+03  0.00000000000E+00 0.  1.
</event>
<event>
 7    1  0.6173324E-006  0.1804886E+03  0.7818608E-02  0.1232068E+00
          2   -1    0    0  502    0  0.00000000000E+00  0.00000000000E+00  0.15280108933E+04  0.15280108933E+04  0.00000000000E+00 0. -1.
          1   -1    0    0  501    0 -0.00000000000E+00 -0.00000000000E+00 -0.12115975344E+04  0.12115975344E+04  0.00000000000E+00 0. -1.
         25    2    1    2    0    0 -0.11511365596E+03  0.17570332373E+03 -0.21549411397E+03  0.32586149803E+03  0.12500076393E+03 0.  0.
          2    1    1    2  501    0  0.15160929056E+03 -0.94224445071E+02 -0.93108058311E+03  0.94803727525E+03  0.00000000000E+00 0. -1.
          1    1    1    2  502    0 -0.36495634600E+02 -0.81478878660E+02  0.14629880559E+04  0.14657096544E+04  0.00000000000E+00 0. -1.
         22    1    3    3    0    0 -0.78250352531E+02  0.85858888175E+02 -0.35721620262E+02  0.12153559357E+03  0.00000000000E+00 0. -1.
         22    1    3    3    0    0 -0.36863303426E+02  0.89844435557E+02 -0.17977249370E+03  0.20432590446E+03  0.00000000000E+00 0. -1.
</event>
<event>
 7    1  0.6173324E-006  0.7399465E+02  0.7818608E-02  0.1455273E+00
          2   -1    0    0  502    0  0.00000000000E+00  0.00000000000E+00  0.22147805809E+04  0.22147805809E+04  0.00000000000E+00 0. -1.
          1   -1    0    0  501    0 -0.00000000000E+00 -0.00000000000E+00 -0.52975722284E+03  0.52975722284E+03  0.00000000000E+00 0. -1.
         25    2    1    2    0    0  0.69034496603E+02 -0.61703293659E+02  0.55960695106E+03  0.58082406177E+03  0.12499437139E+03 0.  0.
          2    1    1    2  501    0 -0.31395965927E+02 -0.68695041097E+00 -0.51786570960E+03  0.51881699255E+03  0.00000000000E+00 0. -1.
          1    1    1    2  502    0 -0.37638530676E+02  0.62390244070E+02  0.16432821166E+04  0.16448967494E+04  0.00000000000E+00 0. -1.
         22    1    3    3    0    0  0.10154985303E+03 -0.31642792963E+02  0.45429902224E+03  0.46658465535E+03  0.00000000000E+00 0.  1.
         22    1    3    3    0    0 -0.32515356430E+02 -0.30060500695E+02  0.10530792883E+03  0.11423940642E+03  0.00000000000E+00 0.  1.
</event>
<event>
 7    1  0.6173324E-006  0.1777213E+03  0.7818608E-02  0.1349364E+00
          2   -1    0    0  502    0  0.00000000000E+00  0.00000000000E+00  0.29627020722E+03  0.29627020722E+03  0.00000000000E+00 0. -1.
          1   -1    0    0  501    0 -0.00000000000E+00 -0.00000000000E+00 -0.41270418407E+03  0.41270418407E+03  0.00000000000E+00 0. -1.
         25    2    1    2    0    0  0.14520073318E+03  0.53876605386E+02 -0.16906651108E+03  0.26114227670E+03  0.12500344791E+03 0.  0.
          2    1    1    2  501    0  0.18652454839E+02  0.23744239768E+02 -0.16318972825E+03  0.16595960473E+03  0.00000000000E+00 0. -1.
          1    1    1    2  502    0 -0.16385318802E+03 -0.77620845154E+02  0.21582226249E+03  0.28187250986E+03  0.00000000000E+00 0. -1.
         22    1    3    3    0    0  0.16480554684E+03  0.34319033655E+02 -0.15933711489E+03  0.23179081199E+03  0.00000000000E+00 0.  1.
         22    1    3    3    0    0 -0.19604813661E+02  0.19557571731E+02 -0.97293961959E+01  0.29351464717E+02  0.00000000000E+00 0.  1.
</event>
<event>
 7    1  0.6173324E-006  0.5012067E+02  0.7818608E-02  0.1449501E+00
          2   -1    0    0  502    0  0.00000000000E+00  0.00000000000E+00  0.18404984259E+04  0.18404984259E+04  0.00000000000E+00 0. -1.
          1   -1    0    0  501    0 -0.00000000000E+00 -0.00000000000E+00 -0.49292900348E+03  0.49292900348E+03  0.00000000000E+00 0. -1.
         25    2    1    2    0    0 -0.32519694082E+02 -0.92218372478E+02  0.10071511330E+03  0.18796302531E+03  0.12499922444E+03 0.  0.
          2    1    1    2  501    0  0.19702956895E+02  0.44173889314E+02 -0.44763752326E+03  0.45024314680E+03  0.00000000000E+00 0. -1.
          1    1    1    2  502    0  0.12816737186E+02  0.48044483164E+02  0.16944918324E+04  0.16952212573E+04  0.00000000000E+00 0. -1.
         22    1    3    3    0    0 -0.41776909371E+02 -0.89826148308E+02  0.12637705946E+03  0.16057773268E+03  0.00000000000E+00 0. -1.
         22    1    3    3    0    0  0.92572152890E+01 -0.23922241702E+01 -0.25661946160E+02  0.27385292624E+02  0.00000000000E+00 0. -1.
</event>
<event>
 7    1  0.6173324E-006  0.7607563E+02  0.7818608E-02  0.1449334E+00
          2   -1    0    0  502    0  0.00000000000E+00  0.00000000000E+00  0.64135956428E+03  0.64135956428E+03  0.00000000000E+00 0. -1.
          1   -1    0    0  501    0 -0.00000000000E+00 -0.00000000000E+00 -0.10390610552E+04  0.10390610552E+04  0.00000000000E+00 0. -1.
         25    2    1    2    0    0  0.24296416240E+02 -0.45597487052E+02  0.43164048442E+03  0.45233624319E+03  0.12500048979E+03 0.  0.
          2    1    1    2  501    0 -0.12300241363E+02  0.75162508914E+02 -0.10260161007E+04  0.10288390242E+04  0.00000000000E+00 0. -1.
          1    1    1    2  502    0 -0.11996174877E+02 -0.29565021862E+02  0.19667412541E+03  0.19924535210E+03  0.00000000000E+00 0. -1.
         22    1    3    3    0    0 -0.38717737118E+02 -0.54540042782E+02  0.28005773302E+03  0.28793404325E+03  0.00000000000E+00 0.  1.
         22    1    3    3    0    0  0.63014153358E+02  0.89425557299E+01  0.15158275140E+03  0.16440219995E+03  0.00000000000E+00 0.  1.
</event>
<event>
 7    1  0.6173324E-006  0.6537891E+02  0.7818608E-02  0.1451365E+00
          2   -1    0    0  502    0  0.00000000000E+00  0.00000000000E+00  0.14079460204E+04  0.14079460204E+04  0.00000000000E+00 0. -1.
          1   -1    0    0  501    0 -0.00000000000E+00 -0.00000000000E+00 -0.16460365492E+03  0.16460365492E+03  0.00000000000E+00 0. -1.
         25    2    1    2    0    0  0.24932154101E+02  0.15753698499E+02  0.16200125396E+02  0.12945073571E+03  0.12500103035E+03 0.  0.
          2    1    1    2  501    0  0.33412119469E+02  0.14878500339E+02 -0.10404254164E+03  0.11028413291E+03  0.00000000000E+00 0. -1.
          1    1    1    2  502    0 -0.58344273571E+02 -0.30632198839E+02  0.13311847818E+04  0.13328148068E+04  0.00000000000E+00 0. -1.
         22    1    3    3    0    0  0.52504569763E+02  0.39736140350E+02  0.47617012432E+02  0.81259279893E+02  0.00000000000E+00 0.  1.
         22    1    3    3    0    0 -0.27572415661E+02 -0.23982441850E+02 -0.31416887036E+02  0.48191455815E+02  0.00000000000E+00 0.  1.
</event>
<event>
 7    1  0.6173324E-006  0.5967606E+02  0.7818608E-02  0.1405906E+00
          2   -1    0    0  502    0  0.00000000000E+00  0.00000000000E+00  0.21185475139E+04  0.21185475139E+04  0.00000000000E+00 0. -1.
          1   -1    0    0  501    0 -0.00000000000E+00 -0.00000000000E+00 -0.15350190551E+04  0.15350190551E+04  0.00000000000E+00 0. -1.
         25    2    1    2    0    0  0.11421646464E+03 -0.16232756131E+02  0.18618320121E+03  0.25218653950E+03  0.12499985251E+03 0.  0.
          2    1    1    2  501    0 -0.57632695255E+02  0.14901890049E+02 -0.15010056297E+04  0.15021855725E+04  0.00000000000E+00 0. -1.
          1    1    1    2  502    0 -0.56583769388E+02  0.13308660816E+01  0.18983508873E+04  0.18991944570E+04  0.00000000000E+00 0. -1.
         22    1    3    3    0    0  0.10793370427E+03  0.35821203964E+02  0.10067088064E+03  0.15187978595E+03  0.00000000000E+00 0.  1.
         22    1    3    3    0    0  0.62827603698E+01 -0.52053960094E+02  0.85512320568E+02  0.10030675355E+03  0.00000000000E+00 0.  1.
</event>
<event>
 7    1  0.6173324E-006  0.1223805E+03  0.7818608E-02  0.1333238E+00
          2   -1    0    0  502    0  0.00000000000E+00  0.00000000000E+00  0.84597942690E+02  0.84597942690E+02  0.00000000000E+00 0. -1.
          1   -1    0    0  501    0 -0.00000000000E+00 -0.00000000000E+00 -0.20531283451E+04  0.20531283451E+04  0.00000000000E+00 0. -1.
         25    2    1    2    0    0 -0.33031719626E+02 -0.93551598705E+02 -0.14536111668E+04  0.14623414022E+04  0.12495581807E+03 0.  0.
          2    1    1    2  501    0  0.40799138570E+02 -0.29604433604E+02 -0.54584526910E+03  0.54816790310E+03  0.00000000000E+00 0. -1.
          1    1    1    2  502    0 -0.77674189438E+01  0.12315603231E+03  0.30926033402E+02  0.12721698249E+03  0.00000000000E+00 0. -1.
         22    1    3    3    0    0 -0.20290988007E+02  0.27466184047E+02 -0.46852078591E+03  0.46976360256E+03  0.00000000000E+00 0. -1.
         22    1    3    3    0    0 -0.12740731619E+02 -0.12101778275E+03 -0.98509038085E+03  0.99257779969E+03  0.00000000000E+00 0. -1.
</event>
<event>
 7    1  0.6173324E-006  0.1598170E+03  0.7818608E-02  0.1243337E+00
          2   -1    0    0  502    0  0.00000000000E+00  0.00000000000E+00  0.13169886394E+04  0.13169886394E+04  0.00000000000E+00 0. -1.
          1   -1    0    0  501    0 -0.00000000000E+00 -0.00000000000E+00 -0.78878865585E+03  0.78878865585E+03  0.00000000000E+00 0. -1.
         25    2    1    2    0    0 -0.19251430906E+02  0.23587179082E+03 -0.80865138000E+01  0.26777175544E+03  0.12502080630E+03 0.  0.
          2    1    1    2  501    0  0.41855068877E+02 -0.14887494115E+03 -0.63993436508E+03  0.65835521301E+03  0.00000000000E+00 0. -1.
          1    1    1    2  502    0 -0.22603637972E+02 -0.86996849669E+02  0.11762208625E+04  0.11796503268E+04  0.00000000000E+00 0. -1.
         22    1    3    3    0    0  0.28941328951E+02  0.17992392432E+02 -0.27490329866E+02  0.43784071795E+02  0.00000000000E+00 0. -1.
         22    1    3    3    0    0 -0.48192759857E+02  0.21787939839E+03  0.19403816066E+02  0.22398768364E+03  0.00000000000E+00 0. -1.
</event>
<event>
 7    1  0.6173324E-006  0.3871778E+02  0.7818608E-02  0.1531152E+00
          2   -1    0    0  502    0  0.00000000000E+00  0.00000000000E+00  0.94710326002E+03  0.94710326002E+03  0.00000000000E+00 0. -1.
          1   -1    0    0  501    0 -0.00000000000E+00 -0.00000000000E+00 -0.32000835308E+03  0.32000835308E+03  0.00000000000E+00 0. -1.
         25    2    1    2    0    0 -0.37799183570E+02 -0.18824391699E+01  0.32691411221E+02  0.13462754007E+03  0.12499409715E+03 0.  0.
          2    1    1    2  501    0  0.20805280669E+02  0.32988448842E+02 -0.26726055780E+03  0.27009128682E+03  0.00000000000E+00 0. -1.
          1    1    1    2  502    0  0.16993902901E+02 -0.31106009673E+02  0.86166405352E+03  0.86239278620E+03  0.00000000000E+00 0. -1.
         22    1    3    3    0    0  0.16343017926E+02  0.36365806231E+02  0.52053867830E+02  0.65568065809E+02  0.00000000000E+00 0. -1.
         22    1    3    3    0    0 -0.54142201496E+02 -0.38248245401E+02 -0.19362456610E+02  0.69059474260E+02  0.00000000000E+00 0. -1.
</event>
<event>
 7    1  0.6173324E-006  0.4933147E+02  0.7818608E-02  0.1582212E+00
          2   -1    0    0  502    0  0.00000000000E+00  0.00000000000E+00  0.14610459499E+04  0.14610459499E+04  0.00000000000E+00 0. -1.
          1   -1    0    0  501    0 -0.00000000000E+00 -0.00000000000E+00 -0.10896651825E+03  0.10896651825E+03  0.00000000000E+00 0. -1.
         25    2    1    2    0    0 -0.43859768661E+02 -0.24716832390E+02  0.28002471333E+03  0.31076107763E+03  0.12499602467E+03 0.  0.
          2    1    1    2  501    0  0.13849942174E+02 -0.14562777904E+02 -0.91988910748E+02  0.94158669804E+02  0.00000000000E+00 0. -1.
          1    1    1    2  502    0  0.30009826487E+02  0.39279610295E+02  0.11640436291E+04  0.11650927207E+04  0.00000000000E+00 0. -1.
         22    1    3    3    0    0 -0.17997245548E+02 -0.54151763621E+02  0.26107137319E+03  0.26723505805E+03  0.00000000000E+00 0.  1.
         22    1    3    3    0    0 -0.25862523114E+02  0.29434931231E+02  0.18953340142E+02  0.43526019585E+02  0.00000000000E+00 0.  1.
</event>
<event>
 7    1  0.6173324E-006  0.2673093E+02  0.7818608E-02  0.1670046E+00
          2   -1    0    0  502    0  0.00000000000E+00  0.00000000000E+00  0.11539076591E+04  0.11539076591E+04  0.00000000000E+00 0. -1.
          1   -1    0    0  501    0 -0.00000000000E+00 -0.00000000000E+00 -0.86138187188E+01  0.86138187188E+01  0.00000000000E+00 0. -1.
         25    2    1    2    0    0 -0.12964410810E+02 -0.38553613934E+02  0.72679389135E+03  0.73858855417E+03  0.12501693786E+03 0.  0.
          2    1    1    2  501    0  0.18019488416E+02  0.13033081511E+02  0.52583886620E+02  0.57093154655E+02  0.00000000000E+00 0. -1.
          1    1    1    2  502    0 -0.50550776060E+01  0.25520532424E+02  0.36591606238E+03  0.36683976896E+03  0.00000000000E+00 0. -1.
         22    1    3    3    0    0  0.36475258359E+02  0.60812031763E+01  0.52041917114E+03  0.52173129022E+03  0.00000000000E+00 0.  1.
         22    1    3    3    0    0 -0.49439669169E+02 -0.44634817111E+02  0.20637472021E+03  0.21685726395E+03  0.00000000000E+00 0.  1.
</event>
<event>
 7    1  0.6173324E-006  0.1347923E+03  0.7818608E-02  0.1394728E+00
          2   -1    0    0  502    0  0.00000000000E+00  0.00000000000E+00  0.58675339786E+03  0.58675339786E+03  0.00000000000E+00 0. -1.
          1   -1    0    0  501    0 -0.00000000000E+00 -0.00000000000E+00 -0.14202241700E+04  0.14202241700E+04  0.00000000000E+00 0. -1.
         25    2    1    2    0    0 -0.24195437362E+02 -0.15357303042E+03 -0.60775610534E+03  0.63965773433E+03  0.12499775458E+03 0.  0.
          2    1    1    2  501    0  0.20921659305E+02  0.12639354891E+03 -0.79103237267E+03  0.80133966558E+03  0.00000000000E+00 0. -1.
          1    1    1    2  502    0  0.32737780576E+01  0.27179481504E+02  0.56531770591E+03  0.56598016790E+03  0.00000000000E+00 0. -1.
         22    1    3    3    0    0 -0.45754949591E+02 -0.34436329350E+02 -0.35277059856E+03  0.35738840412E+03  0.00000000000E+00 0. -1.
         22    1    3    3    0    0  0.21559512229E+02 -0.11913670107E+03 -0.25498550678E+03  0.28226933021E+03  0.00000000000E+00 0. -1.
</event>
<event>
 7    1  0.6173324E-006  0.1226620E+03  0.7818608E-02  0.1328145E+00
          2   -1    0    0  502    0  0.00000000000E+00  0.00000000000E+00  0.18998004563E+04  0.18998004563E+04  0.00000000000E+00 0. -1.
          1   -1    0    0  501    0 -0.00000000000E+00 -0.00000000000E+00 -0.66053257066E+02  0.66053257066E+02  0.00000000000E+00 0. -1.
         25    2    1    2    0    0  0.26378268448E+02  0.13999467080E+03  0.78556372639E+03  0.80810033631E+03  0.12498585691E+03 0.  0.
          2    1    1    2  501    0  0.22135934355E+02 -0.11968291752E+03  0.14319220170E+02  0.12255219460E+03  0.00000000000E+00 0. -1.
          1    1    1    2  502    0 -0.48514202803E+02 -0.20311753282E+02  0.10338642527E+04  0.10352011824E+04  0.00000000000E+00 0. -1.
         22    1    3    3    0    0  0.75140698786E+02  0.85131861151E+02  0.41013393920E+03  0.42556245897E+03  0.00000000000E+00 0. -1.
         22    1    3    3    0    0 -0.48762430338E+02  0.54862809649E+02  0.37542978719E+03  0.38253787734E+03  0.00000000000E+00 0. -1.
</event>
<event>
 7    1  0.6173324E-006  0.3639059E+02  0.7818608E-02  0.1569875E+00
          2   -1    0    0  502    0  0.00000000000E+00  0.00000000000E+00  0.12908734018E+04  0.12908734018E+04  0.00000000000E+00 0. -1.
          1   -1    0    0  501    0 -0.00000000000E+00 -0.00000000000E+00 -0.29426384051E+03  0.29426384051E+03  0.00000000000E+00 0. -1.
         25    2    1    2    0    0  0.83892435299E+01  0.13647913312E+02  0.35265715314E+02  0.13086512395E+03  0.12500146017E+03 0.  0.
          2    1    1    2  501    0 -0.36489080561E+02 -0.49614236470E+01 -0.24490835240E+03  0.24766140151E+03  0.00000000000E+00 0. -1.
          1    1    1    2  502    0  0.28099837031E+02 -0.86864896655E+01  0.12062521983E+04  0.12066107168E+04  0.00000000000E+00 0. -1.
         22    1    3    3    0    0  0.62778139947E+02  0.25184224053E+02  0.32894662035E+02  0.75215681788E+02  0.00000000000E+00 0.  1.
         22    1    3    3    0    0 -0.54388896417E+02 -0.11536310741E+02  0.23710532783E+01  0.55649442159E+02  0.00000000000E+00 0.  1.
</event>
<event>
 7    1  0.6173324E-006  0.9518738E+02  0.7818608E-02  0.1313234E+00
          2   -1    0    0  502    0  0.00000000000E+00  0.00000000000E+00  0.77370318836E+02  0.77370318836E+02  0.00000000000E+00 0. -1.
          1   -1    0    0  501    0 -0.00000000000E+00 -0.00000000000E+00 -0.77469891435E+03  0.77469891435E+03  0.00000000000E+00 0. -1.
         25    2    1    2    0    0 -0.45455914183E+02  0.35251078730E+02 -0.24672349277E+02  0.13979563001E+03  0.12500085866E+03 0.  0.
          2    1    1    2  501    0  0.20438270536E+01 -0.99356429255E+02 -0.59271010939E+03  0.60098348649E+03  0.00000000000E+00 0. -1.
          1    1    1    2  502    0  0.43412087130E+02  0.64105350525E+02 -0.79946136846E+02  0.11129011668E+03  0.00000000000E+00 0. -1.
         22    1    3    3    0    0 -0.63124363664E+02  0.39574730322E+02 -0.62871473699E+02  0.97486751783E+02  0.00000000000E+00 0.  1.
         22    1    3    3    0    0  0.17668449481E+02 -0.43236515921E+01  0.38199124422E+02  0.42308878227E+02  0.00000000000E+00 0.  1.
</event>
<event>
 7    1  0.6173324E-006  0.5663484E+02  0.7818608E-02  0.1464527E+00
          2   -1    0    0  502    0  0.00000000000E+00  0.00000000000E+00  0.19865909472E+04  0.19865909472E+04  0.00000000000E+00 0. -1.
          1   -1    0    0  501    0 -0.00000000000E+00 -0.00000000000E+00 -0.14692339421E+02  0.14692339421E+02  0.00000000000E+00 0. -1.
         25    2    1    2    0    0  0.26827909371E+02 -0.32309069993E+02  0.31615654097E+03  0.34255549649E+03  0.12500278819E+03 0.  0.
          2    1    1    2  501    0 -0.28546706449E+02 -0.25626077130E+02  0.46672841070E+03  0.46830227379E+03  0.00000000000E+00 0. -1.
          1    1    1    2  502    0  0.17187970776E+01  0.57935147123E+02  0.11890136561E+04  0.11904255163E+04  0.00000000000E+00 0. -1.
         22    1    3    3    0    0  0.15219361921E+02 -0.50242741296E+01  0.31223454942E+03  0.31264562393E+03  0.00000000000E+00 0.  1.
         22    1    3    3    0    0  0.11608547450E+02 -0.27284795863E+02  0.39219915439E+01  0.29909872565E+02  0.00000000000E+00 0.  1.
</event>
<event>
 7    1  0.6173324E-006  0.8312214E+02  0.7818608E-02  0.1364889E+00
          2   -1    0    0  502    0  0.00000000000E+00  0.00000000000E+00  0.13710177017E+04  0.13710177017E+04  0.00000000000E+00 0. -1.
          1   -1    0    0  501    0 -0.00000000000E+00 -0.00000000000E+00 -0.24816190428E+04  0.24816190428E+04  0.00000000000E+00 0. -1.
         25    2    1    2    0    0  0.55073570687E-01  0.27344438024E+02  0.33777065790E+03  0.36119571456E+03  0.12500242219E+03 0.  0.
          2    1    1    2  501    0  0.15672451747E+02 -0.81746287337E+02 -0.24684196746E+04  0.24698226194E+04  0.00000000000E+00 0. -1.
          1    1    1    2  502    0 -0.15727525318E+02  0.54401849313E+02  0.10200476756E+04  0.10216184105E+04  0.00000000000E+00 0. -1.
         22    1    3    3    0    0  0.69890287518E+01  0.67540434827E+02  0.10614021096E+03  0.12600119540E+03  0.00000000000E+00 0. -1.
         22    1    3    3    0    0 -0.69339551811E+01 -0.40195996803E+02  0.23163044694E+03  0.23519451916E+03  0.00000000000E+00 0. -1.
</event>
<event>
 7    1  0.6173324E-006  0.3620446E+02  0.7818608E-02  0.1593484E+00
          2   -1    0    0  502    0  0.00000000000E+00  0.00000000000E+00  0.78723324055E+03  0.78723324055E+03  0.00000000000E+00 0. -1.
          1   -1    0    0  501    0 -0.00000000000E+00 -0.00000000000E+00 -0.24498881244E+04  0.24498881244E+04  0.00000000000E+00 0. -1.
         25    2    1    2    0    0 -0.18226118005E+01 -0.26752193681E+02 -0.17116617003E+03  0.21364089346E+03  0.12500228725E+03 0.  0.
          2    1    1    2  501    0 -0.23727389894E+02  0.27501093033E+02 -0.22571251955E+04  0.22574174287E+04  0.00000000000E+00 0. -1.
          1    1    1    2  502    0  0.25550001694E+02 -0.74889935113E+00  0.76563648169E+03  0.76606304279E+03  0.00000000000E+00 0. -1.
         22    1    3    3    0    0 -0.90866343816E+00  0.97637146501E+01 -0.17645972275E+03  0.17673197092E+03  0.00000000000E+00 0.  1.
         22    1    3    3    0    0 -0.91394836235E+00 -0.36515908332E+02  0.52935527190E+01  0.36908922543E+02  0.00000000000E+00 0.  1.
</event>
<event>
 7    1  0.1074709E-005  0.6725679E+02  0.7818608E-02  0.1390065E+00
          2   -1    0    0  502    0  0.00000000000E+00  0.00000000000E+00  0.10505453893E+04  0.10505453893E+04  0.00000000000E+00 0. -1.
          1   -1    0    0  501    0 -0.00000000000E+00 -0.00000000000E+00 -0.14795168345E+04  0.14795168345E+04  0.00000000000E+00 0. -1.
         25    2    1    2    0    0  0.83390920094E+02  0.33083466031E+02 -0.23004237654E+03  0.27674833546E+03  0.12498633883E+03 0.  0.
          2    1    1    2  501    0 -0.50803532594E+02  0.25740448426E+02 -0.12243582075E+04  0.12256820917E+04  0.00000000000E+00 0. -1.
          1    1    1    2  502    0 -0.32587387500E+02 -0.58823914456E+02  0.10254291388E+04  0.10276317966E+04  0.00000000000E+00 0. -1.
         22    1    3    3    0    0  0.99028585510E+02 -0.10363614010E+02 -0.11126791566E+03  0.14931381148E+03  0.00000000000E+00 0. -1.
         22    1    3    3    0    0 -0.15637665416E+02  0.43447080040E+02 -0.11877446088E+03  0.12743452398E+03  0.00000000000E+00 0. -1.
</event>
<event>
 7    1  0.6173324E-006  0.3505669E+02  0.7818608E-02  0.1552050E+00
          2   -1    0    0  502    0  0.00000000000E+00  0.00000000000E+00  0.30066858889E+03  0.30066858889E+03  0.00000000000E+00 0. -1.
          1   -1    0    0  501    0 -0.00000000000E+00 -0.00000000000E+00 -0.38813685743E+03  0.38813685743E+03  0.00000000000E+00 0. -1.
         25    2    1    2    0    0 -0.58540887459E+01 -0.40854107638E+01  0.16249659708E+02  0.12624982268E+03  0.12499602133E+03 0.  0.
          2    1    1    2  501    0  0.27695378878E+02 -0.22203366389E+02 -0.33090933433E+03  0.33280776890E+03  0.00000000000E+00 0. -1.
          1    1    1    2  502    0 -0.21841290133E+02  0.26288777153E+02  0.22719140609E+03  0.22974785475E+03  0.00000000000E+00 0. -1.
         22    1    3    3    0    0 -0.46303709289E+02  0.18636447525E+02  0.48619232252E+02  0.69679124671E+02  0.00000000000E+00 0.  1.
         22    1    3    3    0    0  0.40449620543E+02 -0.22721858289E+02 -0.32369572544E+02  0.56570698005E+02  0.00000000000E+00 0.  1.
</event>
<event>
 7    1  0.6173324E-006  0.4161540E+02  0.7818608E-02  0.1507449E+00
          2   -1    0    0  502    0  0.00000000000E+00  0.00000000000E+00  0.17008002111E+03  0.17008002111E+03  0.00000000000E+00 0. -1.
          1   -1    0    0  501    0 -0.00000000000E+00 -0.00000000000E+00 -0.56133377441E+03  0.56133377441E+03  0.00000000000E+00 0. -1.
         25    2    1    2    0    0  0.28852805049E+02  0.19825268944E+02  0.14931605474E+01  0.12982986455E+03  0.12501215362E+03 0.  0.
          2    1    1    2  501    0  0.10715633475E+02 -0.37131843432E+02 -0.49190922450E+03  0.49342505383E+03  0.00000000000E+00 0. -1.
          1    1    1    2  502    0 -0.39568438524E+02  0.17306574488E+02  0.99162310653E+02  0.10815887713E+03  0.00000000000E+00 0. -1.
         22    1    3    3    0    0  0.68391382517E+02  0.34810965381E+02  0.25917457523E+02  0.80999377268E+02  0.00000000000E+00 0. -1.
         22    1    3    3    0    0 -0.39538577468E+02 -0.14985696436E+02 -0.24424296976E+02  0.48830487287E+02  0.00000000000E+00 0. -1.
</event>
<event>
 7    1  0.6173324E-006  0.3623717E+03  0.7818608E-02  0.1141679E+00
          2   -1    0    0  502    0  0.00000000000E+00  0.00000000000E+00  0.15437865216E+04  0.15437865216E+04  0.00000000000E+00 0. -1.
          1   -1    0    0  501    0 -0.00000000000E+00 -0.00000000000E+00 -0.37304040365E+03  0.37304040365E+03  0.00000000000E+00 0. -1.
         25    2    1    2    0    0  0.10059857114E+03 -0.27963138923E+03  0.90639444610E+02  0.33489576501E+03  0.12500351254E+03 0.  0.
          2    1    1    2  501    0 -0.11396196022E+03  0.40042718011E+03 -0.72792451718E+02  0.42264405352E+03  0.00000000000E+00 0. -1.
          1    1    1    2  502    0  0.13363389089E+02 -0.12079579088E+03  0.11528991250E+04  0.11592871067E+04  0.00000000000E+00 0. -1.
         22    1    3    3    0    0  0.45063381814E+02 -0.92759426192E+02 -0.27774769210E+02  0.10680101747E+03  0.00000000000E+00 0.  1.
         22    1    3    3    0    0  0.55535189322E+02 -0.18687196303E+03  0.11841421382E+03  0.22809474754E+03  0.00000000000E+00 0.  1.
</event>
<event>
 7    1  0.6173324E-006  0.8507108E+02  0.7818608E-02  0.1319877E+00
          2   -1    0    0  502    0  0.00000000000E+00  0.00000000000E+00  0.76107825017E+03  0.76107825017E+03  0.00000000000E+00 0. -1.
          1   -1    0    0  501    0 -0.00000000000E+00 -0.00000000000E+00 -0.13638241429E+03  0.13638241429E+03  0.00000000000E+00 0. -1.
         25    2    1    2    0    0 -0.23263121708E+02 -0.12345618170E+03  0.16150438665E+03  0.23977164009E+03  0.12499668338E+03 0.  0.
          2    1    1    2  501    0  0.64287761908E+02  0.50273806612E+02 -0.76293989343E+02  0.11171904391E+03  0.00000000000E+00 0. -1.
          1    1    1    2  502    0 -0.41024640200E+02  0.73182375084E+02  0.53948543857E+03  0.54596998045E+03  0.00000000000E+00 0. -1.
         22    1    3    3    0    0 -0.15202577604E+02  0.22455264274E+02  0.46427324250E+02  0.53766659710E+02  0.00000000000E+00 0.  1.
         22    1    3    3    0    0 -0.80605441036E+01 -0.14591144597E+03  0.11507706240E+03  0.18600498038E+03  0.00000000000E+00 0.  1.
</event>
<event>
 7    1  0.6173324E-006  0.2577323E+02  0.7818608E-02  0.1650629E+00
          2   -1    0    0  502    0  0.00000000000E+00  0.00000000000E+00  0.61828698525E+02  0.61828698525E+02  0.00000000000E+00 0. -1.
          1   -1    0    0  501    0 -0.00000000000E+00 -0.00000000000E+00 -0.14784186789E+04  0.14784186789E+04  0.00000000000E+00 0. -1.
         25    2    1    2    0    0 -0.32769593529E+02  0.47699485836E-01 -0.25551730303E+03  0.28633565863E+03  0.12500067488E+03 0.  0.
          2    1    1    2  501    0  0.16250641770E+02 -0.19912451190E+02 -0.12037495187E+04  0.12040238755E+04  0.00000000000E+00 0. -1.
          1    1    1    2  502    0  0.16518951759E+02  0.19864751704E+02  0.42676841301E+02  0.49887843318E+02  0.00000000000E+00 0. -1.
         22    1    3    3    0    0 -0.73106973926E+02  0.24203220198E+02 -0.11711672677E+03  0.14016687624E+03  0.00000000000E+00 0.  1.
         22    1    3    3    0    0  0.40337380397E+02 -0.24155520712E+02 -0.13840057626E+03  0.14616878239E+03  0.00000000000E+00 0.  1.
</event>
<event>
 7    1  0.6173324E-006  0.7245695E+02  0.7818608E-02  0.1362112E+00
          2   -1    0    0  502    0  0.00000000000E+00  0.00000000000E+00  0.98604431903E+03  0.98604431903E+03  0.00000000000E+00 0. -1.
          1   -1    0    0  501    0 -0.00000000000E+00 -0.00000000000E+00 -0.41377405907E+03  0.41377405907E+03  0.00000000000E+00 0. -1.
         25    2    1    2    0    0  0.74981183415E+02  0.58547768839E+02 -0.17315921972E+03  0.23379177406E+03  0.12499783655E+03 0.  0.
          2    1    1    2  501    0 -0.71836715059E+02  0.78682283440E+01 -0.20289161858E+03  0.21537741650E+03  0.00000000000E+00 0. -1.
          1    1    1    2  502    0 -0.31444683560E+01 -0.66415997183E+02  0.94832109826E+03  0.95064918754E+03  0.00000000000E+00 0. -1.
         22    1    3    3    0    0  0.97228578396E+01 -0.51826254385E+01  0.18500775146E+02  0.21533050226E+02  0.00000000000E+00 0. -1.
         22    1    3    3    0    0  0.65258325575E+02  0.63730394277E+02 -0.19165999486E+03  0.21225872383E+03  0.00000000000E+00 0. -1.
</event>
<event>
 7    1  0.6173324E-006  0.5441783E+02  0.7818608E-02  0.1490391E+00
          2   -1    0    0  502    0  0.00000000000E+00  0.00000000000E+00  0.26965643024E+03  0.26965643024E+03  0.00000000000E+00 0. -1.
          1   -1    0    0  501    0 -0.00000000000E+00 -0.00000000000E+00 -0.25586236093E+04  0.25586236093E+04  0.00000000000E+00 0. -1.
         25    2    1    2    0    0 -0.60396905335E+01  0.29728239507E+02 -0.34102059420E+03  0.36447321658E+03  0.12500173537E+03 0.  0.
          2    1    1    2  501    0  0.25466295368E+02  0.21356633787E+02 -0.22028547193E+04  0.22031054338E+04  0.00000000000E+00 0. -1.
          1    1    1    2  502    0 -0.19426604834E+02 -0.51084873294E+02  0.25490813451E+03  0.26070138913E+03  0.00000000000E+00 0. -1.
         22    1    3    3    0    0 -0.10768646194E+02 -0.34501805522E+02 -0.25210794787E+03  0.25468560168E+03  0.00000000000E+00 0.  1.
         22    1    3    3    0    0  0.47289556605E+01  0.64230045029E+02 -0.88912646337E+02  0.10978761490E+03  0.00000000000E+00 0.  1.
</event>
<event>
 7    1  0.6173324E-006  0.1519355E+03  0.7818608E-02  0.1211740E+00
          2   -1    0    0  502    0  0.00000000000E+00  0.00000000000E+00  0.37908586166E+03  0.37908586166E+03  0.00000000000E+00 0. -1.
          1   -1    0    0  501    0 -0.00000000000E+00 -0.00000000000E+00 -0.38237926995E+03  0.38237926995E+03  0.00000000000E+00 0. -1.
         25    2    1    2    0    0 -0.13721613362E+03 -0.70215018910E+02  0.75485330250E+02  0.21233508952E+03  0.12501895438E+03 0.  0.
          2    1    1    2  501    0 -0.20058950101E+02  0.12965683770E+03 -0.26654712030E+03  0.29708689702E+03  0.00000000000E+00 0. -1.
          1    1    1    2  502    0  0.15727508372E+03 -0.59441818788E+02  0.18776838176E+03  0.25204314506E+03  0.00000000000E+00 0. -1.
         22    1    3    3    0    0 -0.10008856197E+03 -0.10122724131E+03  0.80769500006E+02  0.16367158200E+03  0.00000000000E+00 0. -1.
         22    1    3    3    0    0 -0.37127571648E+02  0.31012222405E+02 -0.52841697551E+01  0.48663507529E+02  0.00000000000E+00 0. -1.
</event>
<event>
 7    1  0.6173324E-006  0.1218920E+03  0.7818608E-02  0.1401067E+00
          2   -1    0    0  502    0  0.00000000000E+00  0.00000000000E+00  0.11837505081E+04  0.11837505081E+04  0.00000000000E+00 0. -1.
          1   -1    0    0  501    0 -0.00000000000E+00 -0.00000000000E+00 -0.77523885617E+02  0.77523885617E+02  0.00000000000E+00 0. -1.
         25    2    1    2    0    0 -0.47948508034E+00  0.95940449862E+02  0.54564670584E+03  0.56794149260E+03  0.12498964596E+03 0.  0.
          2    1    1    2  501    0 -0.20059684566E+01 -0.12461984561E+03 -0.71809828776E+01  0.12484268639E+03  0.00000000000E+00 0. -1.
          1    1    1    2  502    0  0.24854535370E+01  0.28679395746E+02  0.56776089957E+03  0.56849021478E+03  0.00000000000E+00 0. -1.
         22    1    3    3    0    0 -0.56520521950E+02  0.15417303829E+02  0.17582867656E+03  0.18533209695E+03  0.00000000000E+00 0. -1.
         22    1    3    3    0    0  0.56041036870E+02  0.80523146033E+02  0.36981802928E+03  0.38260939565E+03  0.00000000000E+00 0. -1.
</event>
<event>
 7    1  0.6173324E-006  0.4747513E+02  0.7818608E-02  0.1570163E+00
          2   -1    0    0  502    0  0.00000000000E+00  0.00000000000E+00  0.34405887218E+03  0.34405887218E+03  0.00000000000E+00 0. -1.
          1   -1    0    0  501    0 -0.00000000000E+00 -0.00000000000E+00 -0.49243925975E+02  0.49243925975E+02  0.00000000000E+00 0. -1.
         25    2    1    2    0    0  0.41819723042E+02  0.24034035261E+02  0.10473000398E+03  0.17006362926E+03  0.12500696052E+03 0.  0.
          2    1    1    2  501    0 -0.26482269387E+02 -0.40502196902E+02  0.21149420124E+02  0.52811329441E+02  0.00000000000E+00 0. -1.
          1    1    1    2  502    0 -0.15337453655E+02  0.16468161641E+02  0.16893552211E+03  0.17042783946E+03  0.00000000000E+00 0. -1.
         22    1    3    3    0    0 -0.23845244365E+02  0.53210284892E+02  0.27151020820E+02  0.64320354699E+02  0.00000000000E+00 0.  1.
         22    1    3    3    0    0  0.65664967407E+02 -0.29176249631E+02  0.77578983157E+02  0.10574327456E+03  0.00000000000E+00 0.  1.
</event>
<event>
 7    1  0.6173324E-006  0.1042112E+03  0.7818608E-02  0.1466091E+00
          2   -1    0    0  502    0  0.00000000000E+00  0.00000000000E+00  0.81815765179E+03  0.81815765179E+03  0.00000000000E+00 0. -1.
          1   -1    0    0  501    0 -0.00000000000E+00 -0.00000000000E+00 -0.29994371726E+03  0.29994371726E+03  0.00000000000E+00 0. -1.
         25    2    1    2    0    0  0.67283688381E+02  0.55417773856E+02 -0.48885732035E+01  0.15246617218E+03  0.12499524443E+03 0.  0.
          2    1    1    2  501    0 -0.86010741174E+02 -0.64034562793E+02 -0.20812111230E+03  0.23412105889E+03  0.00000000000E+00 0. -1.
          1    1    1    2  502    0  0.18727052793E+02  0.86167889369E+01  0.73122362003E+03  0.73151413797E+03  0.00000000000E+00 0. -1.
         22    1    3    3    0    0  0.68893683039E+02  0.92433108122E+02 -0.19534326878E+01  0.11529976123E+03  0.00000000000E+00 0. -1.
         22    1    3    3    0    0 -0.16099946580E+01 -0.37015334266E+02 -0.29351405157E+01  0.37166410958E+02  0.00000000000E+00 0. -1.
</event>
<event>
 7    1  0.6173324E-006  0.9296001E+02  0.7818608E-02  0.1328245E+00
          2   -1    0    0  502    0  0.00000000000E+00  0.00000000000E+00  0.20632901704E+04  0.20632901704E+04  0.00000000000E+00 0. -1.
          1   -1    0    0  501    0 -0.00000000000E+00 -0.00000000000E+00 -0.38809454662E+03  0.38809454662E+03  0.00000000000E+00 0. -1.
         25    2    1    2    0    0 -0.65139003321E+02 -0.95716047244E+02  0.11627781932E+04  0.11751947714E+04  0.12499989044E+03 0.  0.
          2    1    1    2  501    0 -0.20371297103E+02  0.66278087232E+02 -0.37642541775E+03  0.38275823926E+03  0.00000000000E+00 0. -1.
          1    1    1    2  502    0  0.85510300424E+02  0.29437960012E+02  0.88884284835E+03  0.89343170642E+03  0.00000000000E+00 0. -1.
         22    1    3    3    0    0  0.11770974027E+01 -0.85693375191E+02  0.89699806592E+03  0.90108283214E+03  0.00000000000E+00 0. -1.
         22    1    3    3    0    0 -0.66316100723E+02 -0.10022672053E+02  0.26578012728E+03  0.27411193923E+03  0.00000000000E+00 0. -1.
</event>
<event>
 7    1  0.6173324E-006  0.6069234E+02  0.7818608E-02  0.1471652E+00
          2   -1    0    0  502    0  0.00000000000E+00  0.00000000000E+00  0.23212171720E+03  0.23212171720E+03  0.00000000000E+00 0. -1.
          1   -1    0    0  501    0 -0.00000000000E+00 -0.00000000000E+00 -0.52540831133E+03  0.52540831133E+03  0.00000000000E+00 0. -1.
         25    2    1    2    0    0 -0.12523127620E+01 -0.28361119116E+02  0.11480845480E+02  0.12871299869E+03  0.12501721823E+03 0.  0.
          2    1    1    2  501    0  0.13128958478E+02  0.60231479173E+02 -0.46294138025E+03  0.46702775312E+03  0.00000000000E+00 0. -1.
          1    1    1    2  502    0 -0.11876645716E+02 -0.31870360057E+02  0.15817394064E+03  0.16178927672E+03  0.00000000000E+00 0. -1.
         22    1    3    3    0    0  0.56835963422E+02 -0.38310555921E+02 -0.64071912557E+00  0.68545138078E+02  0.00000000000E+00 0. -1.
         22    1    3    3    0    0 -0.58088276184E+02  0.99494368052E+01  0.12121564606E+02  0.60167860617E+02  0.00000000000E+00 0. -1.
</event>
<event>
 7    1  0.6173324E-006  0.5880364E+02  0.7818608E-02  0.1477706E+00
          2   -1    0    0  502    0  0.00000000000E+00  0.00000000000E+00  0.19003275851E+03  0.19003275851E+03  0.00000000000E+00 0. -1.
          1   -1    0    0  501    0 -0.00000000000E+00 -0.00000000000E+00 -0.23279546817E+03  0.23279546817E+03  0.00000000000E+00 0. -1.
         25    2    1    2    0    0 -0.65138683219E+02 -0.36092015998E+02 -0.17457774519E+03  0.22725966062E+03  0.12499553015E+03 0.  0.
          2    1    1    2  501    0  0.48190023920E+02  0.70525635100E+01 -0.10087362834E+02  0.49737027921E+02  0.00000000000E+00 0. -1.
          1    1    1    2  502    0  0.16948659299E+02  0.29039452488E+02  0.14190239837E+03  0.14583153814E+03  0.00000000000E+00 0. -1.
         22    1    3    3    0    0 -0.32188091882E+02 -0.49794017309E+02 -0.18147314521E+03  0.19091364501E+03  0.00000000000E+00 0.  1.
         22    1    3    3    0    0 -0.32950591337E+02  0.13702001312E+02  0.68954000159E+01  0.36346015611E+02  0.00000000000E+00 0.  1.
</event>
<event>
 7    1  0.6173324E-006  0.6978257E+02  0.7818608E-02  0.1402937E+00
          2   -1    0    0  502    0  0.00000000000E+00  0.00000000000E+00  0.18890319041E+04  0.18890319041E+04  0.00000000000E+00 0. -1.
          1   -1    0    0  501    0 -0.00000000000E+00 -0.00000000000E+00 -0.15629648726E+03  0.15629648726E+03  0.00000000000E+00 0. -1.
         25    2    1    2    0    0 -0.72122256987E+02 -0.32047361566E+02  0.10154198973E+04  0.10261240109E+04  0.12499705860E+03 0.  0.
          2    1    1    2  501    0  0.32514672392E+02  0.61813945016E+02 -0.14211315941E+03  0.15834872212E+03  0.00000000000E+00 0. -1.
          1    1    1    2  502    0  0.39607584595E+02 -0.29766583450E+02  0.85942867894E+03  0.86085565830E+03  0.00000000000E+00 0. -1.
         22    1    3    3    0    0 -0.63008800101E+02  0.62021030584E+01  0.20056385828E+03  0.21031984267E+03  0.00000000000E+00 0.  1.
         22    1    3    3    0    0 -0.91134568866E+01 -0.38249464625E+02  0.81485603900E+03  0.81580416825E+03  0.00000000000E+00 0.  1.
</event>
<event>
 7    1  0.6173324E-006  0.1124432E+03  0.7818608E-02  0.1348598E+00
          2   -1    0    0  502    0  0.00000000000E+00  0.00000000000E+00  0.38940880992E+03  0.38940880992E+03  0.00000000000E+00 0. -1.
          1   -1    0    0  501    0 -0.00000000000E+00 -0.00000000000E+00 -0.86821490390E+03  0.86821490390E+03  0.00000000000E+00 0. -1.
         25    2    1    2    0    0  0.31781708019E+02  0.63866079930E+02  0.61862549837E+00  0.14392613593E+03  0.12500158710E+03 0.  0.
          2    1    1    2  501    0  0.28987381452E+02  0.38305063620E+02 -0.78466059169E+03  0.78612962693E+03  0.00000000000E+00 0. -1.
          1    1    1    2  502    0 -0.60769089471E+02 -0.10217114355E+03  0.30523587222E+03  0.32756795096E+03  0.00000000000E+00 0. -1.
         22    1    3    3    0    0 -0.37264192299E+02  0.64933933028E+02 -0.20499576779E+00  0.74867066922E+02  0.00000000000E+00 0. -1.
         22    1    3    3    0    0  0.69045900318E+02 -0.10678530984E+01  0.82362126616E+00  0.69059069013E+02  0.00000000000E+00 0. -1.
</event>
<event>
 7    1  0.6173324E-006  0.7014729E+02  0.7818608E-02  0.1408681E+00
          2   -1    0    0  502    0  0.00000000000E+00  0.00000000000E+00  0.22760407977E+03  0.22760407977E+03  0.00000000000E+00 0. -1.
          1   -1    0    0  501    0 -0.00000000000E+00 -0.00000000000E+00 -0.11989943809E+04  0.11989943809E+04  0.00000000000E+00 0. -1.
         25    2    1    2    0    0 -0.24907833881E+02 -0.27708116590E+02  0.18831281299E+02  0.13178633013E+03  0.12499951896E+03 0.  0.
          2    1    1    2  501    0  0.52837569635E+01  0.70541946049E+02 -0.11377479071E+04  0.11399449041E+04  0.00000000000E+00 0. -1.
          1    1    1    2  502    0  0.19624076918E+02 -0.42833829459E+02  0.14752632470E+03  0.15486722642E+03  0.00000000000E+00 0. -1.
         22    1    3    3    0    0 -0.46018842875E+02 -0.50106135335E+02  0.52674295987E+02  0.86040340279E+02  0.00000000000E+00 0.  1.
         22    1    3    3    0    0  0.21111008993E+02  0.22398018745E+02 -0.33843014687E+02  0.45745989852E+02  0.00000000000E+00 0.  1.
</event>
<event>
 7    1  0.6173324E-006  0.1574688E+03  0.7818608E-02  0.1238676E+00
          2   -1    0    0  502    0  0.00000000000E+00  0.00000000000E+00  0.83656491999E+03  0.83656491999E+03  0.00000000000E+00 0. -1.
          1   -1    0    0  501    0 -0.00000000000E+00 -0.00000000000E+00 -0.29864312411E+04  0.29864312411E+04  0.00000000000E+00 0. -1.
         25    2    1    2    0    0  0.20533668906E+03  0.84046478226E+02  0.46288189364E+03  0.52830997090E+03  0.12499924608E+03 0.  0.
          2    1    1    2  501    0 -0.74541344221E+02 -0.59920404518E+02 -0.29399399371E+04  0.29414951471E+04  0.00000000000E+00 0. -1.
          1    1    1    2  502    0 -0.13079534484E+03 -0.24126073708E+02  0.32719172238E+03  0.35319104301E+03  0.00000000000E+00 0. -1.
         22    1    3    3    0    0  0.16715312809E+03  0.80683790150E+02  0.24653081230E+03  0.30858950668E+03  0.00000000000E+00 0.  1.
         22    1    3    3    0    0  0.38183560972E+02  0.33626880761E+01  0.21635108134E+03  0.21972046422E+03  0.00000000000E+00 0.  1.
</event>
<event>
 7    1  0.6173324E-006  0.2977731E+02  0.7818608E-02  0.1634965E+00
          2   -1    0    0  502    0  0.00000000000E+00  0.00000000000E+00  0.21922383537E+04  0.21922383537E+04  0.00000000000E+00 0. -1.
          1   -1    0    0  501    0 -0.00000000000E+00 -0.00000000000E+00 -0.50708698333E+02  0.50708698333E+02  0.00000000000E+00 0. -1.
         25    2    1    2    0    0  0.25861828344E+02  0.26564528641E+02  0.17251890827E+04  0.17301088322E+04  0.12499876711E+03 0.  0.
          2    1    1    2  501    0 -0.24113251651E+02  0.31844119995E+01 -0.44671569590E+02  0.50863921542E+02  0.00000000000E+00 0. -1.
          1    1    1    2  502    0 -0.17485766924E+01 -0.29748940641E+02  0.46101214218E+03  0.46197429823E+03  0.00000000000E+00 0. -1.
         22    1    3    3    0    0  0.60642922533E+02 -0.10301273600E+01  0.44085615858E+03  0.44500873899E+03  0.00000000000E+00 0. -1.
         22    1    3    3    0    0 -0.34781094190E+02  0.27594656002E+02  0.12843329242E+04  0.12851000932E+04  0.00000000000E+00 0. -1.
</event>
<event>
 7    1  0.6173324E-006  0.8363255E+02  0.7818608E-02  0.1343016E+00
          2   -1    0    0  502    0  0.00000000000E+00  0.00000000000E+00  0.71674755693E+03  0.71674755693E+03  0.00000000000E+00 0. -1.
          1   -1    0    0  501    0 -0.00000000000E+00 -0.00000000000E+00 -0.18068909548E+03  0.18068909548E+03  0.00000000000E+00 0. -1.
         25    2    1    2    0    0 -0.12689205498E+03 -0.16169976093E+02  0.77552309769E+02  0.19493242906E+03  0.12498491671E+03 0.  0.
          2    1    1    2  501    0  0.75483500014E+02 -0.27966121013E+02 -0.10647232591E+03  0.13347740964E+03  0.00000000000E+00 0. -1.
          1    1    1    2  502    0  0.51408554970E+02  0.44136097106E+02  0.56497847759E+03  0.56902681372E+03  0.00000000000E+00 0. -1.
         22    1    3    3    0    0 -0.11826395477E+02 -0.50835402582E+02  0.53289254011E+00  0.52195648862E+02  0.00000000000E+00 0.  1.
         22    1    3    3    0    0 -0.11506565951E+03  0.34665426489E+02  0.77019417228E+02  0.14273678020E+03  0.00000000000E+00 0.  1.
</event>
<event>
 7    1  0.6173324E-006  0.3782654E+02  0.7818608E-02  0.1558396E+00
          2   -1    0    0  502    0  0.00000000000E+00  0.00000000000E+00  0.45661707474E+03  0.45661707474E+03  0.00000000000E+00 0. -1.
          1   -1    0    0  501    0 -0.00000000000E+00 -0.00000000000E+00 -0.85277708543E+02  0.85277708543E+02  0.00000000000E+00 0. -1.
         25    2    1    2    0    0 -0.29466994615E+02 -0.12850418587E+02  0.20327159536E+03  0.24078591710E+03  0.12500031745E+03 0.  0.
          2    1    1    2  501    0  0.34170466362E+02 -0.17202576542E+02 -0.59925223659E+02  0.71095582434E+02  0.00000000000E+00 0. -1.
          1    1    1    2  502    0 -0.47034717469E+01  0.30052995129E+02  0.22799299450E+03  0.23001328375E+03  0.00000000000E+00 0. -1.
         22    1    3    3    0    0 -0.31030820181E+02  0.32477767316E+02  0.18743987074E+03  0.19274704229E+03  0.00000000000E+00 0. -1.
         22    1    3    3    0    0  0.15638255664E+01 -0.45328185904E+02  0.15831724621E+02  0.48038874801E+02  0.00000000000E+00 0. -1.
</event>
<event>
 7    1  0.6173324E-006  0.9420752E+02  0.7818608E-02  0.1401123E+00
          2   -1    0    0  502    0  0.00000000000E+00  0.00000000000E+00  0.16869712940E+04  0.16869712940E+04  0.00000000000E+00 0. -1.
          1   -1    0    0  501    0 -0.00000000000E+00 -0.00000000000E+00 -0.13637667092E+04  0.13637667092E+04  0.00000000000E+00 0. -1.
         25    2    1    2    0    0 -0.12357143383E+03  0.88667302673E+01  0.49973185222E+03  0.52981525343E+03  0.12499504181E+03 0.  0.
          2    1    1    2  501    0  0.93254694286E+02  0.12742545505E+02 -0.13467865495E+04  0.13500714131E+04  0.00000000000E+00 0. -1.
          1    1    1    2  502    0  0.30316739542E+02 -0.21609275772E+02  0.11702592821E+04  0.11708513367E+04  0.00000000000E+00 0. -1.
         22    1    3    3    0    0 -0.81513325306E+02 -0.14956044128E+02  0.45953693432E+03  0.46694999675E+03  0.00000000000E+00 0. -1.
         22    1    3    3    0    0 -0.42058108522E+02  0.23822774395E+02  0.40194917900E+02  0.62865256679E+02  0.00000000000E+00 0. -1.
</event>
<event>
 7    1  0.6173324E-006  0.7880393E+02  0.7818608E-02  0.1358887E+00
          2   -1    0    0  502    0  0.00000000000E+00  0.00000000000E+00  0.50925178349E+03  0.50925178349E+03  0.00000000000E+00 0. -1.
          1   -1    0    0  501    0 -0.00000000000E+00 -0.00000000000E+00 -0.13851083760E+04  0.13851083760E+04  0.00000000000E+00 0. -1.
         25    2    1    2    0    0 -0.17164006942E+02  0.12595930635E+03 -0.72128431438E+02  0.19232270986E+03  0.12500065647E+03 0.  0.
          2    1    1    2  501    0 -0.20091691731E+02 -0.75387178597E+02 -0.12494640372E+04  0.12518974731E+04  0.00000000000E+00 0. -1.
          1    1    1    2  502    0  0.37255698674E+02 -0.50572127751E+02  0.44573587616E+03  0.45013997655E+03  0.00000000000E+00 0. -1.
         22    1    3    3    0    0 -0.41818027757E+02 -0.92902462071E+00  0.44761354267E+01  0.42067164400E+02  0.00000000000E+00 0. -1.
         22    1    3    3    0    0  0.24654020815E+02  0.12688833097E+03 -0.76604566865E+02  0.15025554546E+03  0.00000000000E+00 0. -1.
</event>
<event>
 7    1  0.6173324E-006  0.1094874E+03  0.7818608E-02  0.1265021E+00
          2   -1    0    0  502    0  0.00000000000E+00  0.00000000000E+00  0.87289945622E+03  0.87289945622E+03  0.00000000000E+00 0. -1.
          1   -1    0    0  501    0 -0.00000000000E+00 -0.00000000000E+00 -0.30613221489E+03  0.30613221489E+03  0.00000000000E+00 0. -1.
         25    2    1    2    0    0 -0.22823479464E+02 -0.38450696870E+02 -0.70809511554E+02  0.15046756936E+03  0.12500854051E+03 0.  0.
          2    1    1    2  501    0  0.10051702188E+03  0.11559478388E+03 -0.16116631001E+03  0.22235198499E+03  0.00000000000E+00 0. -1.
          1    1    1    2  502    0 -0.77693542415E+02 -0.77144087007E+02  0.79874306289E+03  0.80621211676E+03  0.00000000000E+00 0. -1.
         22    1    3    3    0    0 -0.53986082409E+02  0.71898678667E+01  0.71254171148E+01  0.54926886521E+02  0.00000000000E+00 0.  1.
         22    1    3    3    0    0  0.31162602944E+02 -0.45640564737E+02 -0.77934928669E+02  0.95540682844E+02  0.00000000000E+00 0.  1.
</event>
<event>
 7    1  0.6173324E-006  0.8090511E+02  0.7818608E-02  0.1427859E+00
          2   -1    0    0  502    0  0.00000000000E+00  0.00000000000E+00  0.72205175445E+02  0.72205175445E+02  0.00000000000E+00 0. -1.
          1   -1    0    0  501    0 -0.00000000000E+00 -0.00000000000E+00 -0.64925723875E+03  0.64925723875E+03  0.00000000000E+00 0. -1.
         25    2    1    2    0    0  0.57327961577E+02  0.51420455900E+02 -0.94662802197E+02  0.17468774926E+03  0.12499682059E+03 0.  0.
          2    1    1    2  501    0 -0.31571874435E+02 -0.75465425012E+02 -0.50051124078E+03  0.50715216234E+03  0.00000000000E+00 0. -1.
          1    1    1    2  502    0 -0.25756087142E+02  0.24044969111E+02  0.18121979670E+02  0.39622502591E+02  0.00000000000E+00 0. -1.
         22    1    3    3    0    0  0.46628953494E+02  0.88056863484E+02 -0.38577879651E+02  0.10684813199E+03  0.00000000000E+00 0.  1.
         22    1    3    3    0    0  0.10699008083E+02 -0.36636407583E+02 -0.56084922545E+02  0.67839617271E+02  0.00000000000E+00 0.  1.
</event>
<event>
 7    1  0.6173324E-006  0.8063578E+02  0.7818608E-02  0.1408653E+00
          2   -1    0    0  502    0  0.00000000000E+00  0.00000000000E+00  0.21007084752E+03  0.21007084752E+03  0.00000000000E+00 0. -1.
          1   -1    0    0  501    0 -0.00000000000E+00 -0.00000000000E+00 -0.71590758852E+03  0.71590758852E+03  0.00000000000E+00 0. -1.
         25    2    1    2    0    0 -0.49799659998E+02  0.22075123137E+01 -0.68698462573E+02  0.15109319836E+03  0.12499918633E+03 0.  0.
          2    1    1    2  501    0 -0.29999639657E+02 -0.27940514660E+02 -0.59485523587E+03  0.59626621770E+03  0.00000000000E+00 0. -1.
          1    1    1    2  502    0  0.79799299655E+02  0.25733002346E+02  0.15771695743E+03  0.17861901998E+03  0.00000000000E+00 0. -1.
         22    1    3    3    0    0 -0.65657773766E+02  0.28762472490E+02 -0.88863477206E+02  0.11417066462E+03  0.00000000000E+00 0. -1.
         22    1    3    3    0    0  0.15858113768E+02 -0.26554960176E+02  0.20165014633E+02  0.36922533735E+02  0.00000000000E+00 0. -1.
</event>
<event>
 7    1  0.6173324E-006  0.9335747E+02  0.7818608E-02  0.1431892E+00
          2   -1    0    0  502    0  0.00000000000E+00  0.00000000000E+00  0.29011959911E+03  0.29011959911E+03  0.00000000000E+00 0. -1.
          1   -1    0    0  501    0 -0.00000000000E+00 -0.00000000000E+00 -0.30524005280E+04  0.30524005280E+04  0.00000000000E+00 0. -1.
         25    2    1    2    0    0 -0.15889807433E+02  0.10814558909E+03 -0.92938582615E+03  0.94410327214E+03  0.12500008076E+03 0.  0.
          2    1    1    2  501    0 -0.19824741209E+02 -0.22002151511E+02 -0.21078604548E+04  0.21080685027E+04  0.00000000000E+00 0. -1.
          1    1    1    2  502    0  0.35714548642E+02 -0.86143437579E+02  0.27496535208E+03  0.29034835227E+03  0.00000000000E+00 0. -1.
         22    1    3    3    0    0 -0.34342354303E+02  0.11425106874E+03 -0.49096247342E+03  0.50524929917E+03  0.00000000000E+00 0.  1.
         22    1    3    3    0    0  0.18452546870E+02 -0.61054796479E+01 -0.43842335274E+03  0.43885397297E+03  0.00000000000E+00 0.  1.
</event>
<event>
 7    1  0.6173324E-006  0.8596551E+02  0.7818608E-02  0.1328375E+00
          2   -1    0    0  502    0  0.00000000000E+00  0.00000000000E+00  0.17905441104E+04  0.17905441104E+04  0.00000000000E+00 0. -1.
          1   -1    0    0  501    0 -0.00000000000E+00 -0.00000000000E+00 -0.10508657112E+04  0.10508657112E+04  0.00000000000E+00 0. -1.
         25    2    1    2    0    0 -0.34364081179E+02 -0.12798336770E+03  0.81777573109E+02  0.19971863778E+03  0.12505730818E+03 0.  0.
          2    1    1    2  501    0 -0.27933153322E+02  0.69489671803E+02 -0.98937235173E+03  0.99220296609E+03  0.00000000000E+00 0. -1.
          1    1    1    2  502    0  0.62297234501E+02  0.58493695895E+02  0.16472731779E+04  0.16494882177E+04  0.00000000000E+00 0. -1.
         22    1    3    3    0    0 -0.12392712952E+02  0.22548196198E+02  0.28829181605E+02  0.38640939405E+02  0.00000000000E+00 0. -1.
         22    1    3    3    0    0 -0.21971368226E+02 -0.15053156390E+03  0.52948391504E+02  0.16107769837E+03  0.00000000000E+00 0. -1.
</event>
<event>
 7    1  0.6173324E-006  0.4529231E+02  0.7818608E-02  0.1559825E+00
          2   -1    0    0  502    0  0.00000000000E+00  0.00000000000E+00  0.19082158580E+04  0.19082158580E+04  0.00000000000E+00 0. -1.
          1   -1    0    0  501    0 -0.00000000000E+00 -0.00000000000E+00 -0.71402769652E+03  0.71402769652E+03  0.00000000000E+00 0. -1.
         25    2    1    2    0    0 -0.65618170185E+02  0.25406909309E+02 -0.73491818812E+02  0.16117315584E+03  0.12499793371E+03 0.  0.
          2    1    1    2  501    0  0.23880690899E+02 -0.79692281840E+01 -0.59615513693E+03  0.59668646984E+03  0.00000000000E+00 0. -1.
          1    1    1    2  502    0  0.41737479286E+02 -0.17437681125E+02  0.18638351172E+04  0.18643839289E+04  0.00000000000E+00 0. -1.
         22    1    3    3    0    0 -0.70716672961E+02 -0.34171524286E+02 -0.62504150255E+02  0.10037584224E+03  0.00000000000E+00 0. -1.
         22    1    3    3    0    0  0.50985027762E+01  0.59578433595E+02 -0.10987668557E+02  0.60797313596E+02  0.00000000000E+00 0. -1.
</event>
<event>
 7    1  0.6173324E-006  0.1592926E+03  0.7818608E-02  0.1252901E+00
          2   -1    0    0  502    0  0.00000000000E+00  0.00000000000E+00  0.37800357319E+03  0.37800357319E+03  0.00000000000E+00 0. -1.
          1   -1    0    0  501    0 -0.00000000000E+00 -0.00000000000E+00 -0.13992268497E+04  0.13992268497E+04  0.00000000000E+00 0. -1.
         25    2    1    2    0    0 -0.21424521786E+03  0.38478006539E+02 -0.20954171204E+03  0.32697774254E+03  0.12500057867E+03 0.  0.
          2    1    1    2  501    0  0.59530119143E+02 -0.56305703397E+02 -0.11103759686E+04  0.11133952393E+04  0.00000000000E+00 0. -1.
          1    1    1    2  502    0  0.15471509872E+03  0.17827696858E+02  0.29869440410E+03  0.33685744104E+03  0.00000000000E+00 0. -1.
         22    1    3    3    0    0 -0.14247771482E+03  0.52249342498E+01 -0.20237910061E+03  0.24755706316E+03  0.00000000000E+00 0.  1.
         22    1    3    3    0    0 -0.71767503045E+02  0.33253072289E+02 -0.71626114245E+01  0.79420679375E+02  0.00000000000E+00 0.  1.
</event>
<event>
 7    1  0.6173324E-006  0.5093547E+02  0.7818608E-02  0.1469648E+00
          2   -1    0    0  502    0  0.00000000000E+00  0.00000000000E+00  0.64302297808E+02  0.64302297808E+02  0.00000000000E+00 0. -1.
          1   -1    0    0  501    0 -0.00000000000E+00 -0.00000000000E+00 -0.14942030542E+04  0.14942030542E+04  0.00000000000E+00 0. -1.
         25    2    1    2    0    0 -0.64916915868E+02  0.43042724468E+02 -0.21162260424E+03  0.25782966084E+03  0.12500050115E+03 0.  0.
          2    1    1    2  501    0  0.41107002285E+02  0.61529010117E+00 -0.12440065245E+04  0.12446856620E+04  0.00000000000E+00 0. -1.
          1    1    1    2  502    0  0.23809913583E+02 -0.43658014569E+02  0.25728372351E+02  0.55990029155E+02  0.00000000000E+00 0. -1.
         22    1    3    3    0    0 -0.28610420249E+02  0.18685964079E+02  0.69973626107E+01  0.34881004628E+02  0.00000000000E+00 0.  1.
         22    1    3    3    0    0 -0.36306495619E+02  0.24356760389E+02 -0.21861996685E+03  0.22294865621E+03  0.00000000000E+00 0.  1.
</event>
<event>
 7    1  0.6173324E-006  0.7872134E+02  0.7818608E-02  0.1489316E+00
          2   -1    0    0  502    0  0.00000000000E+00  0.00000000000E+00  0.15582099739E+04  0.15582099739E+04  0.00000000000E+00 0. -1.
          1   -1    0    0  501    0 -0.00000000000E+00 -0.00000000000E+00 -0.12475423930E+03  0.12475423930E+03  0.00000000000E+00 0. -1.
         25    2    1    2    0    0 -0.14699298723E+02  0.78772765702E+02  0.38755134672E+03  0.41502238711E+03  0.12500526972E+03 0.  0.
          2    1    1    2  501    0 -0.21464847338E+02 -0.86652779593E+01 -0.10845116419E+03  0.11089401123E+03  0.00000000000E+00 0. -1.
          1    1    1    2  502    0  0.36164146061E+02 -0.70107487743E+02  0.11543555521E+04  0.11570478149E+04  0.00000000000E+00 0. -1.
         22    1    3    3    0    0 -0.47363379558E+01  0.11185953745E+03  0.26470042396E+03  0.28740442491E+03  0.00000000000E+00 0. -1.
         22    1    3    3    0    0 -0.99629607676E+01 -0.33086771744E+02  0.12285092276E+03  0.12761796220E+03  0.00000000000E+00 0. -1.
</event>
<event>
 7    1  0.6173324E-006  0.2660393E+03  0.7818608E-02  0.1250303E+00
          2   -1    0    0  502    0  0.00000000000E+00  0.00000000000E+00  0.33117631071E+04  0.33117631071E+04  0.00000000000E+00 0. -1.
          1   -1    0    0  501    0 -0.00000000000E+00 -0.00000000000E+00 -0.13608542960E+04  0.13608542960E+04  0.00000000000E+00 0. -1.
         25    2    1    2    0    0 -0.26909032229E+03  0.16348333321E+03 -0.20680889569E+03  0.39690270587E+03  0.12500174720E+03 0.  0.
          2    1    1    2  501    0  0.46396146831E+02 -0.19553452872E+02 -0.10529316326E+04  0.10541346986E+04  0.00000000000E+00 0. -1.
          1    1    1    2  502    0  0.22269417546E+03 -0.14392988034E+03  0.32106493394E+04  0.32215799985E+04  0.00000000000E+00 0. -1.
         22    1    3    3    0    0 -0.11098348838E+03  0.42805907985E+02 -0.14721700450E+03  0.18926839902E+03  0.00000000000E+00 0.  1.
         22    1    3    3    0    0 -0.15810683391E+03  0.12067742522E+03 -0.59591891188E+02  0.20763430686E+03  0.00000000000E+00 0.  1.
</event>
<event>
 7    1  0.6173324E-006  0.8902736E+02  0.7818608E-02  0.1463472E+00
          2   -1    0    0  502    0  0.00000000000E+00  0.00000000000E+00  0.19925156811E+04  0.19925156811E+04  0.00000000000E+00 0. -1.
          1   -1    0    0  501    0 -0.00000000000E+00 -0.00000000000E+00 -0.15276069075E+02  0.15276069075E+02  0.00000000000E+00 0. -1.
         25    2    1    2    0    0  0.24033110646E+01 -0.86662439742E+02  0.10633554497E+04  0.10741819698E+04  0.12500374990E+03 0.  0.
          2    1    1    2  501    0  0.22179849948E+02  0.87256554175E+02  0.20031779667E+03  0.21961983438E+03  0.00000000000E+00 0. -1.
          1    1    1    2  502    0 -0.24583161012E+02 -0.59411443231E+00  0.71356636569E+03  0.71398994603E+03  0.00000000000E+00 0. -1.
         22    1    3    3    0    0 -0.67757275538E+01 -0.86636881670E+02  0.34528293823E+03  0.35605079298E+03  0.00000000000E+00 0. -1.
         22    1    3    3    0    0  0.91790386184E+01 -0.25558072518E-01  0.71807251145E+03  0.71813117680E+03  0.00000000000E+00 0. -1.
</event>
<event>
 7    1  0.6173324E-006  0.1894593E+03  0.7818608E-02  0.1325482E+00
          2   -1    0    0  502    0  0.00000000000E+00  0.00000000000E+00  0.66478660787E+03  0.66478660787E+03  0.00000000000E+00 0. -1.
          1   -1    0    0  501    0 -0.00000000000E+00 -0.00000000000E+00 -0.10226082248E+03  0.10226082248E+03  0.00000000000E+00 0. -1.
         25    2    1    2    0    0  0.16034319787E+03 -0.80624546667E+02  0.33340771047E+03  0.39874172356E+03  0.12499600827E+03 0.  0.
          2    1    1    2  501    0 -0.18555455077E+03  0.56546141010E+02  0.71276324744E+02  0.20665979735E+03  0.00000000000E+00 0. -1.
          1    1    1    2  502    0  0.25211352892E+02  0.24078405658E+02  0.15784175019E+03  0.16164590943E+03  0.00000000000E+00 0. -1.
         22    1    3    3    0    0  0.14829274133E+03 -0.22050606477E+02  0.18103631886E+03  0.23505555752E+03  0.00000000000E+00 0. -1.
         22    1    3    3    0    0  0.12050456544E+02 -0.58573940190E+02  0.15237139161E+03  0.16368616604E+03  0.00000000000E+00 0. -1.
</event>
<event>
 7    1  0.6173324E-006  0.1514288E+03  0.7818608E-02  0.1224247E+00
          2   -1    0    0  502    0  0.00000000000E+00  0.00000000000E+00  0.88237548949E+03  0.88237548949E+03  0.00000000000E+00 0. -1.
          1   -1    0    0  501    0 -0.00000000000E+00 -0.00000000000E+00 -0.13721660320E+04  0.13721660320E+04  0.00000000000E+00 0. -1.
         25    2    1    2    0    0 -0.17350634623E+03 -0.66465273871E+02  0.16198719376E+03  0.27638035185E+03  0.12499665248E+03 0.  0.
          2    1    1    2  501    0  0.29002798743E+02  0.11168464407E+03 -0.13037456286E+04  0.13088419638E+04  0.00000000000E+00 0. -1.
          1    1    1    2  502    0  0.14450354748E+03 -0.45219370200E+02  0.65196789234E+03  0.66931920585E+03  0.00000000000E+00 0. -1.
         22    1    3    3    0    0 -0.24803907342E+02  0.35531451345E+02  0.36970707454E+02  0.56960960875E+02  0.00000000000E+00 0.  1.
         22    1    3    3    0    0 -0.14870243888E+03 -0.10199672522E+03  0.12501648631E+03  0.21941939097E+03  0.00000000000E+00 0.  1.
</event>
<event>
 7    1  0.6173324E-006  0.1117166E+03  0.7818608E-02  0.1420070E+00
          2   -1    0    0  502    0  0.00000000000E+00  0.00000000000E+00  0.68421674433E+03  0.68421674433E+03  0.00000000000E+00 0. -1.
          1   -1    0    0  501    0 -0.00000000000E+00 -0.00000000000E+00 -0.39547598867E+03  0.39547598867E+03  0.00000000000E+00 0. -1.
         25    2    1    2    0    0  0.64691825745E+02 -0.63222029182E+02 -0.64331068159E+02  0.16717088031E+03  0.12500223839E+03 0.  0.
          2    1    1    2  501    0 -0.88369603278E+02  0.76370113500E+02 -0.26722467743E+03  0.29163437597E+03  0.00000000000E+00 0. -1.
          1    1    1    2  502    0  0.23677777533E+02 -0.13148084318E+02  0.62029650125E+03  0.62088747671E+03  0.00000000000E+00 0. -1.
         22    1    3    3    0    0  0.71809895390E+02 -0.88116356246E+02 -0.19402027991E+02  0.11531518549E+03  0.00000000000E+00 0. -1.
         22    1    3    3    0    0 -0.71180696456E+01  0.24894327064E+02 -0.44929040168E+02  0.51855694826E+02  0.00000000000E+00 0. -1.
</event>
<event>
 7    1  0.6173324E-006  0.2478099E+02  0.7818608E-02  0.1695461E+00
          2   -1    0    0  502    0  0.00000000000E+00  0.00000000000E+00  0.64334195302E+03  0.64334195302E+03  0.00000000000E+00 0. -1.
          1   -1    0    0  501    0 -0.00000000000E+00 -0.00000000000E+00 -0.42596124157E+03  0.42596124157E+03  0.00000000000E+00 0. -1.
         25    2    1    2    0    0  0.18405496415E+02  0.19770833036E+01  0.10103228891E+03  0.16178854106E+03  0.12500134983E+03 0.  0.
          2    1    1    2  501    0 -0.11837919242E+02 -0.21818736872E+02 -0.39498000003E+03  0.39575926273E+03  0.00000000000E+00 0. -1.
          1    1    1    2  502    0 -0.65675771732E+01  0.19841653569E+02  0.51132842257E+03  0.51175539081E+03  0.00000000000E+00 0. -1.
         22    1    3    3    0    0 -0.24521259416E+01 -0.13340933255E+01 -0.29463230170E+02  0.29595179653E+02  0.00000000000E+00 0.  1.
         22    1    3    3    0    0  0.20857622357E+02  0.33111766291E+01  0.13049551908E+03  0.13219336141E+03  0.00000000000E+00 0.  1.
</event>
<event>
 7    1  0.6173324E-006  0.1237729E+03  0.7818608E-02  0.1423030E+00
          2   -1    0    0  502    0  0.00000000000E+00  0.00000000000E+00  0.41111150992E+04  0.41111150992E+04  0.00000000000E+00 0. -1.
          1   -1    0    0  501    0 -0.00000000000E+00 -0.00000000000E+00 -0.64990545118E+01  0.64990545118E+01  0.00000000000E+00 0. -1.
         25    2    1    2    0    0 -0.11468685669E+03 -0.30947777269E+02  0.24686109169E+04  0.24746265738E+04  0.12500392335E+03 0.  0.
          2    1    1    2  501    0  0.12677890980E+03  0.10336612413E+02  0.13435836128E+04  0.13495912945E+04  0.00000000000E+00 0. -1.
          1    1    1    2  502    0 -0.12092053108E+02  0.20611164856E+02  0.29242151490E+03  0.29339628533E+03  0.00000000000E+00 0. -1.
         22    1    3    3    0    0 -0.68736114820E+02 -0.23966614467E+02  0.48144394513E+03  0.48691613692E+03  0.00000000000E+00 0. -1.
         22    1    3    3    0    0 -0.45950741871E+02 -0.69811628019E+01  0.19871669718E+04  0.19877104369E+04  0.00000000000E+00 0. -1.
</event>
<event>
 7    1  0.6173324E-006  0.1830781E+03  0.7818608E-02  0.1227256E+00
          2   -1    0    0  502    0  0.00000000000E+00  0.00000000000E+00  0.33263065485E+04  0.33263065485E+04  0.00000000000E+00 0. -1.
          1   -1    0    0  501    0 -0.00000000000E+00 -0.00000000000E+00 -0.23158005674E+03  0.23158005674E+03  0.00000000000E+00 0. -1.
         25    2    1    2    0    0  0.47874650357E+02 -0.18820768826E+03  0.65883074696E+03  0.69813817427E+03  0.12499936466E+03 0.  0.
          2    1    1    2  501    0 -0.92054470250E+02  0.90893498876E+01 -0.19845042925E+03  0.21895025610E+03  0.00000000000E+00 0. -1.
          1    1    1    2  502    0  0.44179819893E+02  0.17911833837E+03  0.26343461741E+04  0.26407981749E+04  0.00000000000E+00 0. -1.
         22    1    3    3    0    0  0.60961183617E+02 -0.35309526356E+02  0.13478024530E+03  0.15208136994E+03  0.00000000000E+00 0.  1.
         22    1    3    3    0    0 -0.13086533261E+02 -0.15289816190E+03  0.52405050165E+03  0.54605680432E+03  0.00000000000E+00 0.  1.
</event>
<event>
 7    1  0.6173324E-006  0.8062780E+02  0.7818608E-02  0.1366159E+00
          2   -1    0    0  502    0  0.00000000000E+00  0.00000000000E+00  0.13337840126E+04  0.13337840126E+04  0.00000000000E+00 0. -1.
          1   -1    0    0  501    0 -0.00000000000E+00 -0.00000000000E+00 -0.10305911000E+03  0.10305911000E+03  0.00000000000E+00 0. -1.
         25    2    1    2    0    0 -0.99560298026E+02 -0.84873546624E+02  0.18294472099E+03  0.25729934304E+03  0.12497363375E+03 0.  0.
          2    1    1    2  501    0  0.28783035346E+02  0.50085069450E+02 -0.51528960631E+02  0.77409373394E+02  0.00000000000E+00 0. -1.
          1    1    1    2  502    0  0.70777262680E+02  0.34788477173E+02  0.10993091423E+04  0.11021344062E+04  0.00000000000E+00 0. -1.
         22    1    3    3    0    0 -0.73997600422E+01  0.30927432288E+02  0.44082930372E+02  0.54355931294E+02  0.00000000000E+00 0.  1.
         22    1    3    3    0    0 -0.92160537984E+02 -0.11580097891E+03  0.13886179062E+03  0.20294341175E+03  0.00000000000E+00 0.  1.
</event>
<event>
 7    1  0.6173324E-006  0.7196609E+02  0.7818608E-02  0.1488889E+00
          2   -1    0    0  502    0  0.00000000000E+00  0.00000000000E+00  0.27174172895E+03  0.27174172895E+03  0.00000000000E+00 0. -1.
          1   -1    0    0  501    0 -0.00000000000E+00 -0.00000000000E+00 -0.78972999146E+03  0.78972999146E+03  0.00000000000E+00 0. -1.
         25    2    1    2    0    0  0.34110459740E+01  0.80690234115E+02  0.99160443231E+01  0.14915630210E+03  0.12500690143E+03 0.  0.
          2    1    1    2  501    0  0.21401661752E+02 -0.13672665027E+02 -0.71323338021E+03  0.71368538414E+03  0.00000000000E+00 0. -1.
          1    1    1    2  502    0 -0.24812707726E+02 -0.67017569088E+02  0.18532907338E+03  0.19863003416E+03  0.00000000000E+00 0. -1.
         22    1    3    3    0    0 -0.30867364971E+02  0.55348309002E+02  0.57287009621E+02  0.85428513981E+02  0.00000000000E+00 0.  1.
         22    1    3    3    0    0  0.34278410945E+02  0.25341925113E+02 -0.47370965298E+02  0.63727788120E+02  0.00000000000E+00 0.  1.
</event>
<event>
 7    1  0.6173324E-006  0.9540364E+02  0.7818608E-02  0.1463844E+00
          2   -1    0    0  502    0  0.00000000000E+00  0.00000000000E+00  0.30987987494E+03  0.30987987494E+03  0.00000000000E+00 0. -1.
          1   -1    0    0  501    0 -0.00000000000E+00 -0.00000000000E+00 -0.32139974715E+03  0.32139974715E+03  0.00000000000E+00 0. -1.
         25    2    1    2    0    0 -0.74428049969E+02 -0.12180529234E+02 -0.37955749674E+01  0.14604378505E+03  0.12500592325E+03 0.  0.
          2    1    1    2  501    0 -0.21772869285E+02 -0.70483243901E+01 -0.23582509001E+03  0.23693292256E+03  0.00000000000E+00 0. -1.
          1    1    1    2  502    0  0.96200919254E+02  0.19228853624E+02  0.22810079277E+03  0.24830291448E+03  0.00000000000E+00 0. -1.
         22    1    3    3    0    0 -0.86982937769E+02  0.32844946491E+02 -0.22559271621E+02  0.95675193802E+02  0.00000000000E+00 0.  1.
         22    1    3    3    0    0  0.12554887800E+02 -0.45025475725E+02  0.18763696653E+02  0.50368591246E+02  0.00000000000E+00 0.  1.
</event>
<event>
 7    1  0.6173324E-006  0.5719159E+02  0.7818608E-02  0.1452574E+00
          2   -1    0    0  502    0  0.00000000000E+00  0.00000000000E+00  0.25994932596E+03  0.25994932596E+03  0.00000000000E+00 0. -1.
          1   -1    0    0  501    0 -0.00000000000E+00 -0.00000000000E+00 -0.69357250022E+03  0.69357250022E+03  0.00000000000E+00 0. -1.
         25    2    1    2    0    0 -0.13856762044E+02 -0.96356558693E+01  0.11458570268E+03  0.17043260392E+03  0.12503013037E+03 0.  0.
          2    1    1    2  501    0  0.54021146760E+02  0.19843024349E+02 -0.66070300210E+03  0.66320470965E+03  0.00000000000E+00 0. -1.
          1    1    1    2  502    0 -0.40164384716E+02 -0.10207368479E+02  0.11249412516E+03  0.11988451262E+03  0.00000000000E+00 0. -1.
         22    1    3    3    0    0 -0.33454961912E+02 -0.12784387872E+01  0.13609798021E+03  0.14015537485E+03  0.00000000000E+00 0.  1.
         22    1    3    3    0    0  0.19598199868E+02 -0.83572170821E+01 -0.21512277527E+02  0.30277229064E+02  0.00000000000E+00 0.  1.
</event>
<event>
 7    1  0.6173324E-006  0.1083905E+03  0.7818608E-02  0.1290083E+00
          2   -1    0    0  502    0  0.00000000000E+00  0.00000000000E+00  0.75383708573E+03  0.75383708573E+03  0.00000000000E+00 0. -1.
          1   -1    0    0  501    0 -0.00000000000E+00 -0.00000000000E+00 -0.64760756888E+03  0.64760756888E+03  0.00000000000E+00 0. -1.
         25    2    1    2    0    0 -0.58044001871E+02  0.15364705853E+03 -0.27408327035E+03  0.34310806244E+03  0.12499991469E+03 0.  0.
          2    1    1    2  501    0  0.70138736345E+02 -0.46440042343E+02 -0.32965496303E+03  0.34021833360E+03  0.00000000000E+00 0. -1.
          1    1    1    2  502    0 -0.12094734474E+02 -0.10720701619E+03  0.70996775023E+03  0.71811825857E+03  0.00000000000E+00 0. -1.
         22    1    3    3    0    0 -0.81449261214E+02  0.15963147286E+03 -0.21913490819E+03  0.28308355174E+03  0.00000000000E+00 0.  1.
         22    1    3    3    0    0  0.23405259342E+02 -0.59844143283E+01 -0.54948362162E+02  0.60024510694E+02  0.00000000000E+00 0.  1.
</event>
<event>
 7    1  0.1062563E-005  0.7007625E+02  0.7818608E-02  0.1485408E+00
          2   -1    0    0  502    0  0.00000000000E+00  0.00000000000E+00  0.23484729042E+04  0.23484729042E+04  0.00000000000E+00 0. -1.
          1   -1    0    0  501    0 -0.00000000000E+00 -0.00000000000E+00 -0.68269944146E+03  0.68269944146E+03  0.00000000000E+00 0. -1.
         25    2    1    2    0    0  0.47186972116E+02 -0.76838444960E+02 -0.37772520708E+03  0.40796177215E+03  0.12500287402E+03 0.  0.
          2    1    1    2  501    0  0.17047175102E+01  0.26669453286E+02 -0.28871294695E+03  0.28994711852E+03  0.00000000000E+00 0. -1.
          1    1    1    2  502    0 -0.48891689626E+02  0.50168991674E+02  0.23322116168E+04  0.23332634550E+04  0.00000000000E+00 0. -1.
         22    1    3    3    0    0  0.83734073520E+02 -0.19270107546E+02 -0.21377566425E+03  0.23039697641E+03  0.00000000000E+00 0.  1.
         22    1    3    3    0    0 -0.36547101404E+02 -0.57568337414E+02 -0.16394954283E+03  0.17756479574E+03  0.00000000000E+00 0.  1.
</event>
<event>
 7    1  0.6173324E-006  0.7345533E+02  0.7818608E-02  0.1378701E+00
          2   -1    0    0  502    0  0.00000000000E+00  0.00000000000E+00  0.23441568786E+04  0.23441568786E+04  0.00000000000E+00 0. -1.
          1   -1    0    0  501    0 -0.00000000000E+00 -0.00000000000E+00 -0.79472731077E+02  0.79472731077E+02  0.00000000000E+00 0. -1.
         25    2    1    2    0    0 -0.83175570277E+02 -0.36051371501E+02  0.18207895683E+04  0.18273248645E+04  0.12499452624E+03 0.  0.
          2    1    1    2  501    0  0.16852762083E+02  0.54635863945E+02 -0.62812244410E+02  0.84938043695E+02  0.00000000000E+00 0. -1.
          1    1    1    2  502    0  0.66322808194E+02 -0.18584492444E+02  0.50670682360E+03  0.51136670143E+03  0.00000000000E+00 0. -1.
         22    1    3    3    0    0 -0.17248692169E+02  0.34365150213E+01  0.29198188966E+02  0.34086085958E+02  0.00000000000E+00 0. -1.
         22    1    3    3    0    0 -0.65926878108E+02 -0.39487886522E+02  0.17915913793E+04  0.17932387785E+04  0.00000000000E+00 0. -1.
</event>
<event>
 7    1  0.6173324E-006  0.1545212E+03  0.7818608E-02  0.1277973E+00
          2   -1    0    0  502    0  0.00000000000E+00  0.00000000000E+00  0.17806771318E+04  0.17806771318E+04  0.00000000000E+00 0. -1.
          1   -1    0    0  501    0 -0.00000000000E+00 -0.00000000000E+00 -0.33536109217E+03  0.33536109217E+03  0.00000000000E+00 0. -1.
         25    2    1    2    0    0  0.10418979403E+03  0.62029102771E+02  0.52960021952E+03  0.55749785138E+03  0.12499735600E+03 0.  0.
          2    1    1    2  501    0 -0.15481471750E+03 -0.19428276319E+02 -0.30152475072E+03  0.33950291600E+03  0.00000000000E+00 0. -1.
          1    1    1    2  502    0  0.50624923467E+02 -0.42600826452E+02  0.12172405708E+04  0.12190374566E+04  0.00000000000E+00 0. -1.
         22    1    3    3    0    0 -0.17153852367E+02  0.29310565850E+02  0.23165218486E+03  0.23412838075E+03  0.00000000000E+00 0. -1.
         22    1    3    3    0    0  0.12134364640E+03  0.32718536921E+02  0.29794803466E+03  0.32336947064E+03  0.00000000000E+00 0. -1.
</event>
<event>
 7    1  0.6173324E-006  0.4327110E+02  0.7818608E-02  0.1490758E+00
          2   -1    0    0  502    0  0.00000000000E+00  0.00000000000E+00  0.86306345753E+03  0.86306345753E+03  0.00000000000E+00 0. -1.
          1   -1    0    0  501    0 -0.00000000000E+00 -0.00000000000E+00 -0.27975367142E+03  0.27975367142E+03  0.00000000000E+00 0. -1.
         25    2    1    2    0    0  0.46469834922E+01  0.19184371679E+01 -0.18666832519E+02  0.12647647777E+03  0.12499029537E+03 0.  0.
          2    1    1    2  501    0 -0.20153082199E+02  0.38478947104E+02 -0.20431877488E+03  0.20888498716E+03  0.00000000000E+00 0. -1.
          1    1    1    2  502    0  0.15506098707E+02 -0.40397384271E+02  0.80629539351E+03  0.80745566402E+03  0.00000000000E+00 0. -1.
         22    1    3    3    0    0  0.82263057049E+01  0.41993784659E+02 -0.56750648057E+02  0.71075917936E+02  0.00000000000E+00 0. -1.
         22    1    3    3    0    0 -0.35793222127E+01 -0.40075347491E+02  0.38083815539E+02  0.55400559835E+02  0.00000000000E+00 0. -1.
</event>
<event>
 7    1  0.6173324E-006  0.1695043E+03  0.7818608E-02  0.1330604E+00
          2   -1    0    0  502    0  0.00000000000E+00  0.00000000000E+00  0.13017576775E+04  0.13017576775E+04  0.00000000000E+00 0. -1.
          1   -1    0    0  501    0 -0.00000000000E+00 -0.00000000000E+00 -0.17943392635E+04  0.17943392635E+04  0.00000000000E+00 0. -1.
         25    2    1    2    0    0  0.10751008892E+03 -0.11970705058E+03 -0.17916829221E+03  0.27132083146E+03  0.12500207788E+03 0.  0.
          2    1    1    2  501    0 -0.13876358858E+03  0.99448650420E+02 -0.15641730145E+04  0.15734619751E+04  0.00000000000E+00 0. -1.
          1    1    1    2  502    0  0.31253499661E+02  0.20258400155E+02  0.12507597208E+04  0.12513141345E+04  0.00000000000E+00 0. -1.
         22    1    3    3    0    0  0.11096277979E+03 -0.13792067437E+03 -0.18039870674E+03  0.25274205094E+03  0.00000000000E+00 0. -1.
         22    1    3    3    0    0 -0.34526908688E+01  0.18213623793E+02  0.12304145347E+01  0.18578780526E+02  0.00000000000E+00 0. -1.
</event>
<event>
 7    1  0.6700969E-006  0.1153886E+03  0.7818608E-02  0.1332660E+00
          2   -1    0    0  502    0  0.00000000000E+00  0.00000000000E+00  0.22359776467E+04  0.22359776467E+04  0.00000000000E+00 0. -1.
          1   -1    0    0  501    0 -0.00000000000E+00 -0.00000000000E+00 -0.10777367379E+04  0.10777367379E+04  0.00000000000E+00 0. -1.
         25    2    1    2    0    0 -0.24080417600E+02 -0.14359589936E+03 -0.19075645228E+03  0.27057827394E+03  0.12499971766E+03 0.  0.
          2    1    1    2  501    0 -0.19083169178E+02  0.11159208368E+03 -0.84295590571E+03  0.85052432032E+03  0.00000000000E+00 0. -1.
          1    1    1    2  502    0  0.43163586778E+02  0.32003815685E+02  0.21919532668E+04  0.21926117903E+04  0.00000000000E+00 0. -1.
         22    1    3    3    0    0 -0.90047209274E+01 -0.64310166486E+02 -0.17722252572E+03  0.18874508241E+03  0.00000000000E+00 0.  1.
         22    1    3    3    0    0 -0.15075696673E+02 -0.79285732877E+02 -0.13533926567E+02  0.81833191532E+02  0.00000000000E+00 0.  1.
</event>
<event>
 7    1  0.7238783E-006  0.8233105E+02  0.7818608E-02  0.1389659E+00
          2   -1    0    0  502    0  0.00000000000E+00  0.00000000000E+00  0.87014123345E+03  0.87014123345E+03  0.00000000000E+00 0. -1.
          1   -1    0    0  501    0 -0.00000000000E+00 -0.00000000000E+00 -0.17993256310E+04  0.17993256310E+04  0.00000000000E+00 0. -1.
         25    2    1    2    0    0 -0.84209118247E+02 -0.17684793677E+02 -0.24545263247E+03  0.28857563576E+03  0.12499990098E+03 0.  0.
          2    1    1    2  501    0  0.24876647875E+02 -0.39495438283E+02 -0.15299543488E+04  0.15306662101E+04  0.00000000000E+00 0. -1.
          1    1    1    2  502    0  0.59332470372E+02  0.57180231960E+02  0.84622258375E+03  0.85022501858E+03  0.00000000000E+00 0. -1.
         22    1    3    3    0    0 -0.69227778116E+02 -0.41016750563E+02 -0.24800354098E+03  0.26073092534E+03  0.00000000000E+00 0. -1.
         22    1    3    3    0    0 -0.14981340131E+02  0.23331956886E+02  0.25509085114E+01  0.27844710422E+02  0.00000000000E+00 0. -1.
</event>
<event>
 7    1  0.6173324E-006  0.1038887E+03  0.7818608E-02  0.1457925E+00
          2   -1    0    0  502    0  0.00000000000E+00  0.00000000000E+00  0.48884848170E+03  0.48884848170E+03  0.00000000000E+00 0. -1.
          1   -1    0    0  501    0 -0.00000000000E+00 -0.00000000000E+00 -0.14699043877E+04  0.14699043877E+04  0.00000000000E+00 0. -1.
         25    2    1    2    0    0  0.28057355076E+02  0.85867327711E+02  0.23212694278E+03  0.27869706898E+03  0.12501490132E+03 0.  0.
          2    1    1    2  501    0  0.13962015459E+01  0.21893839484E+02 -0.14331650652E+04  0.14333329667E+04  0.00000000000E+00 0. -1.
          1    1    1    2  502    0 -0.29453556622E+02 -0.10776116720E+03  0.21998221636E+03  0.24672283370E+03  0.00000000000E+00 0. -1.
         22    1    3    3    0    0 -0.64046264553E+01  0.63458455273E+02  0.22872299624E+03  0.23744937102E+03  0.00000000000E+00 0.  1.
         22    1    3    3    0    0  0.34461981531E+02  0.22408872438E+02  0.34039465340E+01  0.41247697960E+02  0.00000000000E+00 0.  1.
</event>
<event>
 7    1  0.6173324E-006  0.2888810E+03  0.7818608E-02  0.1287098E+00
          2   -1    0    0  502    0  0.00000000000E+00  0.00000000000E+00  0.12877021928E+04  0.12877021928E+04  0.00000000000E+00 0. -1.
          1   -1    0    0  501    0 -0.00000000000E+00 -0.00000000000E+00 -0.27899108509E+03  0.27899108509E+03  0.00000000000E+00 0. -1.
         25    2    1    2    0    0  0.11500827705E+03  0.24954152128E+03  0.18925664599E+03  0.35628766904E+03  0.12499980171E+03 0.  0.
          2    1    1    2  501    0 -0.99089325145E+02 -0.27782895125E+03 -0.83740985960E+02  0.30662709149E+03  0.00000000000E+00 0. -1.
          1    1    1    2  502    0 -0.15918951906E+02  0.28287429969E+02  0.90319544768E+03  0.90377851736E+03  0.00000000000E+00 0. -1.
         22    1    3    3    0    0  0.13332363569E+03  0.15242470748E+03  0.11714966491E+03  0.23394983922E+03  0.00000000000E+00 0. -1.
         22    1    3    3    0    0 -0.18315358639E+02  0.97116813802E+02  0.72106981087E+02  0.12233782983E+03  0.00000000000E+00 0. -1.
</event>
<event>
 7    1  0.6173324E-006  0.6172453E+02  0.7818608E-02  0.1468268E+00
          2   -1    0    0  502    0  0.00000000000E+00  0.00000000000E+00  0.24653371072E+03  0.24653371072E+03  0.00000000000E+00 0. -1.
          1   -1    0    0  501    0 -0.00000000000E+00 -0.00000000000E+00 -0.19837842001E+03  0.19837842001E+03  0.00000000000E+00 0. -1.
         25    2    1    2    0    0 -0.51906170498E+02  0.73626252888E+02 -0.30631721502E+02  0.15709189393E+03  0.12499794049E+03 0.  0.
          2    1    1    2  501    0  0.29346572183E+02 -0.17684179894E+02 -0.96522680158E+02  0.10242352905E+03  0.00000000000E+00 0. -1.
          1    1    1    2  502    0  0.22559598316E+02 -0.55942072994E+02  0.17530969237E+03  0.18539670775E+03  0.00000000000E+00 0. -1.
         22    1    3    3    0    0 -0.92766189315E+02  0.62043269712E+02 -0.22738089617E+02  0.11389448589E+03  0.00000000000E+00 0.  1.
         22    1    3    3    0    0  0.40860018817E+02  0.11582983176E+02 -0.78936318850E+01  0.43197408039E+02  0.00000000000E+00 0.  1.
</event>
<event>
 7    1  0.6173324E-006  0.6896956E+02  0.7818608E-02  0.1482448E+00
          2   -1    0    0  502    0  0.00000000000E+00  0.00000000000E+00  0.13204143673E+04  0.13204143673E+04  0.00000000000E+00 0. -1.
          1   -1    0    0  501    0 -0.00000000000E+00 -0.00000000000E+00 -0.85905546002E+03  0.85905546002E+03  0.00000000000E+00 0. -1.
         25    2    1    2    0    0 -0.20453945763E+02  0.75116632090E+02  0.59664599383E+03  0.61455070711E+03  0.12500102934E+03 0.  0.
          2    1    1    2  501    0  0.26744308884E+02 -0.73022588249E+01 -0.84825391030E+03  0.84870682652E+03  0.00000000000E+00 0. -1.
          1    1    1    2  502    0 -0.62903631206E+01 -0.67814373265E+02  0.71296682373E+03  0.71621229369E+03  0.00000000000E+00 0. -1.
         22    1    3    3    0    0  0.22336142998E+01  0.86376498946E+02  0.21007144469E+03  0.22714731008E+03  0.00000000000E+00 0.  1.
         22    1    3    3    0    0 -0.22687560063E+02 -0.11259866856E+02  0.38657454914E+03  0.38740339703E+03  0.00000000000E+00 0.  1.
</event>
<event>
 7    1  0.6173324E-006  0.1034412E+03  0.7818608E-02  0.1344266E+00
          2   -1    0    0  502    0  0.00000000000E+00  0.00000000000E+00  0.34136162417E+03  0.34136162417E+03  0.00000000000E+00 0. -1.
          1   -1    0    0  501    0 -0.00000000000E+00 -0.00000000000E+00 -0.10229869508E+04  0.10229869508E+04  0.00000000000E+00 0. -1.
         25    2    1    2    0    0  0.54129310768E+02 -0.38466927346E+01  0.35788177018E+02  0.14089091722E+03  0.12499871044E+03 0.  0.
          2    1    1    2  501    0 -0.99716406841E+02  0.33152749617E+02 -0.96464718434E+03  0.97035388228E+03  0.00000000000E+00 0. -1.
          1    1    1    2  502    0  0.45587096073E+02 -0.29306056882E+02  0.24723368068E+03  0.25310377548E+03  0.00000000000E+00 0. -1.
         22    1    3    3    0    0  0.30759202369E+02  0.59736558457E+02  0.79784637634E+01  0.67662698961E+02  0.00000000000E+00 0.  1.
         22    1    3    3    0    0  0.23370108399E+02 -0.63583251192E+02  0.27809713254E+02  0.73228218263E+02  0.00000000000E+00 0.  1.
</event>
<event>
 7    1  0.6173324E-006  0.1202253E+03  0.7818608E-02  0.1263786E+00
          2   -1    0    0  502    0  0.00000000000E+00  0.00000000000E+00  0.64905397955E+03  0.64905397955E+03  0.00000000000E+00 0. -1.
          1   -1    0    0  501    0 -0.00000000000E+00 -0.00000000000E+00 -0.17494206062E+03  0.17494206062E+03  0.00000000000E+00 0. -1.
         25    2    1    2    0    0  0.73044795261E+01  0.40475873626E+02  0.53035235608E+03  0.54643318874E+03  0.12499582548E+03 0.  0.
          2    1    1    2  501    0 -0.97082125397E+02 -0.78567630566E+02 -0.10980400575E+03  0.16629711760E+03  0.00000000000E+00 0. -1.
          1    1    1    2  502    0  0.89777645871E+02  0.38091756940E+02  0.53563568591E+02  0.11126573383E+03  0.00000000000E+00 0. -1.
         22    1    3    3    0    0  0.18479749478E+02 -0.42742891499E+02  0.15729034244E+03  0.16403873853E+03  0.00000000000E+00 0. -1.
         22    1    3    3    0    0 -0.11175269952E+02  0.83218765125E+02  0.37306201364E+03  0.38239445021E+03  0.00000000000E+00 0. -1.
</event>
<event>
 7    1  0.6173324E-006  0.6398312E+02  0.7818608E-02  0.1415858E+00
          2   -1    0    0  502    0  0.00000000000E+00  0.00000000000E+00  0.25271852314E+02  0.25271852314E+02  0.00000000000E+00 0. -1.
          1   -1    0    0  501    0 -0.00000000000E+00 -0.00000000000E+00 -0.13217323200E+04  0.13217323200E+04  0.00000000000E+00 0. -1.
         25    2    1    2    0    0 -0.10257989234E+02 -0.37573021154E+02 -0.76784710976E+03  0.77892946725E+03  0.12499989090E+03 0.  0.
          2    1    1    2  501    0 -0.16740057952E+02  0.78284563785E+02 -0.50928724674E+03  0.51554068914E+03  0.00000000000E+00 0. -1.
          1    1    1    2  502    0  0.26998047187E+02 -0.40711542631E+02 -0.19326111186E+02  0.52534015922E+02  0.00000000000E+00 0. -1.
         22    1    3    3    0    0  0.49170135565E+02 -0.38422353432E+02 -0.53458043377E+03  0.53821020024E+03  0.00000000000E+00 0.  1.
         22    1    3    3    0    0 -0.59428124800E+02  0.84933227802E+00 -0.23326667599E+03  0.24071926701E+03  0.00000000000E+00 0.  1.
</event>
<event>
 7    1  0.6173324E-006  0.6675266E+02  0.7818608E-02  0.1377268E+00
          2   -1    0    0  502    0  0.00000000000E+00  0.00000000000E+00  0.64986763919E+03  0.64986763919E+03  0.00000000000E+00 0. -1.
          1   -1    0    0  501    0 -0.00000000000E+00 -0.00000000000E+00 -0.16124081389E+04  0.16124081389E+04  0.00000000000E+00 0. -1.
         25    2    1    2    0    0  0.91740848465E+02 -0.30895872359E+01  0.20358259236E+02  0.15641413882E+03  0.12499998112E+03 0.  0.
          2    1    1    2  501    0 -0.46510810528E+02  0.47885979730E+02 -0.15418512866E+04  0.15432957308E+04  0.00000000000E+00 0. -1.
          1    1    1    2  502    0 -0.45230037937E+02 -0.44796392494E+02  0.55895252772E+03  0.56256590846E+03  0.00000000000E+00 0. -1.
         22    1    3    3    0    0  0.89936764599E+01  0.32434734401E+02  0.51162009394E+02  0.61240912935E+02  0.00000000000E+00 0.  1.
         22    1    3    3    0    0  0.82747172005E+02 -0.35524321636E+02 -0.30803750158E+02  0.95173225890E+02  0.00000000000E+00 0.  1.
</event>
<event>
 7    1  0.6173324E-006  0.1034348E+03  0.7818608E-02  0.1327847E+00
          2   -1    0    0  502    0  0.00000000000E+00  0.00000000000E+00  0.99295181690E+03  0.99295181690E+03  0.00000000000E+00 0. -1.
          1   -1    0    0  501    0 -0.00000000000E+00 -0.00000000000E+00 -0.12170391053E+03  0.12170391053E+03  0.00000000000E+00 0. -1.
         25    2    1    2    0    0  0.68273873558E+02 -0.34103477253E+01  0.27486194938E+03  0.30959421374E+03  0.12500613456E+03 0.  0.
          2    1    1    2  501    0  0.36346717549E+02  0.50887815590E+02 -0.89741894839E+02  0.10938126595E+03  0.00000000000E+00 0. -1.
          1    1    1    2  502    0 -0.10462059111E+03 -0.47477467865E+02  0.68612785183E+03  0.69568024774E+03  0.00000000000E+00 0. -1.
         22    1    3    3    0    0  0.19744862317E+02 -0.39570171844E+02  0.21626694625E+02  0.49227756480E+02  0.00000000000E+00 0. -1.
         22    1    3    3    0    0  0.48529011241E+02  0.36159824118E+02  0.25323525476E+03  0.26036645726E+03  0.00000000000E+00 0. -1.
</event>
<event>
 7    1  0.6173324E-006  0.9835676E+02  0.7818608E-02  0.1351545E+00
          2   -1    0    0  502    0  0.00000000000E+00  0.00000000000E+00  0.80129098880E+02  0.80129098880E+02  0.00000000000E+00 0. -1.
          1   -1    0    0  501    0 -0.00000000000E+00 -0.00000000000E+00 -0.55254942550E+03  0.55254942550E+03  0.00000000000E+00 0. -1.
         25    2    1    2    0    0 -0.81754124268E+02 -0.40434626894E+02 -0.21193307513E+03  0.26241053474E+03  0.12499985809E+03 0.  0.
          2    1    1    2  501    0 -0.20108724983E+02  0.49634692345E+02 -0.26256362845E+03  0.26796944320E+03  0.00000000000E+00 0. -1.
          1    1    1    2  502    0  0.10186284925E+03 -0.92000654513E+01  0.20763769616E+01  0.10229854644E+03  0.00000000000E+00 0. -1.
         22    1    3    3    0    0  0.16915494182E+02  0.97151842303E+01 -0.11072861859E+03  0.11243373926E+03  0.00000000000E+00 0.  1.
         22    1    3    3    0    0 -0.98669618450E+02 -0.50149811124E+02 -0.10120445654E+03  0.14997679549E+03  0.00000000000E+00 0.  1.
</event>
<event>
 7    1  0.6173324E-006  0.5798407E+02  0.7818608E-02  0.1441584E+00
          2   -1    0    0  502    0  0.00000000000E+00  0.00000000000E+00  0.64699617696E+03  0.64699617696E+03  0.00000000000E+00 0. -1.
          1   -1    0    0  501    0 -0.00000000000E+00 -0.00000000000E+00 -0.14332500982E+04  0.14332500982E+04  0.00000000000E+00 0. -1.
         25    2    1    2    0    0  0.47118944769E+02 -0.88771350299E+02  0.10669936473E+02  0.16074683531E+03  0.12500059971E+03 0.  0.
          2    1    1    2  501    0 -0.26772526690E+02  0.35341127981E+02 -0.13563925685E+04  0.13571170043E+04  0.00000000000E+00 0. -1.
          1    1    1    2  502    0 -0.20346418079E+02  0.53430222318E+02  0.55946871082E+03  0.56238243551E+03  0.00000000000E+00 0. -1.
         22    1    3    3    0    0  0.31892514346E+01 -0.55381737690E+02 -0.52842063009E+02  0.76613261367E+02  0.00000000000E+00 0.  1.
         22    1    3    3    0    0  0.43929693334E+02 -0.33389612610E+02  0.63511999482E+02  0.84133573946E+02  0.00000000000E+00 0.  1.
</event>
<event>
 7    1  0.6173324E-006  0.5059813E+02  0.7818608E-02  0.1460638E+00
          2   -1    0    0  502    0  0.00000000000E+00  0.00000000000E+00  0.76286159571E+03  0.76286159571E+03  0.00000000000E+00 0. -1.
          1   -1    0    0  501    0 -0.00000000000E+00 -0.00000000000E+00 -0.48517191566E+02  0.48517191566E+02  0.00000000000E+00 0. -1.
         25    2    1    2    0    0 -0.86975817918E+02 -0.26234257697E+00  0.44195987089E+03  0.46746159007E+03  0.12500779569E+03 0.  0.
          2    1    1    2  501    0  0.42669787572E+02 -0.11390978578E+02 -0.19630483883E+02  0.48330332731E+02  0.00000000000E+00 0. -1.
          1    1    1    2  502    0  0.44306030346E+02  0.11653321155E+02  0.29201501714E+03  0.29558686448E+03  0.00000000000E+00 0. -1.
         22    1    3    3    0    0 -0.65554880367E+02  0.12887296133E+02  0.78279093631E+02  0.10291327048E+03  0.00000000000E+00 0.  1.
         22    1    3    3    0    0 -0.21420937551E+02 -0.13149638710E+02  0.36368077726E+03  0.36454831958E+03  0.00000000000E+00 0.  1.
</event>
<event>
 7    1  0.6173324E-006  0.5182995E+02  0.7818608E-02  0.1483850E+00
          2   -1    0    0  502    0  0.00000000000E+00  0.00000000000E+00  0.34962730567E+03  0.34962730567E+03  0.00000000000E+00 0. -1.
          1   -1    0    0  501    0 -0.00000000000E+00 -0.00000000000E+00 -0.49046340407E+03  0.49046340407E+03  0.00000000000E+00 0. -1.
         25    2    1    2    0    0  0.71431849274E+02  0.39518076906E+02 -0.16634961676E+03  0.22351892405E+03  0.12499730766E+03 0.  0.
          2    1    1    2  501    0 -0.48618673855E+02 -0.10988406803E+02 -0.29237393943E+03  0.29659238188E+03  0.00000000000E+00 0. -1.
          1    1    1    2  502    0 -0.22813175419E+02 -0.28529670102E+02  0.31788745778E+03  0.31997940381E+03  0.00000000000E+00 0. -1.
         22    1    3    3    0    0  0.61996300107E+02  0.62995442508E+02 -0.44284422449E+02  0.98858874540E+02  0.00000000000E+00 0. -1.
         22    1    3    3    0    0  0.94355491672E+01 -0.23477365602E+02 -0.12206519431E+03  0.12466004951E+03  0.00000000000E+00 0. -1.
</event>
<event>
 7    1  0.6173324E-006  0.5653312E+02  0.7818608E-02  0.1552816E+00
          2   -1    0    0  502    0  0.00000000000E+00  0.00000000000E+00  0.29019107744E+03  0.29019107744E+03  0.00000000000E+00 0. -1.
          1   -1    0    0  501    0 -0.00000000000E+00 -0.00000000000E+00 -0.46091344025E+03  0.46091344025E+03  0.00000000000E+00 0. -1.
         25    2    1    2    0    0 -0.53463469096E+02 -0.86946868669E+01  0.66118886437E+02  0.15142766368E+03  0.12499876029E+03 0.  0.
          2    1    1    2  501    0  0.55286852703E+02 -0.12316714712E+02 -0.41571902014E+03  0.41956005678E+03  0.00000000000E+00 0. -1.
          1    1    1    2  502    0 -0.18233836068E+01  0.21011401579E+02  0.17887777089E+03  0.18011679722E+03  0.00000000000E+00 0. -1.
         22    1    3    3    0    0 -0.21678891726E+02 -0.64069575549E+02  0.53745233854E+02  0.86391174430E+02  0.00000000000E+00 0.  1.
         22    1    3    3    0    0 -0.31784577370E+02  0.55374888682E+02  0.12373652583E+02  0.65036489246E+02  0.00000000000E+00 0.  1.
</event>
<event>
 7    1  0.6173324E-006  0.7774244E+02  0.7818608E-02  0.1349922E+00
          2   -1    0    0  502    0  0.00000000000E+00  0.00000000000E+00  0.13977966328E+04  0.13977966328E+04  0.00000000000E+00 0. -1.
          1   -1    0    0  501    0 -0.00000000000E+00 -0.00000000000E+00 -0.35348788734E+02  0.35348788734E+02  0.00000000000E+00 0. -1.
         25    2    1    2    0    0 -0.14431663469E+02 -0.48160724423E+00  0.92662747571E+03  0.93513272733E+03  0.12500493641E+03 0.  0.
          2    1    1    2  501    0  0.74703381294E+02  0.33445427858E+02  0.31186595010E+02  0.87588786552E+02  0.00000000000E+00 0. -1.
          1    1    1    2  502    0 -0.60271717825E+02 -0.32963820614E+02  0.40463377332E+03  0.41042390763E+03  0.00000000000E+00 0. -1.
         22    1    3    3    0    0 -0.76538752257E+01  0.46664753895E+02  0.76932711238E+03  0.77077907788E+03  0.00000000000E+00 0.  1.
         22    1    3    3    0    0 -0.67777882432E+01 -0.47146361140E+02  0.15730036333E+03  0.16435364945E+03  0.00000000000E+00 0.  1.
</event>
<event>
 7    1  0.6173324E-006  0.2540986E+03  0.7818608E-02  0.1314209E+00
          2   -1    0    0  502    0  0.00000000000E+00  0.00000000000E+00  0.50807163854E+03  0.50807163854E+03  0.00000000000E+00 0. -1.
          1   -1    0    0  501    0 -0.00000000000E+00 -0.00000000000E+00 -0.10140200455E+04  0.10140200455E+04  0.00000000000E+00 0. -1.
         25    2    1    2    0    0 -0.19848097219E+03 -0.11690711728E+03 -0.10155625827E+03  0.28107078574E+03  0.12500057044E+03 0.  0.
          2    1    1    2  501    0 -0.25318299983E+02 -0.13619015875E+02 -0.78230187849E+03  0.78282994513E+03  0.00000000000E+00 0. -1.
          1    1    1    2  502    0  0.22379927217E+03  0.13052613315E+03  0.37790972982E+03  0.45819095315E+03  0.00000000000E+00 0. -1.
         22    1    3    3    0    0 -0.64956154923E+02 -0.27558467244E+02  0.26752257936E+02  0.75461609338E+02  0.00000000000E+00 0. -1.
         22    1    3    3    0    0 -0.13352481726E+03 -0.89348650032E+02 -0.12830851621E+03  0.20560917640E+03  0.00000000000E+00 0. -1.
</event>
<event>
 7    1  0.6173324E-006  0.1781666E+03  0.7818608E-02  0.1211324E+00
          2   -1    0    0  502    0  0.00000000000E+00  0.00000000000E+00  0.20211625736E+04  0.20211625736E+04  0.00000000000E+00 0. -1.
          1   -1    0    0  501    0 -0.00000000000E+00 -0.00000000000E+00 -0.51650760239E+03  0.51650760239E+03  0.00000000000E+00 0. -1.
         25    2    1    2    0    0 -0.26452388259E+03 -0.67262049998E+01  0.80627299353E+03  0.85774117789E+03  0.12500264741E+03 0.  0.
          2    1    1    2  501    0  0.16886392605E+03 -0.52253417938E+02 -0.47207797113E+03  0.50408635771E+03  0.00000000000E+00 0. -1.
          1    1    1    2  502    0  0.95659956542E+02  0.58979622938E+02  0.11704599488E+04  0.11758426404E+04  0.00000000000E+00 0. -1.
         22    1    3    3    0    0 -0.74077339311E+02  0.15098897545E+02  0.41736213312E+03  0.42415395680E+03  0.00000000000E+00 0.  1.
         22    1    3    3    0    0 -0.19044654328E+03 -0.21825102545E+02  0.38891086040E+03  0.43358722108E+03  0.00000000000E+00 0.  1.
</event>
<event>
 7    1  0.6516856E-006  0.1607329E+03  0.7818608E-02  0.1295069E+00
          2   -1    0    0  502    0  0.00000000000E+00  0.00000000000E+00  0.84804660745E+03  0.84804660745E+03  0.00000000000E+00 0. -1.
          1   -1    0    0  501    0 -0.00000000000E+00 -0.00000000000E+00 -0.20306580264E+04  0.20306580264E+04  0.00000000000E+00 0. -1.
         25    2    1    2    0    0 -0.10824020443E+03  0.64382279294E+01 -0.61549068067E+03  0.63734679879E+03  0.12499908519E+03 0.  0.
          2    1    1    2  501    0 -0.53092664842E+02 -0.10642504465E+02 -0.13959310296E+04  0.13969808637E+04  0.00000000000E+00 0. -1.
          1    1    1    2  502    0  0.16133286928E+03  0.42042765357E+01  0.82881029138E+03  0.84437697136E+03  0.00000000000E+00 0. -1.
         22    1    3    3    0    0 -0.10411889317E+03 -0.43989967749E+02 -0.46655377141E+03  0.48005029194E+03  0.00000000000E+00 0. -1.
         22    1    3    3    0    0 -0.41213112656E+01  0.50428195679E+02 -0.14893690927E+03  0.15729650685E+03  0.00000000000E+00 0. -1.
</event>
<event>
 7    1  0.6353802E-006  0.7435174E+02  0.7818608E-02  0.1424205E+00
          2   -1    0    0  502    0  0.00000000000E+00  0.00000000000E+00  0.34734658994E+03  0.34734658994E+03  0.00000000000E+00 0. -1.
          1   -1    0    0  501    0 -0.00000000000E+00 -0.00000000000E+00 -0.23328069292E+04  0.23328069292E+04  0.00000000000E+00 0. -1.
         25    2    1    2    0    0 -0.39614131464E+02 -0.27990009708E+02 -0.66298431925E+03  0.67640638984E+03  0.12499870635E+03 0.  0.
          2    1    1    2  501    0  0.66332998046E+01 -0.38862157468E+02 -0.16587961880E+04  0.16592646146E+04  0.00000000000E+00 0. -1.
          1    1    1    2  502    0  0.32980831659E+02  0.66852167176E+02  0.33632016801E+03  0.34448251468E+03  0.00000000000E+00 0. -1.
         22    1    3    3    0    0 -0.89840435160E+01 -0.71452493204E+00 -0.60668406810E+03  0.60675100500E+03  0.00000000000E+00 0. -1.
         22    1    3    3    0    0 -0.30630087948E+02 -0.27275484776E+02 -0.56300251156E+02  0.69655384844E+02  0.00000000000E+00 0. -1.
</event>
<event>
 7    1  0.6173324E-006  0.5204861E+02  0.7818608E-02  0.1460407E+00
          2   -1    0    0  502    0  0.00000000000E+00  0.00000000000E+00  0.28535623896E+04  0.28535623896E+04  0.00000000000E+00 0. -1.
          1   -1    0    0  501    0 -0.00000000000E+00 -0.00000000000E+00 -0.16428652199E+02  0.16428652199E+02  0.00000000000E+00 0. -1.
         25    2    1    2    0    0 -0.72150885440E+01  0.50552205367E+02  0.11624280403E+04  0.11702441518E+04  0.12499937164E+03 0.  0.
          2    1    1    2  501    0 -0.37695015775E+02 -0.20701210874E+02  0.26196340196E+02  0.50355760203E+02  0.00000000000E+00 0. -1.
          1    1    1    2  502    0  0.44910104319E+02 -0.29850994492E+02  0.16485093569E+04  0.16493911298E+04  0.00000000000E+00 0. -1.
         22    1    3    3    0    0  0.43142832311E+02 -0.40084758718E+01  0.74538695867E+03  0.74664522366E+03  0.00000000000E+00 0.  1.
         22    1    3    3    0    0 -0.50357920855E+02  0.54560681238E+02  0.41704108161E+03  0.42359892809E+03  0.00000000000E+00 0.  1.
</event>
<event>
 7    1  0.6173324E-006  0.6765729E+02  0.7818608E-02  0.1427482E+00
          2   -1    0    0  502    0  0.00000000000E+00  0.00000000000E+00  0.92221432147E+02  0.92221432147E+02  0.00000000000E+00 0. -1.
          1   -1    0    0  501    0 -0.00000000000E+00 -0.00000000000E+00 -0.40032194791E+03  0.40032194791E+03  0.00000000000E+00 0. -1.
         25    2    1    2    0    0  0.65352026943E+02 -0.68859060465E+02 -0.17763160019E+03  0.23704509367E+03  0.12499973366E+03 0.  0.
          2    1    1    2  501    0 -0.41591579751E+02  0.74622189913E+01 -0.17236143271E+03  0.17746551131E+03  0.00000000000E+00 0. -1.
          1    1    1    2  502    0 -0.23760447192E+02  0.61396841474E+02  0.41892517135E+02  0.78032775073E+02  0.00000000000E+00 0. -1.
         22    1    3    3    0    0 -0.68856480894E+01 -0.20980300280E+02  0.14401061793E+02  0.26362392346E+02  0.00000000000E+00 0.  1.
         22    1    3    3    0    0  0.72237675033E+02 -0.47878760185E+02 -0.19203266198E+03  0.21068270132E+03  0.00000000000E+00 0.  1.
</event>
<event>
 7    1  0.6173324E-006  0.5248804E+02  0.7818608E-02  0.1439242E+00
          2   -1    0    0  502    0  0.00000000000E+00  0.00000000000E+00  0.40597499117E+03  0.40597499117E+03  0.00000000000E+00 0. -1.
          1   -1    0    0  501    0 -0.00000000000E+00 -0.00000000000E+00 -0.23351488501E+04  0.23351488501E+04  0.00000000000E+00 0. -1.
         25    2    1    2    0    0  0.90691485431E+02 -0.46834001273E+02 -0.55989942636E+01  0.16144810675E+03  0.12496308747E+03 0.  0.
          2    1    1    2  501    0 -0.45580160801E+02  0.25636075163E+02 -0.22494263515E+04  0.22500341487E+04  0.00000000000E+00 0. -1.
          1    1    1    2  502    0 -0.45111324630E+02  0.21197926111E+02  0.32585148681E+03  0.32964158588E+03  0.00000000000E+00 0. -1.
         22    1    3    3    0    0  0.15175978898E+02 -0.52491410752E+02  0.44651659442E+02  0.70565070886E+02  0.00000000000E+00 0.  1.
         22    1    3    3    0    0  0.75515506534E+02  0.56574094787E+01 -0.50250653706E+02  0.90883035859E+02  0.00000000000E+00 0.  1.
</event>
<event>
 7    1  0.6173324E-006  0.3361919E+02  0.7818608E-02  0.1628173E+00
          2   -1    0    0  502    0  0.00000000000E+00  0.00000000000E+00  0.78412989589E+03  0.78412989589E+03  0.00000000000E+00 0. -1.
          1   -1    0    0  501    0 -0.00000000000E+00 -0.00000000000E+00 -0.33593037363E+02  0.33593037363E+02  0.00000000000E+00 0. -1.
         25    2    1    2    0    0 -0.46406979400E+02  0.95875319263E+01  0.38622087355E+03  0.40870205560E+03  0.12500111434E+03 0.  0.
          2    1    1    2  501    0  0.19966283260E+02  0.10166430044E+02 -0.15837176496E+02  0.27437655265E+02  0.00000000000E+00 0. -1.
          1    1    1    2  502    0  0.26440696140E+02 -0.19753961970E+02  0.38015316148E+03  0.38158322239E+03  0.00000000000E+00 0. -1.
         22    1    3    3    0    0 -0.47241255280E+02 -0.32923491413E+02  0.74823835691E+02  0.94415564791E+02  0.00000000000E+00 0. -1.
         22    1    3    3    0    0  0.83427588033E+00  0.42511023339E+02  0.31139703785E+03  0.31428649081E+03  0.00000000000E+00 0. -1.
</event>
<event>
 7    1  0.1223437E-005  0.1051328E+03  0.7818608E-02  0.1341434E+00
          2   -1    0    0  502    0  0.00000000000E+00  0.00000000000E+00  0.27931794524E+04  0.27931794524E+04  0.00000000000E+00 0. -1.
          1   -1    0    0  501    0 -0.00000000000E+00 -0.00000000000E+00 -0.99450678045E+03  0.99450678045E+03  0.00000000000E+00 0. -1.
         25    2    1    2    0    0  0.72645709782E+02  0.74164072139E+02 -0.20383600587E+03  0.26066134629E+03  0.12497004206E+03 0.  0.
          2    1    1    2  501    0  0.28828362564E+02 -0.46416669596E+02 -0.76027656304E+03  0.76223751811E+03  0.00000000000E+00 0. -1.
          1    1    1    2  502    0 -0.10147407235E+03 -0.27747402543E+02  0.27627852409E+04  0.27647873685E+04  0.00000000000E+00 0. -1.
         22    1    3    3    0    0  0.88819766145E+02  0.98846399039E+02 -0.16963381112E+03  0.21548826264E+03  0.00000000000E+00 0. -1.
         22    1    3    3    0    0 -0.16174056363E+02 -0.24682326899E+02 -0.34202194748E+02  0.45173083645E+02  0.00000000000E+00 0. -1.
</event>
<event>
 7    1  0.6173324E-006  0.1007276E+03  0.7818608E-02  0.1335199E+00
          2   -1    0    0  502    0  0.00000000000E+00  0.00000000000E+00  0.43308008745E+04  0.43308008745E+04  0.00000000000E+00 0. -1.
          1   -1    0    0  501    0 -0.00000000000E+00 -0.00000000000E+00 -0.86481384200E+02  0.86481384200E+02  0.00000000000E+00 0. -1.
         25    2    1    2    0    0 -0.52379743281E+02  0.14082076903E+02  0.15366088230E+04  0.15426362803E+04  0.12497230172E+03 0.  0.
          2    1    1    2  501    0  0.98901446621E+02  0.24130521985E+02 -0.51975477033E+02  0.11430323026E+03  0.00000000000E+00 0. -1.
          1    1    1    2  502    0 -0.46521703340E+02 -0.38212598888E+02  0.27596861444E+04  0.27603427481E+04  0.00000000000E+00 0. -1.
         22    1    3    3    0    0  0.27470449793E+01  0.95133483947E+01  0.12841607865E+04  0.12841989626E+04  0.00000000000E+00 0. -1.
         22    1    3    3    0    0 -0.55126788260E+02  0.45687285081E+01  0.25244803647E+03  0.25843731770E+03  0.00000000000E+00 0. -1.
</event>
<event>
 7    1  0.6173324E-006  0.3334457E+02  0.7818608E-02  0.1618156E+00
          2   -1    0    0  502    0  0.00000000000E+00  0.00000000000E+00  0.44691165301E+03  0.44691165301E+03  0.00000000000E+00 0. -1.
          1   -1    0    0  501    0 -0.00000000000E+00 -0.00000000000E+00 -0.34355207395E+03  0.34355207395E+03  0.00000000000E+00 0. -1.
         25    2    1    2    0    0  0.31313041729E+01  0.45532451497E+02 -0.22446507535E+03  0.26094487252E+03  0.12499858895E+03 0.  0.
          2    1    1    2  501    0  0.15734718510E+02 -0.18057645296E+02 -0.98765791137E+02  0.10162844788E+03  0.00000000000E+00 0. -1.
          1    1    1    2  502    0 -0.18866022683E+02 -0.27474806201E+02  0.42659044554E+03  0.42789040655E+03  0.00000000000E+00 0. -1.
         22    1    3    3    0    0 -0.91694360259E+01 -0.42321996013E+02 -0.89650141152E+02  0.99560924625E+02  0.00000000000E+00 0.  1.
         22    1    3    3    0    0  0.12300740199E+02  0.87854447510E+02 -0.13481493419E+03  0.16138394790E+03  0.00000000000E+00 0.  1.
</event>
<event>
 7    1  0.6173324E-006  0.1012495E+03  0.7818608E-02  0.1329949E+00
          2   -1    0    0  502    0  0.00000000000E+00  0.00000000000E+00  0.10548322684E+04  0.10548322684E+04  0.00000000000E+00 0. -1.
          1   -1    0    0  501    0 -0.00000000000E+00 -0.00000000000E+00 -0.18291707921E+03  0.18291707921E+03  0.00000000000E+00 0. -1.
         25    2    1    2    0    0  0.13583275089E+03  0.72925500118E+02  0.11500653851E+03  0.22939047439E+03  0.12499928423E+03 0.  0.
          2    1    1    2  501    0 -0.91471939194E+02 -0.28597460917E+02 -0.10615670230E+03  0.14301809631E+03  0.00000000000E+00 0. -1.
          1    1    1    2  502    0 -0.44360811694E+02 -0.44328039200E+02  0.86306535302E+03  0.86534077696E+03  0.00000000000E+00 0. -1.
         22    1    3    3    0    0  0.12467374989E+03  0.78488748236E+01  0.44033613013E+02  0.13245417254E+03  0.00000000000E+00 0.  1.
         22    1    3    3    0    0  0.11159000998E+02  0.65076625294E+02  0.70972925494E+02  0.96936301849E+02  0.00000000000E+00 0.  1.
</event>
<event>
 7    1  0.6173324E-006  0.1054411E+03  0.7818608E-02  0.1325824E+00
          2   -1    0    0  502    0  0.00000000000E+00  0.00000000000E+00  0.98075104148E+03  0.98075104148E+03  0.00000000000E+00 0. -1.
          1   -1    0    0  501    0 -0.00000000000E+00 -0.00000000000E+00 -0.50426284961E+03  0.50426284961E+03  0.00000000000E+00 0. -1.
         25    2    1    2    0    0 -0.73065089968E+02 -0.66241795532E+02  0.20447691747E+03  0.25915787321E+03  0.12500204247E+03 0.  0.
          2    1    1    2  501    0  0.22980148254E+02  0.10354828681E+03 -0.46969643296E+03  0.48152370040E+03  0.00000000000E+00 0. -1.
          1    1    1    2  502    0  0.50084941715E+02 -0.37306491276E+02  0.74170770736E+03  0.74433231747E+03  0.00000000000E+00 0. -1.
         22    1    3    3    0    0 -0.79582351038E+02 -0.77150958713E+02  0.86763517824E+02  0.14076053798E+03  0.00000000000E+00 0.  1.
         22    1    3    3    0    0  0.65172610700E+01  0.10909163181E+02  0.11771339965E+03  0.11839733523E+03  0.00000000000E+00 0.  1.
</event>
<event>
 7    1  0.6173324E-006  0.6812899E+02  0.7818608E-02  0.1510600E+00
          2   -1    0    0  502    0  0.00000000000E+00  0.00000000000E+00  0.96164620697E+03  0.96164620697E+03  0.00000000000E+00 0. -1.
          1   -1    0    0  501    0 -0.00000000000E+00 -0.00000000000E+00 -0.13539903602E+04  0.13539903602E+04  0.00000000000E+00 0. -1.
         25    2    1    2    0    0 -0.19597550620E+02  0.67730301235E+02 -0.20376233079E+03  0.24922986621E+03  0.12499992426E+03 0.  0.
          2    1    1    2  501    0 -0.35069319826E+01 -0.68098931958E+02 -0.11263208071E+04  0.11283830571E+04  0.00000000000E+00 0. -1.
          1    1    1    2  502    0  0.23104482603E+02  0.36863072330E+00  0.93773898467E+03  0.93802364383E+03  0.00000000000E+00 0. -1.
         22    1    3    3    0    0 -0.53296277143E+02  0.36513942552E+02 -0.33290339211E+02  0.72677423199E+02  0.00000000000E+00 0. -1.
         22    1    3    3    0    0  0.33698726522E+02  0.31216358682E+02 -0.17047199158E+03  0.17655244301E+03  0.00000000000E+00 0. -1.
</event>
<event>
 7    1  0.6173324E-006  0.5219467E+02  0.7818608E-02  0.1546272E+00
          2   -1    0    0  502    0  0.00000000000E+00  0.00000000000E+00  0.52656229543E+03  0.52656229543E+03  0.00000000000E+00 0. -1.
          1   -1    0    0  501    0 -0.00000000000E+00 -0.00000000000E+00 -0.13952985726E+03  0.13952985726E+03  0.00000000000E+00 0. -1.
         25    2    1    2    0    0  0.21297251862E+01  0.52022810957E+02  0.12159244975E+03  0.18198875236E+03  0.12499709421E+03 0.  0.
          2    1    1    2  501    0  0.23070036336E+02 -0.59492252412E+01 -0.10616532320E+03  0.10880577056E+03  0.00000000000E+00 0. -1.
          1    1    1    2  502    0 -0.25199761522E+02 -0.46073585716E+02  0.37160531162E+03  0.37529762977E+03  0.00000000000E+00 0. -1.
         22    1    3    3    0    0  0.13981303298E+01  0.90723818465E+02  0.58466675574E+02  0.10794034537E+03  0.00000000000E+00 0. -1.
         22    1    3    3    0    0  0.73159485648E+00 -0.38701007508E+02  0.63125774178E+02  0.74048406997E+02  0.00000000000E+00 0. -1.
</event>
<event>
 7    1  0.6173324E-006  0.1226796E+03  0.7818608E-02  0.1322218E+00
          2   -1    0    0  502    0  0.00000000000E+00  0.00000000000E+00  0.19627798932E+04  0.19627798932E+04  0.00000000000E+00 0. -1.
          1   -1    0    0  501    0 -0.00000000000E+00 -0.00000000000E+00 -0.30641160687E+03  0.30641160687E+03  0.00000000000E+00 0. -1.
         25    2    1    2    0    0  0.51043743190E+02 -0.16172163487E+03 -0.17112937645E+02  0.21137027048E+03  0.12500075082E+03 0.  0.
          2    1    1    2  501    0 -0.37806685498E+02  0.40526422861E+02 -0.18613589038E+03  0.19421201329E+03  0.00000000000E+00 0. -1.
          1    1    1    2  502    0 -0.13237057692E+02  0.12119521201E+03  0.18596171143E+04  0.18636092163E+04  0.00000000000E+00 0. -1.
         22    1    3    3    0    0  0.62448897713E+02 -0.79409001067E+02  0.41984442319E+02  0.10939994366E+03  0.00000000000E+00 0. -1.
         22    1    3    3    0    0 -0.11405154523E+02 -0.82312633803E+02 -0.59097379964E+02  0.10197032682E+03  0.00000000000E+00 0. -1.
</event>
<event>
 7    1  0.6173324E-006  0.6654703E+02  0.7818608E-02  0.1382430E+00
          2   -1    0    0  502    0  0.00000000000E+00  0.00000000000E+00  0.34661281456E+04  0.34661281456E+04  0.00000000000E+00 0. -1.
          1   -1    0    0  501    0 -0.00000000000E+00 -0.00000000000E+00 -0.19978336383E+04  0.19978336383E+04  0.00000000000E+00 0. -1.
         25    2    1    2    0    0  0.35307893077E+02  0.79350897621E+02  0.45708121910E+03  0.48175897956E+03  0.12500104508E+03 0.  0.
          2    1    1    2  501    0  0.23484069373E+02 -0.62271610772E+02 -0.19846242175E+04  0.19857397965E+04  0.00000000000E+00 0. -1.
          1    1    1    2  502    0 -0.58791962450E+02 -0.17079286848E+02  0.29958375056E+04  0.29964630078E+04  0.00000000000E+00 0. -1.
         22    1    3    3    0    0 -0.36744145584E+02  0.46101669498E+02  0.10103335881E+03  0.11697536389E+03  0.00000000000E+00 0. -1.
         22    1    3    3    0    0  0.72052038661E+02  0.33249228123E+02  0.35604786029E+03  0.36478361567E+03  0.00000000000E+00 0. -1.
</event>
<event>
 7    1  0.6173324E-006  0.8656761E+02  0.7818608E-02  0.1449223E+00
          2   -1    0    0  502    0  0.00000000000E+00  0.00000000000E+00  0.16582651305E+04  0.16582651305E+04  0.00000000000E+00 0. -1.
          1   -1    0    0  501    0 -0.00000000000E+00 -0.00000000000E+00 -0.10913848057E+03  0.10913848057E+03  0.00000000000E+00 0. -1.
         25    2    1    2    0    0 -0.13270839749E+02 -0.70342723462E+02  0.14944555643E+03  0.20753898916E+03  0.12495696760E+03 0.  0.
          2    1    1    2  501    0 -0.80188226421E+01  0.88624410161E+02 -0.55197400490E+02  0.10471552232E+03  0.00000000000E+00 0. -1.
          1    1    1    2  502    0  0.21289662392E+02 -0.18281686698E+02  0.14548784940E+04  0.14551490996E+04  0.00000000000E+00 0. -1.
         22    1    3    3    0    0  0.55010367620E+02 -0.19243725362E+02  0.68760079437E+02  0.90135509294E+02  0.00000000000E+00 0.  1.
         22    1    3    3    0    0 -0.68281207369E+02 -0.51098998100E+02  0.80685476993E+02  0.11740347986E+03  0.00000000000E+00 0.  1.
</event>
<event>
 7    1  0.6173324E-006  0.5045883E+02  0.7818608E-02  0.1558168E+00
          2   -1    0    0  502    0  0.00000000000E+00  0.00000000000E+00  0.78913998096E+03  0.78913998096E+03  0.00000000000E+00 0. -1.
          1   -1    0    0  501    0 -0.00000000000E+00 -0.00000000000E+00 -0.53476751447E+03  0.53476751447E+03  0.00000000000E+00 0. -1.
         25    2    1    2    0    0 -0.33223778847E+02  0.13021206795E+02 -0.16374999078E+02  0.13101711531E+03  0.12499589034E+03 0.  0.
          2    1    1    2  501    0  0.36318579109E+02 -0.35647147340E+02 -0.45948820848E+03  0.46229770932E+03  0.00000000000E+00 0. -1.
          1    1    1    2  502    0 -0.30948002616E+01  0.22625940545E+02  0.73023567405E+03  0.73059267080E+03  0.00000000000E+00 0. -1.
         22    1    3    3    0    0 -0.77145325899E+02  0.10710203506E+01  0.10951565394E+02  0.77926152075E+02  0.00000000000E+00 0. -1.
         22    1    3    3    0    0  0.43921547052E+02  0.11950186444E+02 -0.27326564472E+02  0.53090963236E+02  0.00000000000E+00 0. -1.
</event>
<event>
 7    1  0.6173324E-006  0.6164906E+02  0.7818608E-02  0.1407711E+00
          2   -1    0    0  502    0  0.00000000000E+00  0.00000000000E+00  0.68968817411E+03  0.68968817411E+03  0.00000000000E+00 0. -1.
          1   -1    0    0  501    0 -0.00000000000E+00 -0.00000000000E+00 -0.32089243499E+03  0.32089243499E+03  0.00000000000E+00 0. -1.
         25    2    1    2    0    0  0.87627805381E+02  0.56308452984E+02  0.32411862823E+03  0.36266260388E+03  0.12498801916E+03 0.  0.
          2    1    1    2  501    0 -0.60593201529E+02 -0.95419031135E+01 -0.29635383358E+03  0.30263538898E+03  0.00000000000E+00 0. -1.
          1    1    1    2  502    0 -0.27034603852E+02 -0.46766549870E+02  0.34103094447E+03  0.34528261624E+03  0.00000000000E+00 0. -1.
         22    1    3    3    0    0  0.94839608278E+02  0.70010160536E+02  0.32637899012E+03  0.34701472457E+03  0.00000000000E+00 0.  1.
         22    1    3    3    0    0 -0.72118028971E+01 -0.13701707552E+02 -0.22603618952E+01  0.15647879306E+02  0.00000000000E+00 0.  1.
</event>
<event>
 7    1  0.6173324E-006  0.3900999E+02  0.7818608E-02  0.1521569E+00
          2   -1    0    0  502    0  0.00000000000E+00  0.00000000000E+00  0.81825643888E+02  0.81825643888E+02  0.00000000000E+00 0. -1.
          1   -1    0    0  501    0 -0.00000000000E+00 -0.00000000000E+00 -0.13459243378E+04  0.13459243378E+04  0.00000000000E+00 0. -1.
         25    2    1    2    0    0  0.23794598691E+02 -0.15465108162E+02 -0.73392275558E+02  0.14771516480E+03  0.12501196464E+03 0.  0.
          2    1    1    2  501    0  0.12209654836E+02  0.35443140221E+02 -0.12255328667E+04  0.12261060718E+04  0.00000000000E+00 0. -1.
          1    1    1    2  502    0 -0.36004253527E+02 -0.19978032059E+02  0.34826448394E+02  0.53928745069E+02  0.00000000000E+00 0. -1.
         22    1    3    3    0    0  0.31018238515E+02 -0.56696470219E+02 -0.16426757714E+01  0.64647654555E+02  0.00000000000E+00 0.  1.
         22    1    3    3    0    0 -0.72236398241E+01  0.41231362057E+02 -0.71749599786E+02  0.83067510248E+02  0.00000000000E+00 0.  1.
</event>
<event>
 7    1  0.8648469E-006  0.5901260E+02  0.7818608E-02  0.1439231E+00
          2   -1    0    0  502    0  0.00000000000E+00  0.00000000000E+00  0.12434027839E+04  0.12434027839E+04  0.00000000000E+00 0. -1.
          1   -1    0    0  501    0 -0.00000000000E+00 -0.00000000000E+00 -0.12999364739E+04  0.12999364739E+04  0.00000000000E+00 0. -1.
         25    2    1    2    0    0 -0.35535954587E+02 -0.29740307638E-01 -0.99053989122E+02  0.16340239486E+03  0.12500337968E+03 0.  0.
          2    1    1    2  501    0 -0.39340824762E+01  0.44161682239E+02 -0.11675637329E+04  0.11684052386E+04  0.00000000000E+00 0. -1.
          1    1    1    2  502    0  0.39470037063E+02 -0.44131941931E+02  0.12100840321E+04  0.12115316243E+04  0.00000000000E+00 0. -1.
         22    1    3    3    0    0 -0.30672833331E+02  0.20657850454E+02 -0.12471600615E+03  0.13008324904E+03  0.00000000000E+00 0.  1.
         22    1    3    3    0    0 -0.48631212555E+01 -0.20687590762E+02  0.25662017033E+02  0.33319145818E+02  0.00000000000E+00 0.  1.
</event>
<event>
 7    1  0.6173324E-006  0.4976888E+02  0.7818608E-02  0.1450074E+00
          2   -1    0    0  502    0  0.00000000000E+00  0.00000000000E+00  0.87977536592E+03  0.87977536592E+03  0.00000000000E+00 0. -1.
          1   -1    0    0  501    0 -0.00000000000E+00 -0.00000000000E+00 -0.16751906014E+04  0.16751906014E+04  0.00000000000E+00 0. -1.
         25    2    1    2    0    0  0.80273976584E+02 -0.17067240899E+02 -0.81074116367E+02  0.17010050653E+03  0.12500387174E+03 0.  0.
          2    1    1    2  501    0 -0.45063699322E+02 -0.17945537318E+02 -0.15484852064E+04  0.15492447236E+04  0.00000000000E+00 0. -1.
          1    1    1    2  502    0 -0.35210277262E+02  0.35012778216E+02  0.83414408720E+03  0.83562073722E+03  0.00000000000E+00 0. -1.
         22    1    3    3    0    0  0.75407170614E+02  0.35345321339E+02 -0.13377554721E+02  0.84347448633E+02  0.00000000000E+00 0.  1.
         22    1    3    3    0    0  0.48668059708E+01 -0.52412562238E+02 -0.67696561645E+02  0.85753057900E+02  0.00000000000E+00 0.  1.
</event>
<event>
 7    1  0.6173324E-006  0.8158343E+02  0.7818608E-02  0.1381533E+00
          2   -1    0    0  502    0  0.00000000000E+00  0.00000000000E+00  0.78752037001E+03  0.78752037001E+03  0.00000000000E+00 0. -1.
          1   -1    0    0  501    0 -0.00000000000E+00 -0.00000000000E+00 -0.19110069993E+04  0.19110069993E+04  0.00000000000E+00 0. -1.
         25    2    1    2    0    0 -0.34425341736E+02 -0.38127723343E+02  0.92438944475E+02  0.16373331223E+03  0.12499924655E+03 0.  0.
          2    1    1    2  501    0  0.21665126860E+02 -0.45400005072E+02 -0.18723138460E+04  0.18729895024E+04  0.00000000000E+00 0. -1.
          1    1    1    2  502    0  0.12760214876E+02  0.83527728416E+02  0.65638827230E+03  0.66180455462E+03  0.00000000000E+00 0. -1.
         22    1    3    3    0    0 -0.78457048322E+01  0.45648682023E+02  0.41238025981E+02  0.62015579023E+02  0.00000000000E+00 0.  1.
         22    1    3    3    0    0 -0.26579636904E+02 -0.83776405367E+02  0.51200918494E+02  0.10171773321E+03  0.00000000000E+00 0.  1.
</event>
<event>
 7    1  0.6173324E-006  0.1317294E+03  0.7818608E-02  0.1428943E+00
          2   -1    0    0  502    0  0.00000000000E+00  0.00000000000E+00  0.16075671853E+04  0.16075671853E+04  0.00000000000E+00 0. -1.
          1   -1    0    0  501    0 -0.00000000000E+00 -0.00000000000E+00 -0.95618600676E+03  0.95618600676E+03  0.00000000000E+00 0. -1.
         25    2    1    2    0    0 -0.13257636209E+03  0.70996285899E+02 -0.58569203698E+02  0.20413868236E+03  0.12500114247E+03 0.  0.
          2    1    1    2  501    0  0.11825396506E+03 -0.55010664009E+02 -0.81960065414E+03  0.82991289041E+03  0.00000000000E+00 0. -1.
          1    1    1    2  502    0  0.14322397028E+02 -0.15985621891E+02  0.15295510363E+04  0.15297016193E+04  0.00000000000E+00 0. -1.
         22    1    3    3    0    0 -0.54405045414E+02  0.85264761668E+02  0.66166500146E+01  0.10135960046E+03  0.00000000000E+00 0.  1.
         22    1    3    3    0    0 -0.78171316672E+02 -0.14268475769E+02 -0.65185853713E+02  0.10277908190E+03  0.00000000000E+00 0.  1.
</event>
<event>
 7    1  0.6173324E-006  0.1253852E+03  0.7818608E-02  0.1382179E+00
          2   -1    0    0  502    0  0.00000000000E+00  0.00000000000E+00  0.80487344059E+03  0.80487344059E+03  0.00000000000E+00 0. -1.
          1   -1    0    0  501    0 -0.00000000000E+00 -0.00000000000E+00 -0.16573684699E+04  0.16573684699E+04  0.00000000000E+00 0. -1.
         25    2    1    2    0    0  0.11018582442E+03  0.45122358258E+00 -0.61597525682E+02  0.17765398929E+03  0.12500226091E+03 0.  0.
          2    1    1    2  501    0  0.12242088503E+02  0.30170535945E+02 -0.15322373391E+04  0.15325832419E+04  0.00000000000E+00 0. -1.
          1    1    1    2  502    0 -0.12242791293E+03 -0.30621759528E+02  0.74133983549E+03  0.75200467931E+03  0.00000000000E+00 0. -1.
         22    1    3    3    0    0  0.10433450566E+03  0.30093608931E+02  0.50773187034E+00  0.10858900571E+03  0.00000000000E+00 0. -1.
         22    1    3    3    0    0  0.58513187631E+01 -0.29642385348E+02 -0.62105257552E+02  0.69064983574E+02  0.00000000000E+00 0. -1.
</event>
<event>
 7    1  0.6173324E-006  0.3452359E+02  0.7818608E-02  0.1566004E+00
          2   -1    0    0  502    0  0.00000000000E+00  0.00000000000E+00  0.12618172055E+03  0.12618172055E+03  0.00000000000E+00 0. -1.
          1   -1    0    0  501    0 -0.00000000000E+00 -0.00000000000E+00 -0.20106796411E+03  0.20106796411E+03  0.00000000000E+00 0. -1.
         25    2    1    2    0    0  0.10713395953E+01  0.51680137548E+02  0.53429225241E+02  0.14544095515E+03  0.12500561963E+03 0.  0.
          2    1    1    2  501    0 -0.21171583608E+02 -0.27084358130E+02 -0.14281305794E+03  0.14689236851E+03  0.00000000000E+00 0. -1.
          1    1    1    2  502    0  0.20100244012E+02 -0.24595779418E+02  0.14497589138E+02  0.34916360998E+02  0.00000000000E+00 0. -1.
         22    1    3    3    0    0  0.45934124998E+02  0.48252473460E+01  0.64806982997E+02  0.79581228292E+02  0.00000000000E+00 0.  1.
         22    1    3    3    0    0 -0.44862785403E+02  0.46854890202E+02 -0.11377757756E+02  0.65859726856E+02  0.00000000000E+00 0.  1.
</event>
<event>
 7    1  0.6173324E-006  0.9641311E+02  0.7818608E-02  0.1433684E+00
          2   -1    0    0  502    0  0.00000000000E+00  0.00000000000E+00  0.59765017191E+03  0.59765017191E+03  0.00000000000E+00 0. -1.
          1   -1    0    0  501    0 -0.00000000000E+00 -0.00000000000E+00 -0.30390732021E+03  0.30390732021E+03  0.00000000000E+00 0. -1.
         25    2    1    2    0    0  0.11264766234E+03 -0.34639991888E+02 -0.16575236292E+02  0.17258463833E+03  0.12498517537E+03 0.  0.
          2    1    1    2  501    0 -0.84817006104E+02  0.39728198981E+02 -0.19843793298E+03  0.21943078080E+03  0.00000000000E+00 0. -1.
          1    1    1    2  502    0 -0.27830656232E+02 -0.50882070926E+01  0.50875602096E+03  0.50954207299E+03  0.00000000000E+00 0. -1.
         22    1    3    3    0    0 -0.20965450899E+02 -0.30090202739E+02 -0.12791302824E+02  0.38840544026E+02  0.00000000000E+00 0. -1.
         22    1    3    3    0    0  0.13361311324E+03 -0.45497891491E+01 -0.37839334677E+01  0.13374409431E+03  0.00000000000E+00 0. -1.
</event>
<event>
 7    1  0.6173324E-006  0.5652792E+02  0.7818608E-02  0.1415280E+00
          2   -1    0    0  502    0  0.00000000000E+00  0.00000000000E+00  0.14302095549E+04  0.14302095549E+04  0.00000000000E+00 0. -1.
          1   -1    0    0  501    0 -0.00000000000E+00 -0.00000000000E+00 -0.11986672888E+04  0.11986672888E+04  0.00000000000E+00 0. -1.
         25    2    1    2    0    0 -0.15649556994E+02 -0.12629305162E+02 -0.90583085928E+01  0.12693069804E+03  0.12499976467E+03 0.  0.
          2    1    1    2  501    0  0.39372646513E+02 -0.39173772799E+02 -0.11293982155E+04  0.11307630693E+04  0.00000000000E+00 0. -1.
          1    1    1    2  502    0 -0.23723089519E+02  0.51803077961E+02  0.13699987901E+04  0.13711830763E+04  0.00000000000E+00 0. -1.
         22    1    3    3    0    0 -0.41944729710E+02  0.33382876114E+02 -0.38785085980E+02  0.66166907609E+02  0.00000000000E+00 0.  1.
         22    1    3    3    0    0  0.26295172715E+02 -0.46012181277E+02  0.29726777387E+02  0.60763790433E+02  0.00000000000E+00 0.  1.
</event>
<event>
 7    1  0.6173324E-006  0.1550054E+03  0.7818608E-02  0.1349966E+00
          2   -1    0    0  502    0  0.00000000000E+00  0.00000000000E+00  0.48344100330E+03  0.48344100330E+03  0.00000000000E+00 0. -1.
          1   -1    0    0  501    0 -0.00000000000E+00 -0.00000000000E+00 -0.44993621913E+03  0.44993621913E+03  0.00000000000E+00 0. -1.
         25    2    1    2    0    0  0.32126126980E+02  0.14662064493E+03 -0.57188557377E+02  0.20353189718E+03  0.12500000208E+03 0.  0.
          2    1    1    2  501    0 -0.33156998351E+02  0.93201673395E+01 -0.30374885154E+03  0.30569530070E+03  0.00000000000E+00 0. -1.
          1    1    1    2  502    0  0.10308713711E+01 -0.15594081227E+03  0.39444219309E+03  0.42415002454E+03  0.00000000000E+00 0. -1.
         22    1    3    3    0    0  0.33533087694E+02  0.79577700854E+02 -0.93497921941E+02  0.12727505589E+03  0.00000000000E+00 0.  1.
         22    1    3    3    0    0 -0.14069607140E+01  0.67042944080E+02  0.36309364564E+02  0.76256841296E+02  0.00000000000E+00 0.  1.
</event>
<event>
 7    1  0.6173324E-006  0.1636515E+03  0.7818608E-02  0.1325119E+00
          2   -1    0    0  502    0  0.00000000000E+00  0.00000000000E+00  0.96030585907E+03  0.96030585907E+03  0.00000000000E+00 0. -1.
          1   -1    0    0  501    0 -0.00000000000E+00 -0.00000000000E+00 -0.33547839444E+03  0.33547839444E+03  0.00000000000E+00 0. -1.
         25    2    1    2    0    0  0.42896634809E+02  0.19133179755E+03  0.27206507568E+03  0.35789934685E+03  0.12499823614E+03 0.  0.
          2    1    1    2  501    0 -0.16156296380E+02 -0.37127516155E+02 -0.28160283699E+03  0.28449892121E+03  0.00000000000E+00 0. -1.
          1    1    1    2  502    0 -0.26740338430E+02 -0.15420428139E+03  0.63436522594E+03  0.65338598545E+03  0.00000000000E+00 0. -1.
         22    1    3    3    0    0 -0.34422819333E+02  0.20119766664E+02  0.23339357448E+02  0.46200228436E+02  0.00000000000E+00 0.  1.
         22    1    3    3    0    0  0.77319454143E+02  0.17121203088E+03  0.24872571823E+03  0.31169911841E+03  0.00000000000E+00 0.  1.
</event>
<event>
 7    1  0.6173324E-006  0.9325005E+02  0.7818608E-02  0.1483470E+00
          2   -1    0    0  502    0  0.00000000000E+00  0.00000000000E+00  0.13810204683E+04  0.13810204683E+04  0.00000000000E+00 0. -1.
          1   -1    0    0  501    0 -0.00000000000E+00 -0.00000000000E+00 -0.12216113345E+03  0.12216113345E+03  0.00000000000E+00 0. -1.
         25    2    1    2    0    0  0.68868749161E+02 -0.28219403315E+02  0.13696443256E+03  0.19981000380E+03  0.12500216997E+03 0.  0.
          2    1    1    2  501    0  0.16562019564E+02 -0.11837988418E+02 -0.87735663530E+02  0.90066559370E+02  0.00000000000E+00 0. -1.
          1    1    1    2  502    0 -0.85430768726E+02  0.40057391732E+02  0.12096305659E+04  0.12133050386E+04  0.00000000000E+00 0. -1.
         22    1    3    3    0    0  0.26526019600E+02  0.18000962025E+02  0.13321118784E+03  0.13701417779E+03  0.00000000000E+00 0.  1.
         22    1    3    3    0    0  0.42342729561E+02 -0.46220365340E+02  0.37532447279E+01  0.62795826014E+02  0.00000000000E+00 0.  1.
</event>
<event>
 7    1  0.6173324E-006  0.3687403E+02  0.7818608E-02  0.1534402E+00
          2   -1    0    0  502    0  0.00000000000E+00  0.00000000000E+00  0.12395888394E+04  0.12395888394E+04  0.00000000000E+00 0. -1.
          1   -1    0    0  501    0 -0.00000000000E+00 -0.00000000000E+00 -0.74294837394E+03  0.74294837394E+03  0.00000000000E+00 0. -1.
         25    2    1    2    0    0 -0.27499778130E+02 -0.19665095527E+02  0.24034586305E+02  0.13169507906E+03  0.12499191466E+03 0.  0.
          2    1    1    2  501    0 -0.46995003139E+01  0.36707090612E+02 -0.68833535512E+03  0.68932942554E+03  0.00000000000E+00 0. -1.
          1    1    1    2  502    0  0.32199278444E+02 -0.17041995085E+02  0.11609412342E+04  0.11615127087E+04  0.00000000000E+00 0. -1.
         22    1    3    3    0    0 -0.26454360580E+02  0.46211070109E+02  0.36613214164E+02  0.64620613164E+02  0.00000000000E+00 0. -1.
         22    1    3    3    0    0 -0.10454175499E+01 -0.65876165636E+02 -0.12578627859E+02  0.67074465899E+02  0.00000000000E+00 0. -1.
</event>
<event>
 7    1  0.6173324E-006  0.8782775E+02  0.7818608E-02  0.1491200E+00
          2   -1    0    0  502    0  0.00000000000E+00  0.00000000000E+00  0.12100255911E+04  0.12100255911E+04  0.00000000000E+00 0. -1.
          1   -1    0    0  501    0 -0.00000000000E+00 -0.00000000000E+00 -0.12461554819E+04  0.12461554819E+04  0.00000000000E+00 0. -1.
         25    2    1    2    0    0 -0.62844272382E+02 -0.26133872213E+02  0.29714853018E+03  0.32947151129E+03  0.12498738303E+03 0.  0.
          2    1    1    2  501    0  0.83186483367E+02  0.28482826761E+02 -0.12283053287E+04  0.12314484329E+04  0.00000000000E+00 0. -1.
          1    1    1    2  502    0 -0.20342210985E+02 -0.23489545486E+01  0.89502690769E+03  0.89526112874E+03  0.00000000000E+00 0. -1.
         22    1    3    3    0    0  0.32454542051E+02 -0.32481156995E+02  0.79874153718E+02  0.92131445727E+02  0.00000000000E+00 0. -1.
         22    1    3    3    0    0 -0.95298814433E+02  0.63472847824E+01  0.21727437646E+03  0.23734006557E+03  0.00000000000E+00 0. -1.
</event>
<event>
 7    1  0.6173324E-006  0.3115170E+02  0.7818608E-02  0.1607080E+00
          2   -1    0    0  502    0  0.00000000000E+00  0.00000000000E+00  0.13639630425E+03  0.13639630425E+03  0.00000000000E+00 0. -1.
          1   -1    0    0  501    0 -0.00000000000E+00 -0.00000000000E+00 -0.19857064952E+03  0.19857064952E+03  0.00000000000E+00 0. -1.
         25    2    1    2    0    0 -0.54586429194E+02 -0.16585462897E+02 -0.63774113422E+02  0.15148148048E+03  0.12499898221E+03 0.  0.
          2    1    1    2  501    0  0.28569110070E+02  0.80731850138E+01 -0.86383171413E+02  0.91342337773E+02  0.00000000000E+00 0. -1.
          1    1    1    2  502    0  0.26017319124E+02  0.85122778835E+01  0.87982939560E+02  0.92143135516E+02  0.00000000000E+00 0. -1.
         22    1    3    3    0    0  0.21827603138E+02  0.36368332529E+02 -0.83013216137E+01  0.43220502198E+02  0.00000000000E+00 0. -1.
         22    1    3    3    0    0 -0.76414032331E+02 -0.52953795427E+02 -0.55472791808E+02  0.10826097828E+03  0.00000000000E+00 0. -1.
</event>
<event>
 7    1  0.6173324E-006  0.2402849E+03  0.7818608E-02  0.1291943E+00
          2   -1    0    0  502    0  0.00000000000E+00  0.00000000000E+00  0.71507767168E+03  0.71507767168E+03  0.00000000000E+00 0. -1.
          1   -1    0    0  501    0 -0.00000000000E+00 -0.00000000000E+00 -0.48195340475E+03  0.48195340475E+03  0.00000000000E+00 0. -1.
         25    2    1    2    0    0  0.26528854076E+03 -0.35534029451E+02  0.85257439930E+02  0.30746449699E+03  0.12499963495E+03 0.  0.
          2    1    1    2  501    0 -0.31984463593E+02  0.19173961361E+02 -0.34342672497E+03  0.34544545463E+03  0.00000000000E+00 0. -1.
          1    1    1    2  502    0 -0.23330407717E+03  0.16360068090E+02  0.49129355196E+03  0.54412112480E+03  0.00000000000E+00 0. -1.
         22    1    3    3    0    0  0.84214945537E+02  0.44948003171E+02  0.43761973058E+02  0.10501233416E+03  0.00000000000E+00 0.  1.
         22    1    3    3    0    0  0.18107359522E+03 -0.80482032621E+02  0.41495466872E+02  0.20245216283E+03  0.00000000000E+00 0.  1.
</event>
<event>
 7    1  0.6173324E-006  0.2511890E+02  0.7818608E-02  0.1697655E+00
          2   -1    0    0  502    0  0.00000000000E+00  0.00000000000E+00  0.60611587048E+03  0.60611587048E+03  0.00000000000E+00 0. -1.
          1   -1    0    0  501    0 -0.00000000000E+00 -0.00000000000E+00 -0.30453873415E+03  0.30453873415E+03  0.00000000000E+00 0. -1.
         25    2    1    2    0    0 -0.31214161287E+02 -0.17182370294E+02 -0.15952469266E+03  0.20577296935E+03  0.12499931852E+03 0.  0.
          2    1    1    2  501    0  0.24757159578E+02 -0.21471114617E+01 -0.12044299083E+03  0.12297984013E+03  0.00000000000E+00 0. -1.
          1    1    1    2  502    0  0.64570017096E+01  0.19329481756E+02  0.58154481982E+03  0.58190179515E+03  0.00000000000E+00 0. -1.
         22    1    3    3    0    0 -0.61415074560E+02  0.23395171048E+02 -0.13369945787E+03  0.14897882549E+03  0.00000000000E+00 0.  1.
         22    1    3    3    0    0  0.30200913272E+02 -0.40577541342E+02 -0.25825234793E+02  0.56794143853E+02  0.00000000000E+00 0.  1.
</event>
<event>
 7    1  0.6173324E-006  0.7706750E+02  0.7818608E-02  0.1345625E+00
          2   -1    0    0  502    0  0.00000000000E+00  0.00000000000E+00  0.16911781111E+04  0.16911781111E+04  0.00000000000E+00 0. -1.
          1   -1    0    0  501    0 -0.00000000000E+00 -0.00000000000E+00 -0.41391188866E+03  0.41391188866E+03  0.00000000000E+00 0. -1.
         25    2    1    2    0    0  0.15925440552E+02 -0.55535569920E+02  0.59964945310E+03  0.61524613795E+03  0.12494208446E+03 0.  0.
          2    1    1    2  501    0 -0.75765865849E+02  0.15685135415E+02 -0.40122095075E+03  0.40861319267E+03  0.00000000000E+00 0. -1.
          1    1    1    2  502    0  0.59840425297E+02  0.39850434505E+02  0.10788377201E+04  0.10812306692E+04  0.00000000000E+00 0. -1.
         22    1    3    3    0    0  0.56920054962E+02 -0.28369158770E+02  0.50097219879E+03  0.50499291657E+03  0.00000000000E+00 0. -1.
         22    1    3    3    0    0 -0.40994614409E+02 -0.27166411150E+02  0.98677254315E+02  0.11025322138E+03  0.00000000000E+00 0. -1.
</event>
<event>
 7    1  0.6173324E-006  0.1051559E+03  0.7818608E-02  0.1270187E+00
          2   -1    0    0  502    0  0.00000000000E+00  0.00000000000E+00  0.27867724380E+03  0.27867724380E+03  0.00000000000E+00 0. -1.
          1   -1    0    0  501    0 -0.00000000000E+00 -0.00000000000E+00 -0.10832669450E+04  0.10832669450E+04  0.00000000000E+00 0. -1.
         25    2    1    2    0    0 -0.11827386247E+02  0.82938307456E+02 -0.51119660324E+03  0.53288405020E+03  0.12499917555E+03 0.  0.
          2    1    1    2  501    0 -0.90646979134E+02 -0.10478044020E+03 -0.54191954488E+03  0.55935016635E+03  0.00000000000E+00 0. -1.
          1    1    1    2  502    0  0.10247436538E+03  0.21842132749E+02  0.24852644691E+03  0.26970997226E+03  0.00000000000E+00 0. -1.
         22    1    3    3    0    0  0.41193263764E+02 -0.88723589833E+00 -0.25222020859E+03  0.25556350637E+03  0.00000000000E+00 0.  1.
         22    1    3    3    0    0 -0.53020650011E+02  0.83825543355E+02 -0.25897639465E+03  0.27732054383E+03  0.00000000000E+00 0.  1.
</event>
<event>
 7    1  0.6173324E-006  0.5794247E+02  0.7818608E-02  0.1413713E+00
          2   -1    0    0  502    0  0.00000000000E+00  0.00000000000E+00  0.11038750073E+04  0.11038750073E+04  0.00000000000E+00 0. -1.
          1   -1    0    0  501    0 -0.00000000000E+00 -0.00000000000E+00 -0.33138824204E+03  0.33138824204E+03  0.00000000000E+00 0. -1.
         25    2    1    2    0    0  0.22843114985E+02  0.89616205875E+02  0.19137906917E+03  0.24658377881E+03  0.12499895838E+03 0.  0.
          2    1    1    2  501    0  0.19211856752E+02 -0.54408832225E+02 -0.30018572210E+03  0.30568101710E+03  0.00000000000E+00 0. -1.
          1    1    1    2  502    0 -0.42054971737E+02 -0.35207373651E+02  0.88129341820E+03  0.88299845344E+03  0.00000000000E+00 0. -1.
         22    1    3    3    0    0 -0.50847207872E+02  0.43969981321E+02  0.66403376746E+02  0.94489185884E+02  0.00000000000E+00 0.  1.
         22    1    3    3    0    0  0.73690322857E+02  0.45646224554E+02  0.12497569243E+03  0.15209459292E+03  0.00000000000E+00 0.  1.
</event>
<event>
 7    1  0.6173324E-006  0.1268755E+03  0.7818608E-02  0.1300398E+00
          2   -1    0    0  502    0  0.00000000000E+00  0.00000000000E+00  0.11325865049E+04  0.11325865049E+04  0.00000000000E+00 0. -1.
          1   -1    0    0  501    0 -0.00000000000E+00 -0.00000000000E+00 -0.43534272270E+03  0.43534272270E+03  0.00000000000E+00 0. -1.
         25    2    1    2    0    0 -0.46148028830E+02 -0.57700589990E+02  0.40898131899E+02  0.15086824432E+03  0.12501828387E+03 0.  0.
          2    1    1    2  501    0  0.60727558842E+00 -0.65295809224E+02 -0.37336447852E+03  0.37903158880E+03  0.00000000000E+00 0. -1.
          1    1    1    2  502    0  0.45540753242E+02  0.12299639921E+03  0.10297101288E+04  0.10380293945E+04  0.00000000000E+00 0. -1.
         22    1    3    3    0    0 -0.83260600475E+02 -0.56190641121E+02  0.71811652618E+01  0.10070394667E+03  0.00000000000E+00 0.  1.
         22    1    3    3    0    0  0.37112571645E+02 -0.15099488686E+01  0.33716966637E+02  0.50164297652E+02  0.00000000000E+00 0.  1.
</event>
<event>
 7    1  0.6173324E-006  0.4087648E+02  0.7818608E-02  0.1546501E+00
          2   -1    0    0  502    0  0.00000000000E+00  0.00000000000E+00  0.30397598612E+03  0.30397598612E+03  0.00000000000E+00 0. -1.
          1   -1    0    0  501    0 -0.00000000000E+00 -0.00000000000E+00 -0.11056406248E+04  0.11056406248E+04  0.00000000000E+00 0. -1.
         25    2    1    2    0    0 -0.39426005876E+02 -0.10650976938E+02  0.20852115782E+02  0.13314670083E+03  0.12500151983E+03 0.  0.
          2    1    1    2  501    0  0.21248218936E+02  0.34988267857E+02 -0.10480756582E+04  0.10488747547E+04  0.00000000000E+00 0. -1.
          1    1    1    2  502    0  0.18177786940E+02 -0.24337290919E+02  0.22555890379E+03  0.22759515537E+03  0.00000000000E+00 0. -1.
         22    1    3    3    0    0 -0.61588570925E+02  0.41880128626E+02  0.10995916614E+02  0.75286170208E+02  0.00000000000E+00 0. -1.
         22    1    3    3    0    0  0.22162565050E+02 -0.52531105564E+02  0.98561991680E+01  0.57860530618E+02  0.00000000000E+00 0. -1.
</event>
<event>
 7    1  0.6173324E-006  0.6686482E+02  0.7818608E-02  0.1426480E+00
          2   -1    0    0  502    0  0.00000000000E+00  0.00000000000E+00  0.17161343006E+03  0.17161343006E+03  0.00000000000E+00 0. -1.
          1   -1    0    0  501    0 -0.00000000000E+00 -0.00000000000E+00 -0.15987830433E+04  0.15987830433E+04  0.00000000000E+00 0. -1.
         25    2    1    2    0    0  0.88557198537E+02 -0.77990841789E+01 -0.43120110684E+03  0.45766870394E+03  0.12499217934E+03 0.  0.
          2    1    1    2  501    0 -0.32494329772E+02 -0.28290430207E+02 -0.11469085423E+04  0.11477174888E+04  0.00000000000E+00 0. -1.
          1    1    1    2  502    0 -0.56062868765E+02  0.36089514386E+02  0.15094003581E+03  0.16501028063E+03  0.00000000000E+00 0. -1.
         22    1    3    3    0    0  0.83929411896E+02 -0.53206929742E+02 -0.35682579273E+03  0.37040487296E+03  0.00000000000E+00 0. -1.
         22    1    3    3    0    0  0.46277866413E+01  0.45407845563E+02 -0.74375314109E+02  0.87263830977E+02  0.00000000000E+00 0. -1.
</event>
<event>
 7    1  0.6173324E-006  0.2014600E+03  0.7818608E-02  0.1166529E+00
          2   -1    0    0  502    0  0.00000000000E+00  0.00000000000E+00  0.12766743079E+04  0.12766743079E+04  0.00000000000E+00 0. -1.
          1   -1    0    0  501    0 -0.00000000000E+00 -0.00000000000E+00 -0.13935928528E+04  0.13935928528E+04  0.00000000000E+00 0. -1.
         25    2    1    2    0    0  0.77548830581E+02  0.38535225183E+02 -0.36593183105E+02  0.15640486229E+03  0.12499854077E+03 0.  0.
          2    1    1    2  501    0  0.12829090153E+03 -0.10087185721E+03 -0.12823780426E+04  0.12927208249E+04  0.00000000000E+00 0. -1.
          1    1    1    2  502    0 -0.20583973211E+03  0.62336632025E+02  0.12020526807E+04  0.12211414735E+04  0.00000000000E+00 0. -1.
         22    1    3    3    0    0 -0.82388471530E+00  0.12335863160E+02  0.41137729676E+02  0.42955385097E+02  0.00000000000E+00 0. -1.
         22    1    3    3    0    0  0.78372715297E+02  0.26199362023E+02 -0.77730912781E+02  0.11344947719E+03  0.00000000000E+00 0. -1.
</event>
<event>
 7    1  0.6173324E-006  0.1599665E+03  0.7818608E-02  0.1225682E+00
          2   -1    0    0  502    0  0.00000000000E+00  0.00000000000E+00  0.48141602324E+03  0.48141602324E+03  0.00000000000E+00 0. -1.
          1   -1    0    0  501    0 -0.00000000000E+00 -0.00000000000E+00 -0.27311451912E+03  0.27311451912E+03  0.00000000000E+00 0. -1.
         25    2    1    2    0    0  0.15377250969E+03  0.11996589449E+03  0.88864894011E+02  0.24811245857E+03  0.12500008854E+03 0.  0.
          2    1    1    2  501    0 -0.15768049983E+03 -0.12425516805E+02 -0.14894841347E+03  0.21726289000E+03  0.00000000000E+00 0. -1.
          1    1    1    2  502    0  0.39079901450E+01 -0.10754037768E+03  0.26838502357E+03  0.28915519379E+03  0.00000000000E+00 0. -1.
         22    1    3    3    0    0  0.28479345845E+02  0.79837795857E+02  0.79507407051E+02  0.11621778936E+03  0.00000000000E+00 0. -1.
         22    1    3    3    0    0  0.12529316384E+03  0.40128098629E+02  0.93574869601E+01  0.13189466921E+03  0.00000000000E+00 0. -1.
</event>
<event>
 7    1  0.6173324E-006  0.7647915E+02  0.7818608E-02  0.1345562E+00
          2   -1    0    0  502    0  0.00000000000E+00  0.00000000000E+00  0.67184658533E+03  0.67184658533E+03  0.00000000000E+00 0. -1.
          1   -1    0    0  501    0 -0.00000000000E+00 -0.00000000000E+00 -0.96586510950E+03  0.96586510950E+03  0.00000000000E+00 0. -1.
         25    2    1    2    0    0 -0.63364174189E+02 -0.59739861409E+02  0.89907916812E+02  0.17689584121E+03  0.12499934208E+03 0.  0.
          2    1    1    2  501    0  0.70274102507E+02 -0.17776183209E+02 -0.91812310616E+03  0.92098017364E+03  0.00000000000E+00 0. -1.
          1    1    1    2  502    0 -0.69099283174E+01  0.77516044618E+02  0.53419666518E+03  0.53983567997E+03  0.00000000000E+00 0. -1.
         22    1    3    3    0    0  0.19466651624E+02 -0.52603113561E+02  0.23257421131E+01  0.56137751631E+02  0.00000000000E+00 0.  1.
         22    1    3    3    0    0 -0.82830825813E+02 -0.71367478477E+01  0.87582174699E+02  0.12075808958E+03  0.00000000000E+00 0.  1.
</event>
<event>
 7    1  0.6173324E-006  0.1378219E+03  0.7818608E-02  0.1334562E+00
          2   -1    0    0  502    0  0.00000000000E+00  0.00000000000E+00  0.24506271832E+04  0.24506271832E+04  0.00000000000E+00 0. -1.
          1   -1    0    0  501    0 -0.00000000000E+00 -0.00000000000E+00 -0.13525999176E+04  0.13525999176E+04  0.00000000000E+00 0. -1.
         25    2    1    2    0    0 -0.13652547432E+03 -0.99244463524E+02  0.13562099855E+03  0.25001420532E+03  0.12500151574E+03 0.  0.
          2    1    1    2  501    0  0.44211335402E+02 -0.17374172417E+01 -0.12929518307E+04  0.12937086601E+04  0.00000000000E+00 0. -1.
          1    1    1    2  502    0  0.92314138914E+02  0.10098188077E+03  0.22553580978E+04  0.22595042354E+04  0.00000000000E+00 0. -1.
         22    1    3    3    0    0 -0.12413697074E+03 -0.11967520166E+03  0.14404435056E+03  0.22467958591E+03  0.00000000000E+00 0.  1.
         22    1    3    3    0    0 -0.12388503577E+02  0.20430738135E+02 -0.84233520120E+01  0.25334619411E+02  0.00000000000E+00 0.  1.
</event>
<event>
 7    1  0.6173324E-006  0.7089370E+02  0.7818608E-02  0.1461587E+00
          2   -1    0    0  502    0  0.00000000000E+00  0.00000000000E+00  0.11615942981E+04  0.11615942981E+04  0.00000000000E+00 0. -1.
          1   -1    0    0  501    0 -0.00000000000E+00 -0.00000000000E+00 -0.10998336206E+03  0.10998336206E+03  0.00000000000E+00 0. -1.
         25    2    1    2    0    0  0.56220115641E+02  0.84123566372E+02  0.37386298684E+03  0.40699786437E+03  0.12504500331E+03 0.  0.
          2    1    1    2  501    0 -0.38677577944E+02 -0.58196004009E+02 -0.79980189914E+02  0.10620527622E+03  0.00000000000E+00 0. -1.
          1    1    1    2  502    0 -0.17542537697E+02 -0.25927562363E+02  0.75772813914E+03  0.75837451959E+03  0.00000000000E+00 0. -1.
         22    1    3    3    0    0  0.26260390231E+02  0.10287907552E+03  0.17251778552E+03  0.20257368683E+03  0.00000000000E+00 0.  1.
         22    1    3    3    0    0  0.29959725410E+02 -0.18755509144E+02  0.20134520132E+03  0.20442417754E+03  0.00000000000E+00 0.  1.
</event>
<event>
 7    1  0.6415803E-006  0.1501803E+03  0.7818608E-02  0.1222952E+00
          2   -1    0    0  502    0  0.00000000000E+00  0.00000000000E+00  0.88996633886E+03  0.88996633886E+03  0.00000000000E+00 0. -1.
          1   -1    0    0  501    0 -0.00000000000E+00 -0.00000000000E+00 -0.89980504283E+03  0.89980504283E+03  0.00000000000E+00 0. -1.
         25    2    1    2    0    0 -0.23740411699E+02  0.30098413500E+02 -0.26160863159E+03  0.29246196544E+03  0.12500161384E+03 0.  0.
          2    1    1    2  501    0 -0.10754840261E+03  0.48384973479E+02 -0.61039406141E+03  0.62168213322E+03  0.00000000000E+00 0. -1.
          1    1    1    2  502    0  0.13128881431E+03 -0.78483386980E+02  0.86216398903E+03  0.87562728303E+03  0.00000000000E+00 0. -1.
         22    1    3    3    0    0  0.23622723762E+02  0.45715102306E+02 -0.22444023774E+03  0.23026359672E+03  0.00000000000E+00 0. -1.
         22    1    3    3    0    0 -0.47363135461E+02 -0.15616688805E+02 -0.37168393845E+02  0.62198368716E+02  0.00000000000E+00 0. -1.
</event>
<event>
 7    1  0.6173324E-006  0.2504316E+03  0.7818608E-02  0.1210205E+00
          2   -1    0    0  502    0  0.00000000000E+00  0.00000000000E+00  0.42287589343E+04  0.42287589343E+04  0.00000000000E+00 0. -1.
          1   -1    0    0  501    0 -0.00000000000E+00 -0.00000000000E+00 -0.78595342585E+03  0.78595342585E+03  0.00000000000E+00 0. -1.
         25    2    1    2    0    0 -0.18515999724E+03  0.34040106249E+02  0.10597848997E+03  0.24959355322E+03  0.12499019186E+03 0.  0.
          2    1    1    2  501    0 -0.49176518943E+02  0.64251446489E+02 -0.70785386353E+03  0.71246310116E+03  0.00000000000E+00 0. -1.
          1    1    1    2  502    0  0.23433651619E+03 -0.98291552738E+02  0.40446808820E+04  0.40526557057E+04  0.00000000000E+00 0. -1.
         22    1    3    3    0    0 -0.12295367676E+02  0.48729836308E+02  0.39044741521E+02  0.63641691157E+02  0.00000000000E+00 0.  1.
         22    1    3    3    0    0 -0.17286462957E+03 -0.14689730060E+02  0.66933748446E+02  0.18595186207E+03  0.00000000000E+00 0.  1.
</event>
<event>
 7    1  0.6173324E-006  0.1031530E+03  0.7818608E-02  0.1333105E+00
          2   -1    0    0  502    0  0.00000000000E+00  0.00000000000E+00  0.94522945782E+03  0.94522945782E+03  0.00000000000E+00 0. -1.
          1   -1    0    0  501    0 -0.00000000000E+00 -0.00000000000E+00 -0.17743664723E+04  0.17743664723E+04  0.00000000000E+00 0. -1.
         25    2    1    2    0    0 -0.73350516702E+02  0.54176749066E+01  0.41474299067E+03  0.43937002729E+03  0.12499849226E+03 0.  0.
          2    1    1    2  501    0  0.80391897960E+02 -0.64876204646E+02 -0.17588026911E+04  0.17618338983E+04  0.00000000000E+00 0. -1.
          1    1    1    2  502    0 -0.70413812583E+01  0.59458529740E+02  0.51492268594E+03  0.51839200448E+03  0.00000000000E+00 0. -1.
         22    1    3    3    0    0  0.22682074306E+02 -0.32493467073E+02  0.83817640753E+02  0.92712991531E+02  0.00000000000E+00 0.  1.
         22    1    3    3    0    0 -0.96032591008E+02  0.37911141980E+02  0.33092534992E+03  0.34665703576E+03  0.00000000000E+00 0.  1.
</event>
<event>
 7    1  0.6173324E-006  0.1317128E+03  0.7818608E-02  0.1248163E+00
          2   -1    0    0  502    0  0.00000000000E+00  0.00000000000E+00  0.35489658656E+04  0.35489658656E+04  0.00000000000E+00 0. -1.
          1   -1    0    0  501    0 -0.00000000000E+00 -0.00000000000E+00 -0.61040240402E+03  0.61040240402E+03  0.00000000000E+00 0. -1.
         25    2    1    2    0    0 -0.45594261836E+02 -0.23020075878E+02  0.54615539531E+02  0.14565433992E+03  0.12499427576E+03 0.  0.
          2    1    1    2  501    0 -0.82874728151E+02  0.62659259458E+02 -0.55878251970E+03  0.56835931213E+03  0.00000000000E+00 0. -1.
          1    1    1    2  502    0  0.12846898999E+03 -0.39639183580E+02  0.34427304418E+04  0.34453546176E+04  0.00000000000E+00 0. -1.
         22    1    3    3    0    0 -0.34079598966E+01 -0.65657395338E+02  0.54930933263E+02  0.85673304958E+02  0.00000000000E+00 0.  1.
         22    1    3    3    0    0 -0.42186301940E+02  0.42637319460E+02 -0.31539373207E+00  0.59981034963E+02  0.00000000000E+00 0.  1.
</event>
<event>
 7    1  0.6173324E-006  0.6547665E+02  0.7818608E-02  0.1391503E+00
          2   -1    0    0  502    0  0.00000000000E+00  0.00000000000E+00  0.89106384639E+03  0.89106384639E+03  0.00000000000E+00 0. -1.
          1   -1    0    0  501    0 -0.00000000000E+00 -0.00000000000E+00 -0.43188624311E+03  0.43188624311E+03  0.00000000000E+00 0. -1.
         25    2    1    2    0    0 -0.10907292211E+02  0.35730706836E+02 -0.17422273393E+02  0.13162321810E+03  0.12500193398E+03 0.  0.
          2    1    1    2  501    0  0.56476347467E+02  0.12437950670E+02 -0.35369350843E+03  0.35838998081E+03  0.00000000000E+00 0. -1.
          1    1    1    2  502    0 -0.45569055256E+02 -0.48168657506E+02  0.83029338510E+03  0.83293689059E+03  0.00000000000E+00 0. -1.
         22    1    3    3    0    0  0.23193735078E+02 -0.15745299509E+02 -0.53290849251E+02  0.60214436951E+02  0.00000000000E+00 0.  1.
         22    1    3    3    0    0 -0.34101027289E+02  0.51476006345E+02  0.35868575857E+02  0.71408781151E+02  0.00000000000E+00 0.  1.
</event>
<event>
 7    1  0.6173324E-006  0.1196028E+03  0.7818608E-02  0.1433433E+00
          2   -1    0    0  502    0  0.00000000000E+00  0.00000000000E+00  0.51269059201E+03  0.51269059201E+03  0.00000000000E+00 0. -1.
          1   -1    0    0  501    0 -0.00000000000E+00 -0.00000000000E+00 -0.87248470781E+02  0.87248470781E+02  0.00000000000E+00 0. -1.
         25    2    1    2    0    0 -0.74938457007E+02 -0.84935795998E+02  0.20555369562E+03  0.26590811264E+03  0.12499976321E+03 0.  0.
          2    1    1    2  501    0  0.62832307213E+02  0.10431494802E+03  0.92178533474E+01  0.12212483789E+03  0.00000000000E+00 0. -1.
          1    1    1    2  502    0  0.12106149794E+02 -0.19379152024E+02  0.21067057226E+03  0.21190611226E+03  0.00000000000E+00 0. -1.
         22    1    3    3    0    0  0.79339986936E+01 -0.15737747388E+02 -0.13161882132E+02  0.21996821801E+02  0.00000000000E+00 0.  1.
         22    1    3    3    0    0 -0.82872455701E+02 -0.69198048610E+02  0.21871557775E+03  0.24391129083E+03  0.00000000000E+00 0.  1.
</event>
<event>
 7    1  0.6173324E-006  0.6921638E+02  0.7818608E-02  0.1441261E+00
          2   -1    0    0  502    0  0.00000000000E+00  0.00000000000E+00  0.24351229002E+03  0.24351229002E+03  0.00000000000E+00 0. -1.
          1   -1    0    0  501    0 -0.00000000000E+00 -0.00000000000E+00 -0.13774306000E+03  0.13774306000E+03  0.00000000000E+00 0. -1.
         25    2    1    2    0    0 -0.63526230955E+02 -0.63213966838E+02  0.77825678858E+02  0.17237243633E+03  0.12499533149E+03 0.  0.
          2    1    1    2  501    0  0.62501605689E+02  0.25996476097E+02 -0.74037189105E+02  0.10031835751E+03  0.00000000000E+00 0. -1.
          1    1    1    2  502    0  0.10246252667E+01  0.37217490741E+02  0.10198074026E+03  0.10856455618E+03  0.00000000000E+00 0. -1.
         22    1    3    3    0    0 -0.84440279899E+02  0.57208342164E+00  0.28687480529E+02  0.89182171357E+02  0.00000000000E+00 0.  1.
         22    1    3    3    0    0  0.20914048944E+02 -0.63786050259E+02  0.49138198329E+02  0.83190264971E+02  0.00000000000E+00 0.  1.
</event>
<event>
 7    1  0.6173324E-006  0.1409783E+03  0.7818608E-02  0.1358924E+00
          2   -1    0    0  502    0  0.00000000000E+00  0.00000000000E+00  0.29491411357E+02  0.29491411357E+02  0.00000000000E+00 0. -1.
          1   -1    0    0  501    0 -0.00000000000E+00 -0.00000000000E+00 -0.19968643863E+04  0.19968643863E+04  0.00000000000E+00 0. -1.
         25    2    1    2    0    0  0.77418157024E+02 -0.10354071394E+03 -0.13545679051E+04  0.13664528807E+04  0.12500006109E+03 0.  0.
          2    1    1    2  501    0 -0.20820897688E+02 -0.28258287618E+02 -0.41000014102E+03  0.41149988607E+03  0.00000000000E+00 0. -1.
          1    1    1    2  502    0 -0.56597259337E+02  0.13179900156E+03 -0.20280492880E+03  0.24840303083E+03  0.00000000000E+00 0. -1.
         22    1    3    3    0    0  0.20984589392E+01  0.17761133219E+02 -0.47780928336E+03  0.47814388279E+03  0.00000000000E+00 0. -1.
         22    1    3    3    0    0  0.75319698085E+02 -0.12130184716E+03 -0.87675862171E+03  0.88830899792E+03  0.00000000000E+00 0. -1.
</event>
<event>
 7    1  0.6173324E-006  0.8647738E+02  0.7818608E-02  0.1327500E+00
          2   -1    0    0  502    0  0.00000000000E+00  0.00000000000E+00  0.68956219270E+03  0.68956219270E+03  0.00000000000E+00 0. -1.
          1   -1    0    0  501    0 -0.00000000000E+00 -0.00000000000E+00 -0.41226394373E+03  0.41226394373E+03  0.00000000000E+00 0. -1.
         25    2    1    2    0    0  0.13907349265E+03 -0.89917481095E+01  0.13672661351E+03  0.23182158163E+03  0.12499916391E+03 0.  0.
          2    1    1    2  501    0 -0.62234465709E+02  0.41904056814E+02 -0.35733668794E+03  0.36512817920E+03  0.00000000000E+00 0. -1.
          1    1    1    2  502    0 -0.76839026936E+02 -0.32912308704E+02  0.49790832340E+03  0.50487637560E+03  0.00000000000E+00 0. -1.
         22    1    3    3    0    0  0.14594971146E+03 -0.25042591844E+02  0.14931629922E+03  0.21029457171E+03  0.00000000000E+00 0.  1.
         22    1    3    3    0    0 -0.68762188136E+01  0.16050843734E+02 -0.12589685706E+02  0.21527009916E+02  0.00000000000E+00 0.  1.
</event>
<event>
 7    1  0.6173324E-006  0.7778115E+02  0.7818608E-02  0.1506068E+00
          2   -1    0    0  502    0  0.00000000000E+00  0.00000000000E+00  0.13086554997E+04  0.13086554997E+04  0.00000000000E+00 0. -1.
          1   -1    0    0  501    0 -0.00000000000E+00 -0.00000000000E+00 -0.73464502456E+03  0.73464502456E+03  0.00000000000E+00 0. -1.
         25    2    1    2    0    0 -0.83513841990E+02 -0.48523036503E+02 -0.35938849068E+02  0.16200544197E+03  0.12500046192E+03 0.  0.
          2    1    1    2  501    0  0.20639105502E+02  0.31146577278E+01 -0.63429378424E+03  0.63463712348E+03  0.00000000000E+00 0. -1.
          1    1    1    2  502    0  0.62874736488E+02  0.45408378775E+02  0.12442431084E+04  0.12466579588E+04  0.00000000000E+00 0. -1.
         22    1    3    3    0    0 -0.10194044470E+03 -0.72341837786E+01  0.31380530762E+01  0.10224497571E+03  0.00000000000E+00 0. -1.
         22    1    3    3    0    0  0.18426602712E+02 -0.41288852725E+02 -0.39076902144E+02  0.59760466263E+02  0.00000000000E+00 0. -1.
</event>
<event>
 7    1  0.6173324E-006  0.1422728E+03  0.7818608E-02  0.1255900E+00
          2   -1    0    0  502    0  0.00000000000E+00  0.00000000000E+00  0.14996582950E+04  0.14996582950E+04  0.00000000000E+00 0. -1.
          1   -1    0    0  501    0 -0.00000000000E+00 -0.00000000000E+00 -0.51711874318E+03  0.51711874318E+03  0.00000000000E+00 0. -1.
         25    2    1    2    0    0  0.85365336294E+02  0.21052525751E+02 -0.84311510265E+02  0.17453725818E+03  0.12499749698E+03 0.  0.
          2    1    1    2  501    0 -0.16427615927E+03  0.20222212382E+02 -0.36858566514E+03  0.40404329833E+03  0.00000000000E+00 0. -1.
          1    1    1    2  502    0  0.78910822978E+02 -0.41274738133E+02  0.14354367272E+04  0.14381964816E+04  0.00000000000E+00 0. -1.
         22    1    3    3    0    0  0.25171221668E+02 -0.48234942509E+02 -0.76355247377E+01  0.54940889301E+02  0.00000000000E+00 0.  1.
         22    1    3    3    0    0  0.60194114625E+02  0.69287468260E+02 -0.76675985527E+02  0.11959636888E+03  0.00000000000E+00 0.  1.
</event>
<event>
 7    1  0.6173324E-006  0.1765910E+03  0.7818608E-02  0.1281550E+00
          2   -1    0    0  502    0  0.00000000000E+00  0.00000000000E+00  0.21311557530E+04  0.21311557530E+04  0.00000000000E+00 0. -1.
          1   -1    0    0  501    0 -0.00000000000E+00 -0.00000000000E+00 -0.98692885317E+03  0.98692885317E+03  0.00000000000E+00 0. -1.
         25    2    1    2    0    0 -0.80086819992E+02 -0.19148468333E+03  0.11795939548E+04  0.12042204000E+04  0.12499836306E+03 0.  0.
          2    1    1    2  501    0  0.10531893292E+03  0.14153939952E+03 -0.96578411773E+03  0.98176598093E+03  0.00000000000E+00 0. -1.
          1    1    1    2  502    0 -0.25232112932E+02  0.49945283809E+02  0.93041706277E+03  0.93209822529E+03  0.00000000000E+00 0. -1.
         22    1    3    3    0    0 -0.98033211082E+02 -0.12025066858E+03  0.58961321668E+03  0.60968391733E+03  0.00000000000E+00 0.  1.
         22    1    3    3    0    0  0.17946391090E+02 -0.71234014750E+02  0.58998073815E+03  0.59453648265E+03  0.00000000000E+00 0.  1.
</event>
<event>
 7    1  0.6173324E-006  0.1739341E+03  0.7818608E-02  0.1225109E+00
          2   -1    0    0  502    0  0.00000000000E+00  0.00000000000E+00  0.13919311474E+04  0.13919311474E+04  0.00000000000E+00 0. -1.
          1   -1    0    0  501    0 -0.00000000000E+00 -0.00000000000E+00 -0.17583443745E+04  0.17583443745E+04  0.00000000000E+00 0. -1.
         25    2    1    2    0    0 -0.18062344340E+03  0.12522555262E+02  0.14182057108E+03  0.26176272967E+03  0.12500003828E+03 0.  0.
          2    1    1    2  501    0  0.38866606828E+02  0.91660778170E+02 -0.16903994179E+04  0.16933288232E+04  0.00000000000E+00 0. -1.
          1    1    1    2  502    0  0.14175683657E+03 -0.10418333343E+03  0.11821656197E+04  0.11951839691E+04  0.00000000000E+00 0. -1.
         22    1    3    3    0    0 -0.66364022642E+02  0.28275637325E+02 -0.81198078047E+01  0.72592192735E+02  0.00000000000E+00 0. -1.
         22    1    3    3    0    0 -0.11425942076E+03 -0.15753082063E+02  0.14994037888E+03  0.18917053694E+03  0.00000000000E+00 0. -1.
</event>
<event>
 7    1  0.6173324E-006  0.7784861E+02  0.7818608E-02  0.1416559E+00
          2   -1    0    0  502    0  0.00000000000E+00  0.00000000000E+00  0.89452747759E+02  0.89452747759E+02  0.00000000000E+00 0. -1.
          1   -1    0    0  501    0 -0.00000000000E+00 -0.00000000000E+00 -0.66162559472E+03  0.66162559472E+03  0.00000000000E+00 0. -1.
         25    2    1    2    0    0 -0.80866415488E+02 -0.29872596209E+02 -0.30245746413E+03  0.33843102765E+03  0.12499317467E+03 0.  0.
          2    1    1    2  501    0  0.28587048660E+02 -0.27881492580E+02 -0.31832755462E+03  0.32082242598E+03  0.00000000000E+00 0. -1.
          1    1    1    2  502    0  0.52279366828E+02  0.57754088789E+02  0.48612171780E+02  0.91824888854E+02  0.00000000000E+00 0. -1.
         22    1    3    3    0    0 -0.88277312505E+02  0.24484358989E+02 -0.22981168584E+03  0.24739801674E+03  0.00000000000E+00 0.  1.
         22    1    3    3    0    0  0.74108970174E+01 -0.54356955198E+02 -0.72645778284E+02  0.91033010911E+02  0.00000000000E+00 0.  1.
</event>
<event>
 7    1  0.6173324E-006  0.4019482E+02  0.7818608E-02  0.1564269E+00
          2   -1    0    0  502    0  0.00000000000E+00  0.00000000000E+00  0.35280655241E+03  0.35280655241E+03  0.00000000000E+00 0. -1.
          1   -1    0    0  501    0 -0.00000000000E+00 -0.00000000000E+00 -0.21842071349E+04  0.21842071349E+04  0.00000000000E+00 0. -1.
         25    2    1    2    0    0 -0.27681120877E+02  0.13557920868E+02  0.17237391730E+03  0.21515740134E+03  0.12501951173E+03 0.  0.
          2    1    1    2  501    0  0.38427919897E+02  0.11844585258E+02 -0.21614310834E+04  0.21618051086E+04  0.00000000000E+00 0. -1.
          1    1    1    2  502    0 -0.10746799020E+02 -0.25402506126E+02  0.15765658364E+03  0.16005117736E+03  0.00000000000E+00 0. -1.
         22    1    3    3    0    0  0.29701339131E+02  0.47345905515E+02  0.46299723359E+02  0.72577329093E+02  0.00000000000E+00 0. -1.
         22    1    3    3    0    0 -0.57382460008E+02 -0.33787984647E+02  0.12607419394E+03  0.14258007225E+03  0.00000000000E+00 0. -1.
</event>
<event>
 7    1  0.6173324E-006  0.6257096E+02  0.7818608E-02  0.1491395E+00
          2   -1    0    0  502    0  0.00000000000E+00  0.00000000000E+00  0.57601086977E+03  0.57601086977E+03  0.00000000000E+00 0. -1.
          1   -1    0    0  501    0 -0.00000000000E+00 -0.00000000000E+00 -0.76474640857E+02  0.76474640857E+02  0.00000000000E+00 0. -1.
         25    2    1    2    0    0  0.29341683199E+02  0.24567166300E+02  0.21317499344E+02  0.13245081931E+03  0.12499721487E+03 0.  0.
          2    1    1    2  501    0  0.63364762685E+01  0.27996013622E+02 -0.79087887329E+01  0.29773757731E+02  0.00000000000E+00 0. -1.
          1    1    1    2  502    0 -0.35678159468E+02 -0.52563179922E+02  0.48612751831E+03  0.49026093359E+03  0.00000000000E+00 0. -1.
         22    1    3    3    0    0  0.61355556118E+02  0.56997311896E+02  0.44618115591E+01  0.83863613041E+02  0.00000000000E+00 0.  1.
         22    1    3    3    0    0 -0.32013872918E+02 -0.32430145596E+02  0.16855687785E+02  0.48587206272E+02  0.00000000000E+00 0.  1.
</event>
<event>
 7    1  0.6173324E-006  0.5235998E+02  0.7818608E-02  0.1504845E+00
          2   -1    0    0  502    0  0.00000000000E+00  0.00000000000E+00  0.58275749749E+03  0.58275749749E+03  0.00000000000E+00 0. -1.
          1   -1    0    0  501    0 -0.00000000000E+00 -0.00000000000E+00 -0.37731505715E+03  0.37731505715E+03  0.00000000000E+00 0. -1.
         25    2    1    2    0    0 -0.20862793961E+02 -0.21746070921E+02  0.46967477933E+02  0.13688714917E+03  0.12499599934E+03 0.  0.
          2    1    1    2  501    0 -0.30375555858E+02  0.74105189803E+01 -0.33017260741E+03  0.33164972617E+03  0.00000000000E+00 0. -1.
          1    1    1    2  502    0  0.51238349819E+02  0.14335551940E+02  0.48864756981E+03  0.49153567930E+03  0.00000000000E+00 0. -1.
         22    1    3    3    0    0  0.42264214935E+02  0.22841168312E+02  0.33169205650E+02  0.58379611487E+02  0.00000000000E+00 0. -1.
         22    1    3    3    0    0 -0.63127008895E+02 -0.44587239233E+02  0.13798272283E+02  0.78507537679E+02  0.00000000000E+00 0. -1.
</event>
<event>
 7    1  0.6173324E-006  0.8567454E+02  0.7818608E-02  0.1419349E+00
          2   -1    0    0  502    0  0.00000000000E+00  0.00000000000E+00  0.84099559129E+03  0.84099559129E+03  0.00000000000E+00 0. -1.
          1   -1    0    0  501    0 -0.00000000000E+00 -0.00000000000E+00 -0.75274112516E+03  0.75274112516E+03  0.00000000000E+00 0. -1.
         25    2    1    2    0    0 -0.60748939455E+02 -0.35631655348E+02 -0.28691349474E+02  0.14631292584E+03  0.12499692087E+03 0.  0.
          2    1    1    2  501    0 -0.24879859599E+02  0.25340048270E+02 -0.66238452109E+03  0.66333579675E+03  0.00000000000E+00 0. -1.
          1    1    1    2  502    0  0.85628799054E+02  0.10291607079E+02  0.77933033670E+03  0.78408799385E+03  0.00000000000E+00 0. -1.
         22    1    3    3    0    0 -0.82745624408E+02 -0.83725595428E+01 -0.57375798414E+02  0.10103920207E+03  0.00000000000E+00 0.  1.
         22    1    3    3    0    0  0.21996684953E+02 -0.27259095806E+02  0.28684448940E+02  0.45273723771E+02  0.00000000000E+00 0.  1.
</event>
<event>
 7    1  0.6173324E-006  0.5266986E+02  0.7818608E-02  0.1479817E+00
          2   -1    0    0  502    0  0.00000000000E+00  0.00000000000E+00  0.31003562336E+04  0.31003562336E+04  0.00000000000E+00 0. -1.
          1   -1    0    0  501    0 -0.00000000000E+00 -0.00000000000E+00 -0.17224103158E+02  0.17224103158E+02  0.00000000000E+00 0. -1.
         25    2    1    2    0    0  0.38045530781E+02 -0.43391556037E+02  0.31817523188E+03  0.34668467360E+03  0.12499798071E+03 0.  0.
          2    1    1    2  501    0 -0.35776616961E+02 -0.93676231904E+01  0.12367972761E+03  0.12909064144E+03  0.00000000000E+00 0. -1.
          1    1    1    2  502    0 -0.22689138203E+01  0.52759179228E+02  0.26412771710E+04  0.26418050218E+04  0.00000000000E+00 0. -1.
         22    1    3    3    0    0 -0.17082094070E+02 -0.53083513164E+02  0.57621684509E+02  0.80186755972E+02  0.00000000000E+00 0.  1.
         22    1    3    3    0    0  0.55127624852E+02  0.96919571266E+01  0.26055354737E+03  0.26649791763E+03  0.00000000000E+00 0.  1.
</event>
<event>
 7    1  0.6173324E-006  0.4573141E+02  0.7818608E-02  0.1588315E+00
          2   -1    0    0  502    0  0.00000000000E+00  0.00000000000E+00  0.89467905345E+03  0.89467905345E+03  0.00000000000E+00 0. -1.
          1   -1    0    0  501    0 -0.00000000000E+00 -0.00000000000E+00 -0.10031685887E+04  0.10031685887E+04  0.00000000000E+00 0. -1.
         25    2    1    2    0    0 -0.28810760634E+02 -0.23653039369E+00  0.72984785734E+00  0.12833704810E+03  0.12505898353E+03 0.  0.
          2    1    1    2  501    0 -0.14734070781E+02  0.14798758392E+02 -0.93861386798E+03  0.93884614781E+03  0.00000000000E+00 0. -1.
          1    1    1    2  502    0  0.43544831416E+02 -0.14562227999E+02  0.82939448483E+03  0.83066444627E+03  0.00000000000E+00 0. -1.
         22    1    3    3    0    0 -0.17933445858E+02  0.14604561388E+02  0.61044084333E+02  0.65278495124E+02  0.00000000000E+00 0. -1.
         22    1    3    3    0    0 -0.10877314776E+02 -0.14841091782E+02 -0.60314236475E+02  0.63058552977E+02  0.00000000000E+00 0. -1.
</event>
<event>
 7    1  0.6173324E-006  0.7014594E+02  0.7818608E-02  0.1369465E+00
          2   -1    0    0  502    0  0.00000000000E+00  0.00000000000E+00  0.47768985455E+03  0.47768985455E+03  0.00000000000E+00 0. -1.
          1   -1    0    0  501    0 -0.00000000000E+00 -0.00000000000E+00 -0.40823466010E+03  0.40823466010E+03  0.00000000000E+00 0. -1.
         25    2    1    2    0    0  0.41951698931E+02  0.77715148716E+02 -0.13121976646E+03  0.20160124578E+03  0.12499938322E+03 0.  0.
          2    1    1    2  501    0 -0.68410403797E+02 -0.18781531521E+02 -0.23418332460E+03  0.24469278451E+03  0.00000000000E+00 0. -1.
          1    1    1    2  502    0  0.26458704866E+02 -0.58933617196E+02  0.43485828550E+03  0.43963048435E+03  0.00000000000E+00 0. -1.
         22    1    3    3    0    0  0.30719861996E+02  0.62515361805E+02 -0.15576082051E+03  0.17062623945E+03  0.00000000000E+00 0. -1.
         22    1    3    3    0    0  0.11231836935E+02  0.15199786912E+02  0.24541054052E+02  0.30975006329E+02  0.00000000000E+00 0. -1.
</event>
<event>
 7    1  0.6173324E-006  0.4472675E+02  0.7818608E-02  0.1492548E+00
          2   -1    0    0  502    0  0.00000000000E+00  0.00000000000E+00  0.12104414887E+04  0.12104414887E+04  0.00000000000E+00 0. -1.
          1   -1    0    0  501    0 -0.00000000000E+00 -0.00000000000E+00 -0.73431680201E+02  0.73431680201E+02  0.00000000000E+00 0. -1.
         25    2    1    2    0    0  0.60564058917E+02  0.21580735991E+02  0.18183579800E+03  0.22983379871E+03  0.12500233676E+03 0.  0.
          2    1    1    2  501    0 -0.18181821632E+02 -0.35444342309E+02 -0.40826543645E+02  0.57041096637E+02  0.00000000000E+00 0. -1.
          1    1    1    2  502    0 -0.42382237285E+02  0.13863606318E+02  0.99600055417E+03  0.99699827359E+03  0.00000000000E+00 0. -1.
         22    1    3    3    0    0  0.87165205550E+02  0.45075004477E+02  0.97489260536E+02  0.13832456401E+03  0.00000000000E+00 0.  1.
         22    1    3    3    0    0 -0.26601146633E+02 -0.23494268486E+02  0.84346537467E+02  0.91509234706E+02  0.00000000000E+00 0.  1.
</event>
<event>
 7    1  0.6173324E-006  0.1022827E+03  0.7818608E-02  0.1469880E+00
          2   -1    0    0  502    0  0.00000000000E+00  0.00000000000E+00  0.77970784108E+03  0.77970784108E+03  0.00000000000E+00 0. -1.
          1   -1    0    0  501    0 -0.00000000000E+00 -0.00000000000E+00 -0.14596954302E+03  0.14596954302E+03  0.00000000000E+00 0. -1.
         25    2    1    2    0    0  0.88446305001E+02 -0.42907624991E+02  0.34158233783E+03  0.37678722534E+03  0.12500522592E+03 0.  0.
          2    1    1    2  501    0 -0.81633002702E+02  0.62177624378E+02 -0.10755658678E+03  0.14865538491E+03  0.00000000000E+00 0. -1.
          1    1    1    2  502    0 -0.68133022992E+01 -0.19269999387E+02  0.39971254700E+03  0.40023477385E+03  0.00000000000E+00 0. -1.
         22    1    3    3    0    0  0.61619507889E+02  0.37117998459E+02  0.19203158776E+03  0.20506301534E+03  0.00000000000E+00 0. -1.
         22    1    3    3    0    0  0.26826797112E+02 -0.80025623450E+02  0.14955075008E+03  0.17172421000E+03  0.00000000000E+00 0. -1.
</event>
<event>
 7    1  0.6173324E-006  0.2251117E+03  0.7818608E-02  0.1187876E+00
          2   -1    0    0  502    0  0.00000000000E+00  0.00000000000E+00  0.21430579908E+04  0.21430579908E+04  0.00000000000E+00 0. -1.
          1   -1    0    0  501    0 -0.00000000000E+00 -0.00000000000E+00 -0.40682186864E+03  0.40682186864E+03  0.00000000000E+00 0. -1.
         25    2    1    2    0    0 -0.13724621627E+03  0.49878340338E+02  0.11945499637E+04  0.12099169453E+04  0.12500010435E+03 0.  0.
          2    1    1    2  501    0  0.22656709387E+03  0.22174462108E+02 -0.36275487650E+03  0.42827030626E+03  0.00000000000E+00 0. -1.
          1    1    1    2  502    0 -0.89320877603E+02 -0.72052802446E+02  0.90444103493E+03  0.91169260783E+03  0.00000000000E+00 0. -1.
         22    1    3    3    0    0 -0.14261401372E+03  0.27219714984E+02  0.11544688722E+04  0.11635626526E+04  0.00000000000E+00 0. -1.
         22    1    3    3    0    0  0.53677974513E+01  0.22658625354E+02  0.40081091526E+02  0.46354292685E+02  0.00000000000E+00 0. -1.
</event>
<event>
 7    1  0.6173324E-006  0.2250200E+03  0.7818608E-02  0.1201908E+00
          2   -1    0    0  502    0  0.00000000000E+00  0.00000000000E+00  0.30951124558E+03  0.30951124558E+03  0.00000000000E+00 0. -1.
          1   -1    0    0  501    0 -0.00000000000E+00 -0.00000000000E+00 -0.53735243718E+03  0.53735243718E+03  0.00000000000E+00 0. -1.
         25    2    1    2    0    0  0.18501054832E+03  0.10828448653E+03 -0.61278156586E+02  0.25560605053E+03  0.12500003032E+03 0.  0.
          2    1    1    2  501    0 -0.49930652418E+02  0.84846108220E+02 -0.30323426855E+03  0.31881492085E+03  0.00000000000E+00 0. -1.
          1    1    1    2  502    0 -0.13507989590E+03 -0.19313059475E+03  0.13667123355E+03  0.27244271138E+03  0.00000000000E+00 0. -1.
         22    1    3    3    0    0  0.17538547191E+03  0.12316765869E+03 -0.25689295799E+02  0.21584780709E+03  0.00000000000E+00 0.  1.
         22    1    3    3    0    0  0.96250764049E+01 -0.14883172160E+02 -0.35588860787E+02  0.39758243441E+02  0.00000000000E+00 0.  1.
</event>
<event>
 7    1  0.6173324E-006  0.5766763E+02  0.7818608E-02  0.1424414E+00
          2   -1    0    0  502    0  0.00000000000E+00  0.00000000000E+00  0.41829643171E+03  0.41829643171E+03  0.00000000000E+00 0. -1.
          1   -1    0    0  501    0 -0.00000000000E+00 -0.00000000000E+00 -0.20670310812E+04  0.20670310812E+04  0.00000000000E+00 0. -1.
         25    2    1    2    0    0  0.42995170416E+02  0.92488519274E+02  0.78978629150E+02  0.17962297905E+03  0.12499631940E+03 0.  0.
          2    1    1    2  501    0 -0.65537901782E+01 -0.57168788538E+02 -0.20140668675E+04  0.20148887238E+04  0.00000000000E+00 0. -1.
          1    1    1    2  502    0 -0.36441380238E+02 -0.35319730736E+02  0.28635358882E+03  0.29081581010E+03  0.00000000000E+00 0. -1.
         22    1    3    3    0    0 -0.72446074109E+00  0.94458948898E+02  0.61565499025E+01  0.94662141202E+02  0.00000000000E+00 0. -1.
         22    1    3    3    0    0  0.43719631157E+02 -0.19704296236E+01  0.72822079248E+02  0.84960837845E+02  0.00000000000E+00 0. -1.
</event>
<event>
 7    1  0.6173324E-006  0.8460389E+02  0.7818608E-02  0.1356117E+00
          2   -1    0    0  502    0  0.00000000000E+00  0.00000000000E+00  0.44165464106E+03  0.44165464106E+03  0.00000000000E+00 0. -1.
          1   -1    0    0  501    0 -0.00000000000E+00 -0.00000000000E+00 -0.17133973914E+04  0.17133973914E+04  0.00000000000E+00 0. -1.
         25    2    1    2    0    0  0.78119216394E+02 -0.10151031179E+03 -0.46211156811E+03  0.49555910732E+03  0.12499908836E+03 0.  0.
          2    1    1    2  501    0 -0.49145135547E+01  0.59688298987E+02 -0.12296441942E+04  0.12311018194E+04  0.00000000000E+00 0. -1.
          1    1    1    2  502    0 -0.73204702840E+02  0.41822012802E+02  0.42001301195E+03  0.42839110574E+03  0.00000000000E+00 0. -1.
         22    1    3    3    0    0 -0.29297390736E+02 -0.42022167804E+02 -0.19431463985E+03  0.20095367364E+03  0.00000000000E+00 0.  1.
         22    1    3    3    0    0  0.10741660713E+03 -0.59488143985E+02 -0.26779692826E+03  0.29460543367E+03  0.00000000000E+00 0.  1.
</event>
<event>
 7    1  0.6173324E-006  0.8988650E+02  0.7818608E-02  0.1398145E+00
          2   -1    0    0  502    0  0.00000000000E+00  0.00000000000E+00  0.75697102516E+03  0.75697102516E+03  0.00000000000E+00 0. -1.
          1   -1    0    0  501    0 -0.00000000000E+00 -0.00000000000E+00 -0.43311217282E+03  0.43311217282E+03  0.00000000000E+00 0. -1.
         25    2    1    2    0    0  0.46953643181E+02 -0.85796529771E+02 -0.87092545076E+01  0.15895106183E+03  0.12499559918E+03 0.  0.
          2    1    1    2  501    0  0.24649059814E+02  0.31440323653E+02 -0.34516172056E+03  0.34746608963E+03  0.00000000000E+00 0. -1.
          1    1    1    2  502    0 -0.71602702995E+02  0.54356206118E+02  0.67772982740E+03  0.68366604652E+03  0.00000000000E+00 0. -1.
         22    1    3    3    0    0  0.63118157284E+02 -0.73501241047E+02  0.41039265193E+02  0.10521670733E+03  0.00000000000E+00 0. -1.
         22    1    3    3    0    0 -0.16164514103E+02 -0.12295288724E+02 -0.49748519701E+02  0.53734354499E+02  0.00000000000E+00 0. -1.
</event>
<event>
 7    1  0.6173324E-006  0.1602070E+03  0.7818608E-02  0.1264350E+00
          2   -1    0    0  502    0  0.00000000000E+00  0.00000000000E+00  0.31231198865E+04  0.31231198865E+04  0.00000000000E+00 0. -1.
          1   -1    0    0  501    0 -0.00000000000E+00 -0.00000000000E+00 -0.16837036950E+04  0.16837036950E+04  0.00000000000E+00 0. -1.
         25    2    1    2    0    0  0.75804856219E+01 -0.10553601058E+03  0.40648117211E+03  0.43823263442E+03  0.12500234119E+03 0.  0.
          2    1    1    2  501    0 -0.39044511031E+02 -0.61424938257E+02 -0.16643598135E+04  0.16659505051E+04  0.00000000000E+00 0. -1.
          1    1    1    2  502    0  0.31464025409E+02  0.16696094884E+03  0.26972948328E+04  0.27026404419E+04  0.00000000000E+00 0. -1.
         22    1    3    3    0    0  0.46027814546E+02 -0.48394030628E+02  0.78355852656E+02  0.10295718313E+03  0.00000000000E+00 0. -1.
         22    1    3    3    0    0 -0.38447328924E+02 -0.57141979953E+02  0.32812531945E+03  0.33527545129E+03  0.00000000000E+00 0. -1.
</event>
<event>
 7    1  0.6173324E-006  0.5410196E+02  0.7818608E-02  0.1517443E+00
          2   -1    0    0  502    0  0.00000000000E+00  0.00000000000E+00  0.54733516505E+03  0.54733516505E+03  0.00000000000E+00 0. -1.
          1   -1    0    0  501    0 -0.00000000000E+00 -0.00000000000E+00 -0.89557619552E+02  0.89557619552E+02  0.00000000000E+00 0. -1.
         25    2    1    2    0    0  0.30358627229E+02  0.29156425746E+01  0.80731936233E+02  0.15189641182E+03  0.12499890871E+03 0.  0.
          2    1    1    2  501    0  0.20653726620E+02  0.18588352786E+02 -0.48483364996E+02  0.55881481404E+02  0.00000000000E+00 0. -1.
          1    1    1    2  502    0 -0.51012353849E+02 -0.21503995360E+02  0.42552897427E+03  0.42911489138E+03  0.00000000000E+00 0. -1.
         22    1    3    3    0    0  0.84837252757E+01  0.97967958625E+01 -0.33220849233E+02  0.35659159097E+02  0.00000000000E+00 0.  1.
         22    1    3    3    0    0  0.21874901953E+02 -0.68811532880E+01  0.11395278547E+03  0.11623725273E+03  0.00000000000E+00 0.  1.
</event>
<event>
 7    1  0.6173324E-006  0.7560474E+02  0.7818608E-02  0.1383828E+00
          2   -1    0    0  502    0  0.00000000000E+00  0.00000000000E+00  0.93649729848E+03  0.93649729848E+03  0.00000000000E+00 0. -1.
          1   -1    0    0  501    0 -0.00000000000E+00 -0.00000000000E+00 -0.27744448896E+03  0.27744448896E+03  0.00000000000E+00 0. -1.
         25    2    1    2    0    0  0.11282339713E+03  0.31272345155E+02 -0.93642206879E+02  0.19519559993E+03  0.12500152325E+03 0.  0.
          2    1    1    2  501    0 -0.59630349480E+02 -0.34310954175E+02 -0.12326675913E+03  0.14116555551E+03  0.00000000000E+00 0. -1.
          1    1    1    2  502    0 -0.53193047647E+02  0.30386090207E+01  0.87596177553E+03  0.87758063200E+03  0.00000000000E+00 0. -1.
         22    1    3    3    0    0  0.86183103947E+02  0.78489651461E+02 -0.56984711298E+02  0.12975133955E+03  0.00000000000E+00 0.  1.
         22    1    3    3    0    0  0.26640293180E+02 -0.47217306306E+02 -0.36657495580E+02  0.65444260388E+02  0.00000000000E+00 0.  1.
</event>
<event>
 7    1  0.6173324E-006  0.6707222E+02  0.7818608E-02  0.1477147E+00
          2   -1    0    0  502    0  0.00000000000E+00  0.00000000000E+00  0.53106285677E+02  0.53106285677E+02  0.00000000000E+00 0. -1.
          1   -1    0    0  501    0 -0.00000000000E+00 -0.00000000000E+00 -0.98024884234E+03  0.98024884234E+03  0.00000000000E+00 0. -1.
         25    2    1    2    0    0  0.36114270100E+02  0.37666146372E+02 -0.59030143202E+03  0.60564392127E+03  0.12500319848E+03 0.  0.
          2    1    1    2  501    0 -0.65690113566E+02 -0.36590532558E+02 -0.37327412126E+03  0.38077240932E+03  0.00000000000E+00 0. -1.
          1    1    1    2  502    0  0.29575843466E+02 -0.10756138138E+01  0.36432996622E+02  0.46938797435E+02  0.00000000000E+00 0. -1.
         22    1    3    3    0    0 -0.46977703420E+01  0.63451719024E+02 -0.15322991224E+03  0.16591442282E+03  0.00000000000E+00 0. -1.
         22    1    3    3    0    0  0.40812040442E+02 -0.25785572652E+02 -0.43707151978E+03  0.43972949845E+03  0.00000000000E+00 0. -1.
</event>
<event>
 7    1  0.6173324E-006  0.6619658E+02  0.7818608E-02  0.1466572E+00
          2   -1    0    0  502    0  0.00000000000E+00  0.00000000000E+00  0.13757885675E+03  0.13757885675E+03  0.00000000000E+00 0. -1.
          1   -1    0    0  501    0 -0.00000000000E+00 -0.00000000000E+00 -0.15310343107E+04  0.15310343107E+04  0.00000000000E+00 0. -1.
         25    2    1    2    0    0  0.16227491493E+02  0.50213255690E+02 -0.18781105692E+03  0.23169315712E+03  0.12499609365E+03 0.  0.
          2    1    1    2  501    0  0.32128943981E+02 -0.36905478268E+01 -0.13113315229E+04  0.13117302513E+04  0.00000000000E+00 0. -1.
          1    1    1    2  502    0 -0.48356435474E+02 -0.46522707863E+02  0.10568712586E+03  0.12518975905E+03  0.00000000000E+00 0. -1.
         22    1    3    3    0    0 -0.51475180663E+02  0.73239011816E+01 -0.10065045104E+03  0.11328657046E+03  0.00000000000E+00 0.  1.
         22    1    3    3    0    0  0.67702672155E+02  0.42889354509E+02 -0.87160605885E+02  0.11840658666E+03  0.00000000000E+00 0.  1.
</event>
<event>
 7    1  0.6173324E-006  0.1164407E+03  0.7818608E-02  0.1399945E+00
          2   -1    0    0  502    0  0.00000000000E+00  0.00000000000E+00  0.19102446080E+03  0.19102446080E+03  0.00000000000E+00 0. -1.
          1   -1    0    0  501    0 -0.00000000000E+00 -0.00000000000E+00 -0.11789133920E+04  0.11789133920E+04  0.00000000000E+00 0. -1.
         25    2    1    2    0    0 -0.80377496085E+02  0.32170063572E+02  0.14013876198E+03  0.20678325822E+03  0.12499995360E+03 0.  0.
          2    1    1    2  501    0  0.10813544299E+03 -0.44573815920E+02 -0.11266661025E+04  0.11327208860E+04  0.00000000000E+00 0. -1.
          1    1    1    2  502    0 -0.27757946904E+02  0.12403752348E+02 -0.13615906925E+01  0.30433708579E+02  0.00000000000E+00 0. -1.
         22    1    3    3    0    0 -0.32799487710E+02  0.63616675972E+02  0.13064615535E+03  0.14896746545E+03  0.00000000000E+00 0. -1.
         22    1    3    3    0    0 -0.47578008375E+02 -0.31446612400E+02  0.94926066357E+01  0.57815792765E+02  0.00000000000E+00 0. -1.
</event>
<event>
 7    1  0.6173324E-006  0.1376951E+03  0.7818608E-02  0.1291752E+00
          2   -1    0    0  502    0  0.00000000000E+00  0.00000000000E+00  0.55549033737E+03  0.55549033737E+03  0.00000000000E+00 0. -1.
          1   -1    0    0  501    0 -0.00000000000E+00 -0.00000000000E+00 -0.13191673754E+04  0.13191673754E+04  0.00000000000E+00 0. -1.
         25    2    1    2    0    0  0.18585435378E+03 -0.10581713199E+02  0.12837442088E+03  0.25837458825E+03  0.12499448965E+03 0.  0.
          2    1    1    2  501    0 -0.60808619111E+02 -0.23499929192E+02 -0.12416876398E+04  0.12433978163E+04  0.00000000000E+00 0. -1.
          1    1    1    2  502    0 -0.12504573467E+03  0.34081642391E+02  0.34963618087E+03  0.37288530821E+03  0.00000000000E+00 0. -1.
         22    1    3    3    0    0  0.13401873525E+03 -0.69367088690E+00  0.16952905222E+02  0.13508850274E+03  0.00000000000E+00 0. -1.
         22    1    3    3    0    0  0.51835618535E+02 -0.98880423124E+01  0.11142151565E+03  0.12328608551E+03  0.00000000000E+00 0. -1.
</event>
<event>
 7    1  0.6173324E-006  0.9743837E+02  0.7818608E-02  0.1308419E+00
          2   -1    0    0  502    0  0.00000000000E+00  0.00000000000E+00  0.16228599775E+03  0.16228599775E+03  0.00000000000E+00 0. -1.
          1   -1    0    0  501    0 -0.00000000000E+00 -0.00000000000E+00 -0.53690756905E+03  0.53690756905E+03  0.00000000000E+00 0. -1.
         25    2    1    2    0    0 -0.52006220547E+02  0.21579960020E+02  0.10585361665E+02  0.13750347594E+03  0.12499925745E+03 0.  0.
          2    1    1    2  501    0 -0.78883435060E+02 -0.44080952846E+01 -0.41821698813E+03  0.42561423471E+03  0.00000000000E+00 0. -1.
          1    1    1    2  502    0  0.13088965561E+03 -0.17171864736E+02  0.33010055165E+02  0.13607585615E+03  0.00000000000E+00 0. -1.
         22    1    3    3    0    0 -0.34895287346E+02 -0.51320048991E+02  0.15511529401E+01  0.62079260489E+02  0.00000000000E+00 0. -1.
         22    1    3    3    0    0 -0.17110933201E+02  0.72900009011E+02  0.90342087245E+01  0.75424215449E+02  0.00000000000E+00 0. -1.
</event>
<event>
 7    1  0.6173324E-006  0.1702029E+03  0.7818608E-02  0.1215420E+00
          2   -1    0    0  502    0  0.00000000000E+00  0.00000000000E+00  0.17594493032E+04  0.17594493032E+04  0.00000000000E+00 0. -1.
          1   -1    0    0  501    0 -0.00000000000E+00 -0.00000000000E+00 -0.15573285472E+04  0.15573285472E+04  0.00000000000E+00 0. -1.
         25    2    1    2    0    0  0.13183740051E+02 -0.95527659641E+02  0.18474961561E+03  0.24301515312E+03  0.12499839768E+03 0.  0.
          2    1    1    2  501    0  0.99064854758E+02 -0.53594688629E+02 -0.15204700973E+04  0.15246362035E+04  0.00000000000E+00 0. -1.
          1    1    1    2  502    0 -0.11224859481E+03  0.14912234827E+03  0.15378412376E+04  0.15491264938E+04  0.00000000000E+00 0. -1.
         22    1    3    3    0    0 -0.18458583360E+02 -0.11761717767E+03  0.13379272946E+03  0.17909498664E+03  0.00000000000E+00 0. -1.
         22    1    3    3    0    0  0.31642323411E+02  0.22089518027E+02  0.50956886153E+02  0.63920166489E+02  0.00000000000E+00 0. -1.
</event>
<event>
 7    1  0.6173324E-006  0.9718272E+02  0.7818608E-02  0.1468002E+00
          2   -1    0    0  502    0  0.00000000000E+00  0.00000000000E+00  0.17620270316E+03  0.17620270316E+03  0.00000000000E+00 0. -1.
          1   -1    0    0  501    0 -0.00000000000E+00 -0.00000000000E+00 -0.49716511440E+03  0.49716511440E+03  0.00000000000E+00 0. -1.
         25    2    1    2    0    0  0.80533098660E+02 -0.43497215588E+02 -0.17620550534E+03  0.23462973457E+03  0.12500057795E+03 0.  0.
          2    1    1    2  501    0 -0.67772861264E+01 -0.20723296800E+02 -0.27500143503E+03  0.27586441580E+03  0.00000000000E+00 0. -1.
          1    1    1    2  502    0 -0.73755812533E+02  0.64220512388E+02  0.13024452913E+03  0.16287366719E+03  0.00000000000E+00 0. -1.
         22    1    3    3    0    0 -0.29187751076E+02  0.94472754555E+00 -0.68983684646E+02  0.74910386932E+02  0.00000000000E+00 0.  1.
         22    1    3    3    0    0  0.10972084974E+03 -0.44441943134E+02 -0.10722182069E+03  0.15971934764E+03  0.00000000000E+00 0.  1.
</event>
<event>
 7    1  0.6173324E-006  0.6548639E+02  0.7818608E-02  0.1425703E+00
          2   -1    0    0  502    0  0.00000000000E+00  0.00000000000E+00  0.18345916862E+03  0.18345916862E+03  0.00000000000E+00 0. -1.
          1   -1    0    0  501    0 -0.00000000000E+00 -0.00000000000E+00 -0.17885091794E+03  0.17885091794E+03  0.00000000000E+00 0. -1.
         25    2    1    2    0    0 -0.30140091847E+02 -0.25828707221E+02 -0.59181965326E+02  0.14388672432E+03  0.12500134865E+03 0.  0.
          2    1    1    2  501    0  0.16297589195E+02 -0.41141638468E+02 -0.61451932875E+02  0.75727048559E+02  0.00000000000E+00 0. -1.
          1    1    1    2  502    0  0.13842502652E+02  0.66970345689E+02  0.12524214888E+03  0.14269631368E+03  0.00000000000E+00 0. -1.
         22    1    3    3    0    0 -0.75731707085E+02 -0.29554090439E+02 -0.20150856882E+02  0.83754359605E+02  0.00000000000E+00 0. -1.
         22    1    3    3    0    0  0.45591615239E+02  0.37253832183E+01 -0.39031108444E+02  0.60132364718E+02  0.00000000000E+00 0. -1.
</event>
<event>
 7    1  0.6173324E-006  0.1137455E+03  0.7818608E-02  0.1276889E+00
          2   -1    0    0  502    0  0.00000000000E+00  0.00000000000E+00  0.29905880532E+04  0.29905880532E+04  0.00000000000E+00 0. -1.
          1   -1    0    0  501    0 -0.00000000000E+00 -0.00000000000E+00 -0.11400493243E+04  0.11400493243E+04  0.00000000000E+00 0. -1.
         25    2    1    2    0    0  0.11429930920E+03  0.19343025928E+02 -0.10283222807E+03  0.19909388142E+03  0.12500168701E+03 0.  0.
          2    1    1    2  501    0 -0.93205135300E+02  0.68991837202E+02 -0.98498340811E+03  0.99178595730E+03  0.00000000000E+00 0. -1.
          1    1    1    2  502    0 -0.21094173900E+02 -0.88334863130E+02  0.29383543650E+04  0.29397575388E+04  0.00000000000E+00 0. -1.
         22    1    3    3    0    0  0.29657307514E+02 -0.34277867797E+02 -0.86386697794E+02  0.97556084718E+02  0.00000000000E+00 0. -1.
         22    1    3    3    0    0  0.84642001685E+02  0.53620893725E+02 -0.16445530272E+02  0.10153779670E+03  0.00000000000E+00 0. -1.
</event>
<event>
 7    1  0.6173324E-006  0.9138968E+02  0.7818608E-02  0.1384591E+00
          2   -1    0    0  502    0  0.00000000000E+00  0.00000000000E+00  0.13126983547E+04  0.13126983547E+04  0.00000000000E+00 0. -1.
          1   -1    0    0  501    0 -0.00000000000E+00 -0.00000000000E+00 -0.10090726637E+03  0.10090726637E+03  0.00000000000E+00 0. -1.
         25    2    1    2    0    0  0.67818678198E+02  0.11986536079E+02  0.88963346371E+03  0.90100845371E+03  0.12500193503E+03 0.  0.
          2    1    1    2  501    0 -0.73624173520E+02 -0.55405549703E+02 -0.71425194358E+02  0.11658409949E+03  0.00000000000E+00 0. -1.
          1    1    1    2  502    0  0.58054953214E+01  0.43419013624E+02  0.39358281897E+03  0.39601306786E+03  0.00000000000E+00 0. -1.
         22    1    3    3    0    0 -0.20025371425E+02 -0.82425031255E+01  0.52327835477E+03  0.52372625572E+03  0.00000000000E+00 0.  1.
         22    1    3    3    0    0  0.87844049623E+02  0.20229039204E+02  0.36635510894E+03  0.37728219800E+03  0.00000000000E+00 0.  1.
</event>
<event>
 7    1  0.6173324E-006  0.8754107E+02  0.7818608E-02  0.1459837E+00
          2   -1    0    0  502    0  0.00000000000E+00  0.00000000000E+00  0.97542298927E+03  0.97542298927E+03  0.00000000000E+00 0. -1.
          1   -1    0    0  501    0 -0.00000000000E+00 -0.00000000000E+00 -0.24277870793E+03  0.24277870793E+03  0.00000000000E+00 0. -1.
         25    2    1    2    0    0  0.72719355708E+02  0.47893790603E+02  0.19832122419E+03  0.25007431813E+03  0.12499574692E+03 0.  0.
          2    1    1    2  501    0 -0.16475589084E+02  0.19692193310E+02 -0.21355770043E+03  0.21509560415E+03  0.00000000000E+00 0. -1.
          1    1    1    2  502    0 -0.56243766625E+02 -0.67585983913E+02  0.74788075757E+03  0.75303177493E+03  0.00000000000E+00 0. -1.
         22    1    3    3    0    0  0.10285572611E+03  0.15509497809E+02  0.16346766193E+03  0.19375634548E+03  0.00000000000E+00 0.  1.
         22    1    3    3    0    0 -0.30136370402E+02  0.32384292794E+02  0.34853562264E+02  0.56317972649E+02  0.00000000000E+00 0.  1.
</event>
<event>
 7    1  0.6173324E-006  0.3747309E+02  0.7818608E-02  0.1601445E+00
          2   -1    0    0  502    0  0.00000000000E+00  0.00000000000E+00  0.14660702803E+04  0.14660702803E+04  0.00000000000E+00 0. -1.
          1   -1    0    0  501    0 -0.00000000000E+00 -0.00000000000E+00 -0.11859523398E+03  0.11859523398E+03  0.00000000000E+00 0. -1.
         25    2    1    2    0    0 -0.40368509104E+02  0.15164790139E+02  0.28514988475E+02  0.13527084111E+03  0.12500203398E+03 0.  0.
          2    1    1    2  501    0  0.18133134332E+02  0.15006011590E+02 -0.62831270579E+02  0.67095152635E+02  0.00000000000E+00 0. -1.
          1    1    1    2  502    0  0.22235374772E+02 -0.30170801729E+02  0.13817913285E+04  0.13822995206E+04  0.00000000000E+00 0. -1.
         22    1    3    3    0    0 -0.29980028456E+02 -0.50836235181E+02  0.34207924481E+02  0.68215152356E+02  0.00000000000E+00 0. -1.
         22    1    3    3    0    0 -0.10388480648E+02  0.66001025320E+02 -0.56929360063E+01  0.67055688750E+02  0.00000000000E+00 0. -1.
</event>
<event>
 7    1  0.6173324E-006  0.8209643E+02  0.7818608E-02  0.1379801E+00
          2   -1    0    0  502    0  0.00000000000E+00  0.00000000000E+00  0.88394263295E+03  0.88394263295E+03  0.00000000000E+00 0. -1.
          1   -1    0    0  501    0 -0.00000000000E+00 -0.00000000000E+00 -0.35603670875E+03  0.35603670875E+03  0.00000000000E+00 0. -1.
         25    2    1    2    0    0 -0.39533558080E+02 -0.30313157348E+02  0.17778419003E+03  0.22296696298E+03  0.12500103453E+03 0.  0.
          2    1    1    2  501    0 -0.46670973705E+02  0.19808539856E+02 -0.32873589938E+03  0.33262268350E+03  0.00000000000E+00 0. -1.
          1    1    1    2  502    0  0.86204531784E+02  0.10504617492E+02  0.67885763355E+03  0.68438969522E+03  0.00000000000E+00 0. -1.
         22    1    3    3    0    0  0.18604171684E+02  0.38143813113E+02  0.38880316603E+02  0.57556447962E+02  0.00000000000E+00 0.  1.
         22    1    3    3    0    0 -0.58137729764E+02 -0.68456970460E+02  0.13890387342E+03  0.16541051502E+03  0.00000000000E+00 0.  1.
</event>
<event>
 7    1  0.6173324E-006  0.5347702E+02  0.7818608E-02  0.1438649E+00
          2   -1    0    0  502    0  0.00000000000E+00  0.00000000000E+00  0.10553232147E+04  0.10553232147E+04  0.00000000000E+00 0. -1.
          1   -1    0    0  501    0 -0.00000000000E+00 -0.00000000000E+00 -0.90026872433E+02  0.90026872433E+02  0.00000000000E+00 0. -1.
         25    2    1    2    0    0  0.25524411141E+02  0.42558804531E+01  0.65898937209E+03  0.67123964829E+03  0.12500425924E+03 0.  0.
          2    1    1    2  501    0 -0.30473198126E+02  0.44633675208E+02 -0.73448361550E+02  0.91189048580E+02  0.00000000000E+00 0. -1.
          1    1    1    2  502    0  0.49487869850E+01 -0.48889555661E+02  0.37975533170E+03  0.38292139024E+03  0.00000000000E+00 0. -1.
         22    1    3    3    0    0  0.75875604746E+02  0.48949656796E+01  0.44130110165E+03  0.44780322733E+03  0.00000000000E+00 0.  1.
         22    1    3    3    0    0 -0.50351193605E+02 -0.63908522650E+00  0.21768827044E+03  0.22343642096E+03  0.00000000000E+00 0.  1.
</event>
<event>
 7    1  0.6173324E-006  0.4624613E+02  0.7818608E-02  0.1469398E+00
          2   -1    0    0  502    0  0.00000000000E+00  0.00000000000E+00  0.12762535305E+04  0.12762535305E+04  0.00000000000E+00 0. -1.
          1   -1    0    0  501    0 -0.00000000000E+00 -0.00000000000E+00 -0.30044703875E+02  0.30044703875E+02  0.00000000000E+00 0. -1.
         25    2    1    2    0    0  0.93038463265E+01  0.24779331656E+02  0.70900490613E+03  0.72042565811E+03  0.12499838042E+03 0.  0.
          2    1    1    2  501    0 -0.43843157449E+02  0.14713340331E+02  0.13422982721E+00  0.46246328032E+02  0.00000000000E+00 0. -1.
          1    1    1    2  502    0  0.34539311122E+02 -0.39492671987E+02  0.53706969062E+03  0.53962624819E+03  0.00000000000E+00 0. -1.
         22    1    3    3    0    0  0.16845847639E+02 -0.44691339902E+00  0.75313765975E+01  0.18458167507E+02  0.00000000000E+00 0.  1.
         22    1    3    3    0    0 -0.75420013120E+01  0.25226245055E+02  0.70147352954E+03  0.70196749060E+03  0.00000000000E+00 0.  1.
</event>
<event>
 7    1  0.6173324E-006  0.1202614E+03  0.7818608E-02  0.1304998E+00
          2   -1    0    0  502    0  0.00000000000E+00  0.00000000000E+00  0.11447381488E+04  0.11447381488E+04  0.00000000000E+00 0. -1.
          1   -1    0    0  501    0 -0.00000000000E+00 -0.00000000000E+00 -0.36075549452E+03  0.36075549452E+03  0.00000000000E+00 0. -1.
         25    2    1    2    0    0  0.58145980529E+02 -0.35832039908E+02 -0.12557130090E+03  0.18989040443E+03  0.12500129579E+03 0.  0.
          2    1    1    2  501    0  0.62483200227E+02  0.21385984648E+02 -0.19423133797E+03  0.20515195173E+03  0.00000000000E+00 0. -1.
          1    1    1    2  502    0 -0.12062918076E+03  0.14446055261E+02  0.11037852932E+04  0.11104512872E+04  0.00000000000E+00 0. -1.
         22    1    3    3    0    0  0.49247197627E+02  0.37949843792E+02 -0.84721704498E+02  0.10508684185E+03  0.00000000000E+00 0.  1.
         22    1    3    3    0    0  0.88987829013E+01 -0.73781883700E+02 -0.40849596407E+02  0.84803562579E+02  0.00000000000E+00 0.  1.
</event>
<event>
 7    1  0.6173324E-006  0.4122981E+02  0.7818608E-02  0.1574660E+00
          2   -1    0    0  502    0  0.00000000000E+00  0.00000000000E+00  0.50229282638E+02  0.50229282638E+02  0.00000000000E+00 0. -1.
          1   -1    0    0  501    0 -0.00000000000E+00 -0.00000000000E+00 -0.20423492823E+04  0.20423492823E+04  0.00000000000E+00 0. -1.
         25    2    1    2    0    0  0.39419404597E+02  0.44796966426E+02 -0.82737181497E+03  0.83888600781E+03  0.12499982495E+03 0.  0.
          2    1    1    2  501    0 -0.35022227510E+02 -0.19987147386E+02 -0.12052870545E+04  0.12059614116E+04  0.00000000000E+00 0. -1.
          1    1    1    2  502    0 -0.43971770872E+01 -0.24809819039E+02  0.40538869822E+02  0.47731145529E+02  0.00000000000E+00 0. -1.
         22    1    3    3    0    0  0.20103702023E+02  0.82408951506E+02 -0.68889955057E+03  0.69410228706E+03  0.00000000000E+00 0. -1.
         22    1    3    3    0    0  0.19315702573E+02 -0.37611985080E+02 -0.13847226440E+03  0.14478372075E+03  0.00000000000E+00 0. -1.
</event>
<event>
 7    1  0.6173324E-006  0.6042673E+02  0.7818608E-02  0.1488529E+00
          2   -1    0    0  502    0  0.00000000000E+00  0.00000000000E+00  0.27166142563E+03  0.27166142563E+03  0.00000000000E+00 0. -1.
          1   -1    0    0  501    0 -0.00000000000E+00 -0.00000000000E+00 -0.14907100451E+04  0.14907100451E+04  0.00000000000E+00 0. -1.
         25    2    1    2    0    0  0.24276589370E+02  0.18151564926E+02  0.88934645541E+02  0.15637466351E+03  0.12499932844E+03 0.  0.
          2    1    1    2  501    0 -0.49990533460E+02 -0.34221074497E+02 -0.14548104577E+04  0.14560712906E+04  0.00000000000E+00 0. -1.
          1    1    1    2  502    0  0.25713944090E+02  0.16069509571E+02  0.14682719265E+03  0.14992551670E+03  0.00000000000E+00 0. -1.
         22    1    3    3    0    0  0.20291567491E+02  0.54794454372E+02 -0.17796083826E+01  0.58458078545E+02  0.00000000000E+00 0. -1.
         22    1    3    3    0    0  0.39850218793E+01 -0.36642889446E+02  0.90714253923E+02  0.97916584965E+02  0.00000000000E+00 0. -1.
</event>
<event>
 7    1  0.6173324E-006  0.1005020E+03  0.7818608E-02  0.1305172E+00
          2   -1    0    0  502    0  0.00000000000E+00  0.00000000000E+00  0.18887686783E+04  0.18887686783E+04  0.00000000000E+00 0. -1.
          1   -1    0    0  501    0 -0.00000000000E+00 -0.00000000000E+00 -0.81299205146E+03  0.81299205146E+03  0.00000000000E+00 0. -1.
         25    2    1    2    0    0  0.55433058492E+02 -0.66203078752E+02  0.29123178553E+03  0.32847470790E+03  0.12499603681E+03 0.  0.
          2    1    1    2  501    0  0.48756786140E+02  0.62032394446E+02 -0.79068343162E+03  0.79461030146E+03  0.00000000000E+00 0. -1.
          1    1    1    2  502    0 -0.10418984463E+03  0.41706843064E+01  0.15752282729E+04  0.15786757204E+04  0.00000000000E+00 0. -1.
         22    1    3    3    0    0 -0.96544131991E+01  0.29523062553E+02  0.32126297285E+02  0.44686887271E+02  0.00000000000E+00 0. -1.
         22    1    3    3    0    0  0.65087471691E+02 -0.95726141306E+02  0.25910548824E+03  0.28378782063E+03  0.00000000000E+00 0. -1.
</event>
<event>
 7    1  0.6173324E-006  0.5753190E+02  0.7818608E-02  0.1446105E+00
          2   -1    0    0  502    0  0.00000000000E+00  0.00000000000E+00  0.45187987128E+03  0.45187987128E+03  0.00000000000E+00 0. -1.
          1   -1    0    0  501    0 -0.00000000000E+00 -0.00000000000E+00 -0.93421060135E+03  0.93421060135E+03  0.00000000000E+00 0. -1.
         25    2    1    2    0    0  0.16062584713E+02  0.71104021357E+01  0.82871876422E+02  0.15100092926E+03  0.12499987315E+03 0.  0.
          2    1    1    2  501    0  0.39066129768E+02  0.18462380697E+02 -0.89686511777E+03  0.89790537446E+03  0.00000000000E+00 0. -1.
          1    1    1    2  502    0 -0.55128714482E+02 -0.25572782832E+02  0.33166251128E+03  0.33718416892E+03  0.00000000000E+00 0. -1.
         22    1    3    3    0    0  0.25780089171E+02  0.29249903949E+02 -0.21046314128E+02  0.44307078634E+02  0.00000000000E+00 0.  1.
         22    1    3    3    0    0 -0.97175044580E+01 -0.22139501813E+02  0.10391819055E+03  0.10669385062E+03  0.00000000000E+00 0.  1.
</event>
<event>
 7    1  0.6173324E-006  0.1006981E+03  0.7818608E-02  0.1325193E+00
          2   -1    0    0  502    0  0.00000000000E+00  0.00000000000E+00  0.44737376210E+03  0.44737376210E+03  0.00000000000E+00 0. -1.
          1   -1    0    0  501    0 -0.00000000000E+00 -0.00000000000E+00 -0.11428066336E+03  0.11428066336E+03  0.00000000000E+00 0. -1.
         25    2    1    2    0    0  0.25254252037E+02  0.48788208138E+02  0.12382462437E+03  0.18432439061E+03  0.12499950750E+03 0.  0.
          2    1    1    2  501    0  0.36982021317E+02  0.54376179875E+02 -0.55748565390E+02  0.86211028189E+02  0.00000000000E+00 0. -1.
          1    1    1    2  502    0 -0.62236273354E+02 -0.10316438801E+03  0.26501703976E+03  0.29111900666E+03  0.00000000000E+00 0. -1.
         22    1    3    3    0    0  0.24066745936E+02  0.61738342856E+02  0.68358125113E+01  0.66615010105E+02  0.00000000000E+00 0. -1.
         22    1    3    3    0    0  0.11875061007E+01 -0.12950134718E+02  0.11698881186E+03  0.11770938051E+03  0.00000000000E+00 0. -1.
</event>
<event>
 7    1  0.6173324E-006  0.1107048E+03  0.7818608E-02  0.1364658E+00
          2   -1    0    0  502    0  0.00000000000E+00  0.00000000000E+00  0.86793798905E+03  0.86793798905E+03  0.00000000000E+00 0. -1.
          1   -1    0    0  501    0 -0.00000000000E+00 -0.00000000000E+00 -0.73607301199E+03  0.73607301199E+03  0.00000000000E+00 0. -1.
         25    2    1    2    0    0  0.60060167903E+02  0.90477094726E+02  0.73951710835E+02  0.18134891261E+03  0.12500097651E+03 0.  0.
          2    1    1    2  501    0 -0.91970928506E+02 -0.62252637918E+02 -0.67723485093E+03  0.68628061749E+03  0.00000000000E+00 0. -1.
          1    1    1    2  502    0  0.31910760603E+02 -0.28224456808E+02  0.73514811715E+03  0.73638147095E+03  0.00000000000E+00 0. -1.
         22    1    3    3    0    0 -0.12982685210E+02  0.90637721736E+02  0.31299654652E+02  0.96764740986E+02  0.00000000000E+00 0. -1.
         22    1    3    3    0    0  0.73042853113E+02 -0.16062700947E+00  0.42652056183E+02  0.84584171620E+02  0.00000000000E+00 0. -1.
</event>
<event>
 7    1  0.6173324E-006  0.6840738E+02  0.7818608E-02  0.1500315E+00
          2   -1    0    0  502    0  0.00000000000E+00  0.00000000000E+00  0.12882487688E+04  0.12882487688E+04  0.00000000000E+00 0. -1.
          1   -1    0    0  501    0 -0.00000000000E+00 -0.00000000000E+00 -0.11685787242E+03  0.11685787242E+03  0.00000000000E+00 0. -1.
         25    2    1    2    0    0  0.40480946121E+02 -0.23918919526E+02  0.45690402488E+03  0.47602240532E+03  0.12500088284E+03 0.  0.
          2    1    1    2  501    0 -0.51210656921E+02  0.46150818915E+02 -0.96018436632E+02  0.11820308643E+03  0.00000000000E+00 0. -1.
          1    1    1    2  502    0  0.10729710800E+02 -0.22231899389E+02  0.81050530811E+03  0.81088114944E+03  0.00000000000E+00 0. -1.
         22    1    3    3    0    0  0.22414417810E+01 -0.43939357274E+02  0.49050124850E+02  0.65890863758E+02  0.00000000000E+00 0.  1.
         22    1    3    3    0    0  0.38239504340E+02  0.20020437748E+02  0.40785390003E+03  0.41013154157E+03  0.00000000000E+00 0.  1.
</event>
<event>
 7    1  0.6173324E-006  0.1278214E+03  0.7818608E-02  0.1285949E+00
          2   -1    0    0  502    0  0.00000000000E+00  0.00000000000E+00  0.74746207527E+03  0.74746207527E+03  0.00000000000E+00 0. -1.
          1   -1    0    0  501    0 -0.00000000000E+00 -0.00000000000E+00 -0.36502791440E+04  0.36502791440E+04  0.00000000000E+00 0. -1.
         25    2    1    2    0    0  0.17568102642E+03 -0.91343068257E+01 -0.18938488689E+03  0.28712106187E+03  0.12499844071E+03 0.  0.
          2    1    1    2  501    0 -0.60123294506E+02 -0.43410554089E+02 -0.34058524391E+04  0.34066596724E+04  0.00000000000E+00 0. -1.
          1    1    1    2  502    0 -0.11555773191E+03  0.52544860915E+02  0.69242025724E+03  0.70396048500E+03  0.00000000000E+00 0. -1.
         22    1    3    3    0    0  0.87818805068E+02 -0.59810254340E+02 -0.13573982994E+03  0.17237955354E+03  0.00000000000E+00 0.  1.
         22    1    3    3    0    0  0.87862221353E+02  0.50675947514E+02 -0.53645056950E+02  0.11474150832E+03  0.00000000000E+00 0.  1.
</event>
<event>
 7    1  0.6173324E-006  0.6783972E+02  0.7818608E-02  0.1379217E+00
          2   -1    0    0  502    0  0.00000000000E+00  0.00000000000E+00  0.38793731701E+03  0.38793731701E+03  0.00000000000E+00 0. -1.
          1   -1    0    0  501    0 -0.00000000000E+00 -0.00000000000E+00 -0.36341412152E+03  0.36341412152E+03  0.00000000000E+00 0. -1.
         25    2    1    2    0    0  0.18697162238E+02  0.11270122844E+02 -0.13314844628E+03  0.18392489675E+03  0.12499303721E+03 0.  0.
          2    1    1    2  501    0 -0.69486291602E+02 -0.46213017941E+02 -0.19358241510E+03  0.21080355591E+03  0.00000000000E+00 0. -1.
          1    1    1    2  502    0  0.50789129364E+02  0.34942895097E+02  0.35125405688E+03  0.35662298587E+03  0.00000000000E+00 0. -1.
         22    1    3    3    0    0  0.12183707737E+02  0.16312954006E+02 -0.15719419497E+03  0.15850731886E+03  0.00000000000E+00 0. -1.
         22    1    3    3    0    0  0.65134545008E+01 -0.50428311616E+01  0.24045748683E+02  0.25417577882E+02  0.00000000000E+00 0. -1.
</event>
<event>
 7    1  0.6173324E-006  0.4602365E+02  0.7818608E-02  0.1479976E+00
          2   -1    0    0  502    0  0.00000000000E+00  0.00000000000E+00  0.84964003970E+02  0.84964003970E+02  0.00000000000E+00 0. -1.
          1   -1    0    0  501    0 -0.00000000000E+00 -0.00000000000E+00 -0.42418944281E+03  0.42418944281E+03  0.00000000000E+00 0. -1.
         25    2    1    2    0    0  0.40603195057E+02 -0.77331583769E+02 -0.34648679392E+03  0.37856100959E+03  0.12500618515E+03 0.  0.
          2    1    1    2  501    0 -0.19520389244E+02  0.37499280067E+02 -0.44891831823E+02  0.61664561671E+02  0.00000000000E+00 0. -1.
          1    1    1    2  502    0 -0.21082805813E+02  0.39832303702E+02  0.52153186903E+02  0.68927875517E+02  0.00000000000E+00 0. -1.
         22    1    3    3    0    0 -0.38349053068E+02 -0.55922668440E+02 -0.19413493518E+03  0.20563649426E+03  0.00000000000E+00 0.  1.
         22    1    3    3    0    0  0.78952248124E+02 -0.21408915329E+02 -0.15235185875E+03  0.17292451533E+03  0.00000000000E+00 0.  1.
</event>
<event>
 7    1  0.6173324E-006  0.6101544E+02  0.7818608E-02  0.1495762E+00
          2   -1    0    0  502    0  0.00000000000E+00  0.00000000000E+00  0.14245758057E+04  0.14245758057E+04  0.00000000000E+00 0. -1.
          1   -1    0    0  501    0 -0.00000000000E+00 -0.00000000000E+00 -0.48157269782E+02  0.48157269782E+02  0.00000000000E+00 0. -1.
         25    2    1    2    0    0  0.30524449771E+02  0.21137920822E+02  0.18474303573E+03  0.22612590512E+03  0.12499752791E+03 0.  0.
          2    1    1    2  501    0  0.80272708995E+01  0.27406879160E+02 -0.19028605665E+02  0.34317079377E+02  0.00000000000E+00 0. -1.
          1    1    1    2  502    0 -0.38551720671E+02 -0.48544799982E+02  0.12107041059E+04  0.12122900910E+04  0.00000000000E+00 0. -1.
         22    1    3    3    0    0 -0.10112764974E+02  0.56172894317E+01 -0.16546671479E+02  0.20189459949E+02  0.00000000000E+00 0.  1.
         22    1    3    3    0    0  0.40637214745E+02  0.15520631390E+02  0.20128970721E+03  0.20593644517E+03  0.00000000000E+00 0.  1.
</event>
<event>
 7    1  0.6173324E-006  0.4636496E+02  0.7818608E-02  0.1501359E+00
          2   -1    0    0  502    0  0.00000000000E+00  0.00000000000E+00  0.47925773941E+02  0.47925773941E+02  0.00000000000E+00 0. -1.
          1   -1    0    0  501    0 -0.00000000000E+00 -0.00000000000E+00 -0.97474425558E+03  0.97474425558E+03  0.00000000000E+00 0. -1.
         25    2    1    2    0    0 -0.77007140076E+02 -0.40720463329E+01 -0.22466477068E+03  0.26840462103E+03  0.12498039934E+03 0.  0.
          2    1    1    2  501    0  0.44115259681E+02 -0.10953483006E+02 -0.71458328157E+03  0.71602751429E+03  0.00000000000E+00 0. -1.
          1    1    1    2  502    0  0.32891880395E+02  0.15025529338E+02  0.12429570605E+02  0.38237894205E+02  0.00000000000E+00 0. -1.
         22    1    3    3    0    0 -0.53600620700E+02 -0.63420041602E+02 -0.12937483293E+03  0.15373020397E+03  0.00000000000E+00 0.  1.
         22    1    3    3    0    0 -0.23406519376E+02  0.59347995269E+02 -0.95289937747E+02  0.11467441706E+03  0.00000000000E+00 0.  1.
</event>
<event>
 7    1  0.6173324E-006  0.1069169E+03  0.7818608E-02  0.1367418E+00
          2   -1    0    0  502    0  0.00000000000E+00  0.00000000000E+00  0.10757739326E+04  0.10757739326E+04  0.00000000000E+00 0. -1.
          1   -1    0    0  501    0 -0.00000000000E+00 -0.00000000000E+00 -0.20489510708E+03  0.20489510708E+03  0.00000000000E+00 0. -1.
         25    2    1    2    0    0  0.71034508336E+02  0.95975897722E+02  0.49872361272E+03  0.52783214498E+03  0.12499702825E+03 0.  0.
          2    1    1    2  501    0 -0.90094186400E+02 -0.57309330085E+02 -0.17445025592E+03  0.20453413781E+03  0.00000000000E+00 0. -1.
          1    1    1    2  502    0  0.19059678064E+02 -0.38666567637E+02  0.54660546869E+03  0.54830275686E+03  0.00000000000E+00 0. -1.
         22    1    3    3    0    0  0.11907828054E+02  0.10536993197E+03  0.38469764723E+03  0.39904498333E+03  0.00000000000E+00 0. -1.
         22    1    3    3    0    0  0.59126680282E+02 -0.93940342526E+01  0.11402596549E+03  0.12878716165E+03  0.00000000000E+00 0. -1.
</event>
<event>
 7    1  0.6173324E-006  0.7387764E+02  0.7818608E-02  0.1469516E+00
          2   -1    0    0  502    0  0.00000000000E+00  0.00000000000E+00  0.95563339931E+03  0.95563339931E+03  0.00000000000E+00 0. -1.
          1   -1    0    0  501    0 -0.00000000000E+00 -0.00000000000E+00 -0.23285731207E+02  0.23285731207E+02  0.00000000000E+00 0. -1.
         25    2    1    2    0    0 -0.86809222364E+02 -0.24280976410E+02  0.41736581431E+03  0.44490969288E+03  0.12500001984E+03 0.  0.
          2    1    1    2  501    0  0.15486211052E+02  0.23772195078E+02  0.22018998731E+02  0.35913455650E+02  0.00000000000E+00 0. -1.
          1    1    1    2  502    0  0.71323011312E+02  0.50878133271E+00  0.49296285507E+03  0.49809598199E+03  0.00000000000E+00 0. -1.
         22    1    3    3    0    0 -0.89960961828E+02 -0.65160229983E+02  0.33438547596E+03  0.35235277316E+03  0.00000000000E+00 0. -1.
         22    1    3    3    0    0  0.31517394636E+01  0.40879253573E+02  0.82980338352E+02  0.92556919716E+02  0.00000000000E+00 0. -1.
</event>
<event>
 7    1  0.6173324E-006  0.7873695E+02  0.7818608E-02  0.1392322E+00
          2   -1    0    0  502    0  0.00000000000E+00  0.00000000000E+00  0.60755354552E+03  0.60755354552E+03  0.00000000000E+00 0. -1.
          1   -1    0    0  501    0 -0.00000000000E+00 -0.00000000000E+00 -0.59942571749E+02  0.59942571749E+02  0.00000000000E+00 0. -1.
         25    2    1    2    0    0 -0.47059177691E+02  0.58082183989E+02  0.98545335975E+02  0.17585244790E+03  0.12499917555E+03 0.  0.
          2    1    1    2  501    0  0.42340422284E+02  0.22131523551E+02  0.14812779543E+02  0.50019337577E+02  0.00000000000E+00 0. -1.
          1    1    1    2  502    0  0.47187554072E+01 -0.80213707541E+02  0.43425285825E+03  0.44162433179E+03  0.00000000000E+00 0. -1.
         22    1    3    3    0    0 -0.11112958925E+02  0.17819195894E+02  0.11695447007E+03  0.11882495390E+03  0.00000000000E+00 0. -1.
         22    1    3    3    0    0 -0.35946218766E+02  0.40262988096E+02 -0.18409134099E+02  0.57027494003E+02  0.00000000000E+00 0. -1.
</event>
<event>
 7    1  0.6173324E-006  0.4471968E+02  0.7818608E-02  0.1531177E+00
          2   -1    0    0  502    0  0.00000000000E+00  0.00000000000E+00  0.36316358063E+02  0.36316358063E+02  0.00000000000E+00 0. -1.
          1   -1    0    0  501    0 -0.00000000000E+00 -0.00000000000E+00 -0.83458468298E+03  0.83458468298E+03  0.00000000000E+00 0. -1.
         25    2    1    2    0    0 -0.46248017692E+02  0.42838701916E+02 -0.19428141226E+03  0.23946331684E+03  0.12499351759E+03 0.  0.
          2    1    1    2  501    0  0.30513920749E+02 -0.32183581437E+01 -0.58320532954E+03  0.58401191220E+03  0.00000000000E+00 0. -1.
          1    1    1    2  502    0  0.15734096943E+02 -0.39620343772E+02 -0.20781583120E+02  0.47425812004E+02  0.00000000000E+00 0. -1.
         22    1    3    3    0    0  0.26853598642E+02 -0.79258688924E+01 -0.25894277737E+01  0.28118326656E+02  0.00000000000E+00 0.  1.
         22    1    3    3    0    0 -0.73101616334E+02  0.50764570808E+02 -0.19169198449E+03  0.21134499019E+03  0.00000000000E+00 0.  1.
</event>
<event>
 7    1  0.6173324E-006  0.1141245E+03  0.7818608E-02  0.1257827E+00
          2   -1    0    0  502    0  0.00000000000E+00  0.00000000000E+00  0.36970032543E+03  0.36970032543E+03  0.00000000000E+00 0. -1.
          1   -1    0    0  501    0 -0.00000000000E+00 -0.00000000000E+00 -0.17637776974E+04  0.17637776974E+04  0.00000000000E+00 0. -1.
         25    2    1    2    0    0 -0.42510126944E+02 -0.69914559431E+01 -0.19800392608E+03  0.23808854930E+03  0.12499844487E+03 0.  0.
          2    1    1    2  501    0  0.83620421693E+02 -0.93878502255E+02 -0.15346149503E+04  0.15397560176E+04  0.00000000000E+00 0. -1.
          1    1    1    2  502    0 -0.41110294749E+02  0.10086995820E+03  0.33854150437E+03  0.35563345594E+03  0.00000000000E+00 0. -1.
         22    1    3    3    0    0 -0.63699484551E+02 -0.23303566850E+02 -0.41933791369E+02  0.79744112125E+02  0.00000000000E+00 0. -1.
         22    1    3    3    0    0  0.21189357606E+02  0.16312110907E+02 -0.15607013471E+03  0.15834443718E+03  0.00000000000E+00 0. -1.
</event>
<event>
 7    1  0.6173324E-006  0.5408980E+02  0.7818608E-02  0.1503537E+00
          2   -1    0    0  502    0  0.00000000000E+00  0.00000000000E+00  0.22217903878E+04  0.22217903878E+04  0.00000000000E+00 0. -1.
          1   -1    0    0  501    0 -0.00000000000E+00 -0.00000000000E+00 -0.38603718143E+03  0.38603718143E+03  0.00000000000E+00 0. -1.
         25    2    1    2    0    0 -0.62705587852E+01 -0.84278857503E+02 -0.29974474250E+02  0.15383602008E+03  0.12499922495E+03 0.  0.
          2    1    1    2  501    0  0.26784763028E+01  0.30420374912E+02 -0.29300100249E+03  0.29458812078E+03  0.00000000000E+00 0. -1.
          1    1    1    2  502    0  0.35920824823E+01  0.53858482590E+02  0.21587286831E+04  0.21594034284E+04  0.00000000000E+00 0. -1.
         22    1    3    3    0    0  0.28092837721E+02  0.12509334828E+02 -0.40208245326E+02  0.50620094639E+02  0.00000000000E+00 0.  1.
         22    1    3    3    0    0 -0.34363396506E+02 -0.96788192331E+02  0.10233771076E+02  0.10321592544E+03  0.00000000000E+00 0.  1.
</event>
<event>
 7    1  0.6173324E-006  0.6516824E+02  0.7818608E-02  0.1415296E+00
          2   -1    0    0  502    0  0.00000000000E+00  0.00000000000E+00  0.13452449166E+03  0.13452449166E+03  0.00000000000E+00 0. -1.
          1   -1    0    0  501    0 -0.00000000000E+00 -0.00000000000E+00 -0.26172228940E+04  0.26172228940E+04  0.00000000000E+00 0. -1.
         25    2    1    2    0    0 -0.96775247921E+01 -0.28336063391E+02 -0.57031762236E+03  0.58462264214E+03  0.12499942539E+03 0.  0.
          2    1    1    2  501    0  0.56823518245E+02  0.38220326130E+02 -0.20346015267E+04  0.20357536879E+04  0.00000000000E+00 0. -1.
          1    1    1    2  502    0 -0.47145993453E+02 -0.98842627388E+01  0.12222074666E+03  0.13137105565E+03  0.00000000000E+00 0. -1.
         22    1    3    3    0    0  0.40564268142E+02  0.17846581509E+02 -0.37735081415E+03  0.37994420283E+03  0.00000000000E+00 0.  1.
         22    1    3    3    0    0 -0.50241792934E+02 -0.46182644900E+02 -0.19296680822E+03  0.20467843931E+03  0.00000000000E+00 0.  1.
</event>
<event>
 7    1  0.6173324E-006  0.6012521E+02  0.7818608E-02  0.1452321E+00
          2   -1    0    0  502    0  0.00000000000E+00  0.00000000000E+00  0.39488446542E+02  0.39488446542E+02  0.00000000000E+00 0. -1.
          1   -1    0    0  501    0 -0.00000000000E+00 -0.00000000000E+00 -0.42431673933E+03  0.42431673933E+03  0.00000000000E+00 0. -1.
         25    2    1    2    0    0  0.96806035187E+01 -0.39143666264E+02 -0.20153557373E+03  0.24055142793E+03  0.12498984480E+03 0.  0.
          2    1    1    2  501    0 -0.47887805413E+02  0.49136973635E+02 -0.16697597055E+03  0.18052329165E+03  0.00000000000E+00 0. -1.
          1    1    1    2  502    0  0.38207201894E+02 -0.99933073704E+01 -0.16316748508E+02  0.42730466305E+02  0.00000000000E+00 0. -1.
         22    1    3    3    0    0 -0.51291739846E+02 -0.40774352436E+02 -0.13636600514E+03  0.15129136708E+03  0.00000000000E+00 0. -1.
         22    1    3    3    0    0  0.60972343364E+02  0.16306861721E+01 -0.65169568591E+02  0.89260060851E+02  0.00000000000E+00 0. -1.
</event>
<event>
 7    1  0.6173324E-006  0.6735308E+02  0.7818608E-02  0.1391128E+00
          2   -1    0    0  502    0  0.00000000000E+00  0.00000000000E+00  0.20380883482E+04  0.20380883482E+04  0.00000000000E+00 0. -1.
          1   -1    0    0  501    0 -0.00000000000E+00 -0.00000000000E+00 -0.15069031426E+03  0.15069031426E+03  0.00000000000E+00 0. -1.
         25    2    1    2    0    0 -0.70609439720E+01 -0.14189568991E+02  0.12106453664E+03  0.17473667210E+03  0.12500032699E+03 0.  0.
          2    1    1    2  501    0  0.17339804388E+02 -0.53655260408E+02 -0.11677886431E+03  0.12967983241E+03  0.00000000000E+00 0. -1.
          1    1    1    2  502    0 -0.10278860416E+02  0.67844829398E+02  0.18831123616E+04  0.18843621579E+04  0.00000000000E+00 0. -1.
         22    1    3    3    0    0  0.32630844695E+02 -0.13087242710E+02  0.12946238144E+03  0.13415124358E+03  0.00000000000E+00 0.  1.
         22    1    3    3    0    0 -0.39691788667E+02 -0.11023262807E+01 -0.83978448001E+01  0.40585428520E+02  0.00000000000E+00 0.  1.
</event>
<event>
 7    1  0.6173324E-006  0.3768820E+02  0.7818608E-02  0.1606141E+00
          2   -1    0    0  502    0  0.00000000000E+00  0.00000000000E+00  0.18594684057E+03  0.18594684057E+03  0.00000000000E+00 0. -1.
          1   -1    0    0  501    0 -0.00000000000E+00 -0.00000000000E+00 -0.51555600773E+03  0.51555600773E+03  0.00000000000E+00 0. -1.
         25    2    1    2    0    0  0.44913819552E+02 -0.67353187770E+01  0.27945228718E+01  0.13302395521E+03  0.12499979038E+03 0.  0.
          2    1    1    2  501    0 -0.29476987333E+02  0.23451889701E+02 -0.44854792077E+03  0.45012678341E+03  0.00000000000E+00 0. -1.
          1    1    1    2  502    0 -0.15436832220E+02 -0.16716570924E+02  0.11614423074E+03  0.11835210968E+03  0.00000000000E+00 0. -1.
         22    1    3    3    0    0 -0.20164636380E+02 -0.48877830143E+02 -0.11689585840E+02  0.54150727205E+02  0.00000000000E+00 0.  1.
         22    1    3    3    0    0  0.65078455932E+02  0.42142511366E+02  0.14484108712E+02  0.78873228005E+02  0.00000000000E+00 0.  1.
</event>
<event>
 7    1  0.6173324E-006  0.9901834E+02  0.7818608E-02  0.1428875E+00
          2   -1    0    0  502    0  0.00000000000E+00  0.00000000000E+00  0.48620259773E+03  0.48620259773E+03  0.00000000000E+00 0. -1.
          1   -1    0    0  501    0 -0.00000000000E+00 -0.00000000000E+00 -0.13800838829E+04  0.13800838829E+04  0.00000000000E+00 0. -1.
         25    2    1    2    0    0 -0.16454858203E+02 -0.69313567397E+02  0.25104594288E+03  0.28935006719E+03  0.12499705183E+03 0.  0.
          2    1    1    2  501    0  0.16159678254E+02  0.97880504183E+02 -0.13581700673E+04  0.13617884050E+04  0.00000000000E+00 0. -1.
          1    1    1    2  502    0  0.29517994892E+00 -0.28566936786E+02  0.21324283929E+03  0.21514800840E+03  0.00000000000E+00 0. -1.
         22    1    3    3    0    0 -0.23773019139E+02 -0.57611326641E+02  0.32350428409E+02  0.70219453249E+02  0.00000000000E+00 0.  1.
         22    1    3    3    0    0  0.73181609366E+01 -0.11702240755E+02  0.21869551447E+03  0.21913061394E+03  0.00000000000E+00 0.  1.
</event>
<event>
 7    1  0.6173324E-006  0.2418569E+02  0.7818608E-02  0.1679484E+00
          2   -1    0    0  502    0  0.00000000000E+00  0.00000000000E+00  0.17775721024E+03  0.17775721024E+03  0.00000000000E+00 0. -1.
          1   -1    0    0  501    0 -0.00000000000E+00 -0.00000000000E+00 -0.52120932532E+03  0.52120932532E+03  0.00000000000E+00 0. -1.
         25    2    1    2    0    0 -0.37062325019E+02 -0.13138847390E+02 -0.56467918987E+02  0.14268349750E+03  0.12499483725E+03 0.  0.
          2    1    1    2  501    0  0.13674515760E+02  0.18916105299E+02 -0.42022960258E+03  0.42087733404E+03  0.00000000000E+00 0. -1.
          1    1    1    2  502    0  0.23387809259E+02 -0.57772579084E+01  0.13324540648E+03  0.13540570402E+03  0.00000000000E+00 0. -1.
         22    1    3    3    0    0 -0.14473776736E+02 -0.57764511044E+01  0.40212571350E+02  0.43126656431E+02  0.00000000000E+00 0.  1.
         22    1    3    3    0    0 -0.22588548283E+02 -0.73623962857E+01 -0.96680490337E+02  0.99556841072E+02  0.00000000000E+00 0.  1.
</event>
<event>
 7    1  0.6173324E-006  0.7546663E+02  0.7818608E-02  0.1354282E+00
          2   -1    0    0  502    0  0.00000000000E+00  0.00000000000E+00  0.10735936650E+03  0.10735936650E+03  0.00000000000E+00 0. -1.
          1   -1    0    0  501    0 -0.00000000000E+00 -0.00000000000E+00 -0.45426570181E+03  0.45426570181E+03  0.00000000000E+00 0. -1.
         25    2    1    2    0    0 -0.25863001928E+01 -0.37258317868E+02 -0.16792652131E+03  0.21264601046E+03  0.12499655198E+03 0.  0.
          2    1    1    2  501    0 -0.68129761864E+02 -0.29282361456E+01 -0.23858559671E+03  0.24813973075E+03  0.00000000000E+00 0. -1.
          1    1    1    2  502    0  0.70716062057E+02  0.40186554014E+02  0.59605782710E+02  0.10083932709E+03  0.00000000000E+00 0. -1.
         22    1    3    3    0    0 -0.30075236302E+02 -0.54404181177E+02 -0.26535053029E+02  0.67590264147E+02  0.00000000000E+00 0. -1.
         22    1    3    3    0    0  0.27488936109E+02  0.17145863309E+02 -0.14139146828E+03  0.14505574632E+03  0.00000000000E+00 0. -1.
</event>
<event>
 7    1  0.6173324E-006  0.7853058E+02  0.7818608E-02  0.1334307E+00
          2   -1    0    0  502    0  0.00000000000E+00  0.00000000000E+00  0.56046563342E+03  0.56046563342E+03  0.00000000000E+00 0. -1.
          1   -1    0    0  501    0 -0.00000000000E+00 -0.00000000000E+00 -0.89915207703E+02  0.89915207703E+02  0.00000000000E+00 0. -1.
         25    2    1    2    0    0  0.18795491895E+02 -0.33465592582E+02  0.10570164633E+03  0.16813871845E+03  0.12499829680E+03 0.  0.
          2    1    1    2  501    0 -0.93817726605E+02  0.12771092141E+02 -0.13795598205E+02  0.95682731721E+02  0.00000000000E+00 0. -1.
          1    1    1    2  502    0  0.75022234710E+02  0.20694500441E+02  0.37864437759E+03  0.38655939095E+03  0.00000000000E+00 0. -1.
         22    1    3    3    0    0  0.49887493682E+02 -0.70838961784E+01  0.11566405495E+03  0.12616305806E+03  0.00000000000E+00 0. -1.
         22    1    3    3    0    0 -0.31092001787E+02 -0.26381696404E+02 -0.99624086180E+01  0.41975660397E+02  0.00000000000E+00 0. -1.
</event>
<event>
 7    1  0.6173324E-006  0.1265525E+03  0.7818608E-02  0.1290648E+00
          2   -1    0    0  502    0  0.00000000000E+00  0.00000000000E+00  0.54025892165E+03  0.54025892165E+03  0.00000000000E+00 0. -1.
          1   -1    0    0  501    0 -0.00000000000E+00 -0.00000000000E+00 -0.18848159323E+04  0.18848159323E+04  0.00000000000E+00 0. -1.
         25    2    1    2    0    0  0.30553693473E+02 -0.63197347209E+02 -0.34567513152E+02  0.14746962260E+03  0.12499977498E+03 0.  0.
          2    1    1    2  501    0  0.66148071425E+02 -0.27579014578E+02 -0.17839741833E+04  0.17854131332E+04  0.00000000000E+00 0. -1.
          1    1    1    2  502    0 -0.96701764898E+02  0.90776361787E+02  0.47398468578E+03  0.49219209822E+03  0.00000000000E+00 0. -1.
         22    1    3    3    0    0  0.74467093914E+01 -0.89746891698E+02  0.10079328969E+02  0.90617608237E+02  0.00000000000E+00 0. -1.
         22    1    3    3    0    0  0.23106984081E+02  0.26549544488E+02 -0.44646842121E+02  0.56852014364E+02  0.00000000000E+00 0. -1.
</event>
<event>
 7    1  0.6173324E-006  0.1800916E+03  0.7818608E-02  0.1386086E+00
          2   -1    0    0  502    0  0.00000000000E+00  0.00000000000E+00  0.16655871868E+03  0.16655871868E+03  0.00000000000E+00 0. -1.
          1   -1    0    0  501    0 -0.00000000000E+00 -0.00000000000E+00 -0.13541477670E+04  0.13541477670E+04  0.00000000000E+00 0. -1.
         25    2    1    2    0    0 -0.18349407450E+03 -0.79893476085E+02 -0.70514282239E+03  0.74357593582E+03  0.12500291780E+03 0.  0.
          2    1    1    2  501    0  0.21411283142E+02  0.48895586984E+01 -0.57538218510E+03  0.57580118944E+03  0.00000000000E+00 0. -1.
          1    1    1    2  502    0  0.16208279135E+03  0.75003917386E+02  0.92935959147E+02  0.20132936045E+03  0.00000000000E+00 0. -1.
         22    1    3    3    0    0 -0.56255161816E+01 -0.46106227537E+02 -0.23973319779E+03  0.24419139374E+03  0.00000000000E+00 0.  1.
         22    1    3    3    0    0 -0.17786855831E+03 -0.33787248548E+02 -0.46540962460E+03  0.49938454208E+03  0.00000000000E+00 0.  1.
</event>
<event>
 7    1  0.6173324E-006  0.5664106E+02  0.7818608E-02  0.1517105E+00
          2   -1    0    0  502    0  0.00000000000E+00  0.00000000000E+00  0.11196900277E+04  0.11196900277E+04  0.00000000000E+00 0. -1.
          1   -1    0    0  501    0 -0.00000000000E+00 -0.00000000000E+00 -0.29775569633E+03  0.29775569633E+03  0.00000000000E+00 0. -1.
         25    2    1    2    0    0  0.58537238699E+01  0.34873147242E+02  0.34256596518E+03  0.36636948726E+03  0.12499903284E+03 0.  0.
          2    1    1    2  501    0 -0.28166547300E+02 -0.49356511783E+02 -0.28279523747E+03  0.28844854997E+03  0.00000000000E+00 0. -1.
          1    1    1    2  502    0  0.22312823430E+02  0.14483364542E+02  0.76216360365E+03  0.76262768679E+03  0.00000000000E+00 0. -1.
         22    1    3    3    0    0 -0.29873985830E+02  0.33735202037E+02  0.35863230475E+02  0.57590712671E+02  0.00000000000E+00 0. -1.
         22    1    3    3    0    0  0.35727709700E+02  0.11379452052E+01  0.30670273471E+03  0.30877877459E+03  0.00000000000E+00 0. -1.
</event>
<event>
 7    1  0.6173324E-006  0.6303992E+02  0.7818608E-02  0.1410984E+00
          2   -1    0    0  502    0  0.00000000000E+00  0.00000000000E+00  0.95745451103E+02  0.95745451103E+02  0.00000000000E+00 0. -1.
          1   -1    0    0  501    0 -0.00000000000E+00 -0.00000000000E+00 -0.14304115520E+04  0.14304115520E+04  0.00000000000E+00 0. -1.
         25    2    1    2    0    0 -0.92065781200E+02 -0.33300086981E+02 -0.17707243184E+03  0.23783523834E+03  0.12500380241E+03 0.  0.
          2    1    1    2  501    0  0.42163948721E+02  0.46002522923E+02 -0.12118873997E+04  0.12134929337E+04  0.00000000000E+00 0. -1.
          1    1    1    2  502    0  0.49901832479E+02 -0.12702435942E+02  0.54293730651E+02  0.74828831018E+02  0.00000000000E+00 0. -1.
         22    1    3    3    0    0 -0.98121645084E+02 -0.16219810049E+02 -0.53478590589E+02  0.11291987922E+03  0.00000000000E+00 0. -1.
         22    1    3    3    0    0  0.60558638843E+01 -0.17080276932E+02 -0.12359384125E+03  0.12491535912E+03  0.00000000000E+00 0. -1.
</event>
<event>
 7    1  0.6173324E-006  0.1298341E+03  0.7818608E-02  0.1374201E+00
          2   -1    0    0  502    0  0.00000000000E+00  0.00000000000E+00  0.10838838529E+04  0.10838838529E+04  0.00000000000E+00 0. -1.
          1   -1    0    0  501    0 -0.00000000000E+00 -0.00000000000E+00 -0.46791855625E+02  0.46791855625E+02  0.00000000000E+00 0. -1.
         25    2    1    2    0    0  0.11221599950E+03 -0.56272109121E+02  0.37324737964E+03  0.41315513273E+03  0.12499830590E+03 0.  0.
          2    1    1    2  501    0 -0.12996470297E+03  0.27785056650E+02  0.14160312686E+03  0.19420164502E+03  0.00000000000E+00 0. -1.
          1    1    1    2  502    0  0.17748703464E+02  0.28487052472E+02  0.52224149073E+03  0.52331893074E+03  0.00000000000E+00 0. -1.
         22    1    3    3    0    0 -0.17147747130E+02  0.20258337046E+02  0.47775929922E+02  0.54653315832E+02  0.00000000000E+00 0.  1.
         22    1    3    3    0    0  0.12936374663E+03 -0.76530446167E+02  0.32547144972E+03  0.35850181689E+03  0.00000000000E+00 0.  1.
</event>
<event>
 7    1  0.6173324E-006  0.1125145E+03  0.7818608E-02  0.1368909E+00
          2   -1    0    0  502    0  0.00000000000E+00  0.00000000000E+00  0.52668974986E+03  0.52668974986E+03  0.00000000000E+00 0. -1.
          1   -1    0    0  501    0 -0.00000000000E+00 -0.00000000000E+00 -0.62132018631E+03  0.62132018631E+03  0.00000000000E+00 0. -1.
         25    2    1    2    0    0  0.20176196107E+02  0.11715618082E+03 -0.11130333113E+03  0.20529383840E+03  0.12499791587E+03 0.  0.
          2    1    1    2  501    0 -0.39954976056E+02 -0.63752485287E+01 -0.45551271082E+03  0.45730610495E+03  0.00000000000E+00 0. -1.
          1    1    1    2  502    0  0.19778779949E+02 -0.11078093229E+03  0.47218560549E+03  0.48540999282E+03  0.00000000000E+00 0. -1.
         22    1    3    3    0    0 -0.49528749301E+02  0.35524314391E+02 -0.19346351097E+02  0.63948066594E+02  0.00000000000E+00 0.  1.
         22    1    3    3    0    0  0.69704945408E+02  0.81631866425E+02 -0.91956980034E+02  0.14134577181E+03  0.00000000000E+00 0.  1.
</event>
<event>
 7    1  0.6173324E-006  0.8694101E+02  0.7818608E-02  0.1326158E+00
          2   -1    0    0  502    0  0.00000000000E+00  0.00000000000E+00  0.13780533542E+04  0.13780533542E+04  0.00000000000E+00 0. -1.
          1   -1    0    0  501    0 -0.00000000000E+00 -0.00000000000E+00 -0.25661148041E+03  0.25661148041E+03  0.00000000000E+00 0. -1.
         25    2    1    2    0    0 -0.10241033660E+03 -0.34413240685E+02  0.26795504422E+03  0.31479790682E+03  0.12500267292E+03 0.  0.
          2    1    1    2  501    0  0.78783032404E+02 -0.37313319791E+02 -0.22367477498E+03  0.24006135673E+03  0.00000000000E+00 0. -1.
          1    1    1    2  502    0  0.23627304195E+02  0.71726560476E+02  0.10771616046E+04  0.10798055711E+04  0.00000000000E+00 0. -1.
         22    1    3    3    0    0 -0.13033822599E+03 -0.15950190297E+02  0.22225626930E+03  0.25814784711E+03  0.00000000000E+00 0. -1.
         22    1    3    3    0    0  0.27927889392E+02 -0.18463050388E+02  0.45698774920E+02  0.56650059706E+02  0.00000000000E+00 0. -1.
</event>
<event>
 7    1  0.6173324E-006  0.3664511E+02  0.7818608E-02  0.1585678E+00
          2   -1    0    0  502    0  0.00000000000E+00  0.00000000000E+00  0.17310989784E+04  0.17310989784E+04  0.00000000000E+00 0. -1.
          1   -1    0    0  501    0 -0.00000000000E+00 -0.00000000000E+00 -0.70617483660E+03  0.70617483660E+03  0.00000000000E+00 0. -1.
         25    2    1    2    0    0 -0.19932471867E+02  0.13152885073E+01  0.13561685057E+03  0.18550899346E+03  0.12499049196E+03 0.  0.
          2    1    1    2  501    0 -0.81003647379E+01 -0.25215533011E+02 -0.68075521237E+03  0.68127020938E+03  0.00000000000E+00 0. -1.
          1    1    1    2  502    0  0.28032836605E+02  0.23900244504E+02  0.15700625036E+04  0.15704946122E+04  0.00000000000E+00 0. -1.
         22    1    3    3    0    0  0.53298400551E+02  0.21008010651E+01  0.56660570717E+02  0.77817434681E+02  0.00000000000E+00 0. -1.
         22    1    3    3    0    0 -0.73230872418E+02 -0.78551255783E+00  0.78956279849E+02  0.10769155878E+03  0.00000000000E+00 0. -1.
</event>
<event>
 7    1  0.6173324E-006  0.9676032E+02  0.7818608E-02  0.1451573E+00
          2   -1    0    0  502    0  0.00000000000E+00  0.00000000000E+00  0.17517131679E+03  0.17517131679E+03  0.00000000000E+00 0. -1.
          1   -1    0    0  501    0 -0.00000000000E+00 -0.00000000000E+00 -0.35967845403E+03  0.35967845403E+03  0.00000000000E+00 0. -1.
         25    2    1    2    0    0 -0.30352513488E+01 -0.77751081236E+02 -0.60469884172E+02  0.15917244975E+03  0.12499927394E+03 0.  0.
          2    1    1    2  501    0 -0.12325668542E+02 -0.21376276749E+02 -0.22909572532E+03  0.23042074272E+03  0.00000000000E+00 0. -1.
          1    1    1    2  502    0  0.15360919891E+02  0.99127357985E+02  0.10505847225E+03  0.14525657835E+03  0.00000000000E+00 0. -1.
         22    1    3    3    0    0 -0.85041664815E+01 -0.11179506907E+03 -0.52407778515E+02  0.12376200372E+03  0.00000000000E+00 0. -1.
         22    1    3    3    0    0  0.54689151328E+01  0.34043987836E+02 -0.80621056566E+01  0.35410446032E+02  0.00000000000E+00 0. -1.
</event>
<event>
 7    1  0.6173324E-006  0.4901471E+02  0.7818608E-02  0.1493058E+00
          2   -1    0    0  502    0  0.00000000000E+00  0.00000000000E+00  0.18251601654E+04  0.18251601654E+04  0.00000000000E+00 0. -1.
          1   -1    0    0  501    0 -0.00000000000E+00 -0.00000000000E+00 -0.40689564428E+02  0.40689564428E+02  0.00000000000E+00 0. -1.
         25    2    1    2    0    0 -0.37999262058E+01 -0.41795944136E+02  0.71465882367E+03  0.72672116416E+03  0.12500030322E+03 0.  0.
          2    1    1    2  501    0 -0.32179551337E+02  0.37609169678E+02 -0.16528972113E+02  0.52184098031E+02  0.00000000000E+00 0. -1.
          1    1    1    2  502    0  0.35979477543E+02  0.41867744580E+01  0.10863407494E+04  0.10869444676E+04  0.00000000000E+00 0. -1.
         22    1    3    3    0    0  0.41012380734E+02  0.26921235617E+02  0.30621601964E+03  0.31012097476E+03  0.00000000000E+00 0. -1.
         22    1    3    3    0    0 -0.44812306940E+02 -0.68717179753E+02  0.40844280403E+03  0.41660018940E+03  0.00000000000E+00 0. -1.
</event>
<event>
 7    1  0.6173324E-006  0.4289891E+02  0.7818608E-02  0.1556218E+00
          2   -1    0    0  502    0  0.00000000000E+00  0.00000000000E+00  0.10541914428E+04  0.10541914428E+04  0.00000000000E+00 0. -1.
          1   -1    0    0  501    0 -0.00000000000E+00 -0.00000000000E+00 -0.69369011682E+02  0.69369011682E+02  0.00000000000E+00 0. -1.
         25    2    1    2    0    0 -0.20445450306E+02 -0.31902240791E+02  0.27832044370E+03  0.30744625337E+03  0.12500063970E+03 0.  0.
          2    1    1    2  501    0 -0.20626991449E+02  0.17724691030E+02 -0.50770686254E+02  0.57596007076E+02  0.00000000000E+00 0. -1.
          1    1    1    2  502    0  0.41072441754E+02  0.14177549761E+02  0.75727267372E+03  0.75851819408E+03  0.00000000000E+00 0. -1.
         22    1    3    3    0    0  0.30426481203E+02  0.28979560526E+02  0.15669939905E+03  0.16223528392E+03  0.00000000000E+00 0.  1.
         22    1    3    3    0    0 -0.50871931509E+02 -0.60881801317E+02  0.12162104465E+03  0.14521096945E+03  0.00000000000E+00 0.  1.
</event>
<event>
 7    1  0.6173324E-006  0.1124816E+03  0.7818608E-02  0.1296508E+00
          2   -1    0    0  502    0  0.00000000000E+00  0.00000000000E+00  0.21041499325E+03  0.21041499325E+03  0.00000000000E+00 0. -1.
          1   -1    0    0  501    0 -0.00000000000E+00 -0.00000000000E+00 -0.24386562379E+04  0.24386562379E+04  0.00000000000E+00 0. -1.
         25    2    1    2    0    0  0.81224864323E+02  0.43041040492E+02 -0.45355507138E+02  0.16167201269E+03  0.12502282955E+03 0.  0.
          2    1    1    2  501    0 -0.38963486685E+02 -0.10662877509E+03 -0.23240973742E+04  0.23268683792E+04  0.00000000000E+00 0. -1.
          1    1    1    2  502    0 -0.42261377639E+02  0.63587734598E+02  0.14121163671E+03  0.16053083932E+03  0.00000000000E+00 0. -1.
         22    1    3    3    0    0  0.19601235384E+02 -0.41246429578E+02  0.46502456018E+01  0.45903171629E+02  0.00000000000E+00 0. -1.
         22    1    3    3    0    0  0.61623628940E+02  0.84287470070E+02 -0.50005752740E+02  0.11576884107E+03  0.00000000000E+00 0. -1.
</event>
<event>
 7    1  0.6173324E-006  0.1458934E+03  0.7818608E-02  0.1284724E+00
          2   -1    0    0  502    0  0.00000000000E+00  0.00000000000E+00  0.58305292654E+02  0.58305292654E+02  0.00000000000E+00 0. -1.
          1   -1    0    0  501    0 -0.00000000000E+00 -0.00000000000E+00 -0.97200989441E+03  0.97200989441E+03  0.00000000000E+00 0. -1.
         25    2    1    2    0    0  0.47538977479E+02 -0.13840371489E+03 -0.26481633026E+03  0.32736535839E+03  0.12499938570E+03 0.  0.
          2    1    1    2  501    0  0.58637815255E+02  0.29690534437E+02 -0.43862565153E+03  0.44352269772E+03  0.00000000000E+00 0. -1.
          1    1    1    2  502    0 -0.10617679273E+03  0.10871318045E+03 -0.21026261997E+03  0.25942713095E+03  0.00000000000E+00 0. -1.
         22    1    3    3    0    0  0.88652583563E+02 -0.88621124397E+02 -0.14851569697E+03  0.19434478771E+03  0.00000000000E+00 0.  1.
         22    1    3    3    0    0 -0.41113606084E+02 -0.49782590494E+02 -0.11630063329E+03  0.13302057069E+03  0.00000000000E+00 0.  1.
</event>
<event>
 7    1  0.6173324E-006  0.9391548E+02  0.7818608E-02  0.1412651E+00
          2   -1    0    0  502    0  0.00000000000E+00  0.00000000000E+00  0.74340349756E+03  0.74340349756E+03  0.00000000000E+00 0. -1.
          1   -1    0    0  501    0 -0.00000000000E+00 -0.00000000000E+00 -0.56305294074E+03  0.56305294074E+03  0.00000000000E+00 0. -1.
         25    2    1    2    0    0 -0.28196465031E+02 -0.12019133854E+03 -0.16984364251E+03  0.24436157646E+03  0.12499887459E+03 0.  0.
          2    1    1    2  501    0  0.18013062226E+02  0.87627657152E+02 -0.34990739949E+03  0.36116238028E+03  0.00000000000E+00 0. -1.
          1    1    1    2  502    0  0.10183402805E+02  0.32563681385E+02  0.70010159883E+03  0.70093248157E+03  0.00000000000E+00 0. -1.
         22    1    3    3    0    0 -0.23269657460E+02  0.95264923988E+01 -0.86542626224E+02  0.90121346914E+02  0.00000000000E+00 0. -1.
         22    1    3    3    0    0 -0.49268075715E+01 -0.12971783094E+03 -0.83301016286E+02  0.15424022954E+03  0.00000000000E+00 0. -1.
</event>
<event>
 7    1  0.6173324E-006  0.8136255E+02  0.7818608E-02  0.1382551E+00
          2   -1    0    0  502    0  0.00000000000E+00  0.00000000000E+00  0.10200148250E+03  0.10200148250E+03  0.00000000000E+00 0. -1.
          1   -1    0    0  501    0 -0.00000000000E+00 -0.00000000000E+00 -0.48203562410E+03  0.48203562410E+03  0.00000000000E+00 0. -1.
         25    2    1    2    0    0 -0.22532723366E+02 -0.30358443537E+02 -0.15621575433E+03  0.20361080241E+03  0.12499855295E+03 0.  0.
          2    1    1    2  501    0 -0.36557143359E+02 -0.34148034425E+02 -0.27470503935E+03  0.27922279926E+03  0.00000000000E+00 0. -1.
          1    1    1    2  502    0  0.59089866724E+02  0.64506477962E+02  0.50886652080E+02  0.10120350492E+03  0.00000000000E+00 0. -1.
         22    1    3    3    0    0  0.20250914001E+02  0.63030920307E+01 -0.14451863284E+03  0.14606664139E+03  0.00000000000E+00 0. -1.
         22    1    3    3    0    0 -0.42783637366E+02 -0.36661535567E+02 -0.11697121487E+02  0.57544161020E+02  0.00000000000E+00 0. -1.
</event>
<event>
 7    1  0.6173324E-006  0.1396588E+03  0.7818608E-02  0.1270435E+00
          2   -1    0    0  502    0  0.00000000000E+00  0.00000000000E+00  0.42534024274E+03  0.42534024274E+03  0.00000000000E+00 0. -1.
          1   -1    0    0  501    0 -0.00000000000E+00 -0.00000000000E+00 -0.43583758380E+03  0.43583758380E+03  0.00000000000E+00 0. -1.
         25    2    1    2    0    0 -0.51296521567E+01 -0.18286773570E+03  0.28532019447E+03  0.36124790386E+03  0.12500205030E+03 0.  0.
          2    1    1    2  501    0 -0.51774147017E+02  0.12849896417E+03 -0.36795398299E+03  0.39317003916E+03  0.00000000000E+00 0. -1.
          1    1    1    2  502    0  0.56903799174E+02  0.54368771524E+02  0.72136447457E+02  0.10675988352E+03  0.00000000000E+00 0. -1.
         22    1    3    3    0    0 -0.61025567998E+02 -0.11842090893E+03  0.20218894369E+03  0.24213219648E+03  0.00000000000E+00 0. -1.
         22    1    3    3    0    0  0.55895915841E+02 -0.64446826771E+02  0.83131250785E+02  0.11911570738E+03  0.00000000000E+00 0. -1.
</event>
<event>
 7    1  0.6173324E-006  0.2640456E+02  0.7818608E-02  0.1662843E+00
          2   -1    0    0  502    0  0.00000000000E+00  0.00000000000E+00  0.55297389252E+02  0.55297389252E+02  0.00000000000E+00 0. -1.
          1   -1    0    0  501    0 -0.00000000000E+00 -0.00000000000E+00 -0.42785202013E+03  0.42785202013E+03  0.00000000000E+00 0. -1.
         25    2    1    2    0    0  0.18138808974E+02  0.58538492435E+01 -0.37017844831E+03  0.39117890390E+03  0.12500226924E+03 0.  0.
          2    1    1    2  501    0 -0.29985572131E+02  0.14359265491E+02 -0.37268156729E+02  0.49942352242E+02  0.00000000000E+00 0. -1.
          1    1    1    2  502    0  0.11846763158E+02 -0.20213114735E+02  0.34891974160E+02  0.42028153248E+02  0.00000000000E+00 0. -1.
         22    1    3    3    0    0  0.71298965982E+02  0.12153709054E+02 -0.19385067853E+03  0.20690418256E+03  0.00000000000E+00 0. -1.
         22    1    3    3    0    0 -0.53160157008E+02 -0.62998598102E+01 -0.17632776978E+03  0.18427472134E+03  0.00000000000E+00 0. -1.
</event>
<event>
 7    1  0.6173324E-006  0.1332978E+03  0.7818608E-02  0.1303458E+00
          2   -1    0    0  502    0  0.00000000000E+00  0.00000000000E+00  0.23969031637E+03  0.23969031637E+03  0.00000000000E+00 0. -1.
          1   -1    0    0  501    0 -0.00000000000E+00 -0.00000000000E+00 -0.18935635514E+04  0.18935635514E+04  0.00000000000E+00 0. -1.
         25    2    1    2    0    0  0.39800611558E+02  0.15207894673E+03 -0.16482328679E+03  0.25981490863E+03  0.12499990462E+03 0.  0.
          2    1    1    2  501    0 -0.56544563532E+02 -0.21316529527E+02 -0.16580228747E+04  0.16591237251E+04  0.00000000000E+00 0. -1.
          1    1    1    2  502    0  0.16743951974E+02 -0.13076241721E+03  0.16897292646E+03  0.21431523408E+03  0.00000000000E+00 0. -1.
         22    1    3    3    0    0  0.39254481116E+02  0.12620787570E+03 -0.18474595790E+03  0.22715723879E+03  0.00000000000E+00 0. -1.
         22    1    3    3    0    0  0.54613044214E+00  0.25871071035E+02  0.19922671104E+02  0.32657669833E+02  0.00000000000E+00 0. -1.
</event>
<event>
 7    1  0.6173324E-006  0.1704000E+03  0.7818608E-02  0.1281848E+00
          2   -1    0    0  502    0  0.00000000000E+00  0.00000000000E+00  0.10357023556E+03  0.10357023556E+03  0.00000000000E+00 0. -1.
          1   -1    0    0  501    0 -0.00000000000E+00 -0.00000000000E+00 -0.14805072563E+04  0.14805072563E+04  0.00000000000E+00 0. -1.
         25    2    1    2    0    0  0.91996727979E+02 -0.11042045627E+03 -0.27211798465E+03  0.33215916517E+03  0.12500175326E+03 0.  0.
          2    1    1    2  501    0 -0.16892119433E+02 -0.55304429173E+02 -0.10638415813E+04  0.10654120488E+04  0.00000000000E+00 0. -1.
          1    1    1    2  502    0 -0.75104608546E+02  0.16572488544E+03 -0.40977454729E+02  0.18650627784E+03  0.00000000000E+00 0. -1.
         22    1    3    3    0    0  0.50024229743E+02 -0.13106344260E+03 -0.17437225856E+03  0.22379842292E+03  0.00000000000E+00 0. -1.
         22    1    3    3    0    0  0.41972498236E+02  0.20642986331E+02 -0.97745726090E+02  0.10836074225E+03  0.00000000000E+00 0. -1.
</event>
<event>
 7    1  0.6173324E-006  0.1272614E+03  0.7818608E-02  0.1303148E+00
          2   -1    0    0  502    0  0.00000000000E+00  0.00000000000E+00  0.41340351586E+03  0.41340351586E+03  0.00000000000E+00 0. -1.
          1   -1    0    0  501    0 -0.00000000000E+00 -0.00000000000E+00 -0.36847541495E+03  0.36847541495E+03  0.00000000000E+00 0. -1.
         25    2    1    2    0    0 -0.30465502927E+02 -0.87411349035E+02 -0.22157674351E+03  0.27072259469E+03  0.12500231678E+03 0.  0.
          2    1    1    2  501    0 -0.63460531941E+02 -0.13944524107E+01 -0.10227888500E+03  0.12037505525E+03  0.00000000000E+00 0. -1.
          1    1    1    2  502    0  0.93926034868E+02  0.88805801446E+02  0.36878372941E+03  0.39078128087E+03  0.00000000000E+00 0. -1.
         22    1    3    3    0    0  0.78199913772E+01 -0.93007713846E+02 -0.21082859759E+03  0.23056514191E+03  0.00000000000E+00 0.  1.
         22    1    3    3    0    0 -0.38285494304E+02  0.55963648113E+01 -0.10748145920E+02  0.40157452782E+02  0.00000000000E+00 0.  1.
</event>
<event>
 7    1  0.6173324E-006  0.6795619E+02  0.7818608E-02  0.1376580E+00
          2   -1    0    0  502    0  0.00000000000E+00  0.00000000000E+00  0.48098781213E+03  0.48098781213E+03  0.00000000000E+00 0. -1.
          1   -1    0    0  501    0 -0.00000000000E+00 -0.00000000000E+00 -0.45765473449E+03  0.45765473449E+03  0.00000000000E+00 0. -1.
         25    2    1    2    0    0 -0.25080148564E+02 -0.31503350016E+02  0.89060295246E+02  0.15867833773E+03  0.12500241502E+03 0.  0.
          2    1    1    2  501    0 -0.29690372863E+02  0.62401787722E+02 -0.41721296168E+03  0.42289733595E+03  0.00000000000E+00 0. -1.
          1    1    1    2  502    0  0.54770521427E+02 -0.30898437706E+02  0.35148574408E+03  0.35706687295E+03  0.00000000000E+00 0. -1.
         22    1    3    3    0    0 -0.52957830032E+02 -0.66753499850E+02  0.68152245948E+02  0.10911136573E+03  0.00000000000E+00 0.  1.
         22    1    3    3    0    0  0.27877681468E+02  0.35250149834E+02  0.20908049299E+02  0.49566971996E+02  0.00000000000E+00 0.  1.
</event>
<event>
 7    1  0.6173324E-006  0.2169814E+03  0.7818608E-02  0.1143349E+00
          2   -1    0    0  502    0  0.00000000000E+00  0.00000000000E+00  0.27332889076E+04  0.27332889076E+04  0.00000000000E+00 0. -1.
          1   -1    0    0  501    0 -0.00000000000E+00 -0.00000000000E+00 -0.18801466244E+03  0.18801466244E+03  0.00000000000E+00 0. -1.
         25    2    1    2    0    0  0.13143452376E+03 -0.86708540169E+01  0.30834122378E+03  0.35783891703E+03  0.12499665001E+03 0.  0.
          2    1    1    2  501    0 -0.11041562121E+03 -0.20729007207E+03 -0.70995138415E+02  0.24535911042E+03  0.00000000000E+00 0. -1.
          1    1    1    2  502    0 -0.21018902557E+02  0.21596092609E+03  0.23079281598E+04  0.23181055426E+04  0.00000000000E+00 0. -1.
         22    1    3    3    0    0  0.15268705473E+02 -0.44251459380E+02  0.34173366770E+02  0.57958122990E+02  0.00000000000E+00 0.  1.
         22    1    3    3    0    0  0.11616581829E+03  0.35580605363E+02  0.27416785701E+03  0.29988079404E+03  0.00000000000E+00 0.  1.
</event>
<event>
 7    1  0.6173324E-006  0.6184771E+02  0.7818608E-02  0.1417701E+00
          2   -1    0    0  502    0  0.00000000000E+00  0.00000000000E+00  0.35454419529E+02  0.35454419529E+02  0.00000000000E+00 0. -1.
          1   -1    0    0  501    0 -0.00000000000E+00 -0.00000000000E+00 -0.19322995011E+04  0.19322995011E+04  0.00000000000E+00 0. -1.
         25    2    1    2    0    0 -0.14949268711E+02 -0.46748876462E+02 -0.10492106698E+04  0.10577692721E+04  0.12499546123E+03 0.  0.
          2    1    1    2  501    0 -0.43610716572E+02  0.24090315691E+02 -0.84569770952E+03  0.84716400643E+03  0.00000000000E+00 0. -1.
          1    1    1    2  502    0  0.58559985283E+02  0.22658560770E+02 -0.19367022278E+01  0.62820642054E+02  0.00000000000E+00 0. -1.
         22    1    3    3    0    0 -0.30626963141E+02  0.34908551867E+02 -0.51960234532E+03  0.52167347558E+03  0.00000000000E+00 0. -1.
         22    1    3    3    0    0  0.15677694430E+02 -0.81657428328E+02 -0.52960832449E+03  0.53609579654E+03  0.00000000000E+00 0. -1.
</event>
<event>
 7    1  0.6173324E-006  0.6416768E+02  0.7818608E-02  0.1431753E+00
          2   -1    0    0  502    0  0.00000000000E+00  0.00000000000E+00  0.64656479706E+03  0.64656479706E+03  0.00000000000E+00 0. -1.
          1   -1    0    0  501    0 -0.00000000000E+00 -0.00000000000E+00 -0.22904341957E+03  0.22904341957E+03  0.00000000000E+00 0. -1.
         25    2    1    2    0    0 -0.26819405853E+02  0.22926950482E+02 -0.25649913778E+01  0.12990700750E+03  0.12499730328E+03 0.  0.
          2    1    1    2  501    0  0.18938648537E+02 -0.65334558057E+02 -0.15485868111E+03  0.16914043869E+03  0.00000000000E+00 0. -1.
          1    1    1    2  502    0  0.78807573166E+01  0.42407607574E+02  0.57494504998E+03  0.57656077045E+03  0.00000000000E+00 0. -1.
         22    1    3    3    0    0 -0.46613305113E+02 -0.41405740144E+02  0.25855949140E+01  0.62401288700E+02  0.00000000000E+00 0.  1.
         22    1    3    3    0    0  0.19793899259E+02  0.64332690626E+02 -0.51505862917E+01  0.67505718797E+02  0.00000000000E+00 0.  1.
</event>
<event>
 7    1  0.6173324E-006  0.8385471E+02  0.7818608E-02  0.1333865E+00
          2   -1    0    0  502    0  0.00000000000E+00  0.00000000000E+00  0.15139442708E+04  0.15139442708E+04  0.00000000000E+00 0. -1.
          1   -1    0    0  501    0 -0.00000000000E+00 -0.00000000000E+00 -0.47355848992E+03  0.47355848992E+03  0.00000000000E+00 0. -1.
         25    2    1    2    0    0 -0.31653472592E+02  0.65889311014E+02  0.21612293305E+03  0.26014952856E+03  0.12500124554E+03 0.  0.
          2    1    1    2  501    0 -0.41072248132E+02 -0.73895232863E+02 -0.44652650101E+03  0.45445940535E+03  0.00000000000E+00 0. -1.
          1    1    1    2  502    0  0.72725720724E+02  0.80059218493E+01  0.12707893488E+04  0.12728938268E+04  0.00000000000E+00 0. -1.
         22    1    3    3    0    0 -0.60590649875E+02  0.84648049194E+02  0.12470500467E+03  0.16244339714E+03  0.00000000000E+00 0. -1.
         22    1    3    3    0    0  0.28937177282E+02 -0.18758738180E+02  0.91417928385E+02  0.97706131422E+02  0.00000000000E+00 0. -1.
</event>
<event>
 7    1  0.6173324E-006  0.9155577E+02  0.7818608E-02  0.1376602E+00
          2   -1    0    0  502    0  0.00000000000E+00  0.00000000000E+00  0.18920812762E+03  0.18920812762E+03  0.00000000000E+00 0. -1.
          1   -1    0    0  501    0 -0.00000000000E+00 -0.00000000000E+00 -0.49754557759E+03  0.49754557759E+03  0.00000000000E+00 0. -1.
         25    2    1    2    0    0 -0.10443855539E+03 -0.59704965776E+02 -0.32954150043E+03  0.37241682363E+03  0.12499838090E+03 0.  0.
          2    1    1    2  501    0  0.58476154251E+02  0.51626502249E+02 -0.13247154403E+03  0.15373179999E+03  0.00000000000E+00 0. -1.
          1    1    1    2  502    0  0.45962401135E+02  0.80784635270E+01  0.15367559449E+03  0.16060508159E+03  0.00000000000E+00 0. -1.
         22    1    3    3    0    0  0.18192396203E+02  0.11918756572E+02 -0.12655142125E+02  0.25162922327E+02  0.00000000000E+00 0.  1.
         22    1    3    3    0    0 -0.12263095159E+03 -0.71623722348E+02 -0.31688635830E+03  0.34725390130E+03  0.00000000000E+00 0.  1.
</event>
<event>
 7    1  0.6173324E-006  0.6210010E+02  0.7818608E-02  0.1413273E+00
          2   -1    0    0  502    0  0.00000000000E+00  0.00000000000E+00  0.12493449608E+03  0.12493449608E+03  0.00000000000E+00 0. -1.
          1   -1    0    0  501    0 -0.00000000000E+00 -0.00000000000E+00 -0.49074147380E+03  0.49074147380E+03  0.00000000000E+00 0. -1.
         25    2    1    2    0    0  0.82688131352E+01  0.16634903068E+02 -0.41995640958E+02  0.13316073545E+03  0.12499221710E+03 0.  0.
          2    1    1    2  501    0  0.23857505364E+02  0.45471337774E+02 -0.38572043241E+03  0.38912347025E+03  0.00000000000E+00 0. -1.
          1    1    1    2  502    0 -0.32126318499E+02 -0.62106240843E+02  0.61909095647E+02  0.93391764176E+02  0.00000000000E+00 0. -1.
         22    1    3    3    0    0 -0.15561819493E+02  0.25035085927E+02 -0.81275300433E+02  0.86455770275E+02  0.00000000000E+00 0.  1.
         22    1    3    3    0    0  0.23830632628E+02 -0.84001828590E+01  0.39279659476E+02  0.46704965175E+02  0.00000000000E+00 0.  1.
</event>
<event>
 7    1  0.6173324E-006  0.8372198E+02  0.7818608E-02  0.1395120E+00
          2   -1    0    0  502    0  0.00000000000E+00  0.00000000000E+00  0.24509520284E+04  0.24509520284E+04  0.00000000000E+00 0. -1.
          1   -1    0    0  501    0 -0.00000000000E+00 -0.00000000000E+00 -0.48372467817E+02  0.48372467817E+02  0.00000000000E+00 0. -1.
         25    2    1    2    0    0 -0.39487844126E+02 -0.32983398714E+02  0.22581473193E+03  0.26318033329E+03  0.12499760098E+03 0.  0.
          2    1    1    2  501    0  0.60709441005E+02  0.71456156992E+02  0.45134822113E+02  0.10406137980E+03  0.00000000000E+00 0. -1.
          1    1    1    2  502    0 -0.21221596879E+02 -0.38472758278E+02  0.21316300065E+04  0.21320827831E+04  0.00000000000E+00 0. -1.
         22    1    3    3    0    0 -0.65961424422E+02 -0.45370614508E+02  0.21899084657E+03  0.23316602037E+03  0.00000000000E+00 0.  1.
         22    1    3    3    0    0  0.26473580296E+02  0.12387215794E+02  0.68238853559E+01  0.30014312922E+02  0.00000000000E+00 0.  1.
</event>
<event>
 7    1  0.6173324E-006  0.6248109E+02  0.7818608E-02  0.1460074E+00
          2   -1    0    0  502    0  0.00000000000E+00  0.00000000000E+00  0.24424846761E+04  0.24424846761E+04  0.00000000000E+00 0. -1.
          1   -1    0    0  501    0 -0.00000000000E+00 -0.00000000000E+00 -0.71270908564E+03  0.71270908564E+03  0.00000000000E+00 0. -1.
         25    2    1    2    0    0 -0.29901044869E+02 -0.22729899694E+02 -0.11424866974E+02  0.13101906083E+03  0.12499898356E+03 0.  0.
          2    1    1    2  501    0  0.62729106836E+02  0.81712436733E+01 -0.63979184648E+03  0.64291159337E+03  0.00000000000E+00 0. -1.
          1    1    1    2  502    0 -0.32828061967E+02  0.14558656021E+02  0.23809923040E+04  0.23812631076E+04  0.00000000000E+00 0. -1.
         22    1    3    3    0    0 -0.10854253902E+02  0.34876077005E+02  0.38040331678E+02  0.52737296188E+02  0.00000000000E+00 0.  1.
         22    1    3    3    0    0 -0.19046790968E+02 -0.57605976699E+02 -0.49465198652E+02  0.78281764641E+02  0.00000000000E+00 0.  1.
</event>
<event>
 7    1  0.6173324E-006  0.4983242E+02  0.7818608E-02  0.1506871E+00
          2   -1    0    0  502    0  0.00000000000E+00  0.00000000000E+00  0.17162705472E+04  0.17162705472E+04  0.00000000000E+00 0. -1.
          1   -1    0    0  501    0 -0.00000000000E+00 -0.00000000000E+00 -0.19460018822E+03  0.19460018822E+03  0.00000000000E+00 0. -1.
         25    2    1    2    0    0  0.19722856931E+02  0.13076113975E+01  0.29547652961E+02  0.12995624457E+03  0.12499944309E+03 0.  0.
          2    1    1    2  501    0 -0.51192539768E+02  0.64076510477E+01 -0.13962152268E+03  0.14884859326E+03  0.00000000000E+00 0. -1.
          1    1    1    2  502    0  0.31469682836E+02 -0.77152624451E+01  0.16317442287E+04  0.16320658976E+04  0.00000000000E+00 0. -1.
         22    1    3    3    0    0 -0.15391594362E+02  0.56658536601E+02  0.16999000162E+01  0.58736535536E+02  0.00000000000E+00 0. -1.
         22    1    3    3    0    0  0.35114451293E+02 -0.55350925203E+02  0.27847752945E+02  0.71219709032E+02  0.00000000000E+00 0. -1.
</event>
<event>
 7    1  0.6173324E-006  0.1667633E+03  0.7818608E-02  0.1279899E+00
          2   -1    0    0  502    0  0.00000000000E+00  0.00000000000E+00  0.42672449689E+03  0.42672449689E+03  0.00000000000E+00 0. -1.
          1   -1    0    0  501    0 -0.00000000000E+00 -0.00000000000E+00 -0.49792586869E+03  0.49792586869E+03  0.00000000000E+00 0. -1.
         25    2    1    2    0    0 -0.28549930620E+02 -0.14910692417E+03  0.22063066040E+03  0.29555194206E+03  0.12500035507E+03 0.  0.
          2    1    1    2  501    0 -0.55084799953E+02 -0.24264719200E+02 -0.40255832195E+03  0.40703355434E+03  0.00000000000E+00 0. -1.
          1    1    1    2  502    0  0.83634730573E+02  0.17337164337E+03  0.11072628975E+03  0.22206486919E+03  0.00000000000E+00 0. -1.
         22    1    3    3    0    0  0.25237853335E+02  0.41452827900E+01  0.68084383672E+02  0.72729745706E+02  0.00000000000E+00 0.  1.
         22    1    3    3    0    0 -0.53787783954E+02 -0.15325220696E+03  0.15254627673E+03  0.22282219635E+03  0.00000000000E+00 0.  1.
</event>
<event>
 7    1  0.6173324E-006  0.1191454E+03  0.7818608E-02  0.1263757E+00
          2   -1    0    0  502    0  0.00000000000E+00  0.00000000000E+00  0.13585529268E+03  0.13585529268E+03  0.00000000000E+00 0. -1.
          1   -1    0    0  501    0 -0.00000000000E+00 -0.00000000000E+00 -0.11672944351E+04  0.11672944351E+04  0.00000000000E+00 0. -1.
         25    2    1    2    0    0 -0.14178957640E+03  0.14150514387E+03 -0.12578875974E+03  0.26753747982E+03  0.12500200523E+03 0.  0.
          2    1    1    2  501    0  0.71577422064E+02 -0.67574768517E+02 -0.92635739359E+03  0.93157270105E+03  0.00000000000E+00 0. -1.
          1    1    1    2  502    0  0.70212154339E+02 -0.73930375353E+02  0.20707010928E+02  0.10403954690E+03  0.00000000000E+00 0. -1.
         22    1    3    3    0    0 -0.91817727532E+01 -0.14932049720E+02 -0.42895859987E+02  0.46339247552E+02  0.00000000000E+00 0. -1.
         22    1    3    3    0    0 -0.13260780365E+03  0.15643719359E+03 -0.82892899750E+02  0.22119823226E+03  0.00000000000E+00 0. -1.
</event>
<event>
 7    1  0.6173324E-006  0.6842524E+02  0.7818608E-02  0.1443472E+00
          2   -1    0    0  502    0  0.00000000000E+00  0.00000000000E+00  0.16658822020E+04  0.16658822020E+04  0.00000000000E+00 0. -1.
          1   -1    0    0  501    0 -0.00000000000E+00 -0.00000000000E+00 -0.11600941331E+04  0.11600941331E+04  0.00000000000E+00 0. -1.
         25    2    1    2    0    0  0.44108450931E+02  0.12735989378E+01  0.66744612525E+03  0.68048218815E+03  0.12499800313E+03 0.  0.
          2    1    1    2  501    0 -0.58637918337E+02 -0.35352488569E+02 -0.11522135118E+04  0.11542461526E+04  0.00000000000E+00 0. -1.
          1    1    1    2  502    0  0.14529467406E+02  0.34078889631E+02  0.99055545548E+03  0.99124799446E+03  0.00000000000E+00 0. -1.
         22    1    3    3    0    0  0.59884218265E+02  0.25945029644E+02  0.16880246332E+03  0.18097937944E+03  0.00000000000E+00 0.  1.
         22    1    3    3    0    0 -0.15775767334E+02 -0.24671430706E+02  0.49864366193E+03  0.49950280871E+03  0.00000000000E+00 0.  1.
</event>
<event>
 7    1  0.6173324E-006  0.9992472E+02  0.7818608E-02  0.1363686E+00
          2   -1    0    0  502    0  0.00000000000E+00  0.00000000000E+00  0.11759264946E+03  0.11759264946E+03  0.00000000000E+00 0. -1.
          1   -1    0    0  501    0 -0.00000000000E+00 -0.00000000000E+00 -0.61457762665E+03  0.61457762665E+03  0.00000000000E+00 0. -1.
         25    2    1    2    0    0 -0.96122226180E+02 -0.52090036854E+02 -0.11416224495E+03  0.20152202810E+03  0.12500102133E+03 0.  0.
          2    1    1    2  501    0 -0.35768023872E+01  0.47448058694E+02 -0.42108017219E+03  0.42376010100E+03  0.00000000000E+00 0. -1.
          1    1    1    2  502    0  0.99699028567E+02  0.46419781600E+01  0.38257439945E+02  0.10688814700E+03  0.00000000000E+00 0. -1.
         22    1    3    3    0    0 -0.16215293366E+02 -0.71124088323E+02 -0.18163065067E+02  0.75176250314E+02  0.00000000000E+00 0. -1.
         22    1    3    3    0    0 -0.79906932814E+02  0.19034051469E+02 -0.95999179884E+02  0.12634577779E+03  0.00000000000E+00 0. -1.
</event>
<event>
 7    1  0.6173324E-006  0.6234749E+02  0.7818608E-02  0.1455708E+00
          2   -1    0    0  502    0  0.00000000000E+00  0.00000000000E+00  0.13953802951E+03  0.13953802951E+03  0.00000000000E+00 0. -1.
          1   -1    0    0  501    0 -0.00000000000E+00 -0.00000000000E+00 -0.53234688369E+03  0.53234688369E+03  0.00000000000E+00 0. -1.
         25    2    1    2    0    0 -0.65482529205E+02  0.33365131910E+02 -0.18445605996E+03  0.23462785354E+03  0.12499999177E+03 0.  0.
          2    1    1    2  501    0  0.33496081590E+02 -0.52262602260E+02 -0.31669531891E+03  0.32272169449E+03  0.00000000000E+00 0. -1.
          1    1    1    2  502    0  0.31986447615E+02  0.18897470350E+02  0.10834252469E+03  0.11453536516E+03  0.00000000000E+00 0. -1.
         22    1    3    3    0    0  0.36472508805E+01 -0.17700303324E+02  0.10967819001E+02  0.21139920302E+02  0.00000000000E+00 0. -1.
         22    1    3    3    0    0 -0.69129780085E+02  0.51065435233E+02 -0.19542387897E+03  0.21348793324E+03  0.00000000000E+00 0. -1.
</event>
<event>
 7    1  0.6173324E-006  0.5764776E+02  0.7818608E-02  0.1423047E+00
          2   -1    0    0  502    0  0.00000000000E+00  0.00000000000E+00  0.25271710739E+03  0.25271710739E+03  0.00000000000E+00 0. -1.
          1   -1    0    0  501    0 -0.00000000000E+00 -0.00000000000E+00 -0.47435401579E+03  0.47435401579E+03  0.00000000000E+00 0. -1.
         25    2    1    2    0    0  0.20122904675E+02  0.90239080868E+02 -0.15015902477E+03  0.21614932860E+03  0.12499910611E+03 0.  0.
          2    1    1    2  501    0 -0.36807906790E+02 -0.41728029424E+02 -0.28548244310E+03  0.29085438927E+03  0.00000000000E+00 0. -1.
          1    1    1    2  502    0  0.16685002115E+02 -0.48511051444E+02  0.21400455947E+03  0.22006740531E+03  0.00000000000E+00 0. -1.
         22    1    3    3    0    0  0.36436400389E+02  0.10258649745E+03 -0.61241703463E+02  0.12490855446E+03  0.00000000000E+00 0.  1.
         22    1    3    3    0    0 -0.16313495715E+02 -0.12347416585E+02 -0.88917321305E+02  0.91240774146E+02  0.00000000000E+00 0.  1.
</event>
<event>
 7    1  0.6173324E-006  0.1723181E+03  0.7818608E-02  0.1344724E+00
          2   -1    0    0  502    0  0.00000000000E+00  0.00000000000E+00  0.46890273656E+03  0.46890273656E+03  0.00000000000E+00 0. -1.
          1   -1    0    0  501    0 -0.00000000000E+00 -0.00000000000E+00 -0.58066879939E+03  0.58066879939E+03  0.00000000000E+00 0. -1.
         25    2    1    2    0    0  0.56592699585E+02 -0.15453146301E+03 -0.34017936156E+02  0.20944167253E+03  0.12500354998E+03 0.  0.
          2    1    1    2  501    0 -0.29151369074E+02  0.17176560891E+03 -0.44165862454E+03  0.47477949340E+03  0.00000000000E+00 0. -1.
          1    1    1    2  502    0 -0.27441330511E+02 -0.17234145899E+02  0.36391049787E+03  0.36535037001E+03  0.00000000000E+00 0. -1.
         22    1    3    3    0    0  0.94897162650E+02 -0.12950446446E+03 -0.31529158341E+02  0.16361835356E+03  0.00000000000E+00 0. -1.
         22    1    3    3    0    0 -0.38304463065E+02 -0.25026998545E+02 -0.24887778142E+01  0.45823318975E+02  0.00000000000E+00 0. -1.
</event>
<event>
 7    1  0.6173324E-006  0.1989571E+03  0.7818608E-02  0.1319648E+00
          2   -1    0    0  502    0  0.00000000000E+00  0.00000000000E+00  0.28284285163E+03  0.28284285163E+03  0.00000000000E+00 0. -1.
          1   -1    0    0  501    0 -0.00000000000E+00 -0.00000000000E+00 -0.85884659103E+03  0.85884659103E+03  0.00000000000E+00 0. -1.
         25    2    1    2    0    0  0.20046342954E+03  0.64188072450E+01 -0.61433296343E+02  0.24418561724E+03  0.12500311237E+03 0.  0.
          2    1    1    2  501    0 -0.33099500258E+01 -0.34810196915E+02 -0.65363827527E+03  0.65457291456E+03  0.00000000000E+00 0. -1.
          1    1    1    2  502    0 -0.19715347951E+03  0.28391389670E+02  0.13906783222E+03  0.24293091085E+03  0.00000000000E+00 0. -1.
         22    1    3    3    0    0  0.90725305168E+02  0.48037010088E+02 -0.73419241793E+02  0.12621022305E+03  0.00000000000E+00 0. -1.
         22    1    3    3    0    0  0.10973812437E+03 -0.41618202843E+02  0.11985945450E+02  0.11797539420E+03  0.00000000000E+00 0. -1.
</event>
<event>
 7    1  0.6173324E-006  0.1256617E+03  0.7818608E-02  0.1234992E+00
          2   -1    0    0  502    0  0.00000000000E+00  0.00000000000E+00  0.17753140179E+04  0.17753140179E+04  0.00000000000E+00 0. -1.
          1   -1    0    0  501    0 -0.00000000000E+00 -0.00000000000E+00 -0.95056811105E+03  0.95056811105E+03  0.00000000000E+00 0. -1.
         25    2    1    2    0    0  0.16947041032E+03 -0.27350940015E+02  0.12552908927E+04  0.12731291641E+04  0.12503739174E+03 0.  0.
          2    1    1    2  501    0 -0.10012239163E+03 -0.75975357169E+02 -0.92978306951E+03  0.93823947079E+03  0.00000000000E+00 0. -1.
          1    1    1    2  502    0 -0.69348018690E+02  0.10332629718E+03  0.49923808361E+03  0.51451349401E+03  0.00000000000E+00 0. -1.
         22    1    3    3    0    0  0.13029924797E+03 -0.18782098063E+02  0.11843204184E+04  0.11916146671E+04  0.00000000000E+00 0. -1.
         22    1    3    3    0    0  0.39171162355E+02 -0.85688419529E+01  0.70970474244E+02  0.81514497036E+02  0.00000000000E+00 0. -1.
</event>
<event>
 7    1  0.6173324E-006  0.6903948E+02  0.7818608E-02  0.1452988E+00
          2   -1    0    0  502    0  0.00000000000E+00  0.00000000000E+00  0.15877971745E+04  0.15877971745E+04  0.00000000000E+00 0. -1.
          1   -1    0    0  501    0 -0.00000000000E+00 -0.00000000000E+00 -0.41394816492E+03  0.41394816492E+03  0.00000000000E+00 0. -1.
         25    2    1    2    0    0 -0.56442351414E+02 -0.36749089113E+02  0.22742723382E+03  0.26811209647E+03  0.12499886003E+03 0.  0.
          2    1    1    2  501    0 -0.12847300961E+02  0.31722524222E+02 -0.39195910999E+03  0.39345052496E+03  0.00000000000E+00 0. -1.
          1    1    1    2  502    0  0.69289652375E+02  0.50265648907E+01  0.13383808857E+04  0.13401827180E+04  0.00000000000E+00 0. -1.
         22    1    3    3    0    0 -0.13413996857E+02 -0.76516868848E+02  0.16569519007E+03  0.18300181022E+03  0.00000000000E+00 0. -1.
         22    1    3    3    0    0 -0.43028354557E+02  0.39767779735E+02  0.61732043747E+02  0.85110286253E+02  0.00000000000E+00 0. -1.
</event>
<event>
 7    1  0.6173324E-006  0.9152292E+02  0.7818608E-02  0.1481708E+00
          2   -1    0    0  502    0  0.00000000000E+00  0.00000000000E+00  0.47550380045E+02  0.47550380045E+02  0.00000000000E+00 0. -1.
          1   -1    0    0  501    0 -0.00000000000E+00 -0.00000000000E+00 -0.79704213409E+03  0.79704213409E+03  0.00000000000E+00 0. -1.
         25    2    1    2    0    0  0.19548249329E+02  0.79716423852E+02 -0.19843975841E+03  0.24847508935E+03  0.12499876008E+03 0.  0.
          2    1    1    2  501    0 -0.33933226443E+01 -0.93134839490E+02 -0.56386597861E+03  0.57151592699E+03  0.00000000000E+00 0. -1.
          1    1    1    2  502    0 -0.16154926684E+02  0.13418415638E+02  0.12813982979E+02  0.24601497804E+02  0.00000000000E+00 0. -1.
         22    1    3    3    0    0 -0.48356086022E+02  0.36371808723E+02 -0.45821188651E+02  0.75899939753E+02  0.00000000000E+00 0. -1.
         22    1    3    3    0    0  0.67904335350E+02  0.43344615129E+02 -0.15261856976E+03  0.17257514959E+03  0.00000000000E+00 0. -1.
</event>
<event>
 7    1  0.6173324E-006  0.3072348E+02  0.7818608E-02  0.1644180E+00
          2   -1    0    0  502    0  0.00000000000E+00  0.00000000000E+00  0.12375405359E+04  0.12375405359E+04  0.00000000000E+00 0. -1.
          1   -1    0    0  501    0 -0.00000000000E+00 -0.00000000000E+00 -0.12860842633E+03  0.12860842633E+03  0.00000000000E+00 0. -1.
         25    2    1    2    0    0 -0.10467831586E+02  0.11439461837E+02  0.77535530684E+03  0.78551962805E+03  0.12499918970E+03 0.  0.
          2    1    1    2  501    0 -0.21757449611E+02 -0.51686425666E+01 -0.12191848266E+03  0.12395248240E+03  0.00000000000E+00 0. -1.
          1    1    1    2  502    0  0.32225281197E+02 -0.62708192703E+01  0.45549528541E+03  0.45667685178E+03  0.00000000000E+00 0. -1.
         22    1    3    3    0    0 -0.46279999608E+02 -0.89711625014E+01  0.12087248252E+03  0.12974003681E+03  0.00000000000E+00 0.  1.
         22    1    3    3    0    0  0.35812168022E+02  0.20410624338E+02  0.65448282432E+03  0.65577959124E+03  0.00000000000E+00 0.  1.
</event>
<event>
 7    1  0.6173324E-006  0.2969684E+02  0.7818608E-02  0.1661933E+00
          2   -1    0    0  502    0  0.00000000000E+00  0.00000000000E+00  0.27600401441E+03  0.27600401441E+03  0.00000000000E+00 0. -1.
          1   -1    0    0  501    0 -0.00000000000E+00 -0.00000000000E+00 -0.72080770683E+03  0.72080770683E+03  0.00000000000E+00 0. -1.
         25    2    1    2    0    0 -0.16074545739E+01  0.19394019042E+02 -0.52611044487E+03  0.54110565869E+03  0.12499768709E+03 0.  0.
          2    1    1    2  501    0 -0.17945289306E+02 -0.26881245348E+02 -0.18539121876E+03  0.18818750956E+03  0.00000000000E+00 0. -1.
          1    1    1    2  502    0  0.19552743880E+02  0.74872263062E+01  0.26669797121E+03  0.26751855300E+03  0.00000000000E+00 0. -1.
         22    1    3    3    0    0  0.16699050612E+02 -0.46606125770E+01 -0.35817640048E+01  0.17703350934E+02  0.00000000000E+00 0. -1.
         22    1    3    3    0    0 -0.18306505185E+02  0.24054631619E+02 -0.52252868087E+03  0.52340230775E+03  0.00000000000E+00 0. -1.
</event>
<event>
 7    1  0.6173324E-006  0.2348669E+02  0.7818608E-02  0.1691940E+00
          2   -1    0    0  502    0  0.00000000000E+00  0.00000000000E+00  0.50233312424E+01  0.50233312424E+01  0.00000000000E+00 0. -1.
          1   -1    0    0  501    0 -0.00000000000E+00 -0.00000000000E+00 -0.16767287800E+04  0.16767287800E+04  0.00000000000E+00 0. -1.
         25    2    1    2    0    0 -0.62315567780E+01 -0.22395865224E+00 -0.10641191821E+04  0.10714549332E+04  0.12500863038E+03 0.  0.
          2    1    1    2  501    0  0.27901605147E+02 -0.57239191695E+01 -0.19171745473E+03  0.19382168421E+03  0.00000000000E+00 0. -1.
          1    1    1    2  502    0 -0.21670048369E+02  0.59478778217E+01 -0.41586881189E+03  0.41647549382E+03  0.00000000000E+00 0. -1.
         22    1    3    3    0    0 -0.60847220865E+02  0.14579060939E+02 -0.72007737894E+03  0.72279067853E+03  0.00000000000E+00 0. -1.
         22    1    3    3    0    0  0.54615664087E+02 -0.14803019591E+02 -0.34404180319E+03  0.34866425469E+03  0.00000000000E+00 0. -1.
</event>
<event>
 7    1  0.6173324E-006  0.1868864E+03  0.7818608E-02  0.1238998E+00
          2   -1    0    0  502    0  0.00000000000E+00  0.00000000000E+00  0.10185790352E+03  0.10185790352E+03  0.00000000000E+00 0. -1.
          1   -1    0    0  501    0 -0.00000000000E+00 -0.00000000000E+00 -0.88797711238E+03  0.88797711238E+03  0.00000000000E+00 0. -1.
         25    2    1    2    0    0  0.72471313145E+02  0.12999548731E+03 -0.30918346665E+03  0.36519927835E+03  0.12500071563E+03 0.  0.
          2    1    1    2  501    0 -0.33443346814E+02  0.73028175036E+02 -0.39363093086E+03  0.40174230736E+03  0.00000000000E+00 0. -1.
          1    1    1    2  502    0 -0.39027966331E+02 -0.20302366234E+03 -0.83304811352E+02  0.22289343019E+03  0.00000000000E+00 0. -1.
         22    1    3    3    0    0  0.46773000490E+02  0.38787904028E+02 -0.24078482645E+03  0.24833354128E+03  0.00000000000E+00 0. -1.
         22    1    3    3    0    0  0.25698312655E+02  0.91207583278E+02 -0.68398640199E+02  0.11686573707E+03  0.00000000000E+00 0. -1.
</event>
<event>
 7    1  0.6173324E-006  0.1114535E+03  0.7818608E-02  0.1294993E+00
          2   -1    0    0  502    0  0.00000000000E+00  0.00000000000E+00  0.13606703065E+04  0.13606703065E+04  0.00000000000E+00 0. -1.
          1   -1    0    0  501    0 -0.00000000000E+00 -0.00000000000E+00 -0.20685368858E+04  0.20685368858E+04  0.00000000000E+00 0. -1.
         25    2    1    2    0    0 -0.10547845157E+03 -0.68172414593E+02 -0.21684076462E+03  0.28003268984E+03  0.12500083327E+03 0.  0.
          2    1    1    2  501    0  0.11162617249E+03 -0.97315048181E+01 -0.18172243703E+04  0.18206755660E+04  0.00000000000E+00 0. -1.
          1    1    1    2  502    0 -0.61477209293E+01  0.77903919411E+02  0.13261985556E+04  0.13284989364E+04  0.00000000000E+00 0. -1.
         22    1    3    3    0    0 -0.12396672222E+03 -0.24882730034E+02 -0.18136751863E+03  0.22109064947E+03  0.00000000000E+00 0.  1.
         22    1    3    3    0    0  0.18488270651E+02 -0.43289684559E+02 -0.35473245996E+02  0.58942040365E+02  0.00000000000E+00 0.  1.
</event>
<event>
 7    1  0.6173324E-006  0.7564156E+02  0.7818608E-02  0.1353583E+00
          2   -1    0    0  502    0  0.00000000000E+00  0.00000000000E+00  0.11922338128E+04  0.11922338128E+04  0.00000000000E+00 0. -1.
          1   -1    0    0  501    0 -0.00000000000E+00 -0.00000000000E+00 -0.31935906683E+02  0.31935906683E+02  0.00000000000E+00 0. -1.
         25    2    1    2    0    0  0.55334055634E+02  0.25968748689E+02  0.23863524491E+03  0.27623862754E+03  0.12499906244E+03 0.  0.
          2    1    1    2  501    0 -0.91091436954E+02  0.32387227953E+02  0.19103543109E+03  0.21410539076E+03  0.00000000000E+00 0. -1.
          1    1    1    2  502    0  0.35757381320E+02 -0.58355976643E+02  0.73062723012E+03  0.73382570119E+03  0.00000000000E+00 0. -1.
         22    1    3    3    0    0  0.51475356330E+02 -0.44233945687E+02  0.13347724645E+03  0.14974154260E+03  0.00000000000E+00 0. -1.
         22    1    3    3    0    0  0.38586993041E+01  0.70202694376E+02  0.10515799846E+03  0.12649708494E+03  0.00000000000E+00 0. -1.
</event>
<event>
 7    1  0.6173324E-006  0.2145096E+03  0.7818608E-02  0.1326086E+00
          2   -1    0    0  502    0  0.00000000000E+00  0.00000000000E+00  0.89510809443E+03  0.89510809443E+03  0.00000000000E+00 0. -1.
          1   -1    0    0  501    0 -0.00000000000E+00 -0.00000000000E+00 -0.84422846197E+03  0.84422846197E+03  0.00000000000E+00 0. -1.
         25    2    1    2    0    0 -0.18336100582E+03  0.91897113909E+02 -0.17676329622E+03  0.29822700728E+03  0.12501098745E+03 0.  0.
          2    1    1    2  501    0  0.60672117892E+01  0.30020048796E+02 -0.59245947641E+03  0.59325057571E+03  0.00000000000E+00 0. -1.
          1    1    1    2  502    0  0.17729379403E+03 -0.12191716271E+03  0.82010240508E+03  0.84785897341E+03  0.00000000000E+00 0. -1.
         22    1    3    3    0    0 -0.61118407010E+02  0.55485208387E+01 -0.12606481490E+03  0.14020907002E+03  0.00000000000E+00 0. -1.
         22    1    3    3    0    0 -0.12224259881E+03  0.86348593071E+02 -0.50698481314E+02  0.15801793726E+03  0.00000000000E+00 0. -1.
</event>
<event>
 7    1  0.6173324E-006  0.1012466E+03  0.7818608E-02  0.1369305E+00
          2   -1    0    0  502    0  0.00000000000E+00  0.00000000000E+00  0.19318485551E+04  0.19318485551E+04  0.00000000000E+00 0. -1.
          1   -1    0    0  501    0 -0.00000000000E+00 -0.00000000000E+00 -0.41681754098E+02  0.41681754098E+02  0.00000000000E+00 0. -1.
         25    2    1    2    0    0 -0.10211738594E+03 -0.43223609478E+02  0.63984919130E+03  0.66130806586E+03  0.12500051776E+03 0.  0.
          2    1    1    2  501    0  0.12122427104E+01  0.44799702438E+02 -0.11586204586E+02  0.46289556140E+02  0.00000000000E+00 0. -1.
          1    1    1    2  502    0  0.10090514323E+03 -0.15760929604E+01  0.12619038143E+04  0.12659326872E+04  0.00000000000E+00 0. -1.
         22    1    3    3    0    0 -0.11004182587E+03 -0.66075657477E+02  0.39646414341E+03  0.41672414493E+03  0.00000000000E+00 0. -1.
         22    1    3    3    0    0  0.79244399291E+01  0.22852048000E+02  0.24338504789E+03  0.24458392094E+03  0.00000000000E+00 0. -1.
</event>
<event>
 7    1  0.6173324E-006  0.1136306E+03  0.7818608E-02  0.1381264E+00
          2   -1    0    0  502    0  0.00000000000E+00  0.00000000000E+00  0.20184931736E+04  0.20184931736E+04  0.00000000000E+00 0. -1.
          1   -1    0    0  501    0 -0.00000000000E+00 -0.00000000000E+00 -0.81134391546E+02  0.81134391546E+02  0.00000000000E+00 0. -1.
         25    2    1    2    0    0  0.32499384093E+02  0.13987271417E+03  0.37591025057E+03  0.42137123735E+03  0.12499846818E+03 0.  0.
          2    1    1    2  501    0 -0.35788744937E+02 -0.10382621863E+03 -0.63833633580E+01  0.11000666010E+03  0.00000000000E+00 0. -1.
          1    1    1    2  502    0  0.32893608434E+01 -0.36046495546E+02  0.15678318949E+04  0.15682496677E+04  0.00000000000E+00 0. -1.
         22    1    3    3    0    0  0.31849034021E+02  0.11411601076E+03  0.13720230966E+03  0.18127685637E+03  0.00000000000E+00 0. -1.
         22    1    3    3    0    0  0.65035007196E+00  0.25756703418E+02  0.23870794091E+03  0.24009438098E+03  0.00000000000E+00 0. -1.
</event>
<event>
 7    1  0.6173324E-006  0.1777338E+03  0.7818608E-02  0.1367917E+00
          2   -1    0    0  502    0  0.00000000000E+00  0.00000000000E+00  0.22562287525E+04  0.22562287525E+04  0.00000000000E+00 0. -1.
          1   -1    0    0  501    0 -0.00000000000E+00 -0.00000000000E+00 -0.66327647595E+03  0.66327647595E+03  0.00000000000E+00 0. -1.
         25    2    1    2    0    0 -0.16832681904E+03 -0.80081762602E+00  0.12906079247E+04  0.13075273810E+04  0.12499790908E+03 0.  0.
          2    1    1    2  501    0  0.17600443798E+03  0.25458410274E+02 -0.64256281639E+03  0.66671783075E+03  0.00000000000E+00 0. -1.
          1    1    1    2  502    0 -0.76776189417E+01 -0.24657592648E+02  0.94490716819E+03  0.94526001672E+03  0.00000000000E+00 0. -1.
         22    1    3    3    0    0 -0.10833447511E+03  0.41795800917E+02  0.10364341281E+04  0.10429184768E+04  0.00000000000E+00 0.  1.
         22    1    3    3    0    0 -0.59992343929E+02 -0.42596618543E+02  0.25417379667E+03  0.26460890415E+03  0.00000000000E+00 0.  1.
</event>
<event>
 7    1  0.6173324E-006  0.6819108E+02  0.7818608E-02  0.1380723E+00
          2   -1    0    0  502    0  0.00000000000E+00  0.00000000000E+00  0.35915835128E+04  0.35915835128E+04  0.00000000000E+00 0. -1.
          1   -1    0    0  501    0 -0.00000000000E+00 -0.00000000000E+00 -0.29442415410E+02  0.29442415410E+02  0.00000000000E+00 0. -1.
         25    2    1    2    0    0  0.74601780331E+02 -0.52262046715E+02  0.93571064881E+03  0.94840738375E+03  0.12500160039E+03 0.  0.
          2    1    1    2  501    0 -0.69836646557E+01  0.60178401788E+02  0.17860267319E+02  0.63160120032E+02  0.00000000000E+00 0. -1.
          1    1    1    2  502    0 -0.67618115676E+02 -0.79163550728E+01  0.26085701813E+04  0.26094584244E+04  0.00000000000E+00 0. -1.
         22    1    3    3    0    0 -0.24195664137E+02 -0.20411292072E+02  0.47916211127E+03  0.48020660125E+03  0.00000000000E+00 0. -1.
         22    1    3    3    0    0  0.98797444468E+02 -0.31850754643E+02  0.45654853754E+03  0.46820078250E+03  0.00000000000E+00 0. -1.
</event>
<event>
 7    1  0.6173324E-006  0.9363427E+02  0.7818608E-02  0.1470246E+00
          2   -1    0    0  502    0  0.00000000000E+00  0.00000000000E+00  0.60290248127E+03  0.60290248127E+03  0.00000000000E+00 0. -1.
          1   -1    0    0  501    0 -0.00000000000E+00 -0.00000000000E+00 -0.36866960630E+02  0.36866960630E+02  0.00000000000E+00 0. -1.
         25    2    1    2    0    0  0.43009241156E+02 -0.63892234421E+02  0.16831896080E+03  0.22335756997E+03  0.12500127621E+03 0.  0.
          2    1    1    2  501    0  0.35400833676E+01 -0.21985218886E+02  0.42139371217E+02  0.47661395765E+02  0.00000000000E+00 0. -1.
          1    1    1    2  502    0 -0.46549324523E+02  0.85877453308E+02  0.35557718863E+03  0.36875047617E+03  0.00000000000E+00 0. -1.
         22    1    3    3    0    0  0.15905483136E+02 -0.74495097585E+02  0.29770031838E+02  0.81784832051E+02  0.00000000000E+00 0. -1.
         22    1    3    3    0    0  0.27103758019E+02  0.10602863164E+02  0.13854892896E+03  0.14157273792E+03  0.00000000000E+00 0. -1.
</event>
<event>
 7    1  0.6173324E-006  0.3572253E+02  0.7818608E-02  0.1561558E+00
          2   -1    0    0  502    0  0.00000000000E+00  0.00000000000E+00  0.35589288564E+03  0.35589288564E+03  0.00000000000E+00 0. -1.
          1   -1    0    0  501    0 -0.00000000000E+00 -0.00000000000E+00 -0.19999014439E+03  0.19999014439E+03  0.00000000000E+00 0. -1.
         25    2    1    2    0    0 -0.18502266287E+01 -0.56261496391E+01  0.20329336503E+03  0.23871940904E+03  0.12499474824E+03 0.  0.
          2    1    1    2  501    0  0.30140947527E+02  0.19639674337E+02 -0.17861139646E+03  0.18219831083E+03  0.00000000000E+00 0. -1.
          1    1    1    2  502    0 -0.28290720898E+02 -0.14013524698E+02  0.13122077268E+03  0.13496531015E+03  0.00000000000E+00 0. -1.
         22    1    3    3    0    0 -0.56093411419E+02 -0.31980970631E+02  0.11276626993E+03  0.12994416078E+03  0.00000000000E+00 0. -1.
         22    1    3    3    0    0  0.54243184791E+02  0.26354820992E+02  0.90527095107E+02  0.10877524826E+03  0.00000000000E+00 0. -1.
</event>
<event>
 7    1  0.6173324E-006  0.5670344E+02  0.7818608E-02  0.1430862E+00
          2   -1    0    0  502    0  0.00000000000E+00  0.00000000000E+00  0.84714090400E+03  0.84714090400E+03  0.00000000000E+00 0. -1.
          1   -1    0    0  501    0 -0.00000000000E+00 -0.00000000000E+00 -0.61098698655E+03  0.61098698655E+03  0.00000000000E+00 0. -1.
         25    2    1    2    0    0 -0.89413548101E+02  0.50210609558E+02  0.62931551013E+01  0.16180101220E+03  0.12499630336E+03 0.  0.
          2    1    1    2  501    0  0.53345741966E+02 -0.16833845580E+02 -0.53097113168E+03  0.53390962645E+03  0.00000000000E+00 0. -1.
          1    1    1    2  502    0  0.36067806135E+02 -0.33376763979E+02  0.76083189403E+03  0.76241725190E+03  0.00000000000E+00 0. -1.
         22    1    3    3    0    0 -0.44126462437E+01 -0.37910278480E+02  0.94729416151E+01  0.39324258215E+02  0.00000000000E+00 0.  1.
         22    1    3    3    0    0 -0.85000901857E+02  0.88120888038E+02 -0.31797865138E+01  0.12247675399E+03  0.00000000000E+00 0.  1.
</event>
<event>
 7    1  0.6173324E-006  0.1153982E+03  0.7818608E-02  0.1394483E+00
          2   -1    0    0  502    0  0.00000000000E+00  0.00000000000E+00  0.19490851288E+04  0.19490851288E+04  0.00000000000E+00 0. -1.
          1   -1    0    0  501    0 -0.00000000000E+00 -0.00000000000E+00 -0.61953173071E+03  0.61953173071E+03  0.00000000000E+00 0. -1.
         25    2    1    2    0    0  0.12975874587E+03  0.66571690941E+02  0.15631319871E+02  0.19271411271E+03  0.12500107565E+03 0.  0.
          2    1    1    2  501    0 -0.31015034352E+02 -0.80370418104E+01 -0.52871939084E+03  0.52968926802E+03  0.00000000000E+00 0. -1.
          1    1    1    2  502    0 -0.98743711520E+02 -0.58534649130E+02  0.18426414691E+04  0.18462134788E+04  0.00000000000E+00 0. -1.
         22    1    3    3    0    0  0.11738056704E+03  0.30747410295E+02 -0.37900824936E+02  0.12712227692E+03  0.00000000000E+00 0.  1.
         22    1    3    3    0    0  0.12378178829E+02  0.35824280645E+02  0.53532144807E+02  0.65591835792E+02  0.00000000000E+00 0.  1.
</event>
<event>
 7    1  0.6173324E-006  0.8967681E+02  0.7818608E-02  0.1362478E+00
          2   -1    0    0  502    0  0.00000000000E+00  0.00000000000E+00  0.60384847168E+03  0.60384847168E+03  0.00000000000E+00 0. -1.
          1   -1    0    0  501    0 -0.00000000000E+00 -0.00000000000E+00 -0.81983942917E+03  0.81983942917E+03  0.00000000000E+00 0. -1.
         25    2    1    2    0    0 -0.70947726651E+02  0.11372310965E+03 -0.27993286168E+02  0.18540502323E+03  0.12499949194E+03 0.  0.
          2    1    1    2  501    0  0.67492381733E+01 -0.53131730048E+02 -0.70841242060E+03  0.71043415642E+03  0.00000000000E+00 0. -1.
          1    1    1    2  502    0  0.64198488477E+02 -0.60591379603E+02  0.52041474927E+03  0.52784872119E+03  0.00000000000E+00 0. -1.
         22    1    3    3    0    0  0.35851189684E+02  0.28605429350E+02  0.62918832135E+00  0.45869099272E+02  0.00000000000E+00 0.  1.
         22    1    3    3    0    0 -0.10679891634E+03  0.85117680300E+02 -0.28622474489E+02  0.13953592396E+03  0.00000000000E+00 0.  1.
</event>
<event>
 7    1  0.6173324E-006  0.1502310E+03  0.7818608E-02  0.1266409E+00
          2   -1    0    0  502    0  0.00000000000E+00  0.00000000000E+00  0.63465430947E+03  0.63465430947E+03  0.00000000000E+00 0. -1.
          1   -1    0    0  501    0 -0.00000000000E+00 -0.00000000000E+00 -0.29026059948E+04  0.29026059948E+04  0.00000000000E+00 0. -1.
         25    2    1    2    0    0  0.10552244605E+03  0.27673596316E+01 -0.14950886187E+02  0.16429009183E+03  0.12500024150E+03 0.  0.
          2    1    1    2  501    0 -0.13628594498E+03  0.66810925816E+02 -0.28083429070E+04  0.28124415446E+04  0.00000000000E+00 0. -1.
          1    1    1    2  502    0  0.30763498931E+02 -0.69578285448E+02  0.55534210786E+03  0.56052866781E+03  0.00000000000E+00 0. -1.
         22    1    3    3    0    0  0.89810632104E+02  0.39246830765E+02 -0.51144962936E+02  0.11055347393E+03  0.00000000000E+00 0. -1.
         22    1    3    3    0    0  0.15711813941E+02 -0.36479471133E+02  0.36194076749E+02  0.53736617899E+02  0.00000000000E+00 0. -1.
</event>
<event>
 7    1  0.6173324E-006  0.1154938E+03  0.7818608E-02  0.1327081E+00
          2   -1    0    0  502    0  0.00000000000E+00  0.00000000000E+00  0.29423104225E+04  0.29423104225E+04  0.00000000000E+00 0. -1.
          1   -1    0    0  501    0 -0.00000000000E+00 -0.00000000000E+00 -0.51539406717E+03  0.51539406717E+03  0.00000000000E+00 0. -1.
         25    2    1    2    0    0 -0.46374916820E+02 -0.66442878288E+02 -0.43297776105E+02  0.15512957443E+03  0.12500079385E+03 0.  0.
          2    1    1    2  501    0  0.26119297109E+02  0.11906488093E+03 -0.40697261904E+03  0.42483570495E+03  0.00000000000E+00 0. -1.
          1    1    1    2  502    0  0.20255619712E+02 -0.52622002645E+02  0.28771867505E+04  0.28777392103E+04  0.00000000000E+00 0. -1.
         22    1    3    3    0    0 -0.43407876864E+02  0.20238692695E+02 -0.48602371644E+02  0.68235174106E+02  0.00000000000E+00 0. -1.
         22    1    3    3    0    0 -0.29670399566E+01 -0.86681570983E+02  0.53045955384E+01  0.86894400326E+02  0.00000000000E+00 0. -1.
</event>
<event>
 7    1  0.6173324E-006  0.1266850E+03  0.7818608E-02  0.1316935E+00
          2   -1    0    0  502    0  0.00000000000E+00  0.00000000000E+00  0.11360249647E+04  0.11360249647E+04  0.00000000000E+00 0. -1.
          1   -1    0    0  501    0 -0.00000000000E+00 -0.00000000000E+00 -0.18930564489E+03  0.18930564489E+03  0.00000000000E+00 0. -1.
         25    2    1    2    0    0 -0.44924508743E+02  0.83364471243E+02  0.16320304237E+03  0.22633489026E+03  0.12499761182E+03 0.  0.
          2    1    1    2  501    0  0.15343845522E+02 -0.13122781576E+03 -0.12905432125E+03  0.18469215213E+03  0.00000000000E+00 0. -1.
          1    1    1    2  502    0  0.29580663221E+02  0.47863344521E+02  0.91257059868E+03  0.91430356718E+03  0.00000000000E+00 0. -1.
         22    1    3    3    0    0 -0.33123839058E+02  0.97076213384E+01 -0.11491949521E+02  0.36379823114E+02  0.00000000000E+00 0. -1.
         22    1    3    3    0    0 -0.11800669685E+02  0.73656849905E+02  0.17469499190E+03  0.18995506715E+03  0.00000000000E+00 0. -1.
</event>
<event>
 7    1  0.6173324E-006  0.9811190E+02  0.7818608E-02  0.1478455E+00
          2   -1    0    0  502    0  0.00000000000E+00  0.00000000000E+00  0.24647217205E+03  0.24647217205E+03  0.00000000000E+00 0. -1.
          1   -1    0    0  501    0 -0.00000000000E+00 -0.00000000000E+00 -0.57717324588E+03  0.57717324588E+03  0.00000000000E+00 0. -1.
         25    2    1    2    0    0 -0.11915645729E+02 -0.10987120301E+03  0.93150740448E+02  0.19110017653E+03  0.12501421182E+03 0.  0.
          2    1    1    2  501    0 -0.39910536443E+01  0.97672547892E+02 -0.52266060617E+03  0.53172357891E+03  0.00000000000E+00 0. -1.
          1    1    1    2  502    0  0.15906699374E+02  0.12198655122E+02  0.98808791895E+02  0.10082166249E+03  0.00000000000E+00 0. -1.
         22    1    3    3    0    0  0.47802909334E+02 -0.55923252463E+02  0.81481784972E+02  0.10978073414E+03  0.00000000000E+00 0. -1.
         22    1    3    3    0    0 -0.59718555063E+02 -0.53947950551E+02  0.11668955476E+02  0.81319442383E+02  0.00000000000E+00 0. -1.
</event>
<event>
 7    1  0.6173324E-006  0.1475553E+03  0.7818608E-02  0.1393111E+00
          2   -1    0    0  502    0  0.00000000000E+00  0.00000000000E+00  0.17370887791E+04  0.17370887791E+04  0.00000000000E+00 0. -1.
          1   -1    0    0  501    0 -0.00000000000E+00 -0.00000000000E+00 -0.41374551776E+02  0.41374551776E+02  0.00000000000E+00 0. -1.
         25    2    1    2    0    0 -0.16206184107E+03  0.23071514159E+02  0.30990466105E+03  0.37210466761E+03  0.12499859845E+03 0.  0.
          2    1    1    2  501    0  0.21169657814E+02  0.13914580010E+02  0.18642250572E+02  0.31453194674E+02  0.00000000000E+00 0. -1.
          1    1    1    2  502    0  0.14089218325E+03 -0.36986094169E+02  0.13671673157E+04  0.13749054686E+04  0.00000000000E+00 0. -1.
         22    1    3    3    0    0 -0.17982091644E+03  0.36465411724E+02  0.28168868055E+03  0.33617525339E+03  0.00000000000E+00 0.  1.
         22    1    3    3    0    0  0.17759075374E+02 -0.13393897565E+02  0.28215980507E+02  0.35929414218E+02  0.00000000000E+00 0.  1.
</event>
<event>
 7    1  0.6173324E-006  0.9170479E+02  0.7818608E-02  0.1391638E+00
          2   -1    0    0  502    0  0.00000000000E+00  0.00000000000E+00  0.66800407917E+03  0.66800407917E+03  0.00000000000E+00 0. -1.
          1   -1    0    0  501    0 -0.00000000000E+00 -0.00000000000E+00 -0.39270539592E+03  0.39270539592E+03  0.00000000000E+00 0. -1.
         25    2    1    2    0    0 -0.15454141621E+02  0.74641743572E+02  0.62858462862E+02  0.15933092633E+03  0.12499974942E+03 0.  0.
          2    1    1    2  501    0 -0.41244501264E+02 -0.24035180576E+00 -0.33928336863E+03  0.34178117397E+03  0.00000000000E+00 0. -1.
          1    1    1    2  502    0  0.56698642885E+02 -0.74401391767E+02  0.55172358901E+03  0.55959737479E+03  0.00000000000E+00 0. -1.
         22    1    3    3    0    0  0.22959086459E+02 -0.21995190612E+02 -0.88606222847E+01  0.33006343153E+02  0.00000000000E+00 0.  1.
         22    1    3    3    0    0 -0.38413228080E+02  0.96636934184E+02  0.71719085147E+02  0.12632458318E+03  0.00000000000E+00 0.  1.
</event>
<event>
 7    1  0.6173324E-006  0.1555641E+03  0.7818608E-02  0.1343635E+00
          2   -1    0    0  502    0  0.00000000000E+00  0.00000000000E+00  0.19036329433E+03  0.19036329433E+03  0.00000000000E+00 0. -1.
          1   -1    0    0  501    0 -0.00000000000E+00 -0.00000000000E+00 -0.45874778019E+03  0.45874778019E+03  0.00000000000E+00 0. -1.
         25    2    1    2    0    0 -0.14266207796E+02  0.13931454166E+03 -0.35335501484E+02  0.19101275538E+03  0.12500083540E+03 0.  0.
          2    1    1    2  501    0 -0.16123317466E+02 -0.15904438394E+03 -0.32340011087E+03  0.36075297523E+03  0.00000000000E+00 0. -1.
          1    1    1    2  502    0  0.30389525261E+02  0.19729842289E+02  0.90351126494E+02  0.97345343910E+02  0.00000000000E+00 0. -1.
         22    1    3    3    0    0 -0.53266383685E+02  0.11444495387E+03  0.95047210860E+01  0.12659105348E+03  0.00000000000E+00 0.  1.
         22    1    3    3    0    0  0.39000175889E+02  0.24869587783E+02 -0.44840222570E+02  0.64421701902E+02  0.00000000000E+00 0.  1.
</event>
<event>
 7    1  0.6173324E-006  0.1514910E+03  0.7818608E-02  0.1310126E+00
          2   -1    0    0  502    0  0.00000000000E+00  0.00000000000E+00  0.25960856973E+04  0.25960856973E+04  0.00000000000E+00 0. -1.
          1   -1    0    0  501    0 -0.00000000000E+00 -0.00000000000E+00 -0.23452514847E+03  0.23452514847E+03  0.00000000000E+00 0. -1.
         25    2    1    2    0    0  0.70164587480E+02 -0.14668049161E+03  0.25630003972E+03  0.32825822373E+03  0.12500206052E+03 0.  0.
          2    1    1    2  501    0 -0.49933224694E+02 -0.31894435289E+01 -0.19286856889E+03  0.19925306608E+03  0.00000000000E+00 0. -1.
          1    1    1    2  502    0 -0.20231362786E+02  0.14986993514E+03  0.22981290780E+04  0.23030995559E+04  0.00000000000E+00 0. -1.
         22    1    3    3    0    0 -0.14254401938E+02 -0.31700862344E+02 -0.20537025336E+00  0.34758809313E+02  0.00000000000E+00 0.  1.
         22    1    3    3    0    0  0.84418989418E+02 -0.11497962926E+03  0.25650540997E+03  0.29349941442E+03  0.00000000000E+00 0.  1.
</event>
<event>
 7    1  0.6173324E-006  0.9669553E+02  0.7818608E-02  0.1465499E+00
          2   -1    0    0  502    0  0.00000000000E+00  0.00000000000E+00  0.71261379656E+02  0.71261379656E+02  0.00000000000E+00 0. -1.
          1   -1    0    0  501    0 -0.00000000000E+00 -0.00000000000E+00 -0.50856981832E+03  0.50856981832E+03  0.00000000000E+00 0. -1.
         25    2    1    2    0    0  0.15028330454E+02  0.79887068738E+02 -0.13938974160E+03  0.20410849858E+03  0.12499193839E+03 0.  0.
          2    1    1    2  501    0 -0.59239731997E+01 -0.10025652586E+03 -0.32527206240E+03  0.34042382263E+03  0.00000000000E+00 0. -1.
          1    1    1    2  502    0 -0.91043572543E+01  0.20369457120E+02  0.27353365347E+02  0.35298876755E+02  0.00000000000E+00 0. -1.
         22    1    3    3    0    0 -0.23939803097E+02  0.42114965432E+02  0.61002749789E+01  0.48826200349E+02  0.00000000000E+00 0.  1.
         22    1    3    3    0    0  0.38968133550E+02  0.37772103306E+02 -0.14549001658E+03  0.15528229823E+03  0.00000000000E+00 0.  1.
</event>
<event>
 7    1  0.6173324E-006  0.1214743E+03  0.7818608E-02  0.1338856E+00
          2   -1    0    0  502    0  0.00000000000E+00  0.00000000000E+00  0.15025934832E+03  0.15025934832E+03  0.00000000000E+00 0. -1.
          1   -1    0    0  501    0 -0.00000000000E+00 -0.00000000000E+00 -0.23464285570E+04  0.23464285570E+04  0.00000000000E+00 0. -1.
         25    2    1    2    0    0 -0.41161168110E+02  0.15603743687E+03 -0.14515867975E+03  0.25047470349E+03  0.12499844526E+03 0.  0.
          2    1    1    2  501    0  0.15723897895E+01 -0.48332009398E+02 -0.21145112667E+04  0.21150641486E+04  0.00000000000E+00 0. -1.
          1    1    1    2  502    0  0.39588778321E+02 -0.10770542747E+03  0.63500737772E+02  0.13114905327E+03  0.00000000000E+00 0. -1.
         22    1    3    3    0    0 -0.90126154885E+00  0.11866699407E+02  0.22662301696E+02  0.25597084704E+02  0.00000000000E+00 0.  1.
         22    1    3    3    0    0 -0.40259906561E+02  0.14417073747E+03 -0.16782098145E+03  0.22487761879E+03  0.00000000000E+00 0.  1.
</event>
<event>
 7    1  0.6173324E-006  0.3340305E+02  0.7818608E-02  0.1576951E+00
          2   -1    0    0  502    0  0.00000000000E+00  0.00000000000E+00  0.22665282605E+04  0.22665282605E+04  0.00000000000E+00 0. -1.
          1   -1    0    0  501    0 -0.00000000000E+00 -0.00000000000E+00 -0.12313895692E+04  0.12313895692E+04  0.00000000000E+00 0. -1.
         25    2    1    2    0    0  0.20517380001E+01 -0.28531354508E+02  0.80652424754E+02  0.15148630673E+03  0.12500015876E+03 0.  0.
          2    1    1    2  501    0  0.27223944014E+02  0.19419313374E+02 -0.11956295511E+04  0.11960971016E+04  0.00000000000E+00 0. -1.
          1    1    1    2  502    0 -0.29275682014E+02  0.91120411343E+01  0.21501158176E+04  0.21503344215E+04  0.00000000000E+00 0. -1.
         22    1    3    3    0    0  0.19136447693E+02 -0.27409475760E+02  0.11139213699E+03  0.11630000506E+03  0.00000000000E+00 0.  1.
         22    1    3    3    0    0 -0.17084709693E+02 -0.11218787479E+01 -0.30739712240E+02  0.35186301679E+02  0.00000000000E+00 0.  1.
</event>
<event>
 7    1  0.6173324E-006  0.7464925E+02  0.7818608E-02  0.1385596E+00
          2   -1    0    0  502    0  0.00000000000E+00  0.00000000000E+00  0.11920381331E+04  0.11920381331E+04  0.00000000000E+00 0. -1.
          1   -1    0    0  501    0 -0.00000000000E+00 -0.00000000000E+00 -0.16343600215E+03  0.16343600215E+03  0.00000000000E+00 0. -1.
         25    2    1    2    0    0  0.85119453499E+02 -0.89648916354E+02 -0.42480606421E+01  0.17584935214E+03  0.12499079591E+03 0.  0.
          2    1    1    2  501    0 -0.24482199395E+02  0.47226157370E+02 -0.62332137584E+02  0.81945002306E+02  0.00000000000E+00 0. -1.
          1    1    1    2  502    0 -0.60637254104E+02  0.42422758984E+02  0.10951823292E+04  0.10976797808E+04  0.00000000000E+00 0. -1.
         22    1    3    3    0    0  0.99196437511E+02 -0.98959333673E+02 -0.31668074123E+02  0.14365148748E+03  0.00000000000E+00 0. -1.
         22    1    3    3    0    0 -0.14076984012E+02  0.93104173186E+01  0.27420013481E+02  0.32197864663E+02  0.00000000000E+00 0. -1.
</event>
<event>
 7    1  0.6173324E-006  0.7149407E+02  0.7818608E-02  0.1413061E+00
          2   -1    0    0  502    0  0.00000000000E+00  0.00000000000E+00  0.62615388554E+03  0.62615388554E+03  0.00000000000E+00 0. -1.
          1   -1    0    0  501    0 -0.00000000000E+00 -0.00000000000E+00 -0.53229180164E+03  0.53229180164E+03  0.00000000000E+00 0. -1.
         25    2    1    2    0    0 -0.84573883919E+02 -0.17789386685E+01 -0.13042520238E+03  0.19947859886E+03  0.12500028609E+03 0.  0.
          2    1    1    2  501    0  0.61352175964E+02 -0.36388284093E+02 -0.36302061040E+03  0.36996237686E+03  0.00000000000E+00 0. -1.
          1    1    1    2  502    0  0.23221707955E+02  0.38167222762E+02  0.58730789669E+03  0.58900471146E+03  0.00000000000E+00 0. -1.
         22    1    3    3    0    0 -0.28372789032E+02 -0.56151600478E+02 -0.23826802315E+02  0.67273575066E+02  0.00000000000E+00 0. -1.
         22    1    3    3    0    0 -0.56201094888E+02  0.54372661809E+02 -0.10659840007E+03  0.13220502379E+03  0.00000000000E+00 0. -1.
</event>
<event>
 7    1  0.6173324E-006  0.7455887E+02  0.7818608E-02  0.1392296E+00
          2   -1    0    0  502    0  0.00000000000E+00  0.00000000000E+00  0.27121456790E+04  0.27121456790E+04  0.00000000000E+00 0. -1.
          1   -1    0    0  501    0 -0.00000000000E+00 -0.00000000000E+00 -0.16795773551E+04  0.16795773551E+04  0.00000000000E+00 0. -1.
         25    2    1    2    0    0  0.74327009148E+02  0.88111490886E+02  0.58341760508E+02  0.17976834961E+03  0.12499903755E+03 0.  0.
          2    1    1    2  501    0 -0.11064761416E+02 -0.49235558461E+02 -0.16179390339E+04  0.16187258219E+04  0.00000000000E+00 0. -1.
          1    1    1    2  502    0 -0.63262247732E+02 -0.38875932425E+02  0.25921655973E+04  0.25932288626E+04  0.00000000000E+00 0. -1.
         22    1    3    3    0    0  0.51478360342E+02  0.35637789275E+01  0.74583783295E+02  0.90694337389E+02  0.00000000000E+00 0. -1.
         22    1    3    3    0    0  0.22848648806E+02  0.84547711958E+02 -0.16242022788E+02  0.89074012225E+02  0.00000000000E+00 0. -1.
</event>
<event>
 7    1  0.6173324E-006  0.5744961E+02  0.7818608E-02  0.1461844E+00
          2   -1    0    0  502    0  0.00000000000E+00  0.00000000000E+00  0.45505310305E+03  0.45505310305E+03  0.00000000000E+00 0. -1.
          1   -1    0    0  501    0 -0.00000000000E+00 -0.00000000000E+00 -0.54279569235E+03  0.54279569235E+03  0.00000000000E+00 0. -1.
         25    2    1    2    0    0 -0.67268771175E+01 -0.21292473897E+02 -0.25631878483E+02  0.12954570971E+03  0.12500590942E+03 0.  0.
          2    1    1    2  501    0 -0.30095416681E+02 -0.24104149734E+02 -0.46228098104E+03  0.46388624637E+03  0.00000000000E+00 0. -1.
          1    1    1    2  502    0  0.36822293799E+02  0.45396623631E+02  0.40017027022E+03  0.40441683932E+03  0.00000000000E+00 0. -1.
         22    1    3    3    0    0 -0.15814780269E+02  0.92686557189E+01  0.46878547742E+02  0.50335012588E+02  0.00000000000E+00 0. -1.
         22    1    3    3    0    0  0.90879031518E+01 -0.30561129616E+02 -0.72510426225E+02  0.79210697121E+02  0.00000000000E+00 0. -1.
</event>
<event>
 7    1  0.6173324E-006  0.5756487E+02  0.7818608E-02  0.1440603E+00
          2   -1    0    0  502    0  0.00000000000E+00  0.00000000000E+00  0.25292281276E+04  0.25292281276E+04  0.00000000000E+00 0. -1.
          1   -1    0    0  501    0 -0.00000000000E+00 -0.00000000000E+00 -0.22912567803E+04  0.22912567803E+04  0.00000000000E+00 0. -1.
         25    2    1    2    0    0 -0.24479893190E+02 -0.79794008697E+01  0.98647292301E+03  0.99469443886E+03  0.12500105143E+03 0.  0.
          2    1    1    2  501    0  0.22666070415E+02  0.52930841709E+02 -0.22864546470E+04  0.22871795464E+04  0.00000000000E+00 0. -1.
          1    1    1    2  502    0  0.18138227750E+01 -0.44951440839E+02  0.15379530712E+04  0.15386109226E+04  0.00000000000E+00 0. -1.
         22    1    3    3    0    0 -0.23562818906E+02 -0.55908052769E+02  0.79500713073E+03  0.79731879114E+03  0.00000000000E+00 0. -1.
         22    1    3    3    0    0 -0.91707428365E+00  0.47928651899E+02  0.19146579228E+03  0.19737564772E+03  0.00000000000E+00 0. -1.
</event>
<event>
 7    1  0.6173324E-006  0.9249146E+02  0.7818608E-02  0.1313225E+00
          2   -1    0    0  502    0  0.00000000000E+00  0.00000000000E+00  0.94290126122E+03  0.94290126122E+03  0.00000000000E+00 0. -1.
          1   -1    0    0  501    0 -0.00000000000E+00 -0.00000000000E+00 -0.93332788866E+03  0.93332788866E+03  0.00000000000E+00 0. -1.
         25    2    1    2    0    0  0.57686366354E+02  0.76390284368E+02  0.26681551161E+03  0.30980401064E+03  0.12499926145E+03 0.  0.
          2    1    1    2  501    0 -0.77555684315E+02  0.18298609378E+02 -0.90650123051E+03  0.90999681548E+03  0.00000000000E+00 0. -1.
          1    1    1    2  502    0  0.19869317960E+02 -0.94688893746E+02  0.64925909146E+03  0.65642832376E+03  0.00000000000E+00 0. -1.
         22    1    3    3    0    0 -0.10728941822E+02 -0.28652077430E+02  0.70845591819E+02  0.77169615872E+02  0.00000000000E+00 0. -1.
         22    1    3    3    0    0  0.68415308177E+02  0.10504236180E+03  0.19596991979E+03  0.23263439476E+03  0.00000000000E+00 0. -1.
</event>
<event>
 7    1  0.6173324E-006  0.6123010E+02  0.7818608E-02  0.1422988E+00
          2   -1    0    0  502    0  0.00000000000E+00  0.00000000000E+00  0.31501378596E+03  0.31501378596E+03  0.00000000000E+00 0. -1.
          1   -1    0    0  501    0 -0.00000000000E+00 -0.00000000000E+00 -0.19986481002E+04  0.19986481002E+04  0.00000000000E+00 0. -1.
         25    2    1    2    0    0  0.80927413179E+00  0.17825523003E+02 -0.41373398888E+03  0.43257305258E+03  0.12500091227E+03 0.  0.
          2    1    1    2  501    0 -0.27100748713E+02 -0.58367249077E+02 -0.15729224252E+04  0.15742382736E+04  0.00000000000E+00 0. -1.
          1    1    1    2  502    0  0.26291474582E+02  0.40541726074E+02  0.30302209983E+03  0.30685056000E+03  0.00000000000E+00 0. -1.
         22    1    3    3    0    0  0.50296069025E+02 -0.21335903757E+02 -0.11596888853E+03  0.12819398759E+03  0.00000000000E+00 0. -1.
         22    1    3    3    0    0 -0.49486794893E+02  0.39161426760E+02 -0.29776510035E+03  0.30437906499E+03  0.00000000000E+00 0. -1.
</event>
<event>
 7    1  0.6173324E-006  0.3994860E+02  0.7818608E-02  0.1541052E+00
          2   -1    0    0  502    0  0.00000000000E+00  0.00000000000E+00  0.19725492964E+04  0.19725492964E+04  0.00000000000E+00 0. -1.
          1   -1    0    0  501    0 -0.00000000000E+00 -0.00000000000E+00 -0.31976611155E+03  0.31976611155E+03  0.00000000000E+00 0. -1.
         25    2    1    2    0    0  0.53899950136E+02  0.37341827468E+00  0.16044620980E+02  0.13706818198E+03  0.12499965033E+03 0.  0.
          2    1    1    2  501    0 -0.21607935150E+02 -0.23871408240E+02 -0.25804336593E+03  0.26004446868E+03  0.00000000000E+00 0. -1.
          1    1    1    2  502    0 -0.32292014985E+02  0.23497989965E+02  0.18947819298E+04  0.18952027573E+04  0.00000000000E+00 0. -1.
         22    1    3    3    0    0 -0.13764447934E+02  0.95079353601E+01 -0.43416473246E+02  0.46527959453E+02  0.00000000000E+00 0. -1.
         22    1    3    3    0    0  0.67664398070E+02 -0.91345170854E+01  0.59461094226E+02  0.90540222527E+02  0.00000000000E+00 0. -1.
</event>
<event>
 7    1  0.6173324E-006  0.9704945E+02  0.7818608E-02  0.1329347E+00
          2   -1    0    0  502    0  0.00000000000E+00  0.00000000000E+00  0.10191636651E+04  0.10191636651E+04  0.00000000000E+00 0. -1.
          1   -1    0    0  501    0 -0.00000000000E+00 -0.00000000000E+00 -0.27565070543E+03  0.27565070543E+03  0.00000000000E+00 0. -1.
         25    2    1    2    0    0 -0.83665641737E+01 -0.10283440051E+03  0.11307386188E+03  0.19762657870E+03  0.12500261215E+03 0.  0.
          2    1    1    2  501    0  0.66478937369E+02  0.72025235041E+02 -0.22175940239E+03  0.24245477134E+03  0.00000000000E+00 0. -1.
          1    1    1    2  502    0 -0.58112373195E+02  0.30809165471E+02  0.85219850021E+03  0.85473302051E+03  0.00000000000E+00 0. -1.
         22    1    3    3    0    0 -0.28057883896E+02 -0.25923199746E+02  0.11188415374E+03  0.11822572051E+03  0.00000000000E+00 0. -1.
         22    1    3    3    0    0  0.19691319722E+02 -0.76911200766E+02  0.11897081472E+01  0.79400858189E+02  0.00000000000E+00 0. -1.
</event>
<event>
 7    1  0.6173324E-006  0.1181361E+03  0.7818608E-02  0.1292102E+00
          2   -1    0    0  502    0  0.00000000000E+00  0.00000000000E+00  0.25819891940E+04  0.25819891940E+04  0.00000000000E+00 0. -1.
          1   -1    0    0  501    0 -0.00000000000E+00 -0.00000000000E+00 -0.17991631584E+03  0.17991631584E+03  0.00000000000E+00 0. -1.
         25    2    1    2    0    0 -0.48331502717E+02  0.83184131788E+02  0.76760780840E+03  0.78364706643E+03  0.12500177311E+03 0.  0.
          2    1    1    2  501    0  0.11174503385E+03 -0.41773194651E+02 -0.15029799048E+03  0.19188913029E+03  0.00000000000E+00 0. -1.
          1    1    1    2  502    0 -0.63413531131E+02 -0.41410937137E+02  0.17847630602E+04  0.17863693131E+04  0.00000000000E+00 0. -1.
         22    1    3    3    0    0 -0.47445388225E+02 -0.18072516260E+02  0.16646039493E+03  0.17403087022E+03  0.00000000000E+00 0. -1.
         22    1    3    3    0    0 -0.88611449247E+00  0.10125664805E+03  0.60114741346E+03  0.60961619621E+03  0.00000000000E+00 0. -1.
</event>
<event>
 7    1  0.6173324E-006  0.1497146E+03  0.7818608E-02  0.1300575E+00
          2   -1    0    0  502    0  0.00000000000E+00  0.00000000000E+00  0.36977399058E+03  0.36977399058E+03  0.00000000000E+00 0. -1.
          1   -1    0    0  501    0 -0.00000000000E+00 -0.00000000000E+00 -0.11644045940E+03  0.11644045940E+03  0.00000000000E+00 0. -1.
         25    2    1    2    0    0  0.13082861767E+03  0.88847735148E+01  0.13134717065E+03  0.22377942609E+03  0.12502034195E+03 0.  0.
          2    1    1    2  501    0 -0.15915244352E+03  0.38549408500E+02  0.49062174039E+02  0.17094634859E+03  0.00000000000E+00 0. -1.
          1    1    1    2  502    0  0.28323825851E+02 -0.47434182015E+02  0.72924186488E+02  0.91488675306E+02  0.00000000000E+00 0. -1.
         22    1    3    3    0    0  0.39469333117E+02 -0.55117726984E+02  0.34549814970E+02  0.76088644350E+02  0.00000000000E+00 0.  1.
         22    1    3    3    0    0  0.91359284554E+02  0.64002500499E+02  0.96797355682E+02  0.14769078174E+03  0.00000000000E+00 0.  1.
</event>
<event>
 7    1  0.6173324E-006  0.1180469E+03  0.7818608E-02  0.1294485E+00
          2   -1    0    0  502    0  0.00000000000E+00  0.00000000000E+00  0.16966967996E+04  0.16966967996E+04  0.00000000000E+00 0. -1.
          1   -1    0    0  501    0 -0.00000000000E+00 -0.00000000000E+00 -0.94339176943E+02  0.94339176943E+02  0.00000000000E+00 0. -1.
         25    2    1    2    0    0  0.32183084404E+02  0.96238543640E+02  0.34231336262E+03  0.37828720455E+03  0.12500065078E+03 0.  0.
          2    1    1    2  501    0  0.69468710740E+02 -0.25872708942E+02 -0.54748804182E+02  0.92156011195E+02  0.00000000000E+00 0. -1.
          1    1    1    2  502    0 -0.10165179514E+03 -0.70365834698E+02  0.13147930642E+04  0.13205927608E+04  0.00000000000E+00 0. -1.
         22    1    3    3    0    0  0.22480949304E+02  0.86939992817E+02  0.35098710885E+03  0.36229256963E+03  0.00000000000E+00 0.  1.
         22    1    3    3    0    0  0.97021350997E+01  0.92985508227E+01 -0.86737462214E+01  0.15994634926E+02  0.00000000000E+00 0.  1.
</event>
<event>
 7    1  0.6173324E-006  0.8852740E+02  0.7818608E-02  0.1480890E+00
          2   -1    0    0  502    0  0.00000000000E+00  0.00000000000E+00  0.37671867284E+04  0.37671867284E+04  0.00000000000E+00 0. -1.
          1   -1    0    0  501    0 -0.00000000000E+00 -0.00000000000E+00 -0.17395757485E+03  0.17395757485E+03  0.00000000000E+00 0. -1.
         25    2    1    2    0    0  0.46731009775E+02  0.84871899889E+02  0.12728126282E+04  0.12826014050E+04  0.12500940377E+03 0.  0.
          2    1    1    2  501    0  0.10834663383E+02 -0.18959448053E+02 -0.16758554556E+03  0.16900226531E+03  0.00000000000E+00 0. -1.
          1    1    1    2  502    0 -0.57565673159E+02 -0.65912451836E+02  0.24880020709E+04  0.24895406329E+04  0.00000000000E+00 0. -1.
         22    1    3    3    0    0  0.96152128069E+01 -0.11655072833E+02  0.72237493758E+03  0.72253293592E+03  0.00000000000E+00 0. -1.
         22    1    3    3    0    0  0.37115796968E+02  0.96526972723E+02  0.55043769062E+03  0.56006846913E+03  0.00000000000E+00 0. -1.
</event>
<event>
 7    1  0.6173324E-006  0.3683153E+02  0.7818608E-02  0.1579623E+00
          2   -1    0    0  502    0  0.00000000000E+00  0.00000000000E+00  0.75570861223E+03  0.75570861223E+03  0.00000000000E+00 0. -1.
          1   -1    0    0  501    0 -0.00000000000E+00 -0.00000000000E+00 -0.53159375989E+03  0.53159375989E+03  0.00000000000E+00 0. -1.
         25    2    1    2    0    0 -0.56194950310E+02  0.30374303038E+02  0.87402202419E+02  0.16533552198E+03  0.12496487153E+03 0.  0.
          2    1    1    2  501    0  0.31155237669E+02 -0.19370219455E+02 -0.49164619847E+03  0.49301302082E+03  0.00000000000E+00 0. -1.
          1    1    1    2  502    0  0.25039712640E+02 -0.11004083583E+02  0.62835884838E+03  0.62895382931E+03  0.00000000000E+00 0. -1.
         22    1    3    3    0    0 -0.24689319164E+01  0.18727559801E+02  0.10571676134E+03  0.10739111113E+03  0.00000000000E+00 0. -1.
         22    1    3    3    0    0 -0.53726018393E+02  0.11646743237E+02 -0.18314558923E+02  0.57944410852E+02  0.00000000000E+00 0. -1.
</event>
<event>
 7    1  0.6173324E-006  0.4705990E+02  0.7818608E-02  0.1468100E+00
          2   -1    0    0  502    0  0.00000000000E+00  0.00000000000E+00  0.92369383156E+03  0.92369383156E+03  0.00000000000E+00 0. -1.
          1   -1    0    0  501    0 -0.00000000000E+00 -0.00000000000E+00 -0.14658506278E+03  0.14658506278E+03  0.00000000000E+00 0. -1.
         25    2    1    2    0    0 -0.49935032819E+02 -0.33135947216E+02  0.41449977815E+02  0.14468659198E+03  0.12499844294E+03 0.  0.
          2    1    1    2  501    0  0.42925616257E+02 -0.13486048671E+02 -0.88925901185E+02  0.99660914813E+02  0.00000000000E+00 0. -1.
          1    1    1    2  502    0  0.70094165617E+01  0.46621995887E+02  0.82458469215E+03  0.82593138755E+03  0.00000000000E+00 0. -1.
         22    1    3    3    0    0  0.40227143917E+02  0.96892867253E+00  0.23606335010E+02  0.46652127316E+02  0.00000000000E+00 0.  1.
         22    1    3    3    0    0 -0.90162176736E+02 -0.34104875888E+02  0.17843642805E+02  0.98034464662E+02  0.00000000000E+00 0.  1.
</event>
