<event>
 7    1  0.5779468E-006  0.3759199E+02  0.7818608E-02  0.1528141E+00
          2   -1    0    0  502    0  0.00000000000E+00  0.00000000000E+00  0.25949537644E+03  0.25949537644E+03  0.00000000000E+00 0. -1.
          1   -1    0    0  501    0 -0.00000000000E+00 -0.00000000000E+00 -0.46904431990E+03  0.46904431990E+03  0.00000000000E+00 0. -1.
         25    2    1    2    0    0 -0.20856756323E+02 -0.48297494123E+02 -0.28426649659E+03  0.31496074535E+03  0.12500071122E+03 0.  0.
          2    1    1    2  501    0  0.34757477713E+02  0.13368249677E+02 -0.16590717173E+03  0.17003523749E+03  0.00000000000E+00 0. -1.
          1    1    1    2  502    0 -0.13900721390E+02  0.34929244447E+02  0.24062472486E+03  0.24354371350E+03  0.00000000000E+00 0. -1.
         22    1    3    3    0    0  0.17301748359E+02 -0.63918518268E+02 -0.25732108430E+03  0.26570485110E+03  0.00000000000E+00 0. -1.
         22    1    3    3    0    0 -0.38158504681E+02  0.15621024145E+02 -0.26945412291E+02  0.49255894250E+02  0.00000000000E+00 0. -1.
</event>
<event>
 7    1  0.5779468E-006  0.5553992E+02  0.7818608E-02  0.1429270E+00
          2   -1    0    0  502    0  0.00000000000E+00  0.00000000000E+00  0.11237768959E+04  0.11237768959E+04  0.00000000000E+00 0. -1.
          1   -1    0    0  501    0 -0.00000000000E+00 -0.00000000000E+00 -0.36721497715E+03  0.36721497715E+03  0.00000000000E+00 0. -1.
         25    2    1    2    0    0  0.25307152665E+02  0.64433116067E+02  0.93619195804E+02  0.17082673028E+03  0.12500055813E+03 0.  0.
          2    1    1    2  501    0 -0.48825784787E+02 -0.13953437155E+02 -0.32586124914E+03  0.32979419243E+03  0.00000000000E+00 0. -1.
          1    1    1    2  502    0  0.23518632122E+02 -0.50479678911E+02  0.98880397205E+03  0.99037095029E+03  0.00000000000E+00 0. -1.
         22    1    3    3    0    0 -0.12799560806E+01  0.53603266917E+02 -0.17231141583E+02  0.56319275138E+02  0.00000000000E+00 0.  1.
         22    1    3    3    0    0  0.26587108746E+02  0.10829849149E+02  0.11085033739E+03  0.11450745514E+03  0.00000000000E+00 0.  1.
</event>
<event>
 7    1  0.5779468E-006  0.8072749E+02  0.7818608E-02  0.1381765E+00
          2   -1    0    0  502    0  0.00000000000E+00  0.00000000000E+00  0.12936679250E+04  0.12936679250E+04  0.00000000000E+00 0. -1.
          1   -1    0    0  501    0 -0.00000000000E+00 -0.00000000000E+00 -0.57589374144E+02  0.57589374144E+02  0.00000000000E+00 0. -1.
         25    2    1    2    0    0 -0.71693305534E+01  0.42322410688E+02  0.18456326794E+03  0.22700535667E+03  0.12500098534E+03 0.  0.
          2    1    1    2  501    0 -0.45101123973E+01 -0.91702077072E+02  0.23217585769E+02  0.94703053500E+02  0.00000000000E+00 0. -1.
          1    1    1    2  502    0  0.11679442951E+02  0.49379666384E+02  0.10282976971E+04  0.10295488890E+04  0.00000000000E+00 0. -1.
         22    1    3    3    0    0  0.50185887426E+02 -0.40425460587E+01  0.11536486489E+03  0.12587302144E+03  0.00000000000E+00 0. -1.
         22    1    3    3    0    0 -0.57355217980E+02  0.46364956747E+02  0.69198403050E+02  0.10113233523E+03  0.00000000000E+00 0. -1.
</event>
<event>
 7    1  0.5779468E-006  0.1056714E+03  0.7818608E-02  0.1306968E+00
          2   -1    0    0  502    0  0.00000000000E+00  0.00000000000E+00  0.67913358408E+03  0.67913358408E+03  0.00000000000E+00 0. -1.
          1   -1    0    0  501    0 -0.00000000000E+00 -0.00000000000E+00 -0.84905322154E+03  0.84905322154E+03  0.00000000000E+00 0. -1.
         25    2    1    2    0    0 -0.59891490145E+01  0.91181018002E+02 -0.27232363366E+03  0.31326434437E+03  0.12499816019E+03 0.  0.
          2    1    1    2  501    0 -0.71471687091E+02 -0.18472748097E+02 -0.54949095895E+03  0.55442741495E+03  0.00000000000E+00 0. -1.
          1    1    1    2  502    0  0.77460836106E+02 -0.72708269904E+02  0.65189495515E+03  0.66049504631E+03  0.00000000000E+00 0. -1.
         22    1    3    3    0    0  0.55234335548E+02  0.65052119547E+02 -0.12224169667E+03  0.14908266997E+03  0.00000000000E+00 0. -1.
         22    1    3    3    0    0 -0.61223484563E+02  0.26128898455E+02 -0.15008193699E+03  0.16418167440E+03  0.00000000000E+00 0. -1.
</event>
<event>
 7    1  0.5779468E-006  0.7159650E+02  0.7818608E-02  0.1462173E+00
          2   -1    0    0  502    0  0.00000000000E+00  0.00000000000E+00  0.36164967145E+03  0.36164967145E+03  0.00000000000E+00 0. -1.
          1   -1    0    0  501    0 -0.00000000000E+00 -0.00000000000E+00 -0.48195171982E+03  0.48195171982E+03  0.00000000000E+00 0. -1.
         25    2    1    2    0    0  0.84516467748E+02  0.26750275522E+02  0.97988171064E+02  0.18189568966E+03  0.12500299871E+03 0.  0.
          2    1    1    2  501    0 -0.71326419880E+02  0.11554072469E+01 -0.43601090611E+03  0.44180799380E+03  0.00000000000E+00 0. -1.
          1    1    1    2  502    0 -0.13190047867E+02 -0.27905682769E+02  0.21772068668E+03  0.21989770781E+03  0.00000000000E+00 0. -1.
         22    1    3    3    0    0 -0.45698371393E+01 -0.28987476852E+02 -0.10204306544E+02  0.31069037606E+02  0.00000000000E+00 0. -1.
         22    1    3    3    0    0  0.89086304887E+02  0.55737752374E+02  0.10819247761E+03  0.15082665205E+03  0.00000000000E+00 0. -1.
</event>
<event>
 7    1  0.5779468E-006  0.1374726E+03  0.7818608E-02  0.1262996E+00
          2   -1    0    0  502    0  0.00000000000E+00  0.00000000000E+00  0.64757850963E+03  0.64757850963E+03  0.00000000000E+00 0. -1.
          1   -1    0    0  501    0 -0.00000000000E+00 -0.00000000000E+00 -0.28015443447E+04  0.28015443447E+04  0.00000000000E+00 0. -1.
         25    2    1    2    0    0  0.16572242443E+03  0.77683001748E+02 -0.20041803878E+04  0.20163984046E+04  0.12499971357E+03 0.  0.
          2    1    1    2  501    0 -0.11072991817E+03 -0.11628471320E+02 -0.78442705149E+03  0.79228917400E+03  0.00000000000E+00 0. -1.
          1    1    1    2  502    0 -0.54992506263E+02 -0.66054530428E+02  0.63464160418E+03  0.64043527580E+03  0.00000000000E+00 0. -1.
         22    1    3    3    0    0  0.19204420223E+02  0.46606219642E+02 -0.20950325560E+03  0.21548216532E+03  0.00000000000E+00 0. -1.
         22    1    3    3    0    0  0.14651800421E+03  0.31076782106E+02 -0.17946771322E+04  0.18009162393E+04  0.00000000000E+00 0. -1.
</event>
<event>
 7    1  0.5779468E-006  0.1094874E+03  0.7818608E-02  0.1353142E+00
          2   -1    0    0  502    0  0.00000000000E+00  0.00000000000E+00  0.76943590984E+03  0.76943590984E+03  0.00000000000E+00 0. -1.
          1   -1    0    0  501    0 -0.00000000000E+00 -0.00000000000E+00 -0.12484687936E+04  0.12484687936E+04  0.00000000000E+00 0. -1.
         25    2    1    2    0    0  0.65798133991E+02  0.92228677524E+02  0.10375244341E+03  0.19805270577E+03  0.12499912541E+03 0.  0.
          2    1    1    2  501    0 -0.20889725675E+02 -0.10758149238E+03 -0.11979032836E+04  0.12029058296E+04  0.00000000000E+00 0. -1.
          1    1    1    2  502    0 -0.44908408316E+02  0.15352814860E+02  0.61511795637E+03  0.61694616808E+03  0.00000000000E+00 0. -1.
         22    1    3    3    0    0  0.50020991021E+02  0.11156315810E+03  0.38485775592E+02  0.12817797280E+03  0.00000000000E+00 0. -1.
         22    1    3    3    0    0  0.15777142970E+02 -0.19334480575E+02  0.65266667821E+02  0.69874732972E+02  0.00000000000E+00 0. -1.
</event>
<event>
 7    1  0.5779468E-006  0.1359098E+03  0.7818608E-02  0.1237616E+00
          2   -1    0    0  502    0  0.00000000000E+00  0.00000000000E+00  0.20925484488E+03  0.20925484488E+03  0.00000000000E+00 0. -1.
          1   -1    0    0  501    0 -0.00000000000E+00 -0.00000000000E+00 -0.97104277344E+03  0.97104277344E+03  0.00000000000E+00 0. -1.
         25    2    1    2    0    0  0.73214719972E+02  0.78084088940E+02 -0.20444509576E+03  0.26245066174E+03  0.12500013002E+03 0.  0.
          2    1    1    2  501    0  0.70622104510E+02 -0.86945353950E+02 -0.70363565202E+03  0.71249568911E+03  0.00000000000E+00 0. -1.
          1    1    1    2  502    0 -0.14383682448E+03  0.88612650098E+01  0.14629281921E+03  0.20535126746E+03  0.00000000000E+00 0. -1.
         22    1    3    3    0    0  0.54558916883E+02  0.40556162037E+02 -0.16588612253E+02  0.69976136983E+02  0.00000000000E+00 0.  1.
         22    1    3    3    0    0  0.18655803090E+02  0.37527926903E+02 -0.18785648351E+03  0.19247452476E+03  0.00000000000E+00 0.  1.
</event>
<event>
 7    1  0.5779468E-006  0.7931431E+02  0.7818608E-02  0.1345320E+00
          2   -1    0    0  502    0  0.00000000000E+00  0.00000000000E+00  0.82140403102E+03  0.82140403102E+03  0.00000000000E+00 0. -1.
          1   -1    0    0  501    0 -0.00000000000E+00 -0.00000000000E+00 -0.14924474569E+03  0.14924474569E+03  0.00000000000E+00 0. -1.
         25    2    1    2    0    0  0.16130901776E+02  0.89445311833E+02  0.11975850516E+03  0.19551849818E+03  0.12499885508E+03 0.  0.
          2    1    1    2  501    0  0.52056951148E+02 -0.46860989363E+02 -0.97624972675E+02  0.12015204441E+03  0.00000000000E+00 0. -1.
          1    1    1    2  502    0 -0.68187852924E+02 -0.42584322469E+02  0.65002575285E+03  0.65497823412E+03  0.00000000000E+00 0. -1.
         22    1    3    3    0    0  0.12264219275E+02  0.29195888362E+02 -0.23910140904E+02  0.39680042965E+02  0.00000000000E+00 0. -1.
         22    1    3    3    0    0  0.38666825011E+01  0.60249423471E+02  0.14366864606E+03  0.15583845521E+03  0.00000000000E+00 0. -1.
</event>
<event>
 7    1  0.5779468E-006  0.6860760E+02  0.7818608E-02  0.1473091E+00
          2   -1    0    0  502    0  0.00000000000E+00  0.00000000000E+00  0.37451792732E+03  0.37451792732E+03  0.00000000000E+00 0. -1.
          1   -1    0    0  501    0 -0.00000000000E+00 -0.00000000000E+00 -0.86929840796E+02  0.86929840796E+02  0.00000000000E+00 0. -1.
         25    2    1    2    0    0 -0.54546256622E+02  0.72020930972E+02  0.12019242661E+03  0.19553391646E+03  0.12499993785E+03 0.  0.
          2    1    1    2  501    0  0.27234186887E+02 -0.12047619373E+02 -0.39104823333E+02  0.49153161403E+02  0.00000000000E+00 0. -1.
          1    1    1    2  502    0  0.27312069735E+02 -0.59973311598E+02  0.20650048326E+03  0.21676069026E+03  0.00000000000E+00 0. -1.
         22    1    3    3    0    0 -0.72481727855E+02  0.40181824902E+02  0.15060346952E+02  0.84231787204E+02  0.00000000000E+00 0.  1.
         22    1    3    3    0    0  0.17935471234E+02  0.31839106070E+02  0.10513207965E+03  0.11130212925E+03  0.00000000000E+00 0.  1.
</event>
<event>
 7    1  0.5779468E-006  0.8347740E+02  0.7818608E-02  0.1325805E+00
          2   -1    0    0  502    0  0.00000000000E+00  0.00000000000E+00  0.12601420595E+04  0.12601420595E+04  0.00000000000E+00 0. -1.
          1   -1    0    0  501    0 -0.00000000000E+00 -0.00000000000E+00 -0.38134928852E+03  0.38134928852E+03  0.00000000000E+00 0. -1.
         25    2    1    2    0    0  0.14981659026E+03  0.93990505480E+01  0.40279267161E+03  0.44766118768E+03  0.12500099915E+03 0.  0.
          2    1    1    2  501    0 -0.75142837678E+02 -0.34866970741E+02 -0.35223545910E+03  0.36184522983E+03  0.00000000000E+00 0. -1.
          1    1    1    2  502    0 -0.74673752579E+02  0.25467920193E+02  0.82823555846E+03  0.83198493050E+03  0.00000000000E+00 0. -1.
         22    1    3    3    0    0  0.65443298547E+02 -0.34484181372E+02  0.71093818894E+02  0.10259783221E+03  0.00000000000E+00 0. -1.
         22    1    3    3    0    0  0.84373291710E+02  0.43883231920E+02  0.33169885271E+03  0.34506335547E+03  0.00000000000E+00 0. -1.
</event>
<event>
 7    1  0.5779468E-006  0.8240743E+02  0.7818608E-02  0.1342868E+00
          2   -1    0    0  502    0  0.00000000000E+00  0.00000000000E+00  0.25030246277E+03  0.25030246277E+03  0.00000000000E+00 0. -1.
          1   -1    0    0  501    0 -0.00000000000E+00 -0.00000000000E+00 -0.40165337941E+04  0.40165337941E+04  0.00000000000E+00 0. -1.
         25    2    1    2    0    0  0.42767672685E+02 -0.41041139582E+02 -0.14605992093E+04  0.14671351068E+04  0.12498768985E+03 0.  0.
          2    1    1    2  501    0 -0.92576281499E+02 -0.64940527928E+01 -0.25470076915E+04  0.25486978481E+04  0.00000000000E+00 0. -1.
          1    1    1    2  502    0  0.49808608814E+02  0.47535192375E+02  0.24137556945E+03  0.25100330187E+03  0.00000000000E+00 0. -1.
         22    1    3    3    0    0  0.74175820360E+02  0.13366157531E+02 -0.82910704794E+03  0.83252579746E+03  0.00000000000E+00 0.  1.
         22    1    3    3    0    0 -0.31408147676E+02 -0.54407297113E+02 -0.63149216134E+03  0.63460930938E+03  0.00000000000E+00 0.  1.
</event>
<event>
 7    1  0.5779468E-006  0.1158975E+03  0.7818608E-02  0.1314726E+00
          2   -1    0    0  502    0  0.00000000000E+00  0.00000000000E+00  0.51348568236E+03  0.51348568236E+03  0.00000000000E+00 0. -1.
          1   -1    0    0  501    0 -0.00000000000E+00 -0.00000000000E+00 -0.23798444917E+03  0.23798444917E+03  0.00000000000E+00 0. -1.
         25    2    1    2    0    0 -0.32651641635E+02  0.70717874254E+02  0.18610944316E+03  0.23733685330E+03  0.12499963865E+03 0.  0.
          2    1    1    2  501    0 -0.68158287639E+01 -0.11948548558E+03 -0.19177341917E+03  0.22605371283E+03  0.00000000000E+00 0. -1.
          1    1    1    2  502    0  0.39467470399E+02  0.48767611323E+02  0.28116520920E+03  0.28807956539E+03  0.00000000000E+00 0. -1.
         22    1    3    3    0    0 -0.55991344755E+02  0.66299380267E+02  0.52056287775E+02  0.10119533392E+03  0.00000000000E+00 0.  1.
         22    1    3    3    0    0  0.23339703119E+02  0.44184939865E+01  0.13405315538E+03  0.13614151938E+03  0.00000000000E+00 0.  1.
</event>
<event>
 7    1  0.5779468E-006  0.6079285E+02  0.7818608E-02  0.1424361E+00
          2   -1    0    0  502    0  0.00000000000E+00  0.00000000000E+00  0.18941245097E+03  0.18941245097E+03  0.00000000000E+00 0. -1.
          1   -1    0    0  501    0 -0.00000000000E+00 -0.00000000000E+00 -0.69754191314E+03  0.69754191314E+03  0.00000000000E+00 0. -1.
         25    2    1    2    0    0  0.96204183866E+02 -0.15417068891E+02 -0.21363188159E+03  0.26599448664E+03  0.12498621958E+03 0.  0.
          2    1    1    2  501    0 -0.57179430952E+02 -0.12803845241E+02 -0.45224477343E+03  0.45602495641E+03  0.00000000000E+00 0. -1.
          1    1    1    2  502    0 -0.39024752914E+02  0.28220914132E+02  0.15774719284E+03  0.16493492106E+03  0.00000000000E+00 0. -1.
         22    1    3    3    0    0  0.13010433155E+01  0.44753816541E+02 -0.46071798202E+02  0.64243345167E+02  0.00000000000E+00 0.  1.
         22    1    3    3    0    0  0.94903140550E+02 -0.60170885432E+02 -0.16756008339E+03  0.20175114147E+03  0.00000000000E+00 0.  1.
</event>
<event>
 7    1  0.5779468E-006  0.1464952E+03  0.7818608E-02  0.1206345E+00
          2   -1    0    0  502    0  0.00000000000E+00  0.00000000000E+00  0.34054626111E+03  0.34054626111E+03  0.00000000000E+00 0. -1.
          1   -1    0    0  501    0 -0.00000000000E+00 -0.00000000000E+00 -0.78712031080E+03  0.78712031080E+03  0.00000000000E+00 0. -1.
         25    2    1    2    0    0  0.10260519449E+03  0.31041523198E+02 -0.13750960690E+03  0.21453808768E+03  0.12500518781E+03 0.  0.
          2    1    1    2  501    0  0.12408113269E+01 -0.14648998264E+03 -0.58143344293E+03  0.59960462238E+03  0.00000000000E+00 0. -1.
          1    1    1    2  502    0 -0.10384600582E+03  0.11544845944E+03  0.27236900014E+03  0.31352386185E+03  0.00000000000E+00 0. -1.
         22    1    3    3    0    0  0.66618399635E+02  0.42842836219E+02 -0.80046405063E+01  0.79609007372E+02  0.00000000000E+00 0.  1.
         22    1    3    3    0    0  0.35986794856E+02 -0.11801313021E+02 -0.12950496639E+03  0.13492908031E+03  0.00000000000E+00 0.  1.
</event>
<event>
 7    1  0.5779468E-006  0.1208810E+03  0.7818608E-02  0.1279851E+00
          2   -1    0    0  502    0  0.00000000000E+00  0.00000000000E+00  0.94714862798E+03  0.94714862798E+03  0.00000000000E+00 0. -1.
          1   -1    0    0  501    0 -0.00000000000E+00 -0.00000000000E+00 -0.61328964847E+03  0.61328964847E+03  0.00000000000E+00 0. -1.
         25    2    1    2    0    0 -0.14921322651E+03  0.16833026090E+02  0.35408199252E+03  0.40440899766E+03  0.12499856891E+03 0.  0.
          2    1    1    2  501    0  0.43732906263E+02 -0.70634115265E+02 -0.57895656959E+03  0.58488670254E+03  0.00000000000E+00 0. -1.
          1    1    1    2  502    0  0.10548032025E+03  0.53801089175E+02  0.55873355658E+03  0.57114257625E+03  0.00000000000E+00 0. -1.
         22    1    3    3    0    0 -0.22102790663E+02 -0.38119839368E+02  0.16020592429E+03  0.16615533000E+03  0.00000000000E+00 0. -1.
         22    1    3    3    0    0 -0.12711043585E+03  0.54952865458E+02  0.19387606823E+03  0.23825366767E+03  0.00000000000E+00 0. -1.
</event>
<event>
 7    1  0.5779468E-006  0.6266178E+02  0.7818608E-02  0.1430610E+00
          2   -1    0    0  502    0  0.00000000000E+00  0.00000000000E+00  0.40471039964E+03  0.40471039964E+03  0.00000000000E+00 0. -1.
          1   -1    0    0  501    0 -0.00000000000E+00 -0.00000000000E+00 -0.19739242235E+03  0.19739242235E+03  0.00000000000E+00 0. -1.
         25    2    1    2    0    0  0.37324876797E+02  0.11074889907E+02 -0.89533563237E+02  0.15860317959E+03  0.12499163979E+03 0.  0.
          2    1    1    2  501    0 -0.62451753047E+02 -0.47867521475E+02 -0.50372610355E+02  0.93428694440E+02  0.00000000000E+00 0. -1.
          1    1    1    2  502    0  0.25126876250E+02  0.36792631568E+02  0.34722415089E+03  0.35007094796E+03  0.00000000000E+00 0. -1.
         22    1    3    3    0    0  0.60639966349E+02  0.46977150542E+02 -0.24088911010E+02  0.80401080997E+02  0.00000000000E+00 0.  1.
         22    1    3    3    0    0 -0.23315089552E+02 -0.35902260635E+02 -0.65444652227E+02  0.78202098595E+02  0.00000000000E+00 0.  1.
</event>
<event>
 7    1  0.5779468E-006  0.1053027E+03  0.7818608E-02  0.1317314E+00
          2   -1    0    0  502    0  0.00000000000E+00  0.00000000000E+00  0.53163989180E+03  0.53163989180E+03  0.00000000000E+00 0. -1.
          1   -1    0    0  501    0 -0.00000000000E+00 -0.00000000000E+00 -0.16639290248E+04  0.16639290248E+04  0.00000000000E+00 0. -1.
         25    2    1    2    0    0 -0.27067400084E+02  0.67571796869E+02 -0.38328834435E+03  0.40967624832E+03  0.12500432652E+03 0.  0.
          2    1    1    2  501    0 -0.65527026131E+02 -0.16039688798E+02 -0.12611208764E+04  0.12629239596E+04  0.00000000000E+00 0. -1.
          1    1    1    2  502    0  0.92594426216E+02 -0.51532108072E+02  0.51212008779E+03  0.52296870866E+03  0.00000000000E+00 0. -1.
         22    1    3    3    0    0  0.48022065736E+02  0.44751200474E+02 -0.15722001716E+03  0.17037289262E+03  0.00000000000E+00 0.  1.
         22    1    3    3    0    0 -0.75089465820E+02  0.22820596395E+02 -0.22606832718E+03  0.23930335571E+03  0.00000000000E+00 0.  1.
</event>
<event>
 7    1  0.5779468E-006  0.1357369E+03  0.7818608E-02  0.1248223E+00
          2   -1    0    0  502    0  0.00000000000E+00  0.00000000000E+00  0.25068228023E+04  0.25068228023E+04  0.00000000000E+00 0. -1.
          1   -1    0    0  501    0 -0.00000000000E+00 -0.00000000000E+00 -0.15301316836E+04  0.15301316836E+04  0.00000000000E+00 0. -1.
         25    2    1    2    0    0 -0.77207014672E+02 -0.16838851919E+03 -0.12325835963E+03  0.25520123847E+03  0.12497772756E+03 0.  0.
          2    1    1    2  501    0  0.11239510903E+03  0.73977264520E+02 -0.13364824694E+04  0.13432388794E+04  0.00000000000E+00 0. -1.
          1    1    1    2  502    0 -0.35188094359E+02  0.94411254665E+02  0.24364319478E+04  0.24385143680E+04  0.00000000000E+00 0. -1.
         22    1    3    3    0    0 -0.56640784802E+02 -0.10059242693E+03 -0.14093704224E+03  0.18218195502E+03  0.00000000000E+00 0.  1.
         22    1    3    3    0    0 -0.20566229870E+02 -0.67796092257E+02  0.17678682609E+02  0.73019283447E+02  0.00000000000E+00 0.  1.
</event>
<event>
 7    1  0.5779468E-006  0.1282018E+03  0.7818608E-02  0.1297493E+00
          2   -1    0    0  502    0  0.00000000000E+00  0.00000000000E+00  0.14552972532E+04  0.14552972532E+04  0.00000000000E+00 0. -1.
          1   -1    0    0  501    0 -0.00000000000E+00 -0.00000000000E+00 -0.29737865978E+03  0.29737865978E+03  0.00000000000E+00 0. -1.
         25    2    1    2    0    0 -0.13365903462E+03 -0.67011159691E+02  0.48322981283E+02  0.20078575351E+03  0.12499830092E+03 0.  0.
          2    1    1    2  501    0  0.76753817539E+02  0.10118897754E+03 -0.20200360266E+03  0.23861226534E+03  0.00000000000E+00 0. -1.
          1    1    1    2  502    0  0.56905217080E+02 -0.34177817846E+02  0.13115992148E+04  0.13132778941E+04  0.00000000000E+00 0. -1.
         22    1    3    3    0    0 -0.12277678638E+03  0.12109764802E+01  0.13801157970E+02  0.12355596990E+03  0.00000000000E+00 0. -1.
         22    1    3    3    0    0 -0.10882248240E+02 -0.68222136171E+02  0.34521823312E+02  0.77229783603E+02  0.00000000000E+00 0. -1.
</event>
<event>
 7    1  0.5779468E-006  0.3421931E+03  0.7818608E-02  0.1123976E+00
          2   -1    0    0  502    0  0.00000000000E+00  0.00000000000E+00  0.43550665902E+03  0.43550665902E+03  0.00000000000E+00 0. -1.
          1   -1    0    0  501    0 -0.00000000000E+00 -0.00000000000E+00 -0.25435065270E+04  0.25435065270E+04  0.00000000000E+00 0. -1.
         25    2    1    2    0    0  0.28332113014E+03 -0.20719403643E+03 -0.15320857472E+04  0.15767407113E+04  0.12499720957E+03 0.  0.
          2    1    1    2  501    0 -0.16232295042E+03  0.31154016331E+03 -0.94063358096E+03  0.10040904079E+04  0.00000000000E+00 0. -1.
          1    1    1    2  502    0 -0.12099817972E+03 -0.10434612688E+03  0.36471946019E+03  0.39818206681E+03  0.00000000000E+00 0. -1.
         22    1    3    3    0    0  0.23396583983E+03 -0.17866914491E+03 -0.10242672330E+04  0.10657326317E+04  0.00000000000E+00 0. -1.
         22    1    3    3    0    0  0.49355290315E+02 -0.28524891515E+02 -0.50781851418E+03  0.51100807965E+03  0.00000000000E+00 0. -1.
</event>
<event>
 7    1  0.5779468E-006  0.2188730E+03  0.7818608E-02  0.1331824E+00
          2   -1    0    0  502    0  0.00000000000E+00  0.00000000000E+00  0.50539717959E+03  0.50539717959E+03  0.00000000000E+00 0. -1.
          1   -1    0    0  501    0 -0.00000000000E+00 -0.00000000000E+00 -0.10124849596E+04  0.10124849596E+04  0.00000000000E+00 0. -1.
         25    2    1    2    0    0  0.16627040653E+03  0.17894523053E+03  0.18372651996E+03  0.33022310921E+03  0.12499849642E+03 0.  0.
          2    1    1    2  501    0 -0.14090925962E+03 -0.16586288351E+03 -0.92575414562E+03  0.95099245723E+03  0.00000000000E+00 0. -1.
          1    1    1    2  502    0 -0.25361146910E+02 -0.13082347013E+02  0.23493984566E+03  0.23666657274E+03  0.00000000000E+00 0. -1.
         22    1    3    3    0    0  0.15596548965E+03  0.19249151738E+03  0.18986156268E+03  0.31213079183E+03  0.00000000000E+00 0.  1.
         22    1    3    3    0    0  0.10304916877E+02 -0.13546286851E+02 -0.61350427164E+01  0.18092317387E+02  0.00000000000E+00 0.  1.
</event>
<event>
 7    1  0.5779468E-006  0.8421565E+02  0.7818608E-02  0.1401117E+00
          2   -1    0    0  502    0  0.00000000000E+00  0.00000000000E+00  0.53577677096E+02  0.53577677096E+02  0.00000000000E+00 0. -1.
          1   -1    0    0  501    0 -0.00000000000E+00 -0.00000000000E+00 -0.13006019993E+04  0.13006019993E+04  0.00000000000E+00 0. -1.
         25    2    1    2    0    0 -0.46859694078E+02  0.22436940572E+02 -0.27801706720E+03  0.30922147825E+03  0.12500074288E+03 0.  0.
          2    1    1    2  501    0 -0.23498463870E+02  0.34387013450E+02 -0.95202853997E+03  0.95293912996E+03  0.00000000000E+00 0. -1.
          1    1    1    2  502    0  0.70358157948E+02 -0.56823954022E+02 -0.16978714995E+02  0.92019068152E+02  0.00000000000E+00 0. -1.
         22    1    3    3    0    0 -0.52643673193E+02  0.69882259589E+02 -0.17469930747E+03  0.19538355756E+03  0.00000000000E+00 0.  1.
         22    1    3    3    0    0  0.57839791152E+01 -0.47445319016E+02 -0.10331775973E+03  0.11383792069E+03  0.00000000000E+00 0.  1.
</event>
<event>
 7    1  0.5779468E-006  0.1950212E+03  0.7818608E-02  0.1232560E+00
          2   -1    0    0  502    0  0.00000000000E+00  0.00000000000E+00  0.10896206466E+04  0.10896206466E+04  0.00000000000E+00 0. -1.
          1   -1    0    0  501    0 -0.00000000000E+00 -0.00000000000E+00 -0.76647248188E+03  0.76647248188E+03  0.00000000000E+00 0. -1.
         25    2    1    2    0    0  0.26182181857E+03  0.51610866302E+02 -0.65712426156E+02  0.30192347755E+03  0.12500126856E+03 0.  0.
          2    1    1    2  501    0 -0.70599099897E+02 -0.42119963122E+02 -0.57024541651E+03  0.57614074604E+03  0.00000000000E+00 0. -1.
          1    1    1    2  502    0 -0.19122271868E+03 -0.94909031793E+01  0.95910600743E+03  0.97802890492E+03  0.00000000000E+00 0. -1.
         22    1    3    3    0    0  0.11293222477E+03  0.73755921744E+02 -0.68689308627E+02  0.15136658979E+03  0.00000000000E+00 0. -1.
         22    1    3    3    0    0  0.14888959380E+03 -0.22145055443E+02  0.29768824719E+01  0.15055688776E+03  0.00000000000E+00 0. -1.
</event>
<event>
 7    1  0.5779468E-006  0.4294099E+02  0.7818608E-02  0.1532689E+00
          2   -1    0    0  502    0  0.00000000000E+00  0.00000000000E+00  0.44352785396E+02  0.44352785396E+02  0.00000000000E+00 0. -1.
          1   -1    0    0  501    0 -0.00000000000E+00 -0.00000000000E+00 -0.12284309222E+04  0.12284309222E+04  0.00000000000E+00 0. -1.
         25    2    1    2    0    0  0.60510119849E+01 -0.12199906089E+02 -0.22024472465E+03  0.25361178611E+03  0.12500298741E+03 0.  0.
          2    1    1    2  501    0  0.13318346864E+02 -0.28697802404E+02 -0.97256938340E+03  0.97308383387E+03  0.00000000000E+00 0. -1.
          1    1    1    2  502    0 -0.19369358849E+02  0.40897708493E+02  0.87359712802E+01  0.46088087576E+02  0.00000000000E+00 0. -1.
         22    1    3    3    0    0  0.25273916877E+01  0.54317459533E+02 -0.13419340260E+03  0.14479172429E+03  0.00000000000E+00 0. -1.
         22    1    3    3    0    0  0.35236202972E+01 -0.66517365623E+02 -0.86051322048E+02  0.10882006183E+03  0.00000000000E+00 0. -1.
</event>
<event>
 7    1  0.5779468E-006  0.2388092E+02  0.7818608E-02  0.1693800E+00
          2   -1    0    0  502    0  0.00000000000E+00  0.00000000000E+00  0.13422107170E+03  0.13422107170E+03  0.00000000000E+00 0. -1.
          1   -1    0    0  501    0 -0.00000000000E+00 -0.00000000000E+00 -0.86873888288E+03  0.86873888288E+03  0.00000000000E+00 0. -1.
         25    2    1    2    0    0  0.45090912777E+01  0.16322601814E+01 -0.43677820172E+03  0.45434022718E+03  0.12500739320E+03 0.  0.
          2    1    1    2  501    0 -0.21640572242E+02  0.11980627712E+02 -0.42186038809E+03  0.42258494631E+03  0.00000000000E+00 0. -1.
          1    1    1    2  502    0  0.17131480965E+02 -0.13612887893E+02  0.12412077863E+03  0.12603478109E+03  0.00000000000E+00 0. -1.
         22    1    3    3    0    0 -0.45948519334E+02  0.40602255130E+02 -0.21890566309E+03  0.22733125365E+03  0.00000000000E+00 0. -1.
         22    1    3    3    0    0  0.50457610612E+02 -0.38969994949E+02 -0.21787253863E+03  0.22700897353E+03  0.00000000000E+00 0. -1.
</event>
<event>
 7    1  0.5779468E-006  0.1153839E+03  0.7818608E-02  0.1452891E+00
          2   -1    0    0  502    0  0.00000000000E+00  0.00000000000E+00  0.26568528919E+04  0.26568528919E+04  0.00000000000E+00 0. -1.
          1   -1    0    0  501    0 -0.00000000000E+00 -0.00000000000E+00 -0.12243099371E+04  0.12243099371E+04  0.00000000000E+00 0. -1.
         25    2    1    2    0    0 -0.11265178605E+03 -0.48166145601E+02 -0.17452709017E+03  0.24717518313E+03  0.12500185387E+03 0.  0.
          2    1    1    2  501    0  0.15272591381E+02 -0.13664531823E+02 -0.10120856463E+04  0.10122931032E+04  0.00000000000E+00 0. -1.
          1    1    1    2  502    0  0.97379194665E+02  0.61830677424E+02  0.26191556913E+04  0.26216945427E+04  0.00000000000E+00 0. -1.
         22    1    3    3    0    0 -0.97856890671E+01  0.17800124157E+02 -0.10424408623E+03  0.10620467807E+03  0.00000000000E+00 0.  1.
         22    1    3    3    0    0 -0.10286609698E+03 -0.65966269758E+02 -0.70283003937E+02  0.14097050506E+03  0.00000000000E+00 0.  1.
</event>
<event>
 7    1  0.5779468E-006  0.6764104E+02  0.7818608E-02  0.1391323E+00
          2   -1    0    0  502    0  0.00000000000E+00  0.00000000000E+00  0.26106097605E+03  0.26106097605E+03  0.00000000000E+00 0. -1.
          1   -1    0    0  501    0 -0.00000000000E+00 -0.00000000000E+00 -0.73443514738E+03  0.73443514738E+03  0.00000000000E+00 0. -1.
         25    2    1    2    0    0 -0.75360131395E+02 -0.30729348739E+02 -0.36392778018E+03  0.39330899979E+03  0.12500039141E+03 0.  0.
          2    1    1    2  501    0  0.12026182278E+02  0.54754894077E+02 -0.34888040993E+03  0.35335572433E+03  0.00000000000E+00 0. -1.
          1    1    1    2  502    0  0.63333949117E+02 -0.24025545338E+02  0.23943401877E+03  0.24883139931E+03  0.00000000000E+00 0. -1.
         22    1    3    3    0    0 -0.10205436301E+02  0.39251784045E+02 -0.46056081207E+02  0.61367875121E+02  0.00000000000E+00 0.  1.
         22    1    3    3    0    0 -0.65154695094E+02 -0.69981132784E+02 -0.31787169897E+03  0.33194112467E+03  0.00000000000E+00 0.  1.
</event>
<event>
 7    1  0.5779468E-006  0.5469630E+02  0.7818608E-02  0.1521199E+00
          2   -1    0    0  502    0  0.00000000000E+00  0.00000000000E+00  0.24128500726E+04  0.24128500726E+04  0.00000000000E+00 0. -1.
          1   -1    0    0  501    0 -0.00000000000E+00 -0.00000000000E+00 -0.12569147378E+03  0.12569147378E+03  0.00000000000E+00 0. -1.
         25    2    1    2    0    0  0.11388960408E+02  0.36608107428E+02  0.34997972967E+03  0.37360439385E+03  0.12499827991E+03 0.  0.
          2    1    1    2  501    0  0.26549760429E+02  0.36718431812E+01 -0.11192341454E+03  0.11508789221E+03  0.00000000000E+00 0. -1.
          1    1    1    2  502    0 -0.37938720837E+02 -0.40279950609E+02  0.20491022837E+04  0.20498492603E+04  0.00000000000E+00 0. -1.
         22    1    3    3    0    0  0.23235646580E+02  0.64359101366E+02  0.96287072240E+02  0.11812361949E+03  0.00000000000E+00 0.  1.
         22    1    3    3    0    0 -0.11846686171E+02 -0.27750993938E+02  0.25369265743E+03  0.25548077436E+03  0.00000000000E+00 0.  1.
</event>
<event>
 7    1  0.5779468E-006  0.1378963E+03  0.7818608E-02  0.1301850E+00
          2   -1    0    0  502    0  0.00000000000E+00  0.00000000000E+00  0.53921660044E+03  0.53921660044E+03  0.00000000000E+00 0. -1.
          1   -1    0    0  501    0 -0.00000000000E+00 -0.00000000000E+00 -0.10417555993E+04  0.10417555993E+04  0.00000000000E+00 0. -1.
         25    2    1    2    0    0 -0.13977527984E+03  0.11061275045E+03 -0.49341274436E+03  0.53930795126E+03  0.12499848233E+03 0.  0.
          2    1    1    2  501    0  0.82850242722E+02 -0.94059829830E+02 -0.51616765517E+03  0.53116895858E+03  0.00000000000E+00 0. -1.
          1    1    1    2  502    0  0.56925037122E+02 -0.16552920617E+02  0.50704140066E+03  0.51049528991E+03  0.00000000000E+00 0. -1.
         22    1    3    3    0    0  0.12301343722E+02  0.43168985176E+02 -0.16724549793E+03  0.17316449092E+03  0.00000000000E+00 0. -1.
         22    1    3    3    0    0 -0.15207662357E+03  0.67443765271E+02 -0.32616724643E+03  0.36614346034E+03  0.00000000000E+00 0. -1.
</event>
<event>
 7    1  0.5779468E-006  0.1485910E+03  0.7818608E-02  0.1336284E+00
          2   -1    0    0  502    0  0.00000000000E+00  0.00000000000E+00  0.51608526211E+03  0.51608526211E+03  0.00000000000E+00 0. -1.
          1   -1    0    0  501    0 -0.00000000000E+00 -0.00000000000E+00 -0.44222969066E+03  0.44222969066E+03  0.00000000000E+00 0. -1.
         25    2    1    2    0    0  0.59045981762E+02  0.17791257953E+03 -0.32396583712E+03  0.39461134139E+03  0.12499973284E+03 0.  0.
          2    1    1    2  501    0 -0.16986770159E+02 -0.36684735910E+02 -0.65800405705E+02  0.77227026359E+02  0.00000000000E+00 0. -1.
          1    1    1    2  502    0 -0.42059211602E+02 -0.14122784362E+03  0.46362181428E+03  0.48647658502E+03  0.00000000000E+00 0. -1.
         22    1    3    3    0    0 -0.13811981186E+02  0.68238909749E+02 -0.36916323852E+02  0.78804407204E+02  0.00000000000E+00 0. -1.
         22    1    3    3    0    0  0.72857962947E+02  0.10967366978E+03 -0.28704951327E+03  0.31580693418E+03  0.00000000000E+00 0. -1.
</event>
<event>
 7    1  0.5779468E-006  0.1174344E+03  0.7818608E-02  0.1283991E+00
          2   -1    0    0  502    0  0.00000000000E+00  0.00000000000E+00  0.11912268851E+04  0.11912268851E+04  0.00000000000E+00 0. -1.
          1   -1    0    0  501    0 -0.00000000000E+00 -0.00000000000E+00 -0.14509071935E+03  0.14509071935E+03  0.00000000000E+00 0. -1.
         25    2    1    2    0    0 -0.16392694275E+03 -0.79494906855E+02  0.69197088128E+03  0.72638923631E+03  0.12500455718E+03 0.  0.
          2    1    1    2  501    0  0.81727254992E+02  0.81392744481E+02 -0.97382881862E+02  0.15095545284E+03  0.00000000000E+00 0. -1.
          1    1    1    2  502    0  0.82199687758E+02 -0.18978376264E+01  0.45154816636E+03  0.45897291532E+03  0.00000000000E+00 0. -1.
         22    1    3    3    0    0 -0.88667481977E+02 -0.48908670857E+02  0.16799912242E+03  0.19615729805E+03  0.00000000000E+00 0. -1.
         22    1    3    3    0    0 -0.75259460772E+02 -0.30586235998E+02  0.52397175886E+03  0.53023193826E+03  0.00000000000E+00 0. -1.
</event>
<event>
 7    1  0.5779468E-006  0.1216635E+03  0.7818608E-02  0.1370682E+00
          2   -1    0    0  502    0  0.00000000000E+00  0.00000000000E+00  0.11123516236E+04  0.11123516236E+04  0.00000000000E+00 0. -1.
          1   -1    0    0  501    0 -0.00000000000E+00 -0.00000000000E+00 -0.11190957829E+04  0.11190957829E+04  0.00000000000E+00 0. -1.
         25    2    1    2    0    0  0.37905520468E+02  0.99749758481E+02 -0.33347823304E+03  0.37177915773E+03  0.12500066964E+03 0.  0.
          2    1    1    2  501    0 -0.29718304656E+02  0.21826789019E+02 -0.76262476386E+03  0.76351562970E+03  0.00000000000E+00 0. -1.
          1    1    1    2  502    0 -0.81872158121E+01 -0.12157654750E+03  0.10893588375E+04  0.10961526191E+04  0.00000000000E+00 0. -1.
         22    1    3    3    0    0  0.13415843500E+02  0.94286975262E+02 -0.33334973401E+03  0.34668727078E+03  0.00000000000E+00 0.  1.
         22    1    3    3    0    0  0.24489676969E+02  0.54627832193E+01 -0.12849903492E+00  0.25091886947E+02  0.00000000000E+00 0.  1.
</event>
<event>
 7    1  0.5779468E-006  0.5926402E+02  0.7818608E-02  0.1482566E+00
          2   -1    0    0  502    0  0.00000000000E+00  0.00000000000E+00  0.22320276266E+02  0.22320276266E+02  0.00000000000E+00 0. -1.
          1   -1    0    0  501    0 -0.00000000000E+00 -0.00000000000E+00 -0.11465924736E+04  0.11465924736E+04  0.00000000000E+00 0. -1.
         25    2    1    2    0    0  0.13081013395E+02  0.58661751999E+02 -0.29513471882E+03  0.32610500003E+03  0.12501061848E+03 0.  0.
          2    1    1    2  501    0 -0.41359805720E+02 -0.43185765207E+02 -0.78929658759E+03  0.79155842932E+03  0.00000000000E+00 0. -1.
          1    1    1    2  502    0  0.28278792324E+02 -0.15475986791E+02 -0.39840890876E+02  0.51249320467E+02  0.00000000000E+00 0. -1.
         22    1    3    3    0    0  0.56895663825E+02  0.35684477377E+02 -0.75856723079E+02  0.10131505774E+03  0.00000000000E+00 0. -1.
         22    1    3    3    0    0 -0.43814650430E+02  0.22977274622E+02 -0.21927799574E+03  0.22478994230E+03  0.00000000000E+00 0. -1.
</event>
<event>
 7    1  0.5779468E-006  0.1923513E+03  0.7818608E-02  0.1335800E+00
          2   -1    0    0  502    0  0.00000000000E+00  0.00000000000E+00  0.34407831138E+03  0.34407831138E+03  0.00000000000E+00 0. -1.
          1   -1    0    0  501    0 -0.00000000000E+00 -0.00000000000E+00 -0.51505988490E+03  0.51505988490E+03  0.00000000000E+00 0. -1.
         25    2    1    2    0    0 -0.17757022984E+03  0.97512597998E+02  0.27645113710E+01  0.23805955188E+03  0.12499925770E+03 0.  0.
          2    1    1    2  501    0  0.10939669851E+00 -0.31361498845E+02 -0.35650887867E+03  0.35788564675E+03  0.00000000000E+00 0. -1.
          1    1    1    2  502    0  0.17746083314E+03 -0.66151099153E+02  0.18276279379E+03  0.26319299765E+03  0.00000000000E+00 0. -1.
         22    1    3    3    0    0 -0.69109283319E+02  0.57155533020E+02  0.61045258054E+02  0.10848673433E+03  0.00000000000E+00 0.  1.
         22    1    3    3    0    0 -0.10846094652E+03  0.40357064978E+02 -0.58280746683E+02  0.12957281755E+03  0.00000000000E+00 0.  1.
</event>
<event>
 7    1  0.5779468E-006  0.3082411E+02  0.7818608E-02  0.1610515E+00
          2   -1    0    0  502    0  0.00000000000E+00  0.00000000000E+00  0.36702977314E+04  0.36702977314E+04  0.00000000000E+00 0. -1.
          1   -1    0    0  501    0 -0.00000000000E+00 -0.00000000000E+00 -0.33024858125E+01  0.33024858125E+01  0.00000000000E+00 0. -1.
         25    2    1    2    0    0  0.36014675962E+00  0.18189071962E+02  0.16702399706E+04  0.16750095596E+04  0.12499797272E+03 0.  0.
          2    1    1    2  501    0  0.27064274177E+02 -0.14991910005E+01  0.23738790388E+03  0.23893040706E+03  0.00000000000E+00 0. -1.
          1    1    1    2  502    0 -0.27424420937E+02 -0.16689880962E+02  0.17593673711E+04  0.17596602505E+04  0.00000000000E+00 0. -1.
         22    1    3    3    0    0  0.41935949960E+02  0.36376016890E+02  0.38636758901E+03  0.39033543567E+03  0.00000000000E+00 0.  1.
         22    1    3    3    0    0 -0.41575803201E+02 -0.18186944928E+02  0.12838723816E+04  0.12846741239E+04  0.00000000000E+00 0.  1.
</event>
<event>
 7    1  0.5779468E-006  0.4999408E+02  0.7818608E-02  0.1471975E+00
          2   -1    0    0  502    0  0.00000000000E+00  0.00000000000E+00  0.53793028563E+02  0.53793028563E+02  0.00000000000E+00 0. -1.
          1   -1    0    0  501    0 -0.00000000000E+00 -0.00000000000E+00 -0.21263739747E+04  0.21263739747E+04  0.00000000000E+00 0. -1.
         25    2    1    2    0    0 -0.24698343640E+02 -0.67991059502E+01 -0.56333121939E+03  0.57760168680E+03  0.12500163933E+03 0.  0.
          2    1    1    2  501    0  0.65076295413E+01 -0.40676973277E+02 -0.15417000322E+04  0.15422502893E+04  0.00000000000E+00 0. -1.
          1    1    1    2  502    0  0.18190714099E+02  0.47476079228E+02  0.32450305484E+02  0.60315027185E+02  0.00000000000E+00 0. -1.
         22    1    3    3    0    0  0.33374045034E+02 -0.35728600337E+02 -0.37993130061E+03  0.38306416296E+03  0.00000000000E+00 0.  1.
         22    1    3    3    0    0 -0.58072388674E+02  0.28929494387E+02 -0.18339991878E+03  0.19453752384E+03  0.00000000000E+00 0.  1.
</event>
<event>
 7    1  0.5779468E-006  0.3113568E+03  0.7818608E-02  0.1271317E+00
          2   -1    0    0  502    0  0.00000000000E+00  0.00000000000E+00  0.48112461989E+03  0.48112461989E+03  0.00000000000E+00 0. -1.
          1   -1    0    0  501    0 -0.00000000000E+00 -0.00000000000E+00 -0.11721546852E+04  0.11721546852E+04  0.00000000000E+00 0. -1.
         25    2    1    2    0    0  0.33782423743E+02  0.29527090898E+03  0.18404202188E+03  0.37124433132E+03  0.12499890349E+03 0.  0.
          2    1    1    2  501    0  0.88768343297E+01  0.33858117583E+02 -0.94268586745E+03  0.94333547321E+03  0.00000000000E+00 0. -1.
          1    1    1    2  502    0 -0.42659258073E+02 -0.32912902656E+03  0.67613780231E+02  0.33869950060E+03  0.00000000000E+00 0. -1.
         22    1    3    3    0    0 -0.12542020960E+02  0.40637870390E+02 -0.14625052033E+02  0.44973669481E+02  0.00000000000E+00 0.  1.
         22    1    3    3    0    0  0.46324444703E+02  0.25463303859E+03  0.19866707391E+03  0.32627066184E+03  0.00000000000E+00 0.  1.
</event>
<event>
 7    1  0.5779468E-006  0.7476884E+02  0.7818608E-02  0.1505217E+00
          2   -1    0    0  502    0  0.00000000000E+00  0.00000000000E+00  0.52476922373E+02  0.52476922373E+02  0.00000000000E+00 0. -1.
          1   -1    0    0  501    0 -0.00000000000E+00 -0.00000000000E+00 -0.24119077573E+04  0.24119077573E+04  0.00000000000E+00 0. -1.
         25    2    1    2    0    0 -0.83502438703E+02 -0.36122008678E+02 -0.20302061272E+04  0.20360843474E+04  0.12500037608E+03 0.  0.
          2    1    1    2  501    0  0.10957891461E+02  0.18892160750E+02 -0.35017104064E+03  0.35085145977E+03  0.00000000000E+00 0. -1.
          1    1    1    2  502    0  0.72544547242E+02  0.17229847929E+02  0.20946332886E+02  0.77448872526E+02  0.00000000000E+00 0. -1.
         22    1    3    3    0    0  0.41187476710E+01 -0.28151818030E+02 -0.10261379804E+03  0.10648511863E+03  0.00000000000E+00 0. -1.
         22    1    3    3    0    0 -0.87621186374E+02 -0.79701906481E+01 -0.19275923291E+04  0.19295992287E+04  0.00000000000E+00 0. -1.
</event>
<event>
 7    1  0.5779468E-006  0.6904713E+02  0.7818608E-02  0.1375208E+00
          2   -1    0    0  502    0  0.00000000000E+00  0.00000000000E+00  0.30479202401E+03  0.30479202401E+03  0.00000000000E+00 0. -1.
          1   -1    0    0  501    0 -0.00000000000E+00 -0.00000000000E+00 -0.72525282578E+02  0.72525282578E+02  0.00000000000E+00 0. -1.
         25    2    1    2    0    0  0.18303626315E+02 -0.14240806931E+02  0.11744917825E+03  0.17309328308E+03  0.12501660633E+03 0.  0.
          2    1    1    2  501    0 -0.75755895364E+02  0.39079853408E+02  0.15217892865E+02  0.86589692735E+02  0.00000000000E+00 0. -1.
          1    1    1    2  502    0  0.57452269049E+02 -0.24839046478E+02  0.99599670314E+02  0.11763433077E+03  0.00000000000E+00 0. -1.
         22    1    3    3    0    0 -0.43965529690E+02 -0.35755797794E+02  0.31619532270E+02  0.64894065197E+02  0.00000000000E+00 0. -1.
         22    1    3    3    0    0  0.62269156005E+02  0.21514990864E+02  0.85829645982E+02  0.10819921788E+03  0.00000000000E+00 0. -1.
</event>
<event>
 7    1  0.5779468E-006  0.8284168E+02  0.7818608E-02  0.1321212E+00
          2   -1    0    0  502    0  0.00000000000E+00  0.00000000000E+00  0.28664973828E+04  0.28664973828E+04  0.00000000000E+00 0. -1.
          1   -1    0    0  501    0 -0.00000000000E+00 -0.00000000000E+00 -0.62582268978E+03  0.62582268978E+03  0.00000000000E+00 0. -1.
         25    2    1    2    0    0  0.64851635416E+02  0.28555620110E+02  0.78067102997E+03  0.79378330675E+03  0.12499409182E+03 0.  0.
          2    1    1    2  501    0 -0.23832137001E+01 -0.82965540342E+02 -0.61565549408E+03  0.62122511860E+03  0.00000000000E+00 0. -1.
          1    1    1    2  502    0 -0.62468421716E+02  0.54409920232E+02  0.20756591571E+04  0.20773116472E+04  0.00000000000E+00 0. -1.
         22    1    3    3    0    0  0.86601031376E+02  0.48970741502E+02  0.71194677692E+03  0.71886444155E+03  0.00000000000E+00 0.  1.
         22    1    3    3    0    0 -0.21749395960E+02 -0.20415121391E+02  0.68724253049E+02  0.74918865202E+02  0.00000000000E+00 0.  1.
</event>
<event>
 7    1  0.5779468E-006  0.1005298E+03  0.7818608E-02  0.1458868E+00
          2   -1    0    0  502    0  0.00000000000E+00  0.00000000000E+00  0.15131215311E+04  0.15131215311E+04  0.00000000000E+00 0. -1.
          1   -1    0    0  501    0 -0.00000000000E+00 -0.00000000000E+00 -0.38009964211E+03  0.38009964211E+03  0.00000000000E+00 0. -1.
         25    2    1    2    0    0 -0.72250463126E+02  0.71329324423E+02  0.66405867437E+03  0.68330643633E+03  0.12500304384E+03 0.  0.
          2    1    1    2  501    0  0.17938773068E+02  0.13607994595E+02 -0.36710253127E+03  0.36779239465E+03  0.00000000000E+00 0. -1.
          1    1    1    2  502    0  0.54311690058E+02 -0.84937319018E+02  0.83606574592E+03  0.84212234226E+03  0.00000000000E+00 0. -1.
         22    1    3    3    0    0 -0.55124019104E+02  0.11170516514E+02  0.55293581664E+03  0.55578903844E+03  0.00000000000E+00 0.  1.
         22    1    3    3    0    0 -0.17126444021E+02  0.60158807909E+02  0.11112285773E+03  0.12751739789E+03  0.00000000000E+00 0.  1.
</event>
<event>
 7    1  0.5779468E-006  0.4355188E+02  0.7818608E-02  0.1525948E+00
          2   -1    0    0  502    0  0.00000000000E+00  0.00000000000E+00  0.28882977560E+02  0.28882977560E+02  0.00000000000E+00 0. -1.
          1   -1    0    0  501    0 -0.00000000000E+00 -0.00000000000E+00 -0.18381409923E+04  0.18381409923E+04  0.00000000000E+00 0. -1.
         25    2    1    2    0    0 -0.29515088752E+01  0.12150182524E+02 -0.50535736173E+03  0.52073731964E+03  0.12499981871E+03 0.  0.
          2    1    1    2  501    0 -0.12340380633E+02  0.30188921982E+02 -0.13007518438E+04  0.13011606416E+04  0.00000000000E+00 0. -1.
          1    1    1    2  502    0  0.15291889508E+02 -0.42339104505E+02 -0.31488091851E+01  0.45126008624E+02  0.00000000000E+00 0. -1.
         22    1    3    3    0    0 -0.22397496319E+02 -0.11376742805E+02 -0.48108316401E+03  0.48173861046E+03  0.00000000000E+00 0. -1.
         22    1    3    3    0    0  0.19445987443E+02  0.23526925328E+02 -0.24274197722E+02  0.38998709185E+02  0.00000000000E+00 0. -1.
</event>
<event>
 7    1  0.5779468E-006  0.9989823E+02  0.7818608E-02  0.1349024E+00
          2   -1    0    0  502    0  0.00000000000E+00  0.00000000000E+00  0.63481569778E+03  0.63481569778E+03  0.00000000000E+00 0. -1.
          1   -1    0    0  501    0 -0.00000000000E+00 -0.00000000000E+00 -0.49208089129E+03  0.49208089129E+03  0.00000000000E+00 0. -1.
         25    2    1    2    0    0  0.17381492858E+02 -0.64181106837E+02 -0.76455228668E+02  0.16089840137E+03  0.12498625046E+03 0.  0.
          2    1    1    2  501    0 -0.68038273142E+02  0.82515351221E+02 -0.36448016551E+03  0.37984704928E+03  0.00000000000E+00 0. -1.
          1    1    1    2  502    0  0.50656780285E+02 -0.18334244385E+02  0.58367020067E+03  0.58615113841E+03  0.00000000000E+00 0. -1.
         22    1    3    3    0    0 -0.41034531641E+02 -0.66101407593E+02 -0.21610199830E+02  0.80747938732E+02  0.00000000000E+00 0. -1.
         22    1    3    3    0    0  0.58416024498E+02  0.19203007560E+01 -0.54845028838E+02  0.80150462640E+02  0.00000000000E+00 0. -1.
</event>
<event>
 7    1  0.5779468E-006  0.6695254E+02  0.7818608E-02  0.1411901E+00
          2   -1    0    0  502    0  0.00000000000E+00  0.00000000000E+00  0.33799942532E+04  0.33799942532E+04  0.00000000000E+00 0. -1.
          1   -1    0    0  501    0 -0.00000000000E+00 -0.00000000000E+00 -0.15254938087E+02  0.15254938087E+02  0.00000000000E+00 0. -1.
         25    2    1    2    0    0  0.22765924558E+02 -0.10658779263E+03  0.11710953722E+04  0.11827798994E+04  0.12499869886E+03 0.  0.
          2    1    1    2  501    0 -0.23974815879E+02  0.58464025663E+02  0.10012524933E+03  0.11839721131E+03  0.00000000000E+00 0. -1.
          1    1    1    2  502    0  0.12088913208E+01  0.48123766970E+02  0.20935186936E+04  0.20940720806E+04  0.00000000000E+00 0. -1.
         22    1    3    3    0    0 -0.26146546669E+02 -0.55835898769E+01  0.60924066219E+03  0.60982702698E+03  0.00000000000E+00 0.  1.
         22    1    3    3    0    0  0.48912471227E+02 -0.10100420276E+03  0.56185471001E+03  0.57295287239E+03  0.00000000000E+00 0.  1.
</event>
<event>
 7    1  0.5779468E-006  0.6636118E+02  0.7818608E-02  0.1480143E+00
          2   -1    0    0  502    0  0.00000000000E+00  0.00000000000E+00  0.73958932224E+02  0.73958932224E+02  0.00000000000E+00 0. -1.
          1   -1    0    0  501    0 -0.00000000000E+00 -0.00000000000E+00 -0.48252420190E+03  0.48252420190E+03  0.00000000000E+00 0. -1.
         25    2    1    2    0    0  0.28836467856E+02  0.82443637546E+02 -0.30470635299E+03  0.34073404083E+03  0.12500091911E+03 0.  0.
          2    1    1    2  501    0 -0.27414719332E+02 -0.53193050312E+02 -0.14977589949E+03  0.16128821254E+03  0.00000000000E+00 0. -1.
          1    1    1    2  502    0 -0.14217485242E+01 -0.29250587234E+02  0.45916982803E+02  0.54460880751E+02  0.00000000000E+00 0. -1.
         22    1    3    3    0    0 -0.19807515465E+02  0.87290156462E+02 -0.25814701518E+03  0.27322479853E+03  0.00000000000E+00 0.  1.
         22    1    3    3    0    0  0.48643983322E+02 -0.48465189162E+01 -0.46559337812E+02  0.67509242304E+02  0.00000000000E+00 0.  1.
</event>
<event>
 7    1  0.5779468E-006  0.6017957E+02  0.7818608E-02  0.1433811E+00
          2   -1    0    0  502    0  0.00000000000E+00  0.00000000000E+00  0.23225374874E+03  0.23225374874E+03  0.00000000000E+00 0. -1.
          1   -1    0    0  501    0 -0.00000000000E+00 -0.00000000000E+00 -0.14733985652E+04  0.14733985652E+04  0.00000000000E+00 0. -1.
         25    2    1    2    0    0 -0.91368156255E+02  0.46774691144E+02 -0.31569040770E+03  0.35472252100E+03  0.12502648393E+03 0.  0.
          2    1    1    2  501    0  0.55235336665E+02 -0.19480665972E+02 -0.11350187190E+04  0.11365288959E+04  0.00000000000E+00 0. -1.
          1    1    1    2  502    0  0.36132819590E+02 -0.27294025172E+02  0.20956431031E+03  0.21440089696E+03  0.00000000000E+00 0. -1.
         22    1    3    3    0    0 -0.51148301128E+02  0.50844359774E+02 -0.54433483368E+02  0.90356525722E+02  0.00000000000E+00 0. -1.
         22    1    3    3    0    0 -0.40219855127E+02 -0.40696686293E+01 -0.26125692433E+03  0.26436599528E+03  0.00000000000E+00 0. -1.
</event>
<event>
 7    1  0.5779468E-006  0.4326736E+02  0.7818608E-02  0.1549089E+00
          2   -1    0    0  502    0  0.00000000000E+00  0.00000000000E+00  0.76183535049E+03  0.76183535049E+03  0.00000000000E+00 0. -1.
          1   -1    0    0  501    0 -0.00000000000E+00 -0.00000000000E+00 -0.22686651017E+03  0.22686651017E+03  0.00000000000E+00 0. -1.
         25    2    1    2    0    0 -0.88560559534E+01  0.58862593728E+02  0.70194916098E+02  0.15523242199E+03  0.12500617554E+03 0.  0.
          2    1    1    2  501    0  0.21908603716E+02 -0.17792699804E+02 -0.18254685745E+03  0.18471578776E+03  0.00000000000E+00 0. -1.
          1    1    1    2  502    0 -0.13052547762E+02 -0.41069893924E+02  0.64732078167E+03  0.64875365091E+03  0.00000000000E+00 0. -1.
         22    1    3    3    0    0  0.11833172871E+02  0.95145891473E+02  0.41024336996E+02  0.10428691610E+03  0.00000000000E+00 0. -1.
         22    1    3    3    0    0 -0.20689228825E+02 -0.36283297745E+02  0.29170579102E+02  0.50945505884E+02  0.00000000000E+00 0. -1.
</event>
<event>
 7    1  0.5779468E-006  0.1396776E+03  0.7818608E-02  0.1298609E+00
          2   -1    0    0  502    0  0.00000000000E+00  0.00000000000E+00  0.29823199357E+03  0.29823199357E+03  0.00000000000E+00 0. -1.
          1   -1    0    0  501    0 -0.00000000000E+00 -0.00000000000E+00 -0.15796558186E+04  0.15796558186E+04  0.00000000000E+00 0. -1.
         25    2    1    2    0    0  0.70704465378E+02 -0.92238529203E+02  0.14035647152E+02  0.17125855516E+03  0.12500170252E+03 0.  0.
          2    1    1    2  501    0 -0.12474674777E+03  0.65487232593E+02 -0.14932340844E+04  0.14998661138E+04  0.00000000000E+00 0. -1.
          1    1    1    2  502    0  0.54042282392E+02  0.26751296609E+02  0.19777461217E+03  0.20676314318E+03  0.00000000000E+00 0. -1.
         22    1    3    3    0    0  0.43244730195E+02  0.24930806441E+02  0.96103815751E+01  0.50833170602E+02  0.00000000000E+00 0.  1.
         22    1    3    3    0    0  0.27459735183E+02 -0.11716933564E+03  0.44252655769E+01  0.12042538456E+03  0.00000000000E+00 0.  1.
</event>
<event>
 7    1  0.5779468E-006  0.5836239E+02  0.7818608E-02  0.1423700E+00
          2   -1    0    0  502    0  0.00000000000E+00  0.00000000000E+00  0.40290753959E+03  0.40290753959E+03  0.00000000000E+00 0. -1.
          1   -1    0    0  501    0 -0.00000000000E+00 -0.00000000000E+00 -0.12565891053E+04  0.12565891053E+04  0.00000000000E+00 0. -1.
         25    2    1    2    0    0 -0.70778521467E+02 -0.53374587877E+02  0.11988565186E+03  0.19456303134E+03  0.12499503155E+03 0.  0.
          2    1    1    2  501    0  0.20374348334E+02  0.54612476237E+02 -0.12159581139E+04  0.12173544149E+04  0.00000000000E+00 0. -1.
          1    1    1    2  502    0  0.50404173133E+02 -0.12378883597E+01  0.24239089629E+03  0.24757919873E+03  0.00000000000E+00 0. -1.
         22    1    3    3    0    0  0.34551253096E+02 -0.12739747886E+02  0.12878484202E+02  0.39012121476E+02  0.00000000000E+00 0.  1.
         22    1    3    3    0    0 -0.10532977456E+03 -0.40634839992E+02  0.10700716766E+03  0.15555090987E+03  0.00000000000E+00 0.  1.
</event>
<event>
 7    1  0.5779468E-006  0.1905871E+03  0.7818608E-02  0.1208317E+00
          2   -1    0    0  502    0  0.00000000000E+00  0.00000000000E+00  0.67175510136E+03  0.67175510136E+03  0.00000000000E+00 0. -1.
          1   -1    0    0  501    0 -0.00000000000E+00 -0.00000000000E+00 -0.81389088448E+03  0.81389088448E+03  0.00000000000E+00 0. -1.
         25    2    1    2    0    0  0.14048542688E+03 -0.17154509197E+03 -0.23498789314E+03  0.34642184889E+03  0.12499965488E+03 0.  0.
          2    1    1    2  501    0 -0.17453709351E+03  0.68542255347E+02 -0.50131395378E+03  0.53523538563E+03  0.00000000000E+00 0. -1.
          1    1    1    2  502    0  0.34051666627E+02  0.10300283662E+03  0.59416606380E+03  0.60398875132E+03  0.00000000000E+00 0. -1.
         22    1    3    3    0    0 -0.14006633056E+02 -0.16606125396E+02  0.43369227058E+01  0.22153060033E+02  0.00000000000E+00 0.  1.
         22    1    3    3    0    0  0.15449205994E+03 -0.15493896657E+03 -0.23932481585E+03  0.32426878886E+03  0.00000000000E+00 0.  1.
</event>
<event>
 7    1  0.5779468E-006  0.9368945E+02  0.7818608E-02  0.1299976E+00
          2   -1    0    0  502    0  0.00000000000E+00  0.00000000000E+00  0.26524220689E+04  0.26524220689E+04  0.00000000000E+00 0. -1.
          1   -1    0    0  501    0 -0.00000000000E+00 -0.00000000000E+00 -0.41215412335E+02  0.41215412335E+02  0.00000000000E+00 0. -1.
         25    2    1    2    0    0 -0.47013714322E+02  0.17391804276E+02  0.28892440730E+03  0.31877101954E+03  0.12499954228E+03 0.  0.
          2    1    1    2  501    0  0.27520462764E+02 -0.10903091247E+03  0.99620581632E+02  0.15023107545E+03  0.00000000000E+00 0. -1.
          1    1    1    2  502    0  0.19493251559E+02  0.91639108196E+02  0.22226616676E+04  0.22246353863E+04  0.00000000000E+00 0. -1.
         22    1    3    3    0    0 -0.60886304463E+02  0.51687540996E+02  0.25946611576E+03  0.27148003461E+03  0.00000000000E+00 0.  1.
         22    1    3    3    0    0  0.13872590141E+02 -0.34295736720E+02  0.29458291540E+02  0.47290984921E+02  0.00000000000E+00 0.  1.
</event>
<event>
 7    1  0.5779468E-006  0.1753054E+03  0.7818608E-02  0.1276215E+00
          2   -1    0    0  502    0  0.00000000000E+00  0.00000000000E+00  0.20640274896E+04  0.20640274896E+04  0.00000000000E+00 0. -1.
          1   -1    0    0  501    0 -0.00000000000E+00 -0.00000000000E+00 -0.29861060525E+02  0.29861060525E+02  0.00000000000E+00 0. -1.
         25    2    1    2    0    0  0.62045738519E+02  0.12789512293E+03  0.75981811122E+03  0.78304149616E+03  0.12499434562E+03 0.  0.
          2    1    1    2  501    0 -0.78997702587E+02 -0.18472922588E+03  0.57694417089E+03  0.61092560941E+03  0.00000000000E+00 0. -1.
          1    1    1    2  502    0  0.16951964068E+02  0.56834102944E+02  0.69740414697E+03  0.69992144456E+03  0.00000000000E+00 0. -1.
         22    1    3    3    0    0  0.11345895109E+01  0.10899176400E+03  0.61805825563E+03  0.62759580883E+03  0.00000000000E+00 0. -1.
         22    1    3    3    0    0  0.60911149008E+02  0.18903358929E+02  0.14175985559E+03  0.15544568733E+03  0.00000000000E+00 0. -1.
</event>
<event>
 7    1  0.5779468E-006  0.1051233E+03  0.7818608E-02  0.1420354E+00
          2   -1    0    0  502    0  0.00000000000E+00  0.00000000000E+00  0.17441624473E+04  0.17441624473E+04  0.00000000000E+00 0. -1.
          1   -1    0    0  501    0 -0.00000000000E+00 -0.00000000000E+00 -0.26821016392E+03  0.26821016392E+03  0.00000000000E+00 0. -1.
         25    2    1    2    0    0 -0.11641012970E+03 -0.57483480981E+02  0.47229611241E+02  0.18630896714E+03  0.12499890471E+03 0.  0.
          2    1    1    2  501    0  0.88241511947E+02  0.51886109771E+02 -0.18534818909E+03  0.21173729954E+03  0.00000000000E+00 0. -1.
          1    1    1    2  502    0  0.28168617753E+02  0.55973712100E+01  0.16140708613E+04  0.16143263446E+04  0.00000000000E+00 0. -1.
         22    1    3    3    0    0 -0.70048726286E+02 -0.20989025588E+02 -0.38186566376E+02  0.82495921724E+02  0.00000000000E+00 0.  1.
         22    1    3    3    0    0 -0.46361403414E+02 -0.36494455393E+02  0.85416177616E+02  0.10381304542E+03  0.00000000000E+00 0.  1.
</event>
<event>
 7    1  0.5779468E-006  0.2049422E+03  0.7818608E-02  0.1257367E+00
          2   -1    0    0  502    0  0.00000000000E+00  0.00000000000E+00  0.22237664311E+04  0.22237664311E+04  0.00000000000E+00 0. -1.
          1   -1    0    0  501    0 -0.00000000000E+00 -0.00000000000E+00 -0.12023062093E+04  0.12023062093E+04  0.00000000000E+00 0. -1.
         25    2    1    2    0    0  0.16107458117E+03  0.74976985372E+02  0.10498907864E+03  0.24127637505E+03  0.12500005396E+03 0.  0.
          2    1    1    2  501    0 -0.41100491404E+01  0.60793269635E+02 -0.11280872747E+04  0.11297316555E+04  0.00000000000E+00 0. -1.
          1    1    1    2  502    0 -0.15696453203E+03 -0.13577025501E+03  0.20445584179E+04  0.20550646098E+04  0.00000000000E+00 0. -1.
         22    1    3    3    0    0  0.21496313547E+02  0.70832498442E+02  0.16124312735E+02  0.75758351307E+02  0.00000000000E+00 0.  1.
         22    1    3    3    0    0  0.13957826762E+03  0.41444869303E+01  0.88864765903E+02  0.16551802374E+03  0.00000000000E+00 0.  1.
</event>
<event>
 7    1  0.5779468E-006  0.1544079E+03  0.7818608E-02  0.1292118E+00
          2   -1    0    0  502    0  0.00000000000E+00  0.00000000000E+00  0.19999612363E+04  0.19999612363E+04  0.00000000000E+00 0. -1.
          1   -1    0    0  501    0 -0.00000000000E+00 -0.00000000000E+00 -0.90136379070E+02  0.90136379070E+02  0.00000000000E+00 0. -1.
         25    2    1    2    0    0  0.10378537753E+03 -0.11909689731E+03  0.11944331312E+04  0.12113014216E+04  0.12500061409E+03 0.  0.
          2    1    1    2  501    0  0.34600793819E+02  0.46470340496E+02 -0.62579977137E+02  0.85281656979E+02  0.00000000000E+00 0. -1.
          1    1    1    2  502    0 -0.13838617135E+03  0.72626556810E+02  0.77797170320E+03  0.79351453683E+03  0.00000000000E+00 0. -1.
         22    1    3    3    0    0  0.11443669921E+03 -0.10260282210E+03  0.11695442509E+04  0.11796002934E+04  0.00000000000E+00 0. -1.
         22    1    3    3    0    0 -0.10651321677E+02 -0.16494075204E+02  0.24888880288E+02  0.31701128249E+02  0.00000000000E+00 0. -1.
</event>
<event>
 7    1  0.5779468E-006  0.1249825E+03  0.7818608E-02  0.1348121E+00
          2   -1    0    0  502    0  0.00000000000E+00  0.00000000000E+00  0.25744732373E+04  0.25744732373E+04  0.00000000000E+00 0. -1.
          1   -1    0    0  501    0 -0.00000000000E+00 -0.00000000000E+00 -0.14746010257E+04  0.14746010257E+04  0.00000000000E+00 0. -1.
         25    2    1    2    0    0  0.44479989361E+01  0.13322027072E+03  0.13496990200E+03  0.22717609092E+03  0.12499870645E+03 0.  0.
          2    1    1    2  501    0  0.40131396142E+02 -0.16508234385E+02 -0.14265373558E+04  0.14271972107E+04  0.00000000000E+00 0. -1.
          1    1    1    2  502    0 -0.44579395078E+02 -0.11671203633E+03  0.23914396653E+04  0.23947009614E+04  0.00000000000E+00 0. -1.
         22    1    3    3    0    0 -0.35802910976E+02  0.13310158798E+03  0.81075284075E+02  0.15990960836E+03  0.00000000000E+00 0.  1.
         22    1    3    3    0    0  0.40250909912E+02  0.11868273514E+00  0.53894617929E+02  0.67266482560E+02  0.00000000000E+00 0.  1.
</event>
<event>
 7    1  0.5779468E-006  0.1208962E+03  0.7818608E-02  0.1256063E+00
          2   -1    0    0  502    0  0.00000000000E+00  0.00000000000E+00  0.94197248328E+03  0.94197248328E+03  0.00000000000E+00 0. -1.
          1   -1    0    0  501    0 -0.00000000000E+00 -0.00000000000E+00 -0.12671952634E+03  0.12671952634E+03  0.00000000000E+00 0. -1.
         25    2    1    2    0    0  0.92058461359E+01  0.10581869088E+03  0.12885241967E+03  0.20859144295E+03  0.12500040429E+03 0.  0.
          2    1    1    2  501    0  0.95043542717E+02 -0.96884197286E+02 -0.27580371246E+02  0.13849368063E+03  0.00000000000E+00 0. -1.
          1    1    1    2  502    0 -0.10424938885E+03 -0.89344935977E+01  0.71398090852E+03  0.72160688604E+03  0.00000000000E+00 0. -1.
         22    1    3    3    0    0  0.30993605906E+02 -0.16842956361E+02  0.10622976169E+02  0.36839332360E+02  0.00000000000E+00 0.  1.
         22    1    3    3    0    0 -0.21787759770E+02  0.12266164725E+03  0.11822944350E+03  0.17175211059E+03  0.00000000000E+00 0.  1.
</event>
<event>
 7    1  0.5779468E-006  0.6193962E+02  0.7818608E-02  0.1492935E+00
          2   -1    0    0  502    0  0.00000000000E+00  0.00000000000E+00  0.47441145515E+03  0.47441145515E+03  0.00000000000E+00 0. -1.
          1   -1    0    0  501    0 -0.00000000000E+00 -0.00000000000E+00 -0.19427373787E+03  0.19427373787E+03  0.00000000000E+00 0. -1.
         25    2    1    2    0    0 -0.55445212790E+02  0.20917295962E+02  0.31447597423E+03  0.34355652958E+03  0.12499698300E+03 0.  0.
          2    1    1    2  501    0  0.61684467559E+02  0.70841762482E+01 -0.17285713879E+03  0.18367021947E+03  0.00000000000E+00 0. -1.
          1    1    1    2  502    0 -0.62392547693E+01 -0.28001472210E+02  0.13851888183E+03  0.14145844397E+03  0.00000000000E+00 0. -1.
         22    1    3    3    0    0 -0.50487904272E+02  0.22591353993E+02  0.32612715323E+03  0.33078439780E+03  0.00000000000E+00 0. -1.
         22    1    3    3    0    0 -0.49573085180E+01 -0.16740580308E+01 -0.11651179003E+02  0.12772131779E+02  0.00000000000E+00 0. -1.
</event>
<event>
 7    1  0.5779468E-006  0.1471926E+03  0.7818608E-02  0.1306094E+00
          2   -1    0    0  502    0  0.00000000000E+00  0.00000000000E+00  0.14145466006E+04  0.14145466006E+04  0.00000000000E+00 0. -1.
          1   -1    0    0  501    0 -0.00000000000E+00 -0.00000000000E+00 -0.63652434404E+02  0.63652434404E+02  0.00000000000E+00 0. -1.
         25    2    1    2    0    0  0.16533336292E+03  0.69010585744E+02  0.69164086511E+03  0.72532065900E+03  0.12500156097E+03 0.  0.
          2    1    1    2  501    0 -0.14125535112E+03 -0.21323760333E+02  0.66243738603E+02  0.15746748832E+03  0.00000000000E+00 0. -1.
          1    1    1    2  502    0 -0.24078011797E+02 -0.47686825411E+02  0.59300956252E+03  0.59541088771E+03  0.00000000000E+00 0. -1.
         22    1    3    3    0    0  0.76832252762E+02 -0.31571442861E+02  0.30583374057E+03  0.31691359697E+03  0.00000000000E+00 0.  1.
         22    1    3    3    0    0  0.88501110155E+02  0.10058202861E+03  0.38580712454E+03  0.40840706203E+03  0.00000000000E+00 0.  1.
</event>
<event>
 7    1  0.5779468E-006  0.1578614E+03  0.7818608E-02  0.1282400E+00
          2   -1    0    0  502    0  0.00000000000E+00  0.00000000000E+00  0.69448081726E+03  0.69448081726E+03  0.00000000000E+00 0. -1.
          1   -1    0    0  501    0 -0.00000000000E+00 -0.00000000000E+00 -0.28026238005E+03  0.28026238005E+03  0.00000000000E+00 0. -1.
         25    2    1    2    0    0 -0.21593271224E+03  0.99796881187E+01  0.34732404414E+03  0.42777007973E+03  0.12500687615E+03 0.  0.
          2    1    1    2  501    0  0.15385957691E+03 -0.83877368346E+01 -0.21153365448E+03  0.26170519772E+03  0.00000000000E+00 0. -1.
          1    1    1    2  502    0  0.62073135333E+02 -0.15919512841E+01  0.27842804755E+03  0.28526791986E+03  0.00000000000E+00 0. -1.
         22    1    3    3    0    0 -0.13054141309E+03 -0.22470237776E+01  0.30482127674E+03  0.33160536848E+03  0.00000000000E+00 0.  1.
         22    1    3    3    0    0 -0.85391299147E+02  0.12226711896E+02  0.42502767397E+02  0.96164711253E+02  0.00000000000E+00 0.  1.
</event>
<event>
 7    1  0.5779468E-006  0.1365495E+03  0.7818608E-02  0.1289157E+00
          2   -1    0    0  502    0  0.00000000000E+00  0.00000000000E+00  0.28213295783E+03  0.28213295783E+03  0.00000000000E+00 0. -1.
          1   -1    0    0  501    0 -0.00000000000E+00 -0.00000000000E+00 -0.86827213793E+03  0.86827213793E+03  0.00000000000E+00 0. -1.
         25    2    1    2    0    0  0.61016174999E+02  0.14814520600E+03  0.39521922347E+02  0.20701745939E+03  0.12499708187E+03 0.  0.
          2    1    1    2  501    0 -0.99472003461E+02 -0.92848155345E+02 -0.77115054487E+03  0.78306361318E+03  0.00000000000E+00 0. -1.
          1    1    1    2  502    0  0.38455828461E+02 -0.55297050650E+02  0.14548944243E+03  0.16032402319E+03  0.00000000000E+00 0. -1.
         22    1    3    3    0    0  0.58843768064E+02  0.12048010520E+03  0.81342970234E+02  0.15682704994E+03  0.00000000000E+00 0.  1.
         22    1    3    3    0    0  0.21724069359E+01  0.27665100800E+02 -0.41821047887E+02  0.50190409447E+02  0.00000000000E+00 0.  1.
</event>
<event>
 7    1  0.5779468E-006  0.5729768E+02  0.7818608E-02  0.1464464E+00
          2   -1    0    0  502    0  0.00000000000E+00  0.00000000000E+00  0.14315617514E+04  0.14315617514E+04  0.00000000000E+00 0. -1.
          1   -1    0    0  501    0 -0.00000000000E+00 -0.00000000000E+00 -0.72906267152E+02  0.72906267152E+02  0.00000000000E+00 0. -1.
         25    2    1    2    0    0  0.21178106646E+02 -0.10128807673E+02  0.19949637306E+03  0.23659078160E+03  0.12500116050E+03 0.  0.
          2    1    1    2  501    0 -0.44842653570E+02  0.39777636005E+02 -0.37441644825E+02  0.70675318694E+02  0.00000000000E+00 0. -1.
          1    1    1    2  502    0  0.23664546923E+02 -0.29648828331E+02  0.11966007560E+04  0.11972019183E+04  0.00000000000E+00 0. -1.
         22    1    3    3    0    0 -0.86533321816E+01  0.39818503586E+02  0.15467393356E+02  0.43584786829E+02  0.00000000000E+00 0. -1.
         22    1    3    3    0    0  0.29831438828E+02 -0.49947311259E+02  0.18402897971E+03  0.19300599477E+03  0.00000000000E+00 0. -1.
</event>
<event>
 7    1  0.5779468E-006  0.7315181E+02  0.7818608E-02  0.1444023E+00
          2   -1    0    0  502    0  0.00000000000E+00  0.00000000000E+00  0.12679970255E+04  0.12679970255E+04  0.00000000000E+00 0. -1.
          1   -1    0    0  501    0 -0.00000000000E+00 -0.00000000000E+00 -0.33310816248E+02  0.33310816248E+02  0.00000000000E+00 0. -1.
         25    2    1    2    0    0 -0.15752785055E+02  0.41160918436E+02  0.11291922633E+03  0.17412503183E+03  0.12500561423E+03 0.  0.
          2    1    1    2  501    0 -0.28360700391E+02  0.19665511016E+02  0.41516941423E+03  0.41660137322E+03  0.00000000000E+00 0. -1.
          1    1    1    2  502    0  0.44113485446E+02 -0.60826429452E+02  0.70659756870E+03  0.71058143672E+03  0.00000000000E+00 0. -1.
         22    1    3    3    0    0  0.31231922152E+02 -0.25256510987E+02  0.73314715990E+01  0.40829827141E+02  0.00000000000E+00 0.  1.
         22    1    3    3    0    0 -0.46984707207E+02  0.66417429423E+02  0.10558775474E+03  0.13329520469E+03  0.00000000000E+00 0.  1.
</event>
<event>
 7    1  0.5779468E-006  0.2576939E+03  0.7818608E-02  0.1158655E+00
          2   -1    0    0  502    0  0.00000000000E+00  0.00000000000E+00  0.19947786166E+04  0.19947786166E+04  0.00000000000E+00 0. -1.
          1   -1    0    0  501    0 -0.00000000000E+00 -0.00000000000E+00 -0.13146049059E+03  0.13146049059E+03  0.00000000000E+00 0. -1.
         25    2    1    2    0    0  0.51658731613E+02  0.14241468090E+03  0.20219680257E+03  0.28188461215E+03  0.12499928683E+03 0.  0.
          2    1    1    2  501    0  0.56218993313E+02  0.12796773575E+03 -0.17332538457E+02  0.14084293909E+03  0.00000000000E+00 0. -1.
          1    1    1    2  502    0 -0.10787772493E+03 -0.27038241665E+03  0.16784538619E+04  0.17035115559E+04  0.00000000000E+00 0. -1.
         22    1    3    3    0    0 -0.34420850716E+02  0.86745716636E+02  0.85676474658E+02  0.12668888124E+03  0.00000000000E+00 0. -1.
         22    1    3    3    0    0  0.86079582329E+02  0.55668964262E+02  0.11652032791E+03  0.15519573091E+03  0.00000000000E+00 0. -1.
</event>
<event>
 7    1  0.5779468E-006  0.9951704E+02  0.7818608E-02  0.1452590E+00
          2   -1    0    0  502    0  0.00000000000E+00  0.00000000000E+00  0.20314182175E+03  0.20314182175E+03  0.00000000000E+00 0. -1.
          1   -1    0    0  501    0 -0.00000000000E+00 -0.00000000000E+00 -0.98351104562E+03  0.98351104562E+03  0.00000000000E+00 0. -1.
         25    2    1    2    0    0  0.91880797351E+02 -0.23101985739E+02 -0.40962142915E+03  0.43862328755E+03  0.12499956198E+03 0.  0.
          2    1    1    2  501    0 -0.90228323731E+02  0.46857699426E+02 -0.55399222671E+03  0.56324433566E+03  0.00000000000E+00 0. -1.
          1    1    1    2  502    0 -0.16524736204E+01 -0.23755713687E+02  0.18324443199E+03  0.18478524415E+03  0.00000000000E+00 0. -1.
         22    1    3    3    0    0  0.61588358983E+02  0.44873088087E+02 -0.26821367058E+03  0.27882842947E+03  0.00000000000E+00 0.  1.
         22    1    3    3    0    0  0.30292438368E+02 -0.67975073826E+02 -0.14140775857E+03  0.15979485808E+03  0.00000000000E+00 0.  1.
</event>
<event>
 7    1  0.5779468E-006  0.4891198E+02  0.7818608E-02  0.1582629E+00
          2   -1    0    0  502    0  0.00000000000E+00  0.00000000000E+00  0.19598968925E+04  0.19598968925E+04  0.00000000000E+00 0. -1.
          1   -1    0    0  501    0 -0.00000000000E+00 -0.00000000000E+00 -0.12211787005E+03  0.12211787005E+03  0.00000000000E+00 0. -1.
         25    2    1    2    0    0  0.27696515893E+02  0.29520046371E+02  0.47549286376E+03  0.49331222004E+03  0.12499981126E+03 0.  0.
          2    1    1    2  501    0 -0.45108083144E+02 -0.19244464599E+02 -0.10782421509E+03  0.11845315505E+03  0.00000000000E+00 0. -1.
          1    1    1    2  502    0  0.17411567251E+02 -0.10275581773E+02  0.14701103737E+04  0.14702493874E+04  0.00000000000E+00 0. -1.
         22    1    3    3    0    0  0.37304291793E+02  0.58973035523E+02  0.14034902328E+03  0.15673952099E+03  0.00000000000E+00 0. -1.
         22    1    3    3    0    0 -0.96077758999E+01 -0.29452989152E+02  0.33514384048E+03  0.33657269904E+03  0.00000000000E+00 0. -1.
</event>
<event>
 7    1  0.5779468E-006  0.1794418E+03  0.7818608E-02  0.1225519E+00
          2   -1    0    0  502    0  0.00000000000E+00  0.00000000000E+00  0.25063412588E+04  0.25063412588E+04  0.00000000000E+00 0. -1.
          1   -1    0    0  501    0 -0.00000000000E+00 -0.00000000000E+00 -0.75156346112E+03  0.75156346112E+03  0.00000000000E+00 0. -1.
         25    2    1    2    0    0 -0.48076577845E+02  0.24261325204E+03  0.27735600175E+03  0.39207687729E+03  0.12500151437E+03 0.  0.
          2    1    1    2  501    0  0.87002153358E+02 -0.15475547905E+03 -0.68176622465E+03  0.70450253233E+03  0.00000000000E+00 0. -1.
          1    1    1    2  502    0 -0.38925575513E+02 -0.87857772996E+02  0.21591880206E+04  0.21613253103E+04  0.00000000000E+00 0. -1.
         22    1    3    3    0    0  0.83200785501E+01  0.74830220246E+02  0.16898425513E+02  0.77164385269E+02  0.00000000000E+00 0. -1.
         22    1    3    3    0    0 -0.56396656395E+02  0.16778303180E+03  0.26045757623E+03  0.31491249202E+03  0.00000000000E+00 0. -1.
</event>
<event>
 7    1  0.5779468E-006  0.7360725E+02  0.7818608E-02  0.1403923E+00
          2   -1    0    0  502    0  0.00000000000E+00  0.00000000000E+00  0.11067258866E+04  0.11067258866E+04  0.00000000000E+00 0. -1.
          1   -1    0    0  501    0 -0.00000000000E+00 -0.00000000000E+00 -0.81353097182E+03  0.81353097182E+03  0.00000000000E+00 0. -1.
         25    2    1    2    0    0 -0.29417941599E+00 -0.40454318031E+02  0.73686435480E+02  0.15063418683E+03  0.12499731629E+03 0.  0.
          2    1    1    2  501    0  0.40617962486E+02 -0.22858418352E+02 -0.77293778890E+03  0.77434175380E+03  0.00000000000E+00 0. -1.
          1    1    1    2  502    0 -0.40323783070E+02  0.63312736383E+02  0.99244626816E+03  0.99528091776E+03  0.00000000000E+00 0. -1.
         22    1    3    3    0    0  0.96741637490E+01 -0.63609284182E+02 -0.82867342803E+01  0.64872185437E+02  0.00000000000E+00 0. -1.
         22    1    3    3    0    0 -0.99683431650E+01  0.23154966151E+02  0.81973169761E+02  0.85762001396E+02  0.00000000000E+00 0. -1.
</event>
<event>
 7    1  0.5779468E-006  0.2162071E+03  0.7818608E-02  0.1180810E+00
          2   -1    0    0  502    0  0.00000000000E+00  0.00000000000E+00  0.52252267435E+03  0.52252267435E+03  0.00000000000E+00 0. -1.
          1   -1    0    0  501    0 -0.00000000000E+00 -0.00000000000E+00 -0.27459670887E+04  0.27459670887E+04  0.00000000000E+00 0. -1.
         25    2    1    2    0    0 -0.22326750782E+03  0.42211465988E+01 -0.26991950609E+03  0.37195749046E+03  0.12501854590E+03 0.  0.
          2    1    1    2  501    0  0.44524253069E+02  0.12137802132E+03 -0.23978890591E+04  0.24013718939E+04  0.00000000000E+00 0. -1.
          1    1    1    2  502    0  0.17874325475E+03 -0.12559916791E+03  0.44436415081E+03  0.49516037869E+03  0.00000000000E+00 0. -1.
         22    1    3    3    0    0 -0.20548436948E+03  0.41576819786E+02 -0.19471052656E+03  0.28611998742E+03  0.00000000000E+00 0. -1.
         22    1    3    3    0    0 -0.17783138341E+02 -0.37355673187E+02 -0.75208979522E+02  0.85837503046E+02  0.00000000000E+00 0. -1.
</event>
<event>
 7    1  0.5779468E-006  0.1492038E+03  0.7818608E-02  0.1270560E+00
          2   -1    0    0  502    0  0.00000000000E+00  0.00000000000E+00  0.88862347881E+03  0.88862347881E+03  0.00000000000E+00 0. -1.
          1   -1    0    0  501    0 -0.00000000000E+00 -0.00000000000E+00 -0.89188377810E+03  0.89188377810E+03  0.00000000000E+00 0. -1.
         25    2    1    2    0    0  0.10381144407E+03  0.49176922730E+02 -0.34358767146E+03  0.38323971876E+03  0.12500003365E+03 0.  0.
          2    1    1    2  501    0 -0.15264417476E+02  0.71977786177E+02 -0.51937777686E+03  0.52456370370E+03  0.00000000000E+00 0. -1.
          1    1    1    2  502    0 -0.88547026596E+02 -0.12115470891E+03  0.85970514902E+03  0.87270383445E+03  0.00000000000E+00 0. -1.
         22    1    3    3    0    0  0.67838625667E+02  0.63530567010E+02 -0.32896202432E+03  0.34183947333E+03  0.00000000000E+00 0. -1.
         22    1    3    3    0    0  0.35972818405E+02 -0.14353644280E+02 -0.14625647131E+02  0.41400245436E+02  0.00000000000E+00 0. -1.
</event>
<event>
 7    1  0.5779468E-006  0.1315651E+03  0.7818608E-02  0.1296688E+00
          2   -1    0    0  502    0  0.00000000000E+00  0.00000000000E+00  0.31872960798E+04  0.31872960798E+04  0.00000000000E+00 0. -1.
          1   -1    0    0  501    0 -0.00000000000E+00 -0.00000000000E+00 -0.17402295180E+04  0.17402295180E+04  0.00000000000E+00 0. -1.
         25    2    1    2    0    0 -0.26804264628E+02  0.17169556871E+03  0.90297316894E+03  0.92799926290E+03  0.12499700476E+03 0.  0.
          2    1    1    2  501    0  0.45615697746E+02 -0.46539874170E+02 -0.17253381908E+04  0.17265684535E+04  0.00000000000E+00 0. -1.
          1    1    1    2  502    0 -0.18811433119E+02 -0.12515569454E+03  0.22694315837E+04  0.22729578815E+04  0.00000000000E+00 0. -1.
         22    1    3    3    0    0  0.68710036022E+01 -0.16952776890E+02  0.14623314886E+03  0.14737279654E+03  0.00000000000E+00 0. -1.
         22    1    3    3    0    0 -0.33675268230E+02  0.18864834560E+03  0.75674002008E+03  0.78062646636E+03  0.00000000000E+00 0. -1.
</event>
<event>
 7    1  0.5779468E-006  0.1260668E+03  0.7818608E-02  0.1345419E+00
          2   -1    0    0  502    0  0.00000000000E+00  0.00000000000E+00  0.17060015838E+04  0.17060015838E+04  0.00000000000E+00 0. -1.
          1   -1    0    0  501    0 -0.00000000000E+00 -0.00000000000E+00 -0.17529744926E+03  0.17529744926E+03  0.00000000000E+00 0. -1.
         25    2    1    2    0    0  0.12017478090E+03 -0.66769065534E+02  0.80075452989E+02  0.20232549877E+03  0.12499377267E+03 0.  0.
          2    1    1    2  501    0 -0.35355018063E+02 -0.26240884268E+02 -0.10729253521E+03  0.11597521038E+03  0.00000000000E+00 0. -1.
          1    1    1    2  502    0 -0.84819762833E+02  0.93009949802E+02  0.15579212168E+04  0.15629983240E+04  0.00000000000E+00 0. -1.
         22    1    3    3    0    0  0.33455250061E+02  0.14864546088E+02  0.74603751057E+02  0.83101914291E+02  0.00000000000E+00 0. -1.
         22    1    3    3    0    0  0.86719530835E+02 -0.81633611623E+02  0.54717019317E+01  0.11922358448E+03  0.00000000000E+00 0. -1.
</event>
<event>
 7    1  0.5779468E-006  0.5289960E+02  0.7818608E-02  0.1546797E+00
          2   -1    0    0  502    0  0.00000000000E+00  0.00000000000E+00  0.42878350581E+03  0.42878350581E+03  0.00000000000E+00 0. -1.
          1   -1    0    0  501    0 -0.00000000000E+00 -0.00000000000E+00 -0.72836422243E+03  0.72836422243E+03  0.00000000000E+00 0. -1.
         25    2    1    2    0    0  0.30435943019E+02 -0.58506032794E+01  0.81031962903E+02  0.15215849164E+03  0.12500180550E+03 0.  0.
          2    1    1    2  501    0  0.23323851622E+02 -0.22040808650E+01 -0.69023435788E+03  0.69063183305E+03  0.00000000000E+00 0. -1.
          1    1    1    2  502    0 -0.53759794641E+02  0.80546841444E+01  0.30962167836E+03  0.31435740355E+03  0.00000000000E+00 0. -1.
         22    1    3    3    0    0  0.26088718706E+02 -0.64260892789E+02  0.35138223957E+02  0.77748172767E+02  0.00000000000E+00 0. -1.
         22    1    3    3    0    0  0.43472243129E+01  0.58410289510E+02  0.45893738946E+02  0.74410318869E+02  0.00000000000E+00 0. -1.
</event>
<event>
 7    1  0.5779468E-006  0.5296320E+02  0.7818608E-02  0.1496269E+00
          2   -1    0    0  502    0  0.00000000000E+00  0.00000000000E+00  0.73346394961E+03  0.73346394961E+03  0.00000000000E+00 0. -1.
          1   -1    0    0  501    0 -0.00000000000E+00 -0.00000000000E+00 -0.82494399233E+02  0.82494399233E+02  0.00000000000E+00 0. -1.
         25    2    1    2    0    0  0.36425648803E+02 -0.23995347922E+02  0.66299018117E+01  0.13256018727E+03  0.12500257212E+03 0.  0.
          2    1    1    2  501    0 -0.19338653577E+02 -0.26473912449E+02 -0.38607390515E+01  0.33011465714E+02  0.00000000000E+00 0. -1.
          1    1    1    2  502    0 -0.17086995225E+02  0.50469260371E+02  0.64820038762E+03  0.65038669586E+03  0.00000000000E+00 0. -1.
         22    1    3    3    0    0 -0.43729838030E+02 -0.25820940591E+02  0.12072884586E+02  0.52199370201E+02  0.00000000000E+00 0.  1.
         22    1    3    3    0    0  0.80155486833E+02  0.18255926695E+01 -0.54429827745E+01  0.80360817066E+02  0.00000000000E+00 0.  1.
</event>
<event>
 7    1  0.8805543E-006  0.9647659E+02  0.7818608E-02  0.1383013E+00
          2   -1    0    0  502    0  0.00000000000E+00  0.00000000000E+00  0.26605486871E+04  0.26605486871E+04  0.00000000000E+00 0. -1.
          1   -1    0    0  501    0 -0.00000000000E+00 -0.00000000000E+00 -0.21929003858E+04  0.21929003858E+04  0.00000000000E+00 0. -1.
         25    2    1    2    0    0  0.13030094877E+03 -0.29143724867E+02 -0.41086363930E+03  0.44973486591E+03  0.12499930227E+03 0.  0.
          2    1    1    2  501    0 -0.93777704936E+02  0.83447999207E+01 -0.17611765008E+04  0.17636911749E+04  0.00000000000E+00 0. -1.
          1    1    1    2  502    0 -0.36523243829E+02  0.20798924946E+02  0.26396884413E+04  0.26400230321E+04  0.00000000000E+00 0. -1.
         22    1    3    3    0    0  0.54685348179E+02 -0.37187350975E+02 -0.55524110073E+02  0.86349946019E+02  0.00000000000E+00 0.  1.
         22    1    3    3    0    0  0.75615600586E+02  0.80436261083E+01 -0.35533952922E+03  0.36338491989E+03  0.00000000000E+00 0.  1.
</event>
<event>
 7    1  0.5779468E-006  0.1357486E+03  0.7818608E-02  0.1344956E+00
          2   -1    0    0  502    0  0.00000000000E+00  0.00000000000E+00  0.30621475760E+03  0.30621475760E+03  0.00000000000E+00 0. -1.
          1   -1    0    0  501    0 -0.00000000000E+00 -0.00000000000E+00 -0.66515452268E+03  0.66515452268E+03  0.00000000000E+00 0. -1.
         25    2    1    2    0    0  0.86633196684E+02 -0.55697026244E+02 -0.30049842677E+03  0.34136801142E+03  0.12500138090E+03 0.  0.
          2    1    1    2  501    0  0.40848382412E+02  0.40815479766E+01 -0.32631299671E+03  0.32888511855E+03  0.00000000000E+00 0. -1.
          1    1    1    2  502    0 -0.12748157910E+03  0.51615478267E+02  0.26787165841E+03  0.30111615032E+03  0.00000000000E+00 0. -1.
         22    1    3    3    0    0  0.20975582854E+02  0.40103590563E+02 -0.71895321824E+02  0.84954166185E+02  0.00000000000E+00 0. -1.
         22    1    3    3    0    0  0.65657613830E+02 -0.95800616806E+02 -0.22860310495E+03  0.25641384523E+03  0.00000000000E+00 0. -1.
</event>
<event>
 7    1  0.5779468E-006  0.3614304E+02  0.7818608E-02  0.1569134E+00
          2   -1    0    0  502    0  0.00000000000E+00  0.00000000000E+00  0.22441958984E+03  0.22441958984E+03  0.00000000000E+00 0. -1.
          1   -1    0    0  501    0 -0.00000000000E+00 -0.00000000000E+00 -0.10356522969E+03  0.10356522969E+03  0.00000000000E+00 0. -1.
         25    2    1    2    0    0 -0.87615966819E+01  0.82967862152E+00  0.30723314676E+02  0.12902833603E+03  0.12500774173E+03 0.  0.
          2    1    1    2  501    0  0.38365368491E+02 -0.37863918965E+01 -0.45766834506E+02  0.59840132050E+02  0.00000000000E+00 0. -1.
          1    1    1    2  502    0 -0.29603771809E+02  0.29567132750E+01  0.13589787998E+03  0.13911635145E+03  0.00000000000E+00 0. -1.
         22    1    3    3    0    0  0.15887058584E+02  0.54675391210E+02 -0.91069566370E+01  0.57660503758E+02  0.00000000000E+00 0. -1.
         22    1    3    3    0    0 -0.24648655266E+02 -0.53845712589E+02  0.39830271313E+02  0.71367832274E+02  0.00000000000E+00 0. -1.
</event>
<event>
 7    1  0.5779468E-006  0.1010059E+03  0.7818608E-02  0.1417022E+00
          2   -1    0    0  502    0  0.00000000000E+00  0.00000000000E+00  0.47103147284E+03  0.47103147284E+03  0.00000000000E+00 0. -1.
          1   -1    0    0  501    0 -0.00000000000E+00 -0.00000000000E+00 -0.59710838004E+03  0.59710838004E+03  0.00000000000E+00 0. -1.
         25    2    1    2    0    0  0.19272643337E+02  0.92748342765E+02  0.48992014489E+02  0.16431565632E+03  0.12500291021E+03 0.  0.
          2    1    1    2  501    0  0.10276331109E+02 -0.10095515501E+03 -0.53401464629E+03  0.54357077622E+03  0.00000000000E+00 0. -1.
          1    1    1    2  502    0 -0.29548974446E+02  0.82068122458E+01  0.35894572460E+03  0.36025342034E+03  0.00000000000E+00 0. -1.
         22    1    3    3    0    0 -0.35551019794E+00 -0.31248102238E+02  0.80915857563E+01  0.32280706947E+02  0.00000000000E+00 0.  1.
         22    1    3    3    0    0  0.19628153535E+02  0.12399644500E+03  0.40900428733E+02  0.13203494937E+03  0.00000000000E+00 0.  1.
</event>
<event>
 7    1  0.5779468E-006  0.2276358E+03  0.7818608E-02  0.1289064E+00
          2   -1    0    0  502    0  0.00000000000E+00  0.00000000000E+00  0.76529882329E+03  0.76529882329E+03  0.00000000000E+00 0. -1.
          1   -1    0    0  501    0 -0.00000000000E+00 -0.00000000000E+00 -0.39423281948E+03  0.39423281948E+03  0.00000000000E+00 0. -1.
         25    2    1    2    0    0  0.13204046117E+03 -0.16517362967E+03  0.91070124027E+02  0.26198179305E+03  0.12499472419E+03 0.  0.
          2    1    1    2  501    0  0.39586029861E+02  0.82592675205E+01 -0.28432834996E+03  0.28718962351E+03  0.00000000000E+00 0. -1.
          1    1    1    2  502    0 -0.17162649103E+03  0.15691436215E+03  0.56432422974E+03  0.61036022622E+03  0.00000000000E+00 0. -1.
         22    1    3    3    0    0  0.12570728249E+03 -0.17601782138E+03  0.10730904159E+03  0.24145356639E+03  0.00000000000E+00 0.  1.
         22    1    3    3    0    0  0.63331786783E+01  0.10844191715E+02 -0.16238917565E+02  0.20528226660E+02  0.00000000000E+00 0.  1.
</event>
<event>
 7    1  0.5779468E-006  0.8466086E+02  0.7818608E-02  0.1319977E+00
          2   -1    0    0  502    0  0.00000000000E+00  0.00000000000E+00  0.28268085192E+03  0.28268085192E+03  0.00000000000E+00 0. -1.
          1   -1    0    0  501    0 -0.00000000000E+00 -0.00000000000E+00 -0.16742178229E+04  0.16742178229E+04  0.00000000000E+00 0. -1.
         25    2    1    2    0    0  0.42286464956E+01 -0.12605124989E+02 -0.11171506861E+02  0.12620036473E+03  0.12499983546E+03 0.  0.
          2    1    1    2  501    0 -0.55659668802E+02 -0.63792337555E+02 -0.15949448524E+04  0.15971902026E+04  0.00000000000E+00 0. -1.
          1    1    1    2  502    0  0.51431022306E+02  0.76397462544E+02  0.21457938833E+03  0.23350810743E+03  0.00000000000E+00 0. -1.
         22    1    3    3    0    0  0.45130776140E+02  0.37473158667E+02 -0.17544708820E+02  0.61227782771E+02  0.00000000000E+00 0. -1.
         22    1    3    3    0    0 -0.40902129645E+02 -0.50078283656E+02  0.63732019591E+01  0.64972581961E+02  0.00000000000E+00 0. -1.
</event>
<event>
 7    1  0.5779468E-006  0.1272531E+03  0.7818608E-02  0.1294781E+00
          2   -1    0    0  502    0  0.00000000000E+00  0.00000000000E+00  0.23468429448E+04  0.23468429448E+04  0.00000000000E+00 0. -1.
          1   -1    0    0  501    0 -0.00000000000E+00 -0.00000000000E+00 -0.55623276851E+03  0.55623276851E+03  0.00000000000E+00 0. -1.
         25    2    1    2    0    0  0.57486406828E+02  0.59852332572E+02  0.11609047594E+03  0.18970730872E+03  0.12499950277E+03 0.  0.
          2    1    1    2  501    0 -0.12344831352E+03 -0.41090769059E+02 -0.51073055211E+03  0.52704234581E+03  0.00000000000E+00 0. -1.
          1    1    1    2  502    0  0.65961906691E+02 -0.18761563514E+02  0.21852502524E+04  0.21863260587E+04  0.00000000000E+00 0. -1.
         22    1    3    3    0    0  0.35395900144E+02 -0.13762205600E+01 -0.18676114348E+02  0.40044487476E+02  0.00000000000E+00 0.  1.
         22    1    3    3    0    0  0.22090506684E+02  0.61228553132E+02  0.13476659029E+03  0.14966282124E+03  0.00000000000E+00 0.  1.
</event>
<event>
 7    1  0.5779468E-006  0.1048216E+03  0.7818608E-02  0.1399749E+00
          2   -1    0    0  502    0  0.00000000000E+00  0.00000000000E+00  0.41315045308E+04  0.41315045308E+04  0.00000000000E+00 0. -1.
          1   -1    0    0  501    0 -0.00000000000E+00 -0.00000000000E+00 -0.19778495406E+02  0.19778495406E+02  0.00000000000E+00 0. -1.
         25    2    1    2    0    0 -0.39485920425E+00 -0.94406788930E+02  0.38824871272E+03  0.41866488439E+03  0.12502169726E+03 0.  0.
          2    1    1    2  501    0 -0.33353901701E+02 -0.56297244043E+01  0.71317414058E+02  0.78932566811E+02  0.00000000000E+00 0. -1.
          1    1    1    2  502    0  0.33748760905E+02  0.10003651333E+03  0.36521599086E+04  0.36536855750E+04  0.00000000000E+00 0. -1.
         22    1    3    3    0    0  0.12278816376E+02 -0.12016358060E+03  0.35364565147E+03  0.37370483304E+03  0.00000000000E+00 0.  1.
         22    1    3    3    0    0 -0.12673675580E+02  0.25756791668E+02  0.34603061242E+02  0.44960051347E+02  0.00000000000E+00 0.  1.
</event>
<event>
 7    1  0.5779468E-006  0.4953442E+02  0.7818608E-02  0.1468465E+00
          2   -1    0    0  502    0  0.00000000000E+00  0.00000000000E+00  0.63032880956E+03  0.63032880956E+03  0.00000000000E+00 0. -1.
          1   -1    0    0  501    0 -0.00000000000E+00 -0.00000000000E+00 -0.26929825758E+03  0.26929825758E+03  0.00000000000E+00 0. -1.
         25    2    1    2    0    0  0.73266506395E+02 -0.19872838045E+02  0.21998737081E+03  0.26416259441E+03  0.12499808927E+03 0.  0.
          2    1    1    2  501    0 -0.26733375374E+02  0.33212073669E+02 -0.24384500537E+03  0.24754414119E+03  0.00000000000E+00 0. -1.
          1    1    1    2  502    0 -0.46533131021E+02 -0.13339235624E+02  0.38488818653E+03  0.38792033154E+03  0.00000000000E+00 0. -1.
         22    1    3    3    0    0  0.78413864322E+02 -0.57638876535E+02  0.19680182344E+03  0.21954938378E+03  0.00000000000E+00 0.  1.
         22    1    3    3    0    0 -0.51473579266E+01  0.37766038490E+02  0.23185547366E+02  0.44613210639E+02  0.00000000000E+00 0.  1.
</event>
<event>
 7    1  0.5779468E-006  0.1610523E+03  0.7818608E-02  0.1347851E+00
          2   -1    0    0  502    0  0.00000000000E+00  0.00000000000E+00  0.83697766865E+03  0.83697766865E+03  0.00000000000E+00 0. -1.
          1   -1    0    0  501    0 -0.00000000000E+00 -0.00000000000E+00 -0.93002205231E+03  0.93002205231E+03  0.00000000000E+00 0. -1.
         25    2    1    2    0    0 -0.18685401061E+03 -0.20387974561E+02  0.26819089566E+03  0.35054344014E+03  0.12499702444E+03 0.  0.
          2    1    1    2  501    0  0.15653535338E+03  0.35222695257E+02 -0.88105312876E+03  0.89554372915E+03  0.00000000000E+00 0. -1.
          1    1    1    2  502    0  0.30318657234E+02 -0.14834720696E+02  0.51981784943E+03  0.52091255168E+03  0.00000000000E+00 0. -1.
         22    1    3    3    0    0 -0.17436186218E+03 -0.42212861779E+02  0.27125254758E+03  0.32521059216E+03  0.00000000000E+00 0.  1.
         22    1    3    3    0    0 -0.12492148431E+02  0.21824887218E+02 -0.30616519124E+01  0.25332847983E+02  0.00000000000E+00 0.  1.
</event>
<event>
 7    1  0.5779468E-006  0.9919893E+02  0.7818608E-02  0.1320460E+00
          2   -1    0    0  502    0  0.00000000000E+00  0.00000000000E+00  0.49630625880E+03  0.49630625880E+03  0.00000000000E+00 0. -1.
          1   -1    0    0  501    0 -0.00000000000E+00 -0.00000000000E+00 -0.54821632561E+03  0.54821632561E+03  0.00000000000E+00 0. -1.
         25    2    1    2    0    0  0.12953526478E+03  0.41380472474E+02  0.29828321016E+03  0.35083966437E+03  0.12499547313E+03 0.  0.
          2    1    1    2  501    0 -0.96849911408E+02  0.20094860218E+02 -0.50992864593E+03  0.51943328030E+03  0.00000000000E+00 0. -1.
          1    1    1    2  502    0 -0.32685353376E+02 -0.61475332692E+02  0.15973536896E+03  0.17424963975E+03  0.00000000000E+00 0. -1.
         22    1    3    3    0    0  0.59019957884E+02 -0.42500646994E+02  0.92201122146E+02  0.11743384243E+03  0.00000000000E+00 0. -1.
         22    1    3    3    0    0  0.70515306900E+02  0.83881119468E+02  0.20608208802E+03  0.23340582193E+03  0.00000000000E+00 0. -1.
</event>
<event>
 7    1  0.5779468E-006  0.1544243E+03  0.7818608E-02  0.1255929E+00
          2   -1    0    0  502    0  0.00000000000E+00  0.00000000000E+00  0.21805727420E+03  0.21805727420E+03  0.00000000000E+00 0. -1.
          1   -1    0    0  501    0 -0.00000000000E+00 -0.00000000000E+00 -0.71145175330E+03  0.71145175330E+03  0.00000000000E+00 0. -1.
         25    2    1    2    0    0  0.10096370155E+03 -0.14923404620E+01  0.16606725517E+02  0.16153491537E+03  0.12498739713E+03 0.  0.
          2    1    1    2  501    0 -0.14568101543E+03  0.70253110894E+02 -0.61432980235E+03  0.63526338152E+03  0.00000000000E+00 0. -1.
          1    1    1    2  502    0  0.44717313887E+02 -0.68760770432E+02  0.10432859774E+03  0.13271073060E+03  0.00000000000E+00 0. -1.
         22    1    3    3    0    0  0.24013699851E+02 -0.59028430932E+02 -0.15866925095E+01  0.63745831487E+02  0.00000000000E+00 0. -1.
         22    1    3    3    0    0  0.76950001695E+02  0.57536090470E+02  0.18193418027E+02  0.97789083885E+02  0.00000000000E+00 0. -1.
</event>
<event>
 7    1  0.5779468E-006  0.9726310E+02  0.7818608E-02  0.1404196E+00
          2   -1    0    0  502    0  0.00000000000E+00  0.00000000000E+00  0.29401506367E+03  0.29401506367E+03  0.00000000000E+00 0. -1.
          1   -1    0    0  501    0 -0.00000000000E+00 -0.00000000000E+00 -0.18228050678E+04  0.18228050678E+04  0.00000000000E+00 0. -1.
         25    2    1    2    0    0  0.10539924149E+02 -0.12112272166E+03 -0.59573801285E+02  0.18427094978E+03  0.12499976572E+03 0.  0.
          2    1    1    2  501    0  0.18296831286E+02  0.30067066942E+02 -0.16908471225E+04  0.16912134088E+04  0.00000000000E+00 0. -1.
          1    1    1    2  502    0 -0.28836755435E+02  0.91055654721E+02  0.22163091964E+03  0.24133577286E+03  0.00000000000E+00 0. -1.
         22    1    3    3    0    0  0.24086755432E+02  0.12416092654E+02  0.14739765221E+02  0.30847881983E+02  0.00000000000E+00 0.  1.
         22    1    3    3    0    0 -0.13546831283E+02 -0.13353881432E+03 -0.74313566507E+02  0.15342306780E+03  0.00000000000E+00 0.  1.
</event>
<event>
 7    1  0.5779468E-006  0.6417230E+02  0.7818608E-02  0.1460437E+00
          2   -1    0    0  502    0  0.00000000000E+00  0.00000000000E+00  0.65718219227E+03  0.65718219227E+03  0.00000000000E+00 0. -1.
          1   -1    0    0  501    0 -0.00000000000E+00 -0.00000000000E+00 -0.72062457305E+02  0.72062457305E+02  0.00000000000E+00 0. -1.
         25    2    1    2    0    0 -0.29295525289E+02 -0.78370346022E+02  0.72606708430E+02  0.16702490269E+03  0.12500178027E+03 0.  0.
          2    1    1    2  501    0  0.38921407289E+02  0.44852044301E+02  0.12115230663E+02  0.60608255521E+02  0.00000000000E+00 0. -1.
          1    1    1    2  502    0 -0.96258820002E+01  0.33518301721E+02  0.50039779587E+03  0.50161149136E+03  0.00000000000E+00 0. -1.
         22    1    3    3    0    0 -0.45886209899E+02 -0.61599159691E+02 -0.13285486992E+02  0.77951939669E+02  0.00000000000E+00 0.  1.
         22    1    3    3    0    0  0.16590684610E+02 -0.16771186330E+02  0.85892195422E+02  0.89072963020E+02  0.00000000000E+00 0.  1.
</event>
<event>
 7    1  0.5779468E-006  0.3888178E+03  0.7818608E-02  0.1136991E+00
          2   -1    0    0  502    0  0.00000000000E+00  0.00000000000E+00  0.33432413378E+04  0.33432413378E+04  0.00000000000E+00 0. -1.
          1   -1    0    0  501    0 -0.00000000000E+00 -0.00000000000E+00 -0.15218021439E+03  0.15218021439E+03  0.00000000000E+00 0. -1.
         25    2    1    2    0    0 -0.29113193306E+03 -0.21695456725E+03  0.97305106929E+03  0.10460783760E+04  0.12499799398E+03 0.  0.
          2    1    1    2  501    0 -0.91129919173E+02  0.77863423044E+02 -0.60875888495E+02  0.13443678297E+03  0.00000000000E+00 0. -1.
          1    1    1    2  502    0  0.38226185223E+03  0.13909114420E+03  0.22788859427E+04  0.23149063933E+04  0.00000000000E+00 0. -1.
         22    1    3    3    0    0 -0.62464943588E+02 -0.11262376798E+03  0.26266226696E+03  0.29253623498E+03  0.00000000000E+00 0.  1.
         22    1    3    3    0    0 -0.22866698947E+03 -0.10433079927E+03  0.71038880233E+03  0.75354214097E+03  0.00000000000E+00 0.  1.
</event>
<event>
 7    1  0.5779468E-006  0.6550082E+02  0.7818608E-02  0.1533238E+00
          2   -1    0    0  502    0  0.00000000000E+00  0.00000000000E+00  0.27002904524E+04  0.27002904524E+04  0.00000000000E+00 0. -1.
          1   -1    0    0  501    0 -0.00000000000E+00 -0.00000000000E+00 -0.26334502175E+03  0.26334502175E+03  0.00000000000E+00 0. -1.
         25    2    1    2    0    0  0.37478632718E+02  0.41881819242E+02 -0.10995967371E+03  0.17570945400E+03  0.12499579069E+03 0.  0.
          2    1    1    2  501    0 -0.10460118359E+02  0.17823695600E+02 -0.11921881478E+03  0.12099679334E+03  0.00000000000E+00 0. -1.
          1    1    1    2  502    0 -0.27018514359E+02 -0.59705514841E+02  0.26661239191E+04  0.26669292268E+04  0.00000000000E+00 0. -1.
         22    1    3    3    0    0 -0.17847021602E+02  0.50429868742E+02 -0.13395128121E+01  0.53511514050E+02  0.00000000000E+00 0.  1.
         22    1    3    3    0    0  0.55325654320E+02 -0.85480495000E+01 -0.10862016090E+03  0.12219793995E+03  0.00000000000E+00 0.  1.
</event>
<event>
 7    1  0.5779468E-006  0.7275318E+02  0.7818608E-02  0.1479131E+00
          2   -1    0    0  502    0  0.00000000000E+00  0.00000000000E+00  0.17800424668E+04  0.17800424668E+04  0.00000000000E+00 0. -1.
          1   -1    0    0  501    0 -0.00000000000E+00 -0.00000000000E+00 -0.29403483870E+03  0.29403483870E+03  0.00000000000E+00 0. -1.
         25    2    1    2    0    0  0.49630433564E+02 -0.85745835779E+02  0.12728837033E+03  0.20406802008E+03  0.12500359718E+03 0.  0.
          2    1    1    2  501    0 -0.14407740191E+02  0.22720754951E+02 -0.25412733003E+03  0.25554748199E+03  0.00000000000E+00 0. -1.
          1    1    1    2  502    0 -0.35222693373E+02  0.63025080828E+02  0.16128465878E+04  0.16144618035E+04  0.00000000000E+00 0. -1.
         22    1    3    3    0    0  0.38062426138E+02  0.10768588920E+02  0.92880195752E+02  0.10095266987E+03  0.00000000000E+00 0. -1.
         22    1    3    3    0    0  0.11568007427E+02 -0.96514424700E+02  0.34408174579E+02  0.10311535021E+03  0.00000000000E+00 0. -1.
</event>
<event>
 7    1  0.5779468E-006  0.1940191E+03  0.7818608E-02  0.1191877E+00
          2   -1    0    0  502    0  0.00000000000E+00  0.00000000000E+00  0.17565313388E+04  0.17565313388E+04  0.00000000000E+00 0. -1.
          1   -1    0    0  501    0 -0.00000000000E+00 -0.00000000000E+00 -0.18773151437E+04  0.18773151437E+04  0.00000000000E+00 0. -1.
         25    2    1    2    0    0  0.16190730075E+03  0.26041797712E+03 -0.14607718665E+03  0.36193286735E+03  0.12500143664E+03 0.  0.
          2    1    1    2  501    0 -0.99941357133E+02 -0.78997300941E+02 -0.16152202664E+04  0.16202362042E+04  0.00000000000E+00 0. -1.
          1    1    1    2  502    0 -0.61965943612E+02 -0.18142067618E+03  0.16405136482E+04  0.16516774109E+04  0.00000000000E+00 0. -1.
         22    1    3    3    0    0  0.18106457823E+03  0.21194518828E+03 -0.12828530038E+03  0.30685870139E+03  0.00000000000E+00 0. -1.
         22    1    3    3    0    0 -0.19157277484E+02  0.48472788842E+02 -0.17791886275E+02  0.55074165958E+02  0.00000000000E+00 0. -1.
</event>
<event>
 7    1  0.5779468E-006  0.6919106E+02  0.7818608E-02  0.1370862E+00
          2   -1    0    0  502    0  0.00000000000E+00  0.00000000000E+00  0.14342729831E+03  0.14342729831E+03  0.00000000000E+00 0. -1.
          1   -1    0    0  501    0 -0.00000000000E+00 -0.00000000000E+00 -0.48561521741E+03  0.48561521741E+03  0.00000000000E+00 0. -1.
         25    2    1    2    0    0 -0.93805291338E+01 -0.11690524872E+02 -0.95673559092E+02  0.15812404496E+03  0.12500048395E+03 0.  0.
          2    1    1    2  501    0  0.72843184466E+02  0.24483892518E+02 -0.34478186250E+03  0.35324230102E+03  0.00000000000E+00 0. -1.
          1    1    1    2  502    0 -0.63462655332E+02 -0.12793367645E+02  0.98267502502E+02  0.11767616974E+03  0.00000000000E+00 0. -1.
         22    1    3    3    0    0  0.20561069322E+02  0.40486565351E+02 -0.85919577599E+02  0.97180725251E+02  0.00000000000E+00 0. -1.
         22    1    3    3    0    0 -0.29941598456E+02 -0.52177090223E+02 -0.97539814931E+01  0.60943319710E+02  0.00000000000E+00 0. -1.
</event>
<event>
 7    1  0.5779468E-006  0.4276830E+02  0.7818608E-02  0.1601948E+00
          2   -1    0    0  502    0  0.00000000000E+00  0.00000000000E+00  0.50746772112E+03  0.50746772112E+03  0.00000000000E+00 0. -1.
          1   -1    0    0  501    0 -0.00000000000E+00 -0.00000000000E+00 -0.14600469627E+03  0.14600469627E+03  0.00000000000E+00 0. -1.
         25    2    1    2    0    0  0.28158662611E+02 -0.18379911233E+02  0.33061470520E+02  0.13359865750E+03  0.12499923614E+03 0.  0.
          2    1    1    2  501    0  0.14704873222E+02  0.14370318818E+02 -0.93524096518E+02  0.95757485289E+02  0.00000000000E+00 0. -1.
          1    1    1    2  502    0 -0.42863535833E+02  0.40095924149E+01  0.42192565086E+03  0.42411627461E+03  0.00000000000E+00 0. -1.
         22    1    3    3    0    0 -0.43693954355E+02  0.80261416767E+01  0.35715437678E+02  0.57001518277E+02  0.00000000000E+00 0. -1.
         22    1    3    3    0    0  0.71852616966E+02 -0.26406052910E+02 -0.26539671580E+01  0.76597139221E+02  0.00000000000E+00 0. -1.
</event>
<event>
 7    1  0.5779468E-006  0.7983000E+02  0.7818608E-02  0.1449421E+00
          2   -1    0    0  502    0  0.00000000000E+00  0.00000000000E+00  0.16446719654E+04  0.16446719654E+04  0.00000000000E+00 0. -1.
          1   -1    0    0  501    0 -0.00000000000E+00 -0.00000000000E+00 -0.61300935004E+03  0.61300935004E+03  0.00000000000E+00 0. -1.
         25    2    1    2    0    0 -0.83704211379E+01  0.54828605703E+02 -0.52442788856E+02  0.14645829325E+03  0.12499418229E+03 0.  0.
          2    1    1    2  501    0 -0.64556758059E+01 -0.81352075672E+02 -0.51017112063E+03  0.51665695417E+03  0.00000000000E+00 0. -1.
          1    1    1    2  502    0  0.14826096944E+02  0.26523469969E+02  0.15942765248E+04  0.15945660680E+04  0.00000000000E+00 0. -1.
         22    1    3    3    0    0  0.43022712655E+02  0.61414276648E+02 -0.33162872067E+01  0.75057744045E+02  0.00000000000E+00 0. -1.
         22    1    3    3    0    0 -0.51393133792E+02 -0.65856709451E+01 -0.49126501649E+02  0.71400549207E+02  0.00000000000E+00 0. -1.
</event>
<event>
 7    1  0.5779468E-006  0.1147318E+03  0.7818608E-02  0.1335977E+00
          2   -1    0    0  502    0  0.00000000000E+00  0.00000000000E+00  0.11653969665E+04  0.11653969665E+04  0.00000000000E+00 0. -1.
          1   -1    0    0  501    0 -0.00000000000E+00 -0.00000000000E+00 -0.42590951926E+03  0.42590951926E+03  0.00000000000E+00 0. -1.
         25    2    1    2    0    0  0.16481366494E+03 -0.11384188477E+02  0.17215155177E+03  0.26935655144E+03  0.12499460442E+03 0.  0.
          2    1    1    2  501    0 -0.11232604128E+03  0.10350535745E+02 -0.36812359864E+03  0.38501851516E+03  0.00000000000E+00 0. -1.
          1    1    1    2  502    0 -0.52487623656E+02  0.10336527319E+01  0.93545949408E+03  0.93693141912E+03  0.00000000000E+00 0. -1.
         22    1    3    3    0    0  0.35526202948E+02  0.48848900299E+01  0.12618181681E+03  0.13117859635E+03  0.00000000000E+00 0. -1.
         22    1    3    3    0    0  0.12928746199E+03 -0.16269078507E+02  0.45969734956E+02  0.13817795510E+03  0.00000000000E+00 0. -1.
</event>
<event>
 7    1  0.5779468E-006  0.1876505E+03  0.7818608E-02  0.1361704E+00
          2   -1    0    0  502    0  0.00000000000E+00  0.00000000000E+00  0.16289355416E+04  0.16289355416E+04  0.00000000000E+00 0. -1.
          1   -1    0    0  501    0 -0.00000000000E+00 -0.00000000000E+00 -0.50100357787E+02  0.50100357787E+02  0.00000000000E+00 0. -1.
         25    2    1    2    0    0 -0.14835104877E+03 -0.11668980052E+03  0.37343455828E+03  0.43669477646E+03  0.12499766100E+03 0.  0.
          2    1    1    2  501    0  0.16164849587E+03  0.94625287160E+02  0.46243726672E+03  0.49893126464E+03  0.00000000000E+00 0. -1.
          1    1    1    2  502    0 -0.13297447098E+02  0.22064513356E+02  0.74296335887E+03  0.74340985834E+03  0.00000000000E+00 0. -1.
         22    1    3    3    0    0  0.77604008616E+01  0.18343851115E+02  0.30210290440E+02  0.36185388539E+02  0.00000000000E+00 0.  1.
         22    1    3    3    0    0 -0.15611144964E+03 -0.13503365163E+03  0.34322426784E+03  0.40050938792E+03  0.00000000000E+00 0.  1.
</event>
<event>
 7    1  0.5779468E-006  0.1122610E+03  0.7818608E-02  0.1335666E+00
          2   -1    0    0  502    0  0.00000000000E+00  0.00000000000E+00  0.48555237000E+03  0.48555237000E+03  0.00000000000E+00 0. -1.
          1   -1    0    0  501    0 -0.00000000000E+00 -0.00000000000E+00 -0.24089557283E+03  0.24089557283E+03  0.00000000000E+00 0. -1.
         25    2    1    2    0    0  0.14110209826E+03  0.53322160993E+02 -0.33343399652E+01  0.19593203398E+03  0.12500075652E+03 0.  0.
          2    1    1    2  501    0 -0.31944899395E+02 -0.43287551362E+02 -0.12801341644E+03  0.13885864572E+03  0.00000000000E+00 0. -1.
          1    1    1    2  502    0 -0.10915719887E+03 -0.10034609631E+02  0.37600455358E+03  0.39165726314E+03  0.00000000000E+00 0. -1.
         22    1    3    3    0    0 -0.10738647883E+02 -0.15597687869E+02 -0.20966480065E+02  0.28252428419E+02  0.00000000000E+00 0.  1.
         22    1    3    3    0    0  0.15184074614E+03  0.68919848862E+02  0.17632140100E+02  0.16767960556E+03  0.00000000000E+00 0.  1.
</event>
<event>
 7    1  0.5779468E-006  0.8939141E+02  0.7818608E-02  0.1406088E+00
          2   -1    0    0  502    0  0.00000000000E+00  0.00000000000E+00  0.11132146455E+04  0.11132146455E+04  0.00000000000E+00 0. -1.
          1   -1    0    0  501    0 -0.00000000000E+00 -0.00000000000E+00 -0.15997411110E+03  0.15997411110E+03  0.00000000000E+00 0. -1.
         25    2    1    2    0    0 -0.66504452819E+02 -0.43006100442E+02  0.22670351347E+02  0.14970647289E+03  0.12500286507E+03 0.  0.
          2    1    1    2  501    0  0.18370604248E+02 -0.32956794423E+02 -0.90713195268E+02  0.98247204514E+02  0.00000000000E+00 0. -1.
          1    1    1    2  502    0  0.48133848571E+02  0.75962894864E+02  0.10212833784E+04  0.10252350792E+04  0.00000000000E+00 0. -1.
         22    1    3    3    0    0  0.72706808925E+01  0.37434380202E+02 -0.44694780252E+00  0.38136536079E+02  0.00000000000E+00 0.  1.
         22    1    3    3    0    0 -0.73775133711E+02 -0.80440480643E+02  0.23117299150E+02  0.11156993681E+03  0.00000000000E+00 0.  1.
</event>
<event>
 7    1  0.5779468E-006  0.1254894E+03  0.7818608E-02  0.1250671E+00
          2   -1    0    0  502    0  0.00000000000E+00  0.00000000000E+00  0.16831812804E+04  0.16831812804E+04  0.00000000000E+00 0. -1.
          1   -1    0    0  501    0 -0.00000000000E+00 -0.00000000000E+00 -0.70996649288E+02  0.70996649288E+02  0.00000000000E+00 0. -1.
         25    2    1    2    0    0  0.13874425935E+03  0.33508076213E+02  0.21105332302E+03  0.28379837023E+03  0.12500099646E+03 0.  0.
          2    1    1    2  501    0 -0.67531447190E+02 -0.11249301478E+03  0.10015610031E+03  0.16506489379E+03  0.00000000000E+00 0. -1.
          1    1    1    2  502    0 -0.71212812156E+02  0.78984938564E+02  0.13009752078E+04  0.13053146656E+04  0.00000000000E+00 0. -1.
         22    1    3    3    0    0  0.70063660364E+02 -0.43258445976E+02  0.12444634367E+03  0.14922165427E+03  0.00000000000E+00 0. -1.
         22    1    3    3    0    0  0.68680598983E+02  0.76766522189E+02  0.86606979353E+02  0.13457671596E+03  0.00000000000E+00 0. -1.
</event>
<event>
 7    1  0.5779468E-006  0.2627375E+02  0.7818608E-02  0.1645547E+00
          2   -1    0    0  502    0  0.00000000000E+00  0.00000000000E+00  0.11950028297E+04  0.11950028297E+04  0.00000000000E+00 0. -1.
          1   -1    0    0  501    0 -0.00000000000E+00 -0.00000000000E+00 -0.92252979798E+03  0.92252979798E+03  0.00000000000E+00 0. -1.
         25    2    1    2    0    0  0.25473900522E+01  0.67502019207E+01 -0.35290463588E+03  0.37447344820E+03  0.12504649918E+03 0.  0.
          2    1    1    2  501    0 -0.26290025025E+02  0.45013310028E+01 -0.55837664230E+03  0.55901332905E+03  0.00000000000E+00 0. -1.
          1    1    1    2  502    0  0.23742634972E+02 -0.11251532924E+02  0.11837543098E+04  0.11840458504E+04  0.00000000000E+00 0. -1.
         22    1    3    3    0    0  0.17764082866E+02  0.54065054882E+02 -0.86971693478E+02  0.10393588536E+03  0.00000000000E+00 0.  1.
         22    1    3    3    0    0 -0.15216692813E+02 -0.47314852962E+02 -0.26593294241E+03  0.27053756284E+03  0.00000000000E+00 0.  1.
</event>
<event>
 7    1  0.5779468E-006  0.4889346E+02  0.7818608E-02  0.1510060E+00
          2   -1    0    0  502    0  0.00000000000E+00  0.00000000000E+00  0.10011393798E+03  0.10011393798E+03  0.00000000000E+00 0. -1.
          1   -1    0    0  501    0 -0.00000000000E+00 -0.00000000000E+00 -0.22649587180E+04  0.22649587180E+04  0.00000000000E+00 0. -1.
         25    2    1    2    0    0 -0.60444953366E+02 -0.34840412290E+02 -0.17809850713E+04  0.17867290577E+04  0.12500181943E+03 0.  0.
          2    1    1    2  501    0  0.31953142230E+02 -0.48310080439E+01 -0.47438388530E+03  0.47548334626E+03  0.00000000000E+00 0. -1.
          1    1    1    2  502    0  0.28491811136E+02  0.39671420334E+02  0.90524176573E+02  0.10286025198E+03  0.00000000000E+00 0. -1.
         22    1    3    3    0    0 -0.33101860678E+02 -0.81000985648E+02 -0.12426748473E+04  0.12457518489E+04  0.00000000000E+00 0.  1.
         22    1    3    3    0    0 -0.27343092688E+02  0.46160573358E+02 -0.53831022391E+03  0.54097720878E+03  0.00000000000E+00 0.  1.
</event>
<event>
 7    1  0.5779468E-006  0.1038080E+03  0.7818608E-02  0.1349848E+00
          2   -1    0    0  502    0  0.00000000000E+00  0.00000000000E+00  0.89310549365E+03  0.89310549365E+03  0.00000000000E+00 0. -1.
          1   -1    0    0  501    0 -0.00000000000E+00 -0.00000000000E+00 -0.32974389254E+04  0.32974389254E+04  0.00000000000E+00 0. -1.
         25    2    1    2    0    0  0.11571324931E+03  0.89463620706E+02 -0.13359867622E+03  0.23423696067E+03  0.12500020784E+03 0.  0.
          2    1    1    2  501    0 -0.50601814662E+02 -0.94692981386E+01 -0.31101515154E+04  0.31105775444E+04  0.00000000000E+00 0. -1.
          1    1    1    2  502    0 -0.65111434653E+02 -0.79994322568E+02  0.83941675987E+03  0.84572991393E+03  0.00000000000E+00 0. -1.
         22    1    3    3    0    0 -0.12589311202E+02 -0.19881825684E+02 -0.12275406641E+02  0.26541728604E+02  0.00000000000E+00 0.  1.
         22    1    3    3    0    0  0.12830256052E+03  0.10934544639E+03 -0.12132326958E+03  0.20769523207E+03  0.00000000000E+00 0.  1.
</event>
<event>
 7    1  0.5779468E-006  0.7098151E+02  0.7818608E-02  0.1494087E+00
          2   -1    0    0  502    0  0.00000000000E+00  0.00000000000E+00  0.15871869769E+03  0.15871869769E+03  0.00000000000E+00 0. -1.
          1   -1    0    0  501    0 -0.00000000000E+00 -0.00000000000E+00 -0.38170051478E+03  0.38170051478E+03  0.00000000000E+00 0. -1.
         25    2    1    2    0    0 -0.28971079879E+02  0.40176280738E+02 -0.58403365053E+02  0.14659038788E+03  0.12499732704E+03 0.  0.
          2    1    1    2  501    0 -0.73068690693E+01  0.23735517791E+02 -0.26678808905E+03  0.26794150406E+03  0.00000000000E+00 0. -1.
          1    1    1    2  502    0  0.36277948949E+02 -0.63911798529E+02  0.10220963701E+03  0.12588732052E+03  0.00000000000E+00 0. -1.
         22    1    3    3    0    0 -0.20514913103E+02  0.36908130471E+02  0.33710106256E+02  0.54031870395E+02  0.00000000000E+00 0.  1.
         22    1    3    3    0    0 -0.84561667760E+01  0.32681502673E+01 -0.92113471310E+02  0.92558517487E+02  0.00000000000E+00 0.  1.
</event>
<event>
 7    1  0.5779468E-006  0.1557726E+03  0.7818608E-02  0.1318333E+00
          2   -1    0    0  502    0  0.00000000000E+00  0.00000000000E+00  0.17446682964E+04  0.17446682964E+04  0.00000000000E+00 0. -1.
          1   -1    0    0  501    0 -0.00000000000E+00 -0.00000000000E+00 -0.94852945221E+03  0.94852945221E+03  0.00000000000E+00 0. -1.
         25    2    1    2    0    0 -0.17459041643E+03  0.90025639551E+02  0.13282314061E+03  0.26804698944E+03  0.12498308919E+03 0.  0.
          2    1    1    2  501    0  0.32880134494E+02 -0.31000123419E+02 -0.87651889438E+03  0.87768301971E+03  0.00000000000E+00 0. -1.
          1    1    1    2  502    0  0.14171028194E+03 -0.59025516132E+02  0.15398345979E+04  0.15474677394E+04  0.00000000000E+00 0. -1.
         22    1    3    3    0    0 -0.19291933963E+01  0.14082055933E+02 -0.20515633430E+02  0.24958311271E+02  0.00000000000E+00 0. -1.
         22    1    3    3    0    0 -0.17266122303E+03  0.75943583618E+02  0.15333877404E+03  0.24308867817E+03  0.00000000000E+00 0. -1.
</event>
<event>
 7    1  0.5779468E-006  0.9593515E+02  0.7818608E-02  0.1352539E+00
          2   -1    0    0  502    0  0.00000000000E+00  0.00000000000E+00  0.52178865429E+04  0.52178865429E+04  0.00000000000E+00 0. -1.
          1   -1    0    0  501    0 -0.00000000000E+00 -0.00000000000E+00 -0.47255240618E+02  0.47255240618E+02  0.00000000000E+00 0. -1.
         25    2    1    2    0    0 -0.87426290448E+02  0.28096587634E+01  0.19624632622E+04  0.19683842460E+04  0.12499293533E+03 0.  0.
          2    1    1    2  501    0  0.78310868292E+02 -0.56483787385E+02  0.88325719477E+01  0.96958881271E+02  0.00000000000E+00 0. -1.
          1    1    1    2  502    0  0.91154221559E+01  0.53674128622E+02  0.31993354681E+04  0.31997986562E+04  0.00000000000E+00 0. -1.
         22    1    3    3    0    0 -0.90990761743E+02  0.50575295278E+02  0.12631004761E+04  0.12673831275E+04  0.00000000000E+00 0. -1.
         22    1    3    3    0    0  0.35644712942E+01 -0.47765636514E+02  0.69936278618E+03  0.70100111853E+03  0.00000000000E+00 0. -1.
</event>
<event>
 7    1  0.5779468E-006  0.8290651E+02  0.7818608E-02  0.1413372E+00
          2   -1    0    0  502    0  0.00000000000E+00  0.00000000000E+00  0.19859066475E+03  0.19859066475E+03  0.00000000000E+00 0. -1.
          1   -1    0    0  501    0 -0.00000000000E+00 -0.00000000000E+00 -0.13597238350E+04  0.13597238350E+04  0.00000000000E+00 0. -1.
         25    2    1    2    0    0  0.92333641752E+02 -0.31697608571E+01 -0.51203354351E+03  0.53510772981E+03  0.12500553606E+03 0.  0.
          2    1    1    2  501    0 -0.73789584412E+02  0.36833733786E+02 -0.83211874655E+03  0.83619569185E+03  0.00000000000E+00 0. -1.
          1    1    1    2  502    0 -0.18544057341E+02 -0.33663972929E+02  0.18301911978E+03  0.18701107812E+03  0.00000000000E+00 0. -1.
         22    1    3    3    0    0  0.11729493341E+03 -0.23718810916E+02 -0.35037226108E+03  0.37024506037E+03  0.00000000000E+00 0. -1.
         22    1    3    3    0    0 -0.24961291656E+02  0.20549050059E+02 -0.16166128243E+03  0.16486266944E+03  0.00000000000E+00 0. -1.
</event>
<event>
 7    1  0.5779468E-006  0.1538619E+03  0.7818608E-02  0.1406975E+00
          2   -1    0    0  502    0  0.00000000000E+00  0.00000000000E+00  0.20205646601E+03  0.20205646601E+03  0.00000000000E+00 0. -1.
          1   -1    0    0  501    0 -0.00000000000E+00 -0.00000000000E+00 -0.13830533003E+04  0.13830533003E+04  0.00000000000E+00 0. -1.
         25    2    1    2    0    0  0.69760985313E+02 -0.15544237668E+03 -0.32455553823E+03  0.38728521059E+03  0.12499843762E+03 0.  0.
          2    1    1    2  501    0 -0.18056063301E+02  0.12160468996E+02 -0.99300591239E+03  0.99324450185E+03  0.00000000000E+00 0. -1.
          1    1    1    2  502    0 -0.51704922012E+02  0.14328190768E+03  0.13656461629E+03  0.20458005389E+03  0.00000000000E+00 0. -1.
         22    1    3    3    0    0 -0.28336907146E+02 -0.46988394567E+02 -0.41897208611E+02  0.69038146122E+02  0.00000000000E+00 0.  1.
         22    1    3    3    0    0  0.98097892460E+02 -0.10845398211E+03 -0.28265832962E+03  0.31824706447E+03  0.00000000000E+00 0.  1.
</event>
<event>
 7    1  0.5779468E-006  0.1271474E+03  0.7818608E-02  0.1280691E+00
          2   -1    0    0  502    0  0.00000000000E+00  0.00000000000E+00  0.23223863550E+04  0.23223863550E+04  0.00000000000E+00 0. -1.
          1   -1    0    0  501    0 -0.00000000000E+00 -0.00000000000E+00 -0.77809383789E+03  0.77809383789E+03  0.00000000000E+00 0. -1.
         25    2    1    2    0    0  0.53534588994E+02  0.18549712376E+03  0.77154991445E+02  0.24259755667E+03  0.12500218659E+03 0.  0.
          2    1    1    2  501    0 -0.63394359483E+02 -0.10776605797E+03 -0.68903505931E+03  0.70028685624E+03  0.00000000000E+00 0. -1.
          1    1    1    2  502    0  0.98597704888E+01 -0.77731065794E+02  0.21561725850E+04  0.21575957800E+04  0.00000000000E+00 0. -1.
         22    1    3    3    0    0  0.19865775288E+01  0.16050695052E+03  0.89802526919E+02  0.18393183926E+03  0.00000000000E+00 0.  1.
         22    1    3    3    0    0  0.51548011466E+02  0.24990173249E+02 -0.12647535474E+02  0.58665717405E+02  0.00000000000E+00 0.  1.
</event>
<event>
 7    1  0.5779468E-006  0.7871818E+02  0.7818608E-02  0.1414004E+00
          2   -1    0    0  502    0  0.00000000000E+00  0.00000000000E+00  0.24782497533E+04  0.24782497533E+04  0.00000000000E+00 0. -1.
          1   -1    0    0  501    0 -0.00000000000E+00 -0.00000000000E+00 -0.23235511176E+03  0.23235511176E+03  0.00000000000E+00 0. -1.
         25    2    1    2    0    0 -0.10652693492E+01  0.85694415765E+02  0.34947157062E+03  0.38092315607E+03  0.12500961750E+03 0.  0.
          2    1    1    2  501    0 -0.36740286689E+02 -0.16512772745E+02 -0.21401446629E+03  0.21777215642E+03  0.00000000000E+00 0. -1.
          1    1    1    2  502    0  0.37805556039E+02 -0.69181643020E+02  0.21104375372E+04  0.21119095526E+04  0.00000000000E+00 0. -1.
         22    1    3    3    0    0 -0.47773708458E+02 -0.55381724206E+01  0.92265523057E+02  0.10404770694E+03  0.00000000000E+00 0.  1.
         22    1    3    3    0    0  0.46708439109E+02  0.91232588186E+02  0.25720604756E+03  0.27687544913E+03  0.00000000000E+00 0.  1.
</event>
<event>
 7    1  0.5779468E-006  0.1318688E+03  0.7818608E-02  0.1382711E+00
          2   -1    0    0  502    0  0.00000000000E+00  0.00000000000E+00  0.26289834353E+04  0.26289834353E+04  0.00000000000E+00 0. -1.
          1   -1    0    0  501    0 -0.00000000000E+00 -0.00000000000E+00 -0.18353290861E+03  0.18353290861E+03  0.00000000000E+00 0. -1.
         25    2    1    2    0    0  0.10479498984E+03 -0.47442521213E+02  0.21274249050E+03  0.27224004456E+03  0.12498996713E+03 0.  0.
          2    1    1    2  501    0  0.29090421556E+01 -0.30687686680E+02 -0.15036469830E+03  0.15349182107E+03  0.00000000000E+00 0. -1.
          1    1    1    2  502    0 -0.10770403199E+03  0.78130207893E+02  0.23830727345E+04  0.23867844783E+04  0.00000000000E+00 0. -1.
         22    1    3    3    0    0  0.85860613668E+02  0.18065781806E+02  0.63969446016E+02  0.10858410323E+03  0.00000000000E+00 0. -1.
         22    1    3    3    0    0  0.18934376168E+02 -0.65508303019E+02  0.14877304448E+03  0.16365594132E+03  0.00000000000E+00 0. -1.
</event>
<event>
 7    1  0.5779468E-006  0.3300996E+02  0.7818608E-02  0.1636589E+00
          2   -1    0    0  502    0  0.00000000000E+00  0.00000000000E+00  0.30212093318E+03  0.30212093318E+03  0.00000000000E+00 0. -1.
          1   -1    0    0  501    0 -0.00000000000E+00 -0.00000000000E+00 -0.84108348266E+02  0.84108348266E+02  0.00000000000E+00 0. -1.
         25    2    1    2    0    0 -0.26443097763E+02  0.24028360404E+01  0.11853522269E+03  0.17430176188E+03  0.12500197653E+03 0.  0.
          2    1    1    2  501    0  0.23374791096E+02 -0.23922037261E+02 -0.50396735064E+02  0.60485334012E+02  0.00000000000E+00 0. -1.
          1    1    1    2  502    0  0.30683066669E+01  0.21519201221E+02  0.14987409729E+03  0.15144218556E+03  0.00000000000E+00 0. -1.
         22    1    3    3    0    0 -0.61468929827E+02  0.39267350341E+02  0.47885199570E+02  0.87254492576E+02  0.00000000000E+00 0. -1.
         22    1    3    3    0    0  0.35025832064E+02 -0.36864514301E+02  0.70650023117E+02  0.87047269301E+02  0.00000000000E+00 0. -1.
</event>
<event>
 7    1  0.5779468E-006  0.3306748E+02  0.7818608E-02  0.1614696E+00
          2   -1    0    0  502    0  0.00000000000E+00  0.00000000000E+00  0.17914569555E+04  0.17914569555E+04  0.00000000000E+00 0. -1.
          1   -1    0    0  501    0 -0.00000000000E+00 -0.00000000000E+00 -0.92757514637E+01  0.92757514637E+01  0.00000000000E+00 0. -1.
         25    2    1    2    0    0 -0.13337172877E+02 -0.12826910359E+02  0.73780845487E+03  0.74855161417E+03  0.12500317271E+03 0.  0.
          2    1    1    2  501    0 -0.20792312924E+02  0.13238578936E+02  0.38406347423E+02  0.45635816760E+02  0.00000000000E+00 0. -1.
          1    1    1    2  502    0  0.34129485801E+02 -0.41166857754E+00  0.10059664018E+04  0.10065452761E+04  0.00000000000E+00 0. -1.
         22    1    3    3    0    0 -0.30718593619E+02 -0.57749030958E+02  0.57667480829E+03  0.58037265363E+03  0.00000000000E+00 0. -1.
         22    1    3    3    0    0  0.17381420742E+02  0.44922120599E+02  0.16113364658E+03  0.16817896053E+03  0.00000000000E+00 0. -1.
</event>
<event>
 7    1  0.5779468E-006  0.6801027E+02  0.7818608E-02  0.1406977E+00
          2   -1    0    0  502    0  0.00000000000E+00  0.00000000000E+00  0.14530752648E+04  0.14530752648E+04  0.00000000000E+00 0. -1.
          1   -1    0    0  501    0 -0.00000000000E+00 -0.00000000000E+00 -0.70200519602E+03  0.70200519602E+03  0.00000000000E+00 0. -1.
         25    2    1    2    0    0  0.23974692791E+02 -0.73778234004E+01  0.67213756959E+02  0.14412801316E+03  0.12500390745E+03 0.  0.
          2    1    1    2  501    0 -0.45324077111E+02  0.51757973944E+02 -0.66131297012E+03  0.66488194763E+03  0.00000000000E+00 0. -1.
          1    1    1    2  502    0  0.21349384319E+02 -0.44380150543E+02  0.13451692820E+04  0.13460705001E+04  0.00000000000E+00 0. -1.
         22    1    3    3    0    0 -0.27401789887E+02  0.26900065360E+02 -0.15064649482E+02  0.41248215348E+02  0.00000000000E+00 0. -1.
         22    1    3    3    0    0  0.51376482679E+02 -0.34277888760E+02  0.82278406441E+02  0.10287979781E+03  0.00000000000E+00 0. -1.
</event>
<event>
 7    1  0.5779468E-006  0.1084434E+03  0.7818608E-02  0.1354453E+00
          2   -1    0    0  502    0  0.00000000000E+00  0.00000000000E+00  0.71708228449E+03  0.71708228449E+03  0.00000000000E+00 0. -1.
          1   -1    0    0  501    0 -0.00000000000E+00 -0.00000000000E+00 -0.54590454580E+03  0.54590454580E+03  0.00000000000E+00 0. -1.
         25    2    1    2    0    0 -0.10026316963E+03  0.24586635231E+02 -0.25830145946E+03  0.30496096468E+03  0.12499736078E+03 0.  0.
          2    1    1    2  501    0  0.16354667784E+02  0.44475477472E+02 -0.25784498818E+03  0.26216327199E+03  0.00000000000E+00 0. -1.
          1    1    1    2  502    0  0.83908501846E+02 -0.69062112703E+02  0.68732418632E+03  0.69586259362E+03  0.00000000000E+00 0. -1.
         22    1    3    3    0    0 -0.66490660900E+02  0.52418251506E+02 -0.24500601395E+03  0.25922312387E+03  0.00000000000E+00 0. -1.
         22    1    3    3    0    0 -0.33772508730E+02 -0.27831616274E+02 -0.13295445511E+02  0.45737840807E+02  0.00000000000E+00 0. -1.
</event>
<event>
 7    1  0.5779468E-006  0.1235678E+03  0.7818608E-02  0.1381693E+00
          2   -1    0    0  502    0  0.00000000000E+00  0.00000000000E+00  0.31667787169E+03  0.31667787169E+03  0.00000000000E+00 0. -1.
          1   -1    0    0  501    0 -0.00000000000E+00 -0.00000000000E+00 -0.85361941500E+03  0.85361941500E+03  0.00000000000E+00 0. -1.
         25    2    1    2    0    0 -0.16424516899E+02  0.15489812190E+03 -0.51887787954E+03  0.55598767457E+03  0.12499938989E+03 0.  0.
          2    1    1    2  501    0  0.67851284094E+01 -0.32467907809E+02 -0.30259428407E+03  0.30440680636E+03  0.00000000000E+00 0. -1.
          1    1    1    2  502    0  0.96393884897E+01 -0.12243021409E+03  0.28453062030E+03  0.30990280576E+03  0.00000000000E+00 0. -1.
         22    1    3    3    0    0  0.33761777117E+02  0.14306762579E+03 -0.35640024419E+03  0.38552475562E+03  0.00000000000E+00 0. -1.
         22    1    3    3    0    0 -0.50186294016E+02  0.11830496111E+02 -0.16247763535E+03  0.17046291895E+03  0.00000000000E+00 0. -1.
</event>
<event>
 7    1  0.5779468E-006  0.8466710E+02  0.7818608E-02  0.1321057E+00
          2   -1    0    0  502    0  0.00000000000E+00  0.00000000000E+00  0.49710739530E+03  0.49710739530E+03  0.00000000000E+00 0. -1.
          1   -1    0    0  501    0 -0.00000000000E+00 -0.00000000000E+00 -0.11689182925E+04  0.11689182925E+04  0.00000000000E+00 0. -1.
         25    2    1    2    0    0  0.14947018012E+03  0.38868408771E+02  0.17626834905E+03  0.26560889818E+03  0.12500187186E+03 0.  0.
          2    1    1    2  501    0 -0.83779002083E+02  0.87603670706E+01 -0.11166672877E+04  0.11198399425E+04  0.00000000000E+00 0. -1.
          1    1    1    2  502    0 -0.65691178040E+02 -0.47628775842E+02  0.26858804147E+03  0.28057684719E+03  0.00000000000E+00 0. -1.
         22    1    3    3    0    0  0.86268192755E+02  0.23517280457E+02  0.17944812075E+03  0.20049162477E+03  0.00000000000E+00 0. -1.
         22    1    3    3    0    0  0.63201987367E+02  0.15351128314E+02 -0.31797717069E+01  0.65117273406E+02  0.00000000000E+00 0. -1.
</event>
<event>
 7    1  0.5779468E-006  0.1657578E+03  0.7818608E-02  0.1288812E+00
          2   -1    0    0  502    0  0.00000000000E+00  0.00000000000E+00  0.12892002744E+04  0.12892002744E+04  0.00000000000E+00 0. -1.
          1   -1    0    0  501    0 -0.00000000000E+00 -0.00000000000E+00 -0.15271070973E+03  0.15271070973E+03  0.00000000000E+00 0. -1.
         25    2    1    2    0    0  0.94222422225E+02  0.83361003093E+02  0.22311719674E+03  0.28501473118E+03  0.12500076727E+03 0.  0.
          2    1    1    2  501    0 -0.11178458605E+03 -0.13618370015E+03 -0.56809162330E+02  0.18511908273E+03  0.00000000000E+00 0. -1.
          1    1    1    2  502    0  0.17562163825E+02  0.52822697056E+02  0.97018153024E+03  0.97177717021E+03  0.00000000000E+00 0. -1.
         22    1    3    3    0    0 -0.28708161234E+02  0.14901267367E+02  0.69720617307E+02  0.76858121030E+02  0.00000000000E+00 0. -1.
         22    1    3    3    0    0  0.12293058346E+03  0.68459735726E+02  0.15339657944E+03  0.20815661015E+03  0.00000000000E+00 0. -1.
</event>
<event>
 7    1  0.5779468E-006  0.2646185E+02  0.7818608E-02  0.1687286E+00
          2   -1    0    0  502    0  0.00000000000E+00  0.00000000000E+00  0.21730910594E+03  0.21730910594E+03  0.00000000000E+00 0. -1.
          1   -1    0    0  501    0 -0.00000000000E+00 -0.00000000000E+00 -0.15938016591E+04  0.15938016591E+04  0.00000000000E+00 0. -1.
         25    2    1    2    0    0  0.21965572736E+02 -0.13175740637E+02 -0.28754057520E+03  0.31458339199E+03  0.12500816616E+03 0.  0.
          2    1    1    2  501    0  0.35912426190E+01  0.20132586517E+02 -0.12917977649E+04  0.12919596292E+04  0.00000000000E+00 0. -1.
          1    1    1    2  502    0 -0.25556815355E+02 -0.69568458800E+01  0.20284578698E+03  0.20456774382E+03  0.00000000000E+00 0. -1.
         22    1    3    3    0    0  0.74293860284E+02 -0.60137869659E+01 -0.17793757544E+03  0.19291843889E+03  0.00000000000E+00 0. -1.
         22    1    3    3    0    0 -0.52328287548E+02 -0.71619536707E+01 -0.10960299976E+03  0.12166495311E+03  0.00000000000E+00 0. -1.
</event>
<event>
 7    1  0.5779468E-006  0.1982252E+03  0.7818608E-02  0.1194630E+00
          2   -1    0    0  502    0  0.00000000000E+00  0.00000000000E+00  0.56380884454E+03  0.56380884454E+03  0.00000000000E+00 0. -1.
          1   -1    0    0  501    0 -0.00000000000E+00 -0.00000000000E+00 -0.72780253792E+03  0.72780253792E+03  0.00000000000E+00 0. -1.
         25    2    1    2    0    0 -0.42241183605E+01  0.17075625071E+03 -0.15539569889E+03  0.26257991073E+03  0.12499938381E+03 0.  0.
          2    1    1    2  501    0  0.12092639733E+03 -0.34434296146E+01 -0.49078201055E+03  0.50547208890E+03  0.00000000000E+00 0. -1.
          1    1    1    2  502    0 -0.11670227897E+03 -0.16731282109E+03  0.48218401605E+03  0.52355938283E+03  0.00000000000E+00 0. -1.
         22    1    3    3    0    0 -0.10695061810E+02  0.44543800120E+02  0.16966433384E+02  0.48850735287E+02  0.00000000000E+00 0.  1.
         22    1    3    3    0    0  0.64709434498E+01  0.12621245059E+03 -0.17236213228E+03  0.21372917544E+03  0.00000000000E+00 0.  1.
</event>
<event>
 7    1  0.5779468E-006  0.2371180E+03  0.7818608E-02  0.1211929E+00
          2   -1    0    0  502    0  0.00000000000E+00  0.00000000000E+00  0.13665471127E+04  0.13665471127E+04  0.00000000000E+00 0. -1.
          1   -1    0    0  501    0 -0.00000000000E+00 -0.00000000000E+00 -0.11635122348E+04  0.11635122348E+04  0.00000000000E+00 0. -1.
         25    2    1    2    0    0 -0.57248645522E+02  0.23802619966E+03 -0.39471248528E+03  0.48099531408E+03  0.12499866795E+03 0.  0.
          2    1    1    2  501    0 -0.26639281406E+02 -0.23670511417E+03 -0.70472482880E+03  0.74389249674E+03  0.00000000000E+00 0. -1.
          1    1    1    2  502    0  0.83887926928E+02 -0.13210854955E+01  0.13024721920E+04  0.13051715368E+04  0.00000000000E+00 0. -1.
         22    1    3    3    0    0 -0.18841334619E+02  0.94667925353E+01 -0.11881041425E+03  0.12066702360E+03  0.00000000000E+00 0.  1.
         22    1    3    3    0    0 -0.38407310903E+02  0.22855940713E+03 -0.27590207103E+03  0.36032829047E+03  0.00000000000E+00 0.  1.
</event>
<event>
 7    1  0.5779468E-006  0.8972203E+02  0.7818608E-02  0.1316532E+00
          2   -1    0    0  502    0  0.00000000000E+00  0.00000000000E+00  0.61400374893E+03  0.61400374893E+03  0.00000000000E+00 0. -1.
          1   -1    0    0  501    0 -0.00000000000E+00 -0.00000000000E+00 -0.25827265363E+04  0.25827265363E+04  0.00000000000E+00 0. -1.
         25    2    1    2    0    0 -0.32516535217E+02 -0.20092074865E+02 -0.67024250929E+03  0.68286907068E+03  0.12499651954E+03 0.  0.
          2    1    1    2  501    0  0.10126586180E+03 -0.20294678594E+02 -0.19021483539E+04  0.19049501329E+04  0.00000000000E+00 0. -1.
          1    1    1    2  502    0 -0.68749326582E+02  0.40386753459E+02  0.60366807573E+03  0.60891108169E+03  0.00000000000E+00 0. -1.
         22    1    3    3    0    0  0.10302799775E+02 -0.64886045181E+02 -0.41768628143E+03  0.42282168374E+03  0.00000000000E+00 0.  1.
         22    1    3    3    0    0 -0.42819334992E+02  0.44793970316E+02 -0.25255622786E+03  0.26004738694E+03  0.00000000000E+00 0.  1.
</event>
<event>
 7    1  0.5779468E-006  0.1494516E+03  0.7818608E-02  0.1253771E+00
          2   -1    0    0  502    0  0.00000000000E+00  0.00000000000E+00  0.21616695735E+03  0.21616695735E+03  0.00000000000E+00 0. -1.
          1   -1    0    0  501    0 -0.00000000000E+00 -0.00000000000E+00 -0.21695284303E+04  0.21695284303E+04  0.00000000000E+00 0. -1.
         25    2    1    2    0    0  0.18342805346E+03  0.10707390375E+03 -0.10992540931E+04  0.11265408836E+04  0.12499651847E+03 0.  0.
          2    1    1    2  501    0 -0.12332650019E+03 -0.44747669536E+02 -0.10430760566E+04  0.10512941736E+04  0.00000000000E+00 0. -1.
          1    1    1    2  502    0 -0.60101553269E+02 -0.62326234217E+02  0.18896867674E+03  0.20786033043E+03  0.00000000000E+00 0. -1.
         22    1    3    3    0    0  0.11687491423E+03  0.12777785645E+03 -0.69024010699E+03  0.71163075501E+03  0.00000000000E+00 0.  1.
         22    1    3    3    0    0  0.66553139236E+02 -0.20703952699E+02 -0.40901398611E+03  0.41491012862E+03  0.00000000000E+00 0.  1.
</event>
<event>
 7    1  0.5779468E-006  0.6350822E+02  0.7818608E-02  0.1429442E+00
          2   -1    0    0  502    0  0.00000000000E+00  0.00000000000E+00  0.11353810022E+04  0.11353810022E+04  0.00000000000E+00 0. -1.
          1   -1    0    0  501    0 -0.00000000000E+00 -0.00000000000E+00 -0.10864230371E+04  0.10864230371E+04  0.00000000000E+00 0. -1.
         25    2    1    2    0    0  0.29929014554E+02 -0.57515990460E+01 -0.15314402934E+03  0.20001748768E+03  0.12500029942E+03 0.  0.
          2    1    1    2  501    0 -0.59467060366E+02 -0.27332056027E+02 -0.90822203324E+03  0.91057708857E+03  0.00000000000E+00 0. -1.
          1    1    1    2  502    0  0.29538045812E+02  0.33083655073E+02  0.11103240277E+04  0.11112094631E+04  0.00000000000E+00 0. -1.
         22    1    3    3    0    0 -0.14964930544E+02  0.52796084519E+02 -0.66373543861E+02  0.86120978928E+02  0.00000000000E+00 0. -1.
         22    1    3    3    0    0  0.44893945098E+02 -0.58547683565E+02 -0.86770485476E+02  0.11389650876E+03  0.00000000000E+00 0. -1.
</event>
<event>
 7    1  0.5779468E-006  0.9795604E+02  0.7818608E-02  0.1317861E+00
          2   -1    0    0  502    0  0.00000000000E+00  0.00000000000E+00  0.34294610037E+03  0.34294610037E+03  0.00000000000E+00 0. -1.
          1   -1    0    0  501    0 -0.00000000000E+00 -0.00000000000E+00 -0.23094411312E+03  0.23094411312E+03  0.00000000000E+00 0. -1.
         25    2    1    2    0    0  0.71558860473E+02  0.87842570867E+02  0.21820444021E+03  0.27581631992E+03  0.12499790732E+03 0.  0.
          2    1    1    2  501    0 -0.96345355396E+02 -0.20066522050E+02 -0.17345514332E+03  0.19942863274E+03  0.00000000000E+00 0. -1.
          1    1    1    2  502    0  0.24786494923E+02 -0.67776048817E+02  0.67252690365E+02  0.98645260835E+02  0.00000000000E+00 0. -1.
         22    1    3    3    0    0  0.67118162892E+02  0.10167609429E+03  0.10253105797E+03  0.15923408488E+03  0.00000000000E+00 0.  1.
         22    1    3    3    0    0  0.44406975806E+01 -0.13833523426E+02  0.11567338224E+03  0.11658223503E+03  0.00000000000E+00 0.  1.
</event>
<event>
 7    1  0.5779468E-006  0.6365778E+02  0.7818608E-02  0.1487520E+00
          2   -1    0    0  502    0  0.00000000000E+00  0.00000000000E+00  0.11101798839E+03  0.11101798839E+03  0.00000000000E+00 0. -1.
          1   -1    0    0  501    0 -0.00000000000E+00 -0.00000000000E+00 -0.26844811670E+04  0.26844811670E+04  0.00000000000E+00 0. -1.
         25    2    1    2    0    0  0.30960549233E+02 -0.33753527759E+02 -0.12870680853E+04  0.12939345484E+04  0.12499801207E+03 0.  0.
          2    1    1    2  501    0 -0.27958057594E+02  0.62584329063E+02 -0.13911681072E+04  0.13928557548E+04  0.00000000000E+00 0. -1.
          1    1    1    2  502    0 -0.30024916382E+01 -0.28830801304E+02  0.10477301401E+03  0.10870885210E+03  0.00000000000E+00 0. -1.
         22    1    3    3    0    0  0.54109352167E+02 -0.83751738948E+00 -0.23716991545E+03  0.24326547684E+03  0.00000000000E+00 0.  1.
         22    1    3    3    0    0 -0.23148802934E+02 -0.32916010369E+02 -0.10498981699E+04  0.10506690716E+04  0.00000000000E+00 0.  1.
</event>
<event>
 7    1  0.5779468E-006  0.1955023E+03  0.7818608E-02  0.1360453E+00
          2   -1    0    0  502    0  0.00000000000E+00  0.00000000000E+00  0.14434460877E+04  0.14434460877E+04  0.00000000000E+00 0. -1.
          1   -1    0    0  501    0 -0.00000000000E+00 -0.00000000000E+00 -0.28541427479E+04  0.28541427479E+04  0.00000000000E+00 0. -1.
         25    2    1    2    0    0 -0.13749538230E+02  0.20151520889E+03 -0.98245851972E+02  0.25704995322E+03  0.12500000721E+03 0.  0.
          2    1    1    2  501    0  0.36764418533E+02 -0.19178313773E+03 -0.26728181695E+04  0.26799420444E+04  0.00000000000E+00 0. -1.
          1    1    1    2  502    0 -0.23014880303E+02 -0.97320711591E+01  0.13603673613E+04  0.13605968380E+04  0.00000000000E+00 0. -1.
         22    1    3    3    0    0 -0.29465627414E+02  0.21155811038E+03 -0.10394303014E+03  0.23754833357E+03  0.00000000000E+00 0.  1.
         22    1    3    3    0    0  0.15716089184E+02 -0.10042901492E+02  0.56971781700E+01  0.19501619643E+02  0.00000000000E+00 0.  1.
</event>
<event>
 7    1  0.5779468E-006  0.1926324E+03  0.7818608E-02  0.1241731E+00
          2   -1    0    0  502    0  0.00000000000E+00  0.00000000000E+00  0.42795254186E+03  0.42795254186E+03  0.00000000000E+00 0. -1.
          1   -1    0    0  501    0 -0.00000000000E+00 -0.00000000000E+00 -0.19828904876E+03  0.19828904876E+03  0.00000000000E+00 0. -1.
         25    2    1    2    0    0  0.15904842663E+03  0.33916951067E+02  0.96779803117E+01  0.20535169671E+03  0.12501557685E+03 0.  0.
          2    1    1    2  501    0 -0.23413909045E+03 -0.23616681834E+02  0.58481173689E+02  0.24248486347E+03  0.00000000000E+00 0. -1.
          1    1    1    2  502    0  0.75090663820E+02 -0.10300269233E+02  0.16150433910E+03  0.17840503044E+03  0.00000000000E+00 0. -1.
         22    1    3    3    0    0  0.97521470782E+02 -0.42496578739E+02 -0.30640175282E+01  0.10642266991E+03  0.00000000000E+00 0. -1.
         22    1    3    3    0    0  0.61526955846E+02  0.76413529806E+02  0.12741997840E+02  0.98929026792E+02  0.00000000000E+00 0. -1.
</event>
<event>
 7    1  0.5779468E-006  0.1224180E+03  0.7818608E-02  0.1374310E+00
          2   -1    0    0  502    0  0.00000000000E+00  0.00000000000E+00  0.92220602421E+03  0.92220602421E+03  0.00000000000E+00 0. -1.
          1   -1    0    0  501    0 -0.00000000000E+00 -0.00000000000E+00 -0.18500522337E+03  0.18500522337E+03  0.00000000000E+00 0. -1.
         25    2    1    2    0    0  0.48865653584E+02 -0.13810408631E+03  0.22175379438E+03  0.29370058203E+03  0.12499878321E+03 0.  0.
          2    1    1    2  501    0 -0.59994973820E+02  0.10432504861E+03 -0.12416167550E+03  0.17291395060E+03  0.00000000000E+00 0. -1.
          1    1    1    2  502    0  0.11129320236E+02  0.33779037703E+02  0.63960868196E+03  0.64059671494E+03  0.00000000000E+00 0. -1.
         22    1    3    3    0    0  0.77905210559E+02 -0.36376758707E+02  0.86177828158E+02  0.12173376061E+03  0.00000000000E+00 0.  1.
         22    1    3    3    0    0 -0.29039556975E+02 -0.10172732760E+03  0.13557596622E+03  0.17196682142E+03  0.00000000000E+00 0.  1.
</event>
<event>
 7    1  0.5779468E-006  0.9752774E+02  0.7818608E-02  0.1305266E+00
          2   -1    0    0  502    0  0.00000000000E+00  0.00000000000E+00  0.15275625636E+03  0.15275625636E+03  0.00000000000E+00 0. -1.
          1   -1    0    0  501    0 -0.00000000000E+00 -0.00000000000E+00 -0.14050451811E+04  0.14050451811E+04  0.00000000000E+00 0. -1.
         25    2    1    2    0    0 -0.19259345443E+02  0.63623009421E+01  0.32690195589E+02  0.13078648281E+03  0.12500021575E+03 0.  0.
          2    1    1    2  501    0  0.98793896792E+02  0.10181774929E+02 -0.13302925060E+04  0.13339947729E+04  0.00000000000E+00 0. -1.
          1    1    1    2  502    0 -0.79534551350E+02 -0.16544075871E+02  0.45313385631E+02  0.93020181800E+02  0.00000000000E+00 0. -1.
         22    1    3    3    0    0 -0.60169314255E+02  0.37872961625E+02  0.34692042916E+02  0.79109073070E+02  0.00000000000E+00 0.  1.
         22    1    3    3    0    0  0.40909968813E+02 -0.31510660683E+02 -0.20018473272E+01  0.51677409742E+02  0.00000000000E+00 0.  1.
</event>
<event>
 7    1  0.5779468E-006  0.1564610E+03  0.7818608E-02  0.1270155E+00
          2   -1    0    0  502    0  0.00000000000E+00  0.00000000000E+00  0.90246532865E+03  0.90246532865E+03  0.00000000000E+00 0. -1.
          1   -1    0    0  501    0 -0.00000000000E+00 -0.00000000000E+00 -0.24212040309E+03  0.24212040309E+03  0.00000000000E+00 0. -1.
         25    2    1    2    0    0 -0.19915746023E+03 -0.61383598364E+01  0.36441524042E+02  0.23802471859E+03  0.12500563411E+03 0.  0.
          2    1    1    2  501    0  0.14182638215E+03 -0.34789059289E+02 -0.10143934177E+03  0.17780590929E+03  0.00000000000E+00 0. -1.
          1    1    1    2  502    0  0.57331078077E+02  0.40927419125E+02  0.72534274329E+03  0.72875510385E+03  0.00000000000E+00 0. -1.
         22    1    3    3    0    0 -0.19402330374E+03 -0.34745054606E+02  0.53608308046E+02  0.20426970383E+03  0.00000000000E+00 0. -1.
         22    1    3    3    0    0 -0.51341564962E+01  0.28606694770E+02 -0.17166784004E+02  0.33755014762E+02  0.00000000000E+00 0. -1.
</event>
<event>
 7    1  0.5779468E-006  0.1866333E+03  0.7818608E-02  0.1213503E+00
          2   -1    0    0  502    0  0.00000000000E+00  0.00000000000E+00  0.24527428266E+04  0.24527428266E+04  0.00000000000E+00 0. -1.
          1   -1    0    0  501    0 -0.00000000000E+00 -0.00000000000E+00 -0.34055492001E+03  0.34055492001E+03  0.00000000000E+00 0. -1.
         25    2    1    2    0    0 -0.11902482391E+03 -0.21294471565E+03 -0.31500776277E+02  0.27590944659E+03  0.12498545188E+03 0.  0.
          2    1    1    2  501    0  0.13273502766E+03  0.10902011935E+03 -0.14592013180E+03  0.22538114130E+03  0.00000000000E+00 0. -1.
          1    1    1    2  502    0 -0.13710203754E+02  0.10392459630E+03  0.22896088147E+04  0.22920071587E+04  0.00000000000E+00 0. -1.
         22    1    3    3    0    0 -0.12748362609E+03 -0.11366824686E+03 -0.41510776374E+02  0.17577169800E+03  0.00000000000E+00 0. -1.
         22    1    3    3    0    0  0.84588021793E+01 -0.99276468792E+02  0.10010000097E+02  0.10013774859E+03  0.00000000000E+00 0. -1.
</event>
<event>
 7    1  0.5779468E-006  0.8373697E+02  0.7818608E-02  0.1375634E+00
          2   -1    0    0  502    0  0.00000000000E+00  0.00000000000E+00  0.16059168096E+02  0.16059168096E+02  0.00000000000E+00 0. -1.
          1   -1    0    0  501    0 -0.00000000000E+00 -0.00000000000E+00 -0.19479663950E+04  0.19479663950E+04  0.00000000000E+00 0. -1.
         25    2    1    2    0    0  0.56181413090E+02 -0.14077964887E+02 -0.10961854601E+04  0.11048081909E+04  0.12499614183E+03 0.  0.
          2    1    1    2  501    0  0.28637473074E+02  0.42720772609E+02 -0.66003709177E+03  0.66203786281E+03  0.00000000000E+00 0. -1.
          1    1    1    2  502    0 -0.84818886164E+02 -0.28642807722E+02 -0.17568467509E+03  0.19717950945E+03  0.00000000000E+00 0. -1.
         22    1    3    3    0    0 -0.13906663103E+02 -0.61308445882E+01 -0.80704636102E+03  0.80718945197E+03  0.00000000000E+00 0.  1.
         22    1    3    3    0    0  0.70088076193E+02 -0.79471202987E+01 -0.28913909905E+03  0.29761873890E+03  0.00000000000E+00 0.  1.
</event>
<event>
 7    1  0.5779468E-006  0.7365613E+02  0.7818608E-02  0.1442899E+00
          2   -1    0    0  502    0  0.00000000000E+00  0.00000000000E+00  0.11352728873E+03  0.11352728873E+03  0.00000000000E+00 0. -1.
          1   -1    0    0  501    0 -0.00000000000E+00 -0.00000000000E+00 -0.43024367029E+03  0.43024367029E+03  0.00000000000E+00 0. -1.
         25    2    1    2    0    0 -0.73859431383E+02 -0.67764735333E+02 -0.89360170927E+02  0.18345958215E+03  0.12499961270E+03 0.  0.
          2    1    1    2  501    0  0.62046082819E+02  0.35283209771E+02 -0.28461556331E+03  0.29342910585E+03  0.00000000000E+00 0. -1.
          1    1    1    2  502    0  0.11813348564E+02  0.32481525562E+02  0.57259352677E+02  0.66882271015E+02  0.00000000000E+00 0. -1.
         22    1    3    3    0    0 -0.18690578865E+02 -0.53192058759E+02 -0.10932480728E+03  0.12300669226E+03  0.00000000000E+00 0. -1.
         22    1    3    3    0    0 -0.55168852518E+02 -0.14572676575E+02  0.19964636356E+02  0.60452889886E+02  0.00000000000E+00 0. -1.
</event>
<event>
 7    1  0.5779468E-006  0.8509378E+02  0.7818608E-02  0.1359732E+00
          2   -1    0    0  502    0  0.00000000000E+00  0.00000000000E+00  0.49426518420E+03  0.49426518420E+03  0.00000000000E+00 0. -1.
          1   -1    0    0  501    0 -0.00000000000E+00 -0.00000000000E+00 -0.17896263021E+03  0.17896263021E+03  0.00000000000E+00 0. -1.
         25    2    1    2    0    0 -0.22291153058E+02 -0.50252128076E+02  0.23504305462E+02  0.13856431830E+03  0.12500178419E+03 0.  0.
          2    1    1    2  501    0  0.45794149217E+02 -0.35198458874E+02 -0.10944432107E+03  0.12375013141E+03  0.00000000000E+00 0. -1.
          1    1    1    2  502    0 -0.23502996160E+02  0.85450586950E+02  0.40124256960E+03  0.41091336471E+03  0.00000000000E+00 0. -1.
         22    1    3    3    0    0 -0.27914201440E+02  0.22918881392E+02  0.49001998177E+02  0.60874244074E+02  0.00000000000E+00 0. -1.
         22    1    3    3    0    0  0.56230483822E+01 -0.73171009468E+02 -0.25497692715E+02  0.77690074228E+02  0.00000000000E+00 0. -1.
</event>
<event>
 7    1  0.5779468E-006  0.4549150E+02  0.7818608E-02  0.1513251E+00
          2   -1    0    0  502    0  0.00000000000E+00  0.00000000000E+00  0.13632791683E+04  0.13632791683E+04  0.00000000000E+00 0. -1.
          1   -1    0    0  501    0 -0.00000000000E+00 -0.00000000000E+00 -0.32078808587E+02  0.32078808587E+02  0.00000000000E+00 0. -1.
         25    2    1    2    0    0  0.63434377140E+02 -0.21823579083E+02  0.16643220340E+03  0.21868635034E+03  0.12499541067E+03 0.  0.
          2    1    1    2  501    0 -0.18673828890E+02  0.28402610528E+02  0.47081354582E+02  0.58069562764E+02  0.00000000000E+00 0. -1.
          1    1    1    2  502    0 -0.44760548250E+02 -0.65790314450E+01  0.11176868018E+04  0.11186020638E+04  0.00000000000E+00 0. -1.
         22    1    3    3    0    0  0.72719022973E+02 -0.31146654667E+02  0.18191284887E+03  0.19836949106E+03  0.00000000000E+00 0. -1.
         22    1    3    3    0    0 -0.92846458322E+01  0.93230755833E+01 -0.15480645475E+02  0.20316859277E+02  0.00000000000E+00 0. -1.
</event>
<event>
 7    1  0.5779468E-006  0.6078903E+02  0.7818608E-02  0.1501699E+00
          2   -1    0    0  502    0  0.00000000000E+00  0.00000000000E+00  0.29259807584E+04  0.29259807584E+04  0.00000000000E+00 0. -1.
          1   -1    0    0  501    0 -0.00000000000E+00 -0.00000000000E+00 -0.64753834548E+02  0.64753834548E+02  0.00000000000E+00 0. -1.
         25    2    1    2    0    0 -0.32197050988E+02 -0.16762009050E+02  0.67276994277E+02  0.14652139292E+03  0.12499883833E+03 0.  0.
          2    1    1    2  501    0 -0.27312692300E+02  0.33446179623E+01 -0.17168179647E+02  0.32433254884E+02  0.00000000000E+00 0. -1.
          1    1    1    2  502    0  0.59509743288E+02  0.13417391088E+02  0.28111181092E+04  0.28117799451E+04  0.00000000000E+00 0. -1.
         22    1    3    3    0    0 -0.16707769742E+02 -0.70256225117E+02  0.51304436586E+02  0.88584603351E+02  0.00000000000E+00 0.  1.
         22    1    3    3    0    0 -0.15489281246E+02  0.53494216066E+02  0.15972557691E+02  0.57936789567E+02  0.00000000000E+00 0.  1.
</event>
<event>
 7    1  0.5779468E-006  0.9061769E+02  0.7818608E-02  0.1449607E+00
          2   -1    0    0  502    0  0.00000000000E+00  0.00000000000E+00  0.42291064104E+03  0.42291064104E+03  0.00000000000E+00 0. -1.
          1   -1    0    0  501    0 -0.00000000000E+00 -0.00000000000E+00 -0.96515103388E+03  0.96515103388E+03  0.00000000000E+00 0. -1.
         25    2    1    2    0    0  0.43276955775E+01  0.75724369545E+02 -0.51260051440E+03  0.53304572710E+03  0.12500220285E+03 0.  0.
          2    1    1    2  501    0  0.96679885423E+01 -0.98499788087E+02 -0.43634719571E+03  0.44743106000E+03  0.00000000000E+00 0. -1.
          1    1    1    2  502    0 -0.13995684120E+02  0.22775418542E+02  0.40670731726E+03  0.40758488782E+03  0.00000000000E+00 0. -1.
         22    1    3    3    0    0 -0.81255700313E+01  0.37252612912E+02 -0.47887502854E+03  0.48039054426E+03  0.00000000000E+00 0.  1.
         22    1    3    3    0    0  0.12453265609E+02  0.38471756633E+02 -0.33725485866E+02  0.52655182838E+02  0.00000000000E+00 0.  1.
</event>
<event>
 7    1  0.5779468E-006  0.1311717E+03  0.7818608E-02  0.1314255E+00
          2   -1    0    0  502    0  0.00000000000E+00  0.00000000000E+00  0.10265609319E+04  0.10265609319E+04  0.00000000000E+00 0. -1.
          1   -1    0    0  501    0 -0.00000000000E+00 -0.00000000000E+00 -0.87916946944E+03  0.87916946944E+03  0.00000000000E+00 0. -1.
         25    2    1    2    0    0  0.46919002932E+01  0.15597487426E+03 -0.15400460855E+03  0.25237420159E+03  0.12500057139E+03 0.  0.
          2    1    1    2  501    0  0.39949208663E+02 -0.12271738727E+03 -0.66901533982E+03  0.68134941207E+03  0.00000000000E+00 0. -1.
          1    1    1    2  502    0 -0.44641108956E+02 -0.33257486983E+02  0.97041141079E+03  0.97200678765E+03  0.00000000000E+00 0. -1.
         22    1    3    3    0    0  0.27744657113E+01  0.14593860543E+03 -0.17568318593E+03  0.22840830990E+03  0.00000000000E+00 0. -1.
         22    1    3    3    0    0  0.19174345819E+01  0.10036268828E+02  0.21678577381E+02  0.23965891692E+02  0.00000000000E+00 0. -1.
</event>
<event>
 7    1  0.5779468E-006  0.7273435E+02  0.7818608E-02  0.1442859E+00
          2   -1    0    0  502    0  0.00000000000E+00  0.00000000000E+00  0.24823631245E+03  0.24823631245E+03  0.00000000000E+00 0. -1.
          1   -1    0    0  501    0 -0.00000000000E+00 -0.00000000000E+00 -0.90120910518E+03  0.90120910518E+03  0.00000000000E+00 0. -1.
         25    2    1    2    0    0 -0.42407939637E+02 -0.70195095756E+02  0.75742455564E+02  0.16759421053E+03  0.12500046007E+03 0.  0.
          2    1    1    2  501    0  0.60555905961E+02  0.40254200808E+02 -0.85128201031E+03  0.85438192836E+03  0.00000000000E+00 0. -1.
          1    1    1    2  502    0 -0.18147966324E+02  0.29940894948E+02  0.12256676202E+03  0.12746927874E+03  0.00000000000E+00 0. -1.
         22    1    3    3    0    0  0.37565860428E+02 -0.47082384126E+02  0.90112151062E+01  0.60902764818E+02  0.00000000000E+00 0.  1.
         22    1    3    3    0    0 -0.79973800066E+02 -0.23112711629E+02  0.66731240458E+02  0.10669144572E+03  0.00000000000E+00 0.  1.
</event>
<event>
 7    1  0.5779468E-006  0.5936261E+02  0.7818608E-02  0.1513480E+00
          2   -1    0    0  502    0  0.00000000000E+00  0.00000000000E+00  0.17989255469E+04  0.17989255469E+04  0.00000000000E+00 0. -1.
          1   -1    0    0  501    0 -0.00000000000E+00 -0.00000000000E+00 -0.35682760907E+02  0.35682760907E+02  0.00000000000E+00 0. -1.
         25    2    1    2    0    0 -0.11283830401E+02  0.35344891449E+02  0.27483114174E+03  0.30419137203E+03  0.12499459256E+03 0.  0.
          2    1    1    2  501    0  0.21794880639E+02 -0.59134856160E+02  0.26654026895E+02  0.68427956164E+02  0.00000000000E+00 0. -1.
          1    1    1    2  502    0 -0.10511050238E+02  0.23789964710E+02  0.14617576173E+04  0.14619889796E+04  0.00000000000E+00 0. -1.
         22    1    3    3    0    0  0.46048174992E+02 -0.12472921538E+02  0.16215182560E+03  0.16902432587E+03  0.00000000000E+00 0. -1.
         22    1    3    3    0    0 -0.57332005393E+02  0.47817812987E+02  0.11267931614E+03  0.13516704616E+03  0.00000000000E+00 0. -1.
</event>
<event>
 7    1  0.5779468E-006  0.4210852E+02  0.7818608E-02  0.1515752E+00
          2   -1    0    0  502    0  0.00000000000E+00  0.00000000000E+00  0.81278786776E+02  0.81278786776E+02  0.00000000000E+00 0. -1.
          1   -1    0    0  501    0 -0.00000000000E+00 -0.00000000000E+00 -0.25982190504E+04  0.25982190504E+04  0.00000000000E+00 0. -1.
         25    2    1    2    0    0  0.50533047250E+02  0.45764755360E+02 -0.12033589704E+04  0.12117535925E+04  0.12500382233E+03 0.  0.
          2    1    1    2  501    0 -0.39013014562E+02 -0.11542897210E+02 -0.13861190597E+04  0.13867160133E+04  0.00000000000E+00 0. -1.
          1    1    1    2  502    0 -0.11520032689E+02 -0.34221858151E+02  0.72537766450E+02  0.81028231438E+02  0.00000000000E+00 0. -1.
         22    1    3    3    0    0  0.22465878648E+02  0.30534947160E+02 -0.86548985822E+02  0.94487171872E+02  0.00000000000E+00 0. -1.
         22    1    3    3    0    0  0.28067168602E+02  0.15229808200E+02 -0.11168099846E+04  0.11172664206E+04  0.00000000000E+00 0. -1.
</event>
<event>
 7    1  0.5779468E-006  0.2642079E+02  0.7818608E-02  0.1652734E+00
          2   -1    0    0  502    0  0.00000000000E+00  0.00000000000E+00  0.79143766715E+03  0.79143766715E+03  0.00000000000E+00 0. -1.
          1   -1    0    0  501    0 -0.00000000000E+00 -0.00000000000E+00 -0.65927154212E+03  0.65927154212E+03  0.00000000000E+00 0. -1.
         25    2    1    2    0    0  0.31497394029E+01 -0.21310091543E+01  0.38628474586E+02  0.13088832020E+03  0.12500052503E+03 0.  0.
          2    1    1    2  501    0 -0.43247466768E+01 -0.24395915345E+02 -0.61264170784E+03  0.61314250081E+03  0.00000000000E+00 0. -1.
          1    1    1    2  502    0  0.11750072740E+01  0.26526924499E+02  0.70617935828E+03  0.70667838826E+03  0.00000000000E+00 0. -1.
         22    1    3    3    0    0  0.13217011311E+01  0.20391824144E+02 -0.42239373013E+02  0.46922681278E+02  0.00000000000E+00 0.  1.
         22    1    3    3    0    0  0.18280382718E+01 -0.22522833298E+02  0.80867847599E+02  0.83965638918E+02  0.00000000000E+00 0.  1.
</event>
<event>
 7    1  0.5779468E-006  0.6287513E+02  0.7818608E-02  0.1501890E+00
          2   -1    0    0  502    0  0.00000000000E+00  0.00000000000E+00  0.50819954570E+03  0.50819954570E+03  0.00000000000E+00 0. -1.
          1   -1    0    0  501    0 -0.00000000000E+00 -0.00000000000E+00 -0.28446012141E+03  0.28446012141E+03  0.00000000000E+00 0. -1.
         25    2    1    2    0    0 -0.31833304255E+02 -0.49267563435E+02  0.11429226764E+02  0.13855104196E+03  0.12500044774E+03 0.  0.
          2    1    1    2  501    0  0.53569798756E+02  0.33988989781E+02 -0.21592378223E+03  0.22505122639E+03  0.00000000000E+00 0. -1.
          1    1    1    2  502    0 -0.21736494501E+02  0.15278573654E+02  0.42823397976E+03  0.42905739876E+03  0.00000000000E+00 0. -1.
         22    1    3    3    0    0 -0.89805584497E+01 -0.90007874575E+02  0.15052319468E+02  0.91698638141E+02  0.00000000000E+00 0. -1.
         22    1    3    3    0    0 -0.22852745805E+02  0.40740311139E+02 -0.36230927037E+01  0.46852403816E+02  0.00000000000E+00 0. -1.
</event>
<event>
 7    1  0.5779468E-006  0.9539895E+02  0.7818608E-02  0.1349493E+00
          2   -1    0    0  502    0  0.00000000000E+00  0.00000000000E+00  0.20793287881E+04  0.20793287881E+04  0.00000000000E+00 0. -1.
          1   -1    0    0  501    0 -0.00000000000E+00 -0.00000000000E+00 -0.95313549246E+02  0.95313549246E+02  0.00000000000E+00 0. -1.
         25    2    1    2    0    0  0.65908283099E+02 -0.30628138186E+01  0.11494254035E+04  0.11580837106E+04  0.12500335914E+03 0.  0.
          2    1    1    2  501    0 -0.81805252264E+02 -0.50829570453E+02 -0.64371981157E+02  0.11584255042E+03  0.00000000000E+00 0. -1.
          1    1    1    2  502    0  0.15896969166E+02  0.53892384272E+02  0.89896181648E+03  0.90071607635E+03  0.00000000000E+00 0. -1.
         22    1    3    3    0    0  0.46974064385E+02 -0.46918204386E+02  0.29741252657E+03  0.30473282000E+03  0.00000000000E+00 0. -1.
         22    1    3    3    0    0  0.18934218714E+02  0.43855390567E+02  0.85201287696E+03  0.85335089056E+03  0.00000000000E+00 0. -1.
</event>
<event>
 7    1  0.5779468E-006  0.3151592E+02  0.7818608E-02  0.1636912E+00
          2   -1    0    0  502    0  0.00000000000E+00  0.00000000000E+00  0.19872017430E+04  0.19872017430E+04  0.00000000000E+00 0. -1.
          1   -1    0    0  501    0 -0.00000000000E+00 -0.00000000000E+00 -0.11678841137E+02  0.11678841137E+02  0.00000000000E+00 0. -1.
         25    2    1    2    0    0  0.72604103222E+01  0.31763748108E+02  0.14999903742E+04  0.15055421179E+04  0.12499718717E+03 0.  0.
          2    1    1    2  501    0 -0.25696676975E+02 -0.18477194026E+02  0.20434757529E+02  0.37673667487E+02  0.00000000000E+00 0. -1.
          1    1    1    2  502    0  0.18436266653E+02 -0.13286554083E+02  0.45509777015E+03  0.45566479878E+03  0.00000000000E+00 0. -1.
         22    1    3    3    0    0  0.26290394267E+01  0.80273093089E+02  0.90071570597E+03  0.90428948036E+03  0.00000000000E+00 0. -1.
         22    1    3    3    0    0  0.46313708955E+01 -0.48509344981E+02  0.59927466825E+03  0.60125263755E+03  0.00000000000E+00 0. -1.
</event>
<event>
 7    1  0.5779468E-006  0.9883039E+02  0.7818608E-02  0.1342636E+00
          2   -1    0    0  502    0  0.00000000000E+00  0.00000000000E+00  0.12467088827E+04  0.12467088827E+04  0.00000000000E+00 0. -1.
          1   -1    0    0  501    0 -0.00000000000E+00 -0.00000000000E+00 -0.18769872892E+03  0.18769872892E+03  0.00000000000E+00 0. -1.
         25    2    1    2    0    0 -0.91251838036E+02  0.77117408557E+02  0.10310148532E+03  0.20131727242E+03  0.12499894100E+03 0.  0.
          2    1    1    2  501    0  0.35497248616E+02 -0.91278213031E+02 -0.12042404456E+03  0.15522151056E+03  0.00000000000E+00 0. -1.
          1    1    1    2  502    0  0.55754589420E+02  0.14160804475E+02  0.10763327130E+04  0.10778688287E+04  0.00000000000E+00 0. -1.
         22    1    3    3    0    0 -0.64644401743E+02  0.11174801412E+03  0.80540979987E+02  0.15216230412E+03  0.00000000000E+00 0.  1.
         22    1    3    3    0    0 -0.26607436292E+02 -0.34630605566E+02  0.22560505332E+02  0.49154968302E+02  0.00000000000E+00 0.  1.
</event>
<event>
 7    1  0.5779468E-006  0.2313868E+03  0.7818608E-02  0.1179783E+00
          2   -1    0    0  502    0  0.00000000000E+00  0.00000000000E+00  0.80717329595E+03  0.80717329595E+03  0.00000000000E+00 0. -1.
          1   -1    0    0  501    0 -0.00000000000E+00 -0.00000000000E+00 -0.19737337506E+03  0.19737337506E+03  0.00000000000E+00 0. -1.
         25    2    1    2    0    0 -0.14371032938E+03 -0.25560498237E+03  0.22541460931E+03  0.39041001854E+03  0.12498668210E+03 0.  0.
          2    1    1    2  501    0  0.16612770938E+03  0.13547277336E+03  0.37826411817E+01  0.21439588737E+03  0.00000000000E+00 0. -1.
          1    1    1    2  502    0 -0.22417379996E+02  0.12013220901E+03  0.38060267040E+03  0.39974076510E+03  0.00000000000E+00 0. -1.
         22    1    3    3    0    0 -0.65410629576E+01 -0.27390677433E+02  0.84680378535E+02  0.89240132360E+02  0.00000000000E+00 0.  1.
         22    1    3    3    0    0 -0.13716926642E+03 -0.22821430494E+03  0.14073423078E+03  0.30116988618E+03  0.00000000000E+00 0.  1.
</event>
<event>
 7    1  0.5779468E-006  0.1231202E+03  0.7818608E-02  0.1377251E+00
          2   -1    0    0  502    0  0.00000000000E+00  0.00000000000E+00  0.30327363919E+03  0.30327363919E+03  0.00000000000E+00 0. -1.
          1   -1    0    0  501    0 -0.00000000000E+00 -0.00000000000E+00 -0.16225333406E+04  0.16225333406E+04  0.00000000000E+00 0. -1.
         25    2    1    2    0    0  0.40868829655E+02  0.14447544963E+03  0.58412482870E+02  0.20391363274E+03  0.12500133871E+03 0.  0.
          2    1    1    2  501    0 -0.12887995397E+02 -0.32022946838E+02 -0.15300603928E+04  0.15304497298E+04  0.00000000000E+00 0. -1.
          1    1    1    2  502    0 -0.27980834258E+02 -0.11245250279E+03  0.15238820861E+03  0.19144361726E+03  0.00000000000E+00 0. -1.
         22    1    3    3    0    0  0.80398264012E+02  0.79957875033E+02  0.59891799312E+02  0.12823482468E+03  0.00000000000E+00 0. -1.
         22    1    3    3    0    0 -0.39529434358E+02  0.64517574593E+02 -0.14793164416E+01  0.75678808058E+02  0.00000000000E+00 0. -1.
</event>
<event>
 7    1  0.5779468E-006  0.9675037E+02  0.7818608E-02  0.1381795E+00
          2   -1    0    0  502    0  0.00000000000E+00  0.00000000000E+00  0.14637484351E+04  0.14637484351E+04  0.00000000000E+00 0. -1.
          1   -1    0    0  501    0 -0.00000000000E+00 -0.00000000000E+00 -0.10745798671E+04  0.10745798671E+04  0.00000000000E+00 0. -1.
         25    2    1    2    0    0  0.66904129241E+02 -0.15422092536E+02  0.23608267152E+03  0.27581506408E+03  0.12499967335E+03 0.  0.
          2    1    1    2  501    0  0.32482581495E+02  0.27139467019E+02 -0.10522144345E+04  0.10530654704E+04  0.00000000000E+00 0. -1.
          1    1    1    2  502    0 -0.99386710736E+02 -0.11717374483E+02  0.12053003310E+04  0.12094477678E+04  0.00000000000E+00 0. -1.
         22    1    3    3    0    0  0.82585155189E+02 -0.37012637440E+02  0.23173406187E+03  0.24877885485E+03  0.00000000000E+00 0. -1.
         22    1    3    3    0    0 -0.15681025948E+02  0.21590544904E+02  0.43486096460E+01  0.27036209237E+02  0.00000000000E+00 0. -1.
</event>
<event>
 7    1  0.5779468E-006  0.6396298E+02  0.7818608E-02  0.1445666E+00
          2   -1    0    0  502    0  0.00000000000E+00  0.00000000000E+00  0.24444030933E+04  0.24444030933E+04  0.00000000000E+00 0. -1.
          1   -1    0    0  501    0 -0.00000000000E+00 -0.00000000000E+00 -0.43322741620E+02  0.43322741620E+02  0.00000000000E+00 0. -1.
         25    2    1    2    0    0 -0.23237353030E+02 -0.95675071720E+02  0.36894862050E+03  0.40179978360E+03  0.12500515032E+03 0.  0.
          2    1    1    2  501    0  0.22306861621E+02  0.56694878731E+02  0.80340366774E+01  0.61452836346E+02  0.00000000000E+00 0. -1.
          1    1    1    2  502    0  0.93049140909E+00  0.38980192989E+02  0.20240976945E+04  0.20244732150E+04  0.00000000000E+00 0. -1.
         22    1    3    3    0    0  0.44025497837E+02 -0.25896043301E+02  0.64370399151E+02  0.82172974908E+02  0.00000000000E+00 0. -1.
         22    1    3    3    0    0 -0.67262850867E+02 -0.69779028419E+02  0.30457822135E+03  0.31962680869E+03  0.00000000000E+00 0. -1.
</event>
<event>
 7    1  0.5779468E-006  0.1313306E+03  0.7818608E-02  0.1312483E+00
          2   -1    0    0  502    0  0.00000000000E+00  0.00000000000E+00  0.10278733133E+04  0.10278733133E+04  0.00000000000E+00 0. -1.
          1   -1    0    0  501    0 -0.00000000000E+00 -0.00000000000E+00 -0.44424130061E+03  0.44424130061E+03  0.00000000000E+00 0. -1.
         25    2    1    2    0    0 -0.50192506405E+02  0.88713335103E+02  0.15776421573E+03  0.22562045013E+03  0.12500278487E+03 0.  0.
          2    1    1    2  501    0  0.31021839270E+02  0.47217975164E+02 -0.40269373611E+03  0.40663759884E+03  0.00000000000E+00 0. -1.
          1    1    1    2  502    0  0.19170667135E+02 -0.13593131027E+03  0.82856153302E+03  0.83985656489E+03  0.00000000000E+00 0. -1.
         22    1    3    3    0    0  0.14153523990E+02  0.24530945570E+02  0.12631270597E+03  0.12944878995E+03  0.00000000000E+00 0.  1.
         22    1    3    3    0    0 -0.64346030395E+02  0.64182389533E+02  0.31451509767E+02  0.96171660173E+02  0.00000000000E+00 0.  1.
</event>
<event>
 7    1  0.5779468E-006  0.3111373E+02  0.7818608E-02  0.1651248E+00
          2   -1    0    0  502    0  0.00000000000E+00  0.00000000000E+00  0.18238065244E+03  0.18238065244E+03  0.00000000000E+00 0. -1.
          1   -1    0    0  501    0 -0.00000000000E+00 -0.00000000000E+00 -0.15767461313E+03  0.15767461313E+03  0.00000000000E+00 0. -1.
         25    2    1    2    0    0  0.52328581860E+01  0.17160790716E+02  0.13084246504E+03  0.18184128025E+03  0.12499850001E+03 0.  0.
          2    1    1    2  501    0  0.98819434638E+01  0.18774152054E+02 -0.11606260724E+03  0.11798580589E+03  0.00000000000E+00 0. -1.
          1    1    1    2  502    0 -0.15114801650E+02 -0.35934942770E+02  0.99261815156E+01  0.40228179430E+02  0.00000000000E+00 0. -1.
         22    1    3    3    0    0 -0.38565549367E+02  0.38250153419E+02  0.15210635353E+02  0.56406907931E+02  0.00000000000E+00 0. -1.
         22    1    3    3    0    0  0.43798407553E+02 -0.21089362703E+02  0.11563182969E+03  0.12543437232E+03  0.00000000000E+00 0. -1.
</event>
<event>
 7    1  0.5779468E-006  0.2114443E+03  0.7818608E-02  0.1300275E+00
          2   -1    0    0  502    0  0.00000000000E+00  0.00000000000E+00  0.25304596796E+04  0.25304596796E+04  0.00000000000E+00 0. -1.
          1   -1    0    0  501    0 -0.00000000000E+00 -0.00000000000E+00 -0.69356369704E+02  0.69356369704E+02  0.00000000000E+00 0. -1.
         25    2    1    2    0    0  0.17326505176E+03  0.69549256912E+02  0.77990635411E+03  0.81162614380E+03  0.12500079523E+03 0.  0.
          2    1    1    2  501    0  0.26739547158E+02  0.28700562828E+02 -0.37998498660E+02  0.54613291324E+02  0.00000000000E+00 0. -1.
          1    1    1    2  502    0 -0.20000459892E+03 -0.98249819740E+02  0.17191954545E+04  0.17335766142E+04  0.00000000000E+00 0. -1.
         22    1    3    3    0    0  0.81381205016E+02  0.36869097154E+02  0.60332681041E+03  0.60990611656E+03  0.00000000000E+00 0. -1.
         22    1    3    3    0    0  0.91883846744E+02  0.32680159758E+02  0.17657954370E+03  0.20172002724E+03  0.00000000000E+00 0. -1.
</event>
<event>
 7    1  0.5779468E-006  0.1259795E+03  0.7818608E-02  0.1239460E+00
          2   -1    0    0  502    0  0.00000000000E+00  0.00000000000E+00  0.29207820021E+04  0.29207820021E+04  0.00000000000E+00 0. -1.
          1   -1    0    0  501    0 -0.00000000000E+00 -0.00000000000E+00 -0.12238384514E+04  0.12238384514E+04  0.00000000000E+00 0. -1.
         25    2    1    2    0    0  0.28972164847E+02 -0.24028986414E+02  0.12682246658E+04  0.12749258453E+04  0.12500131857E+03 0.  0.
          2    1    1    2  501    0 -0.10930814613E+03 -0.63212658369E+02 -0.12150798853E+04  0.12216231984E+04  0.00000000000E+00 0. -1.
          1    1    1    2  502    0  0.80335981284E+02  0.87241644783E+02  0.16437987703E+04  0.16480714097E+04  0.00000000000E+00 0. -1.
         22    1    3    3    0    0  0.26936011885E+02 -0.74845901597E+02  0.74426749591E+03  0.74850622121E+03  0.00000000000E+00 0.  1.
         22    1    3    3    0    0  0.20361529621E+01  0.50816915184E+02  0.52395716988E+03  0.52641962412E+03  0.00000000000E+00 0.  1.
</event>
<event>
 7    1  0.5779468E-006  0.2024996E+03  0.7818608E-02  0.1216303E+00
          2   -1    0    0  502    0  0.00000000000E+00  0.00000000000E+00  0.18757307253E+04  0.18757307253E+04  0.00000000000E+00 0. -1.
          1   -1    0    0  501    0 -0.00000000000E+00 -0.00000000000E+00 -0.46069208699E+03  0.46069208699E+03  0.00000000000E+00 0. -1.
         25    2    1    2    0    0 -0.16992922792E+03 -0.60356480967E+02 -0.21397250181E+03  0.30647635811E+03  0.12499871699E+03 0.  0.
          2    1    1    2  501    0  0.19377826801E+03  0.15106341357E+03 -0.12345309777E+03  0.27497425229E+03  0.00000000000E+00 0. -1.
          1    1    1    2  502    0 -0.23849040084E+02 -0.90706932603E+02  0.17524642379E+04  0.17549722019E+04  0.00000000000E+00 0. -1.
         22    1    3    3    0    0 -0.25165520778E+02 -0.57619327307E+02 -0.11508390640E+03  0.13113960434E+03  0.00000000000E+00 0.  1.
         22    1    3    3    0    0 -0.14476370715E+03 -0.27371536603E+01 -0.98888595412E+02  0.17533675376E+03  0.00000000000E+00 0.  1.
</event>
<event>
 7    1  0.5779468E-006  0.8484757E+02  0.7818608E-02  0.1370690E+00
          2   -1    0    0  502    0  0.00000000000E+00  0.00000000000E+00  0.50653266421E+03  0.50653266421E+03  0.00000000000E+00 0. -1.
          1   -1    0    0  501    0 -0.00000000000E+00 -0.00000000000E+00 -0.46995341536E+03  0.46995341536E+03  0.00000000000E+00 0. -1.
         25    2    1    2    0    0 -0.16388733863E+02 -0.37349999271E+02 -0.60124473946E+02  0.14457606887E+03  0.12499469701E+03 0.  0.
          2    1    1    2  501    0  0.57832877726E+02  0.70174525813E+02 -0.36043257990E+03  0.37172671477E+03  0.00000000000E+00 0. -1.
          1    1    1    2  502    0 -0.41444143862E+02 -0.32824526542E+02  0.45713630270E+03  0.46018329593E+03  0.00000000000E+00 0. -1.
         22    1    3    3    0    0 -0.26122070264E+02 -0.53582250947E+02  0.19510956167E+02  0.62722385015E+02  0.00000000000E+00 0. -1.
         22    1    3    3    0    0  0.97333364002E+01  0.16232251676E+02 -0.79635430114E+02  0.81853683859E+02  0.00000000000E+00 0. -1.
</event>
<event>
 7    1  0.5779468E-006  0.1512092E+03  0.7818608E-02  0.1236093E+00
          2   -1    0    0  502    0  0.00000000000E+00  0.00000000000E+00  0.99305091165E+03  0.99305091165E+03  0.00000000000E+00 0. -1.
          1   -1    0    0  501    0 -0.00000000000E+00 -0.00000000000E+00 -0.76368309865E+03  0.76368309865E+03  0.00000000000E+00 0. -1.
         25    2    1    2    0    0 -0.13780714063E+03  0.77671896219E+02 -0.25898492627E+03  0.32821847835E+03  0.12502178222E+03 0.  0.
          2    1    1    2  501    0 -0.12062121504E+02 -0.10154348283E+03 -0.45840505210E+03  0.46967197646E+03  0.00000000000E+00 0. -1.
          1    1    1    2  502    0  0.14986926213E+03  0.23871586612E+02  0.94675779137E+03  0.95884355549E+03  0.00000000000E+00 0. -1.
         22    1    3    3    0    0 -0.10152344036E+03  0.11187690620E+03 -0.20600060030E+03  0.25545977846E+03  0.00000000000E+00 0. -1.
         22    1    3    3    0    0 -0.36283700270E+02 -0.34205009982E+02 -0.52984325965E+02  0.72758699899E+02  0.00000000000E+00 0. -1.
</event>
<event>
 7    1  0.5779468E-006  0.7302742E+02  0.7818608E-02  0.1479795E+00
          2   -1    0    0  502    0  0.00000000000E+00  0.00000000000E+00  0.49505341492E+03  0.49505341492E+03  0.00000000000E+00 0. -1.
          1   -1    0    0  501    0 -0.00000000000E+00 -0.00000000000E+00 -0.19658417768E+04  0.19658417768E+04  0.00000000000E+00 0. -1.
         25    2    1    2    0    0 -0.87497190639E+02  0.36547203324E+02 -0.70735493608E+03  0.72454539643E+03  0.12499427765E+03 0.  0.
          2    1    1    2  501    0  0.60830121095E+02 -0.35809815500E+02 -0.12485282076E+04  0.12505220236E+04  0.00000000000E+00 0. -1.
          1    1    1    2  502    0  0.26667069543E+02 -0.73738782400E+00  0.48509478180E+03  0.48582777161E+03  0.00000000000E+00 0. -1.
         22    1    3    3    0    0 -0.14934166374E+02 -0.12476339471E+01 -0.27871098419E+01  0.15243159024E+02  0.00000000000E+00 0. -1.
         22    1    3    3    0    0 -0.72563024265E+02  0.37794837271E+02 -0.70456782624E+03  0.70930223740E+03  0.00000000000E+00 0. -1.
</event>
<event>
 7    1  0.5779468E-006  0.7761162E+02  0.7818608E-02  0.1479738E+00
          2   -1    0    0  502    0  0.00000000000E+00  0.00000000000E+00  0.16887248937E+04  0.16887248937E+04  0.00000000000E+00 0. -1.
          1   -1    0    0  501    0 -0.00000000000E+00 -0.00000000000E+00 -0.20564174590E+04  0.20564174590E+04  0.00000000000E+00 0. -1.
         25    2    1    2    0    0  0.70133077853E+02  0.11855383231E+02 -0.33962105161E+02  0.14777539123E+03  0.12499977178E+03 0.  0.
          2    1    1    2  501    0 -0.68430295134E+02 -0.36909282552E+02 -0.19646831485E+04  0.19662209627E+04  0.00000000000E+00 0. -1.
          1    1    1    2  502    0 -0.17027827190E+01  0.25053899321E+02  0.16309526883E+04  0.16311459987E+04  0.00000000000E+00 0. -1.
         22    1    3    3    0    0  0.42043389755E+02  0.32214317032E+02 -0.76398625205E+02  0.92963211956E+02  0.00000000000E+00 0.  1.
         22    1    3    3    0    0  0.28089688098E+02 -0.20358933801E+02  0.42436520044E+02  0.54812179271E+02  0.00000000000E+00 0.  1.
</event>
<event>
 7    1  0.5779468E-006  0.1455835E+03  0.7818608E-02  0.1224928E+00
          2   -1    0    0  502    0  0.00000000000E+00  0.00000000000E+00  0.72137348869E+03  0.72137348869E+03  0.00000000000E+00 0. -1.
          1   -1    0    0  501    0 -0.00000000000E+00 -0.00000000000E+00 -0.13103685966E+04  0.13103685966E+04  0.00000000000E+00 0. -1.
         25    2    1    2    0    0  0.70263638779E+01 -0.39054582254E+02  0.36840118436E+03  0.39104821606E+03  0.12499857785E+03 0.  0.
          2    1    1    2  501    0 -0.11269956468E+03  0.94150599467E+02 -0.12843395303E+04  0.12927078388E+04  0.00000000000E+00 0. -1.
          1    1    1    2  502    0  0.10567320080E+03 -0.55096017213E+02  0.32694323806E+03  0.34798603046E+03  0.00000000000E+00 0. -1.
         22    1    3    3    0    0  0.78943431406E+01 -0.12180257339E+02  0.36341098502E+03  0.36370073323E+03  0.00000000000E+00 0.  1.
         22    1    3    3    0    0 -0.86797926270E+00 -0.26874324915E+02  0.49901993387E+01  0.27347482829E+02  0.00000000000E+00 0.  1.
</event>
<event>
 7    1  0.5779468E-006  0.5389869E+02  0.7818608E-02  0.1508051E+00
          2   -1    0    0  502    0  0.00000000000E+00  0.00000000000E+00  0.35418258514E+03  0.35418258514E+03  0.00000000000E+00 0. -1.
          1   -1    0    0  501    0 -0.00000000000E+00 -0.00000000000E+00 -0.30352910145E+03  0.30352910145E+03  0.00000000000E+00 0. -1.
         25    2    1    2    0    0 -0.15402404136E+02 -0.65100479575E+02 -0.13232750547E+03  0.19395016385E+03  0.12502316129E+03 0.  0.
          2    1    1    2  501    0  0.32936589716E+02  0.41106808660E+02 -0.13473148211E+03  0.14466223049E+03  0.00000000000E+00 0. -1.
          1    1    1    2  502    0 -0.17534185580E+02  0.23993670915E+02  0.31771247128E+03  0.31909929225E+03  0.00000000000E+00 0. -1.
         22    1    3    3    0    0  0.38797449984E+02 -0.44284997919E+02 -0.11629236768E+02  0.60013684387E+02  0.00000000000E+00 0.  1.
         22    1    3    3    0    0 -0.54199854120E+02 -0.20815481657E+02 -0.12069826870E+03  0.13393647946E+03  0.00000000000E+00 0.  1.
</event>
<event>
 7    1  0.5779468E-006  0.1268275E+03  0.7818608E-02  0.1266702E+00
          2   -1    0    0  502    0  0.00000000000E+00  0.00000000000E+00  0.34652160339E+03  0.34652160339E+03  0.00000000000E+00 0. -1.
          1   -1    0    0  501    0 -0.00000000000E+00 -0.00000000000E+00 -0.58395007212E+03  0.58395007212E+03  0.00000000000E+00 0. -1.
         25    2    1    2    0    0  0.89545385384E+02  0.15269369951E+03 -0.41377101095E+03  0.46708166683E+03  0.12500036826E+03 0.  0.
          2    1    1    2  501    0 -0.72512968608E+02 -0.64465295884E+02 -0.11965751732E+03  0.15405137598E+03  0.00000000000E+00 0. -1.
          1    1    1    2  502    0 -0.17032416776E+02 -0.88228403623E+02  0.29600005955E+03  0.30933863270E+03  0.00000000000E+00 0. -1.
         22    1    3    3    0    0 -0.30761001112E+01  0.11647834618E+03 -0.20402004610E+03  0.23494860445E+03  0.00000000000E+00 0.  1.
         22    1    3    3    0    0  0.92621485496E+02  0.36215353325E+02 -0.20975096485E+03  0.23213306237E+03  0.00000000000E+00 0.  1.
</event>
<event>
 7    1  0.5779468E-006  0.5618784E+02  0.7818608E-02  0.1428612E+00
          2   -1    0    0  502    0  0.00000000000E+00  0.00000000000E+00  0.48300842238E+02  0.48300842238E+02  0.00000000000E+00 0. -1.
          1   -1    0    0  501    0 -0.00000000000E+00 -0.00000000000E+00 -0.10700218609E+04  0.10700218609E+04  0.00000000000E+00 0. -1.
         25    2    1    2    0    0 -0.38373087951E+01  0.51034622027E+02 -0.18887102950E+03  0.23219896022E+03  0.12499933504E+03 0.  0.
          2    1    1    2  501    0 -0.46824694491E+02 -0.18768355226E+02 -0.82384487785E+03  0.82538790029E+03  0.00000000000E+00 0. -1.
          1    1    1    2  502    0  0.50662003286E+02 -0.32266266801E+02 -0.90051113109E+01  0.60735842630E+02  0.00000000000E+00 0. -1.
         22    1    3    3    0    0  0.16567683669E+02  0.89722914773E+02 -0.13162088550E+03  0.16015226217E+03  0.00000000000E+00 0. -1.
         22    1    3    3    0    0 -0.20404992464E+02 -0.38688292746E+02 -0.57250144001E+02  0.72046698059E+02  0.00000000000E+00 0. -1.
</event>
<event>
 7    1  0.5779468E-006  0.3077752E+02  0.7818608E-02  0.1620489E+00
          2   -1    0    0  502    0  0.00000000000E+00  0.00000000000E+00  0.77739399741E+03  0.77739399741E+03  0.00000000000E+00 0. -1.
          1   -1    0    0  501    0 -0.00000000000E+00 -0.00000000000E+00 -0.53599324748E+03  0.53599324748E+03  0.00000000000E+00 0. -1.
         25    2    1    2    0    0 -0.55857133075E+02  0.61920467610E+01 -0.81800119316E+02  0.15958199499E+03  0.12496716708E+03 0.  0.
          2    1    1    2  501    0  0.25191591672E+02 -0.45315333850E+01 -0.41458806209E+03  0.41537743356E+03  0.00000000000E+00 0. -1.
          1    1    1    2  502    0  0.30665541403E+02 -0.16605133760E+01  0.73778893133E+03  0.73842781633E+03  0.00000000000E+00 0. -1.
         22    1    3    3    0    0  0.24524912555E+02  0.33334116406E+02 -0.58394186446E+02  0.71571751852E+02  0.00000000000E+00 0.  1.
         22    1    3    3    0    0 -0.80382045630E+02 -0.27142069645E+02 -0.23405932870E+02  0.88010243141E+02  0.00000000000E+00 0.  1.
</event>
<event>
 7    1  0.5779468E-006  0.1369697E+03  0.7818608E-02  0.1258457E+00
          2   -1    0    0  502    0  0.00000000000E+00  0.00000000000E+00  0.10432517246E+04  0.10432517246E+04  0.00000000000E+00 0. -1.
          1   -1    0    0  501    0 -0.00000000000E+00 -0.00000000000E+00 -0.58586634324E+03  0.58586634324E+03  0.00000000000E+00 0. -1.
         25    2    1    2    0    0 -0.43729800938E+02 -0.29043259996E+02 -0.29820254536E+02  0.13881847715E+03  0.12500206229E+03 0.  0.
          2    1    1    2  501    0 -0.64727260182E+02 -0.62813918868E+02 -0.49232115647E+03  0.50051506243E+03  0.00000000000E+00 0. -1.
          1    1    1    2  502    0  0.10845706112E+03  0.91857178864E+02  0.97952679234E+03  0.98978452823E+03  0.00000000000E+00 0. -1.
         22    1    3    3    0    0 -0.34984336075E+01 -0.16846069075E+02  0.47658543425E+02  0.50669180399E+02  0.00000000000E+00 0.  1.
         22    1    3    3    0    0 -0.40231367331E+02 -0.12197190921E+02 -0.77478797961E+02  0.88149296748E+02  0.00000000000E+00 0.  1.
</event>
<event>
 7    1  0.5779468E-006  0.3764669E+02  0.7818608E-02  0.1573798E+00
          2   -1    0    0  502    0  0.00000000000E+00  0.00000000000E+00  0.18303137857E+03  0.18303137857E+03  0.00000000000E+00 0. -1.
          1   -1    0    0  501    0 -0.00000000000E+00 -0.00000000000E+00 -0.64070445592E+03  0.64070445592E+03  0.00000000000E+00 0. -1.
         25    2    1    2    0    0 -0.44689477017E+02  0.14552023902E+02 -0.29568631096E+03  0.32444468983E+03  0.12500020606E+03 0.  0.
          2    1    1    2  501    0  0.22675359911E+02  0.15984304591E+02 -0.32794533649E+03  0.32911671739E+03  0.00000000000E+00 0. -1.
          1    1    1    2  502    0  0.22014117106E+02 -0.30536328493E+02  0.16595857010E+03  0.17017442727E+03  0.00000000000E+00 0. -1.
         22    1    3    3    0    0  0.33153407798E+02 -0.11281598880E+02 -0.17537015562E+03  0.17883264356E+03  0.00000000000E+00 0. -1.
         22    1    3    3    0    0 -0.77842884815E+02  0.25833622782E+02 -0.12031615533E+03  0.14561204626E+03  0.00000000000E+00 0. -1.
</event>
<event>
 7    1  0.5779468E-006  0.1622094E+03  0.7818608E-02  0.1293923E+00
          2   -1    0    0  502    0  0.00000000000E+00  0.00000000000E+00  0.21195779680E+04  0.21195779680E+04  0.00000000000E+00 0. -1.
          1   -1    0    0  501    0 -0.00000000000E+00 -0.00000000000E+00 -0.72447809610E+03  0.72447809610E+03  0.00000000000E+00 0. -1.
         25    2    1    2    0    0  0.91723913691E+02  0.83465013821E+02  0.59947603942E+03  0.62480089727E+03  0.12499981804E+03 0.  0.
          2    1    1    2  501    0  0.36781605195E+02  0.39850869512E+02 -0.70551076814E+03  0.70759198853E+03  0.00000000000E+00 0. -1.
          1    1    1    2  502    0 -0.12850551889E+03 -0.12331588333E+03  0.15011346006E+04  0.15116631783E+04  0.00000000000E+00 0. -1.
         22    1    3    3    0    0  0.29633759506E+02  0.10512610634E+03  0.40702166526E+03  0.42142175303E+03  0.00000000000E+00 0.  1.
         22    1    3    3    0    0  0.62090154185E+02 -0.21661092520E+02  0.19245437416E+03  0.20337914424E+03  0.00000000000E+00 0.  1.
</event>
<event>
 7    1  0.5779468E-006  0.3430469E+02  0.7818608E-02  0.1572391E+00
          2   -1    0    0  502    0  0.00000000000E+00  0.00000000000E+00  0.18379846746E+04  0.18379846746E+04  0.00000000000E+00 0. -1.
          1   -1    0    0  501    0 -0.00000000000E+00 -0.00000000000E+00 -0.18117507924E+03  0.18117507924E+03  0.00000000000E+00 0. -1.
         25    2    1    2    0    0 -0.30449029570E+01 -0.63574035785E+02  0.33346500471E+03  0.36176684345E+03  0.12500164076E+03 0.  0.
          2    1    1    2  501    0 -0.46618361519E+01  0.33842921172E+02 -0.16511721023E+03  0.16861426139E+03  0.00000000000E+00 0. -1.
          1    1    1    2  502    0  0.77067391088E+01  0.29731114613E+02  0.14884618008E+04  0.14887786490E+04  0.00000000000E+00 0. -1.
         22    1    3    3    0    0 -0.14516986392E+01 -0.48469366652E+02  0.28140741411E+02  0.56065035983E+02  0.00000000000E+00 0.  1.
         22    1    3    3    0    0 -0.15932043178E+01 -0.15104669133E+02  0.30532426330E+03  0.30570180746E+03  0.00000000000E+00 0.  1.
</event>
<event>
 7    1  0.5779468E-006  0.9384197E+02  0.7818608E-02  0.1399906E+00
          2   -1    0    0  502    0  0.00000000000E+00  0.00000000000E+00  0.50365589633E+03  0.50365589633E+03  0.00000000000E+00 0. -1.
          1   -1    0    0  501    0 -0.00000000000E+00 -0.00000000000E+00 -0.40989364721E+03  0.40989364721E+03  0.00000000000E+00 0. -1.
         25    2    1    2    0    0 -0.11450096624E+03  0.62532499115E+02 -0.14793344060E+03  0.23352088022E+03  0.12500765550E+03 0.  0.
          2    1    1    2  501    0  0.31363064177E+02 -0.20985788139E+02 -0.21280373656E+03  0.21612375018E+03  0.00000000000E+00 0. -1.
          1    1    1    2  502    0  0.83137902066E+02 -0.41546710977E+02  0.45449942628E+03  0.46390491314E+03  0.00000000000E+00 0. -1.
         22    1    3    3    0    0 -0.35097371217E+02 -0.23600648569E+02 -0.96920718569E+02  0.10574706505E+03  0.00000000000E+00 0.  1.
         22    1    3    3    0    0 -0.79403595026E+02  0.86133147685E+02 -0.51012722034E+02  0.12777381517E+03  0.00000000000E+00 0.  1.
</event>
<event>
 7    1  0.5779468E-006  0.5661221E+02  0.7818608E-02  0.1472532E+00
          2   -1    0    0  502    0  0.00000000000E+00  0.00000000000E+00  0.61698653393E+03  0.61698653393E+03  0.00000000000E+00 0. -1.
          1   -1    0    0  501    0 -0.00000000000E+00 -0.00000000000E+00 -0.26119828043E+03  0.26119828043E+03  0.00000000000E+00 0. -1.
         25    2    1    2    0    0  0.33282933330E+02 -0.43022385528E+02 -0.43823358858E+02  0.14319148207E+03  0.12499853779E+03 0.  0.
          2    1    1    2  501    0  0.21770075078E+02  0.28964889788E+02 -0.16428904250E+03  0.16823730411E+03  0.00000000000E+00 0. -1.
          1    1    1    2  502    0 -0.55053008408E+02  0.14057495740E+02  0.56390065485E+03  0.56675602817E+03  0.00000000000E+00 0. -1.
         22    1    3    3    0    0  0.41046601082E+02 -0.18330457075E+02 -0.84073452541E+02  0.95337162424E+02  0.00000000000E+00 0. -1.
         22    1    3    3    0    0 -0.77636677517E+01 -0.24691928453E+02  0.40250093683E+02  0.47854319650E+02  0.00000000000E+00 0. -1.
</event>
<event>
 7    1  0.5779468E-006  0.1289483E+03  0.7818608E-02  0.1316216E+00
          2   -1    0    0  502    0  0.00000000000E+00  0.00000000000E+00  0.16910425025E+04  0.16910425025E+04  0.00000000000E+00 0. -1.
          1   -1    0    0  501    0 -0.00000000000E+00 -0.00000000000E+00 -0.24129639137E+04  0.24129639137E+04  0.00000000000E+00 0. -1.
         25    2    1    2    0    0 -0.12436945370E+03 -0.74932679430E+02 -0.20523176113E+04  0.20612413826E+04  0.12500316958E+03 0.  0.
          2    1    1    2  501    0  0.47658311014E+02 -0.28708240033E+02 -0.35152893376E+03  0.35590457840E+03  0.00000000000E+00 0. -1.
          1    1    1    2  502    0  0.76711142691E+02  0.10364091946E+03  0.16819251338E+04  0.16868604552E+04  0.00000000000E+00 0. -1.
         22    1    3    3    0    0 -0.49970657790E+02 -0.69660651743E+02 -0.51269849882E+03  0.51981672129E+03  0.00000000000E+00 0.  1.
         22    1    3    3    0    0 -0.74398795914E+02 -0.52720276874E+01 -0.15396191125E+04  0.15414246613E+04  0.00000000000E+00 0.  1.
</event>
<event>
 7    1  0.5779468E-006  0.1454979E+03  0.7818608E-02  0.1375751E+00
          2   -1    0    0  502    0  0.00000000000E+00  0.00000000000E+00  0.67720565873E+03  0.67720565873E+03  0.00000000000E+00 0. -1.
          1   -1    0    0  501    0 -0.00000000000E+00 -0.00000000000E+00 -0.97772428873E+03  0.97772428873E+03  0.00000000000E+00 0. -1.
         25    2    1    2    0    0 -0.31615104917E+02  0.11517856057E+03  0.16209534513E+03  0.23699272616E+03  0.12500014267E+03 0.  0.
          2    1    1    2  501    0  0.25257580109E+02 -0.14405833275E+03 -0.93412223870E+03  0.94550256764E+03  0.00000000000E+00 0. -1.
          1    1    1    2  502    0  0.63575248087E+01  0.28879772181E+02  0.47150826357E+03  0.47243465365E+03  0.00000000000E+00 0. -1.
         22    1    3    3    0    0 -0.12047952052E+02  0.12234108745E+03  0.17396123476E+03  0.21301409819E+03  0.00000000000E+00 0. -1.
         22    1    3    3    0    0 -0.19567152866E+02 -0.71625268875E+01 -0.11865889632E+02  0.23978627973E+02  0.00000000000E+00 0. -1.
</event>
<event>
 7    1  0.5779468E-006  0.5377797E+02  0.7818608E-02  0.1437605E+00
          2   -1    0    0  502    0  0.00000000000E+00  0.00000000000E+00  0.37128292750E+04  0.37128292750E+04  0.00000000000E+00 0. -1.
          1   -1    0    0  501    0 -0.00000000000E+00 -0.00000000000E+00 -0.56182758789E+03  0.56182758789E+03  0.00000000000E+00 0. -1.
         25    2    1    2    0    0  0.34205246486E+02 -0.46172705863E+02  0.28662244052E+03  0.31792931428E+03  0.12499883126E+03 0.  0.
          2    1    1    2  501    0  0.14719230894E+02  0.51809500712E+02 -0.54466804614E+03  0.54732454778E+03  0.00000000000E+00 0. -1.
          1    1    1    2  502    0 -0.48924477381E+02 -0.56367948497E+01  0.34090472928E+04  0.34094030009E+04  0.00000000000E+00 0. -1.
         22    1    3    3    0    0 -0.42673795718E+02 -0.14860100338E+02  0.51138339565E+02  0.68242253747E+02  0.00000000000E+00 0.  1.
         22    1    3    3    0    0  0.76879042205E+02 -0.31312605525E+02  0.23548410096E+03  0.24968706053E+03  0.00000000000E+00 0.  1.
</event>
<event>
 7    1  0.5779468E-006  0.6327083E+02  0.7818608E-02  0.1481869E+00
          2   -1    0    0  502    0  0.00000000000E+00  0.00000000000E+00  0.90862571393E+03  0.90862571393E+03  0.00000000000E+00 0. -1.
          1   -1    0    0  501    0 -0.00000000000E+00 -0.00000000000E+00 -0.16892338624E+03  0.16892338624E+03  0.00000000000E+00 0. -1.
         25    2    1    2    0    0  0.70731748627E+02  0.41210122010E+02 -0.11747821878E+03  0.19005970187E+03  0.12498121446E+03 0.  0.
          2    1    1    2  501    0 -0.87483893488E+01 -0.29055314312E+02  0.24656977736E+01  0.30443805142E+02  0.00000000000E+00 0. -1.
          1    1    1    2  502    0 -0.61983359279E+02 -0.12154807698E+02  0.85471484870E+03  0.85704559316E+03  0.00000000000E+00 0. -1.
         22    1    3    3    0    0  0.98749661820E+02  0.46560093288E+02 -0.11900117984E+03  0.16149494977E+03  0.00000000000E+00 0.  1.
         22    1    3    3    0    0 -0.28017913192E+02 -0.53499712774E+01  0.15229610650E+01  0.28564752103E+02  0.00000000000E+00 0.  1.
</event>
<event>
 7    1  0.5779468E-006  0.6554205E+02  0.7818608E-02  0.1403668E+00
          2   -1    0    0  502    0  0.00000000000E+00  0.00000000000E+00  0.29126074144E+03  0.29126074144E+03  0.00000000000E+00 0. -1.
          1   -1    0    0  501    0 -0.00000000000E+00 -0.00000000000E+00 -0.16606606930E+03  0.16606606930E+03  0.00000000000E+00 0. -1.
         25    2    1    2    0    0 -0.41704873850E+02 -0.23586895860E+02  0.59977013142E+02  0.14668447828E+03  0.12499382347E+03 0.  0.
          2    1    1    2  501    0 -0.25279304220E+02  0.45954599859E+02 -0.10992590252E+03  0.12179725988E+03  0.00000000000E+00 0. -1.
          1    1    1    2  502    0  0.66984178070E+02 -0.22367703999E+02  0.17514356152E+03  0.18884507257E+03  0.00000000000E+00 0. -1.
         22    1    3    3    0    0  0.37444665189E+02 -0.27422161013E+02  0.47599007102E+02  0.66481150282E+02  0.00000000000E+00 0. -1.
         22    1    3    3    0    0 -0.79149539039E+02  0.38352651530E+01  0.12378006040E+02  0.80203328001E+02  0.00000000000E+00 0. -1.
</event>
<event>
 7    1  0.5779468E-006  0.1636434E+03  0.7818608E-02  0.1297395E+00
          2   -1    0    0  502    0  0.00000000000E+00  0.00000000000E+00  0.15710626378E+04  0.15710626378E+04  0.00000000000E+00 0. -1.
          1   -1    0    0  501    0 -0.00000000000E+00 -0.00000000000E+00 -0.16019321277E+04  0.16019321277E+04  0.00000000000E+00 0. -1.
         25    2    1    2    0    0  0.14634591281E+03 -0.57466281584E+01  0.25569980641E+03  0.32008423344E+03  0.12498550143E+03 0.  0.
          2    1    1    2  501    0  0.15343564764E+02  0.49737774503E+02 -0.15638345021E+04  0.15647004893E+04  0.00000000000E+00 0. -1.
          1    1    1    2  502    0 -0.16168947757E+03 -0.43991146345E+02  0.12772652059E+04  0.12882100427E+04  0.00000000000E+00 0. -1.
         22    1    3    3    0    0  0.20560819619E+02 -0.35249753699E+02  0.14276943983E+03  0.14848705461E+03  0.00000000000E+00 0.  1.
         22    1    3    3    0    0  0.12578509319E+03  0.29503125541E+02  0.11293036658E+03  0.17159717883E+03  0.00000000000E+00 0.  1.
</event>
<event>
 7    1  0.5779468E-006  0.6113783E+02  0.7818608E-02  0.1491226E+00
          2   -1    0    0  502    0  0.00000000000E+00  0.00000000000E+00  0.12579780807E+04  0.12579780807E+04  0.00000000000E+00 0. -1.
          1   -1    0    0  501    0 -0.00000000000E+00 -0.00000000000E+00 -0.22693720694E+04  0.22693720694E+04  0.00000000000E+00 0. -1.
         25    2    1    2    0    0 -0.59689672524E+02  0.53082194659E+02  0.10483928885E+04  0.10588357324E+04  0.12499953270E+03 0.  0.
          2    1    1    2  501    0  0.56279732405E+02 -0.23869006326E+02 -0.22626774611E+04  0.22635031325E+04  0.00000000000E+00 0. -1.
          1    1    1    2  502    0  0.34099401187E+01 -0.29213188333E+02  0.20289058394E+03  0.20501128533E+03  0.00000000000E+00 0. -1.
         22    1    3    3    0    0 -0.28535859122E+02 -0.40128687504E+01  0.84076616684E+03  0.84125985621E+03  0.00000000000E+00 0.  1.
         22    1    3    3    0    0 -0.31153813402E+02  0.57095063410E+02  0.20762672161E+03  0.21757587615E+03  0.00000000000E+00 0.  1.
</event>
<event>
 7    1  0.5779468E-006  0.1718875E+03  0.7818608E-02  0.1191607E+00
          2   -1    0    0  502    0  0.00000000000E+00  0.00000000000E+00  0.98931397822E+03  0.98931397822E+03  0.00000000000E+00 0. -1.
          1   -1    0    0  501    0 -0.00000000000E+00 -0.00000000000E+00 -0.36616589429E+04  0.36616589429E+04  0.00000000000E+00 0. -1.
         25    2    1    2    0    0 -0.24310360483E+03  0.12425879158E+03 -0.11313129228E+02  0.30048400906E+03  0.12499217112E+03 0.  0.
          2    1    1    2  501    0  0.14379375533E+03  0.11125915225E+02 -0.34959154633E+04  0.34988891604E+04  0.00000000000E+00 0. -1.
          1    1    1    2  502    0  0.99309849496E+02 -0.13538470681E+03  0.83488362784E+03  0.85159975169E+03  0.00000000000E+00 0. -1.
         22    1    3    3    0    0 -0.15604203751E+03  0.93376014097E+02  0.51231480183E+02  0.18892554629E+03  0.00000000000E+00 0.  1.
         22    1    3    3    0    0 -0.87061567315E+02  0.30882777484E+02 -0.62544609411E+02  0.11155846277E+03  0.00000000000E+00 0.  1.
</event>
<event>
 7    1  0.5779468E-006  0.1004800E+03  0.7818608E-02  0.1403617E+00
          2   -1    0    0  502    0  0.00000000000E+00  0.00000000000E+00  0.21487210048E+04  0.21487210048E+04  0.00000000000E+00 0. -1.
          1   -1    0    0  501    0 -0.00000000000E+00 -0.00000000000E+00 -0.17812498797E+03  0.17812498797E+03  0.00000000000E+00 0. -1.
         25    2    1    2    0    0  0.11813230919E+03  0.46201375666E+02  0.13877573811E+03  0.22577294938E+03  0.12499963840E+03 0.  0.
          2    1    1    2  501    0 -0.84154472048E+02 -0.50310936602E+02 -0.11660458167E+03  0.15234760902E+03  0.00000000000E+00 0. -1.
          1    1    1    2  502    0 -0.33977837137E+02  0.41095609364E+01  0.19484248604E+04  0.19487254343E+04  0.00000000000E+00 0. -1.
         22    1    3    3    0    0  0.40478169494E+02  0.83934166713E+01  0.13292629784E+03  0.13920607855E+03  0.00000000000E+00 0. -1.
         22    1    3    3    0    0  0.77654139692E+02  0.37807958995E+02  0.58494402727E+01  0.86566870834E+02  0.00000000000E+00 0. -1.
</event>
<event>
 7    1  0.5779468E-006  0.4612213E+02  0.7818608E-02  0.1564859E+00
          2   -1    0    0  502    0  0.00000000000E+00  0.00000000000E+00  0.10601131526E+03  0.10601131526E+03  0.00000000000E+00 0. -1.
          1   -1    0    0  501    0 -0.00000000000E+00 -0.00000000000E+00 -0.11918433025E+04  0.11918433025E+04  0.00000000000E+00 0. -1.
         25    2    1    2    0    0  0.23780674731E+02 -0.17628830098E+02 -0.81788408621E+02  0.15228377637E+03  0.12499883447E+03 0.  0.
          2    1    1    2  501    0 -0.20939787295E+02  0.41408138264E+02 -0.10722647710E+04  0.10732683018E+04  0.00000000000E+00 0. -1.
          1    1    1    2  502    0 -0.28408874355E+01 -0.23779308166E+02  0.68221192368E+02  0.72302539557E+02  0.00000000000E+00 0. -1.
         22    1    3    3    0    0  0.29482247609E+02 -0.30505889179E+02  0.21831046683E+02  0.47711705042E+02  0.00000000000E+00 0.  1.
         22    1    3    3    0    0 -0.57015728782E+01  0.12877059081E+02 -0.10361945530E+03  0.10457207133E+03  0.00000000000E+00 0.  1.
</event>
<event>
 7    1  0.5779468E-006  0.1636315E+03  0.7818608E-02  0.1300932E+00
          2   -1    0    0  502    0  0.00000000000E+00  0.00000000000E+00  0.20570852753E+04  0.20570852753E+04  0.00000000000E+00 0. -1.
          1   -1    0    0  501    0 -0.00000000000E+00 -0.00000000000E+00 -0.86453173718E+03  0.86453173718E+03  0.00000000000E+00 0. -1.
         25    2    1    2    0    0  0.17510298584E+03  0.85759968937E+02 -0.22169950911E+02  0.23266548143E+03  0.12500356635E+03 0.  0.
          2    1    1    2  501    0 -0.47805024309E+02  0.15908392889E+02 -0.73284808101E+03  0.73457791088E+03  0.00000000000E+00 0. -1.
          1    1    1    2  502    0 -0.12729796153E+03 -0.10166836183E+03  0.19475715700E+04  0.19543736202E+04  0.00000000000E+00 0. -1.
         22    1    3    3    0    0  0.51715837887E+02 -0.87468484746E+01 -0.52612117410E+02  0.74290444506E+02  0.00000000000E+00 0. -1.
         22    1    3    3    0    0  0.12338714796E+03  0.94506817412E+02  0.30442166499E+02  0.15837503692E+03  0.00000000000E+00 0. -1.
</event>
<event>
 7    1  0.5779468E-006  0.1582540E+03  0.7818608E-02  0.1222059E+00
          2   -1    0    0  502    0  0.00000000000E+00  0.00000000000E+00  0.29409977831E+03  0.29409977831E+03  0.00000000000E+00 0. -1.
          1   -1    0    0  501    0 -0.00000000000E+00 -0.00000000000E+00 -0.33941566699E+04  0.33941566699E+04  0.00000000000E+00 0. -1.
         25    2    1    2    0    0  0.22717955563E+03 -0.90877371204E+02 -0.97180238393E+03  0.10098977719E+04  0.12499755652E+03 0.  0.
          2    1    1    2  501    0 -0.11193400926E+03 -0.15223107215E+02 -0.23795536523E+04  0.23822335212E+04  0.00000000000E+00 0. -1.
          1    1    1    2  502    0 -0.11524554637E+03  0.10610047842E+03  0.25129914457E+03  0.29612515520E+03  0.00000000000E+00 0. -1.
         22    1    3    3    0    0  0.66344354947E+02  0.11165787754E+02 -0.43785246147E+03  0.44299100021E+03  0.00000000000E+00 0.  1.
         22    1    3    3    0    0  0.16083520068E+03 -0.10204315896E+03 -0.53394992246E+03  0.56690677167E+03  0.00000000000E+00 0.  1.
</event>
<event>
 7    1  0.5779468E-006  0.4779624E+02  0.7818608E-02  0.1473070E+00
          2   -1    0    0  502    0  0.00000000000E+00  0.00000000000E+00  0.18142844288E+04  0.18142844288E+04  0.00000000000E+00 0. -1.
          1   -1    0    0  501    0 -0.00000000000E+00 -0.00000000000E+00 -0.28286794775E+04  0.28286794775E+04  0.00000000000E+00 0. -1.
         25    2    1    2    0    0  0.15945780058E+02 -0.87503311100E+02  0.36464612858E+02  0.15768869889E+03  0.12499984165E+03 0.  0.
          2    1    1    2  501    0  0.21367705917E+00  0.42752434878E+02 -0.27675727314E+04  0.27679029318E+04  0.00000000000E+00 0. -1.
          1    1    1    2  502    0 -0.16159457117E+02  0.44750876222E+02  0.17167130698E+04  0.17173722756E+04  0.00000000000E+00 0. -1.
         22    1    3    3    0    0 -0.27731795048E+02 -0.11116247918E+02 -0.33779805622E+02  0.45096548562E+02  0.00000000000E+00 0. -1.
         22    1    3    3    0    0  0.43677575106E+02 -0.76387063182E+02  0.70244418480E+02  0.11259215033E+03  0.00000000000E+00 0. -1.
</event>
<event>
 7    1  0.5779468E-006  0.1245690E+03  0.7818608E-02  0.1360144E+00
          2   -1    0    0  502    0  0.00000000000E+00  0.00000000000E+00  0.19611753380E+04  0.19611753380E+04  0.00000000000E+00 0. -1.
          1   -1    0    0  501    0 -0.00000000000E+00 -0.00000000000E+00 -0.44451219312E+03  0.44451219312E+03  0.00000000000E+00 0. -1.
         25    2    1    2    0    0  0.14684787822E+03 -0.51797926010E+02  0.41914115140E+03  0.46427514174E+03  0.12499911186E+03 0.  0.
          2    1    1    2  501    0 -0.27898376847E+02  0.27706512929E+02 -0.41859901012E+03  0.42044155547E+03  0.00000000000E+00 0. -1.
          1    1    1    2  502    0 -0.11894950137E+03  0.24091413081E+02  0.15161210036E+04  0.15209708340E+04  0.00000000000E+00 0. -1.
         22    1    3    3    0    0  0.10352006491E+03 -0.39313033232E+02  0.12624166132E+03  0.16792520797E+03  0.00000000000E+00 0. -1.
         22    1    3    3    0    0  0.43327813308E+02 -0.12484892778E+02  0.29289949008E+03  0.29634993377E+03  0.00000000000E+00 0. -1.
</event>
<event>
 7    1  0.5779468E-006  0.8494949E+02  0.7818608E-02  0.1341238E+00
          2   -1    0    0  502    0  0.00000000000E+00  0.00000000000E+00  0.65841525862E+02  0.65841525862E+02  0.00000000000E+00 0. -1.
          1   -1    0    0  501    0 -0.00000000000E+00 -0.00000000000E+00 -0.37696106725E+03  0.37696106725E+03  0.00000000000E+00 0. -1.
         25    2    1    2    0    0  0.38249813379E+02 -0.40912956467E+02 -0.15572839116E+03  0.20740351130E+03  0.12501186526E+03 0.  0.
          2    1    1    2  501    0  0.47577845365E+02  0.70375880373E+02 -0.61890887504E+02  0.10510422382E+03  0.00000000000E+00 0. -1.
          1    1    1    2  502    0 -0.85827658744E+02 -0.29462923906E+02 -0.93500262726E+02  0.13029485800E+03  0.00000000000E+00 0. -1.
         22    1    3    3    0    0  0.23371467307E+02 -0.68198988654E+02 -0.30332656338E+02  0.78213794039E+02  0.00000000000E+00 0.  1.
         22    1    3    3    0    0  0.14878346072E+02  0.27286032187E+02 -0.12539573482E+03  0.12918971726E+03  0.00000000000E+00 0.  1.
</event>
<event>
 7    1  0.5779468E-006  0.9735879E+02  0.7818608E-02  0.1318893E+00
          2   -1    0    0  502    0  0.00000000000E+00  0.00000000000E+00  0.31803067251E+04  0.31803067251E+04  0.00000000000E+00 0. -1.
          1   -1    0    0  501    0 -0.00000000000E+00 -0.00000000000E+00 -0.30011367488E+03  0.30011367488E+03  0.00000000000E+00 0. -1.
         25    2    1    2    0    0  0.95911092212E+02 -0.95003062562E+02  0.21190776685E+03  0.28063091864E+03  0.12499716533E+03 0.  0.
          2    1    1    2  501    0 -0.93869525979E+02  0.23091142877E+02 -0.25650433370E+03  0.27411523489E+03  0.00000000000E+00 0. -1.
          1    1    1    2  502    0 -0.20415662327E+01  0.71911919685E+02  0.29247896171E+04  0.29256742465E+04  0.00000000000E+00 0. -1.
         22    1    3    3    0    0  0.21184008895E+02 -0.60670511568E+02  0.13235898209E+02  0.65611448758E+02  0.00000000000E+00 0.  1.
         22    1    3    3    0    0  0.74727083317E+02 -0.34332550994E+02  0.19867186864E+03  0.21501946988E+03  0.00000000000E+00 0.  1.
</event>
<event>
 7    1  0.5779468E-006  0.5363019E+02  0.7818608E-02  0.1452631E+00
          2   -1    0    0  502    0  0.00000000000E+00  0.00000000000E+00  0.27467518447E+04  0.27467518447E+04  0.00000000000E+00 0. -1.
          1   -1    0    0  501    0 -0.00000000000E+00 -0.00000000000E+00 -0.29401853201E+02  0.29401853201E+02  0.00000000000E+00 0. -1.
         25    2    1    2    0    0  0.29341293345E+02  0.55946104004E+01  0.11366647220E+04  0.11439072200E+04  0.12499930603E+03 0.  0.
          2    1    1    2  501    0  0.14850955939E+01  0.44149655168E+02 -0.59136066534E+01  0.44568691971E+02  0.00000000000E+00 0. -1.
          1    1    1    2  502    0 -0.30826388939E+02 -0.49744265568E+02  0.15865988761E+04  0.15876777859E+04  0.00000000000E+00 0. -1.
         22    1    3    3    0    0 -0.45612157756E+02  0.10129319067E+02  0.62725997076E+03  0.62899772890E+03  0.00000000000E+00 0.  1.
         22    1    3    3    0    0  0.74953451101E+02 -0.45347086667E+01  0.50940475129E+03  0.51490949112E+03  0.00000000000E+00 0.  1.
</event>
<event>
 7    1  0.5779468E-006  0.9906972E+02  0.7818608E-02  0.1360770E+00
          2   -1    0    0  502    0  0.00000000000E+00  0.00000000000E+00  0.18156093670E+04  0.18156093670E+04  0.00000000000E+00 0. -1.
          1   -1    0    0  501    0 -0.00000000000E+00 -0.00000000000E+00 -0.81432260785E+03  0.81432260785E+03  0.00000000000E+00 0. -1.
         25    2    1    2    0    0  0.71480267260E+02  0.12797974059E+03 -0.25835577638E+01  0.19266315292E+03  0.12499669241E+03 0.  0.
          2    1    1    2  501    0 -0.47999585561E+02 -0.84767440058E+02 -0.71303538391E+03  0.71965890380E+03  0.00000000000E+00 0. -1.
          1    1    1    2  502    0 -0.23480681699E+02 -0.43212300535E+02  0.17169057008E+04  0.17176099181E+04  0.00000000000E+00 0. -1.
         22    1    3    3    0    0  0.76849620920E+02  0.10584377756E+03  0.46283896082E+02  0.13874785951E+03  0.00000000000E+00 0.  1.
         22    1    3    3    0    0 -0.53693536596E+01  0.22135963033E+02 -0.48867453845E+02  0.53915293410E+02  0.00000000000E+00 0.  1.
</event>
<event>
 7    1  0.5779468E-006  0.9301924E+02  0.7818608E-02  0.1462405E+00
          2   -1    0    0  502    0  0.00000000000E+00  0.00000000000E+00  0.89050043137E+03  0.89050043137E+03  0.00000000000E+00 0. -1.
          1   -1    0    0  501    0 -0.00000000000E+00 -0.00000000000E+00 -0.14592683029E+03  0.14592683029E+03  0.00000000000E+00 0. -1.
         25    2    1    2    0    0 -0.69162357727E+02  0.28599859852E+02  0.27824505103E+03  0.31408133068E+03  0.12500156058E+03 0.  0.
          2    1    1    2  501    0 -0.16630681488E+02  0.16909712274E+02 -0.12290004627E+03  0.12516764482E+03  0.00000000000E+00 0. -1.
          1    1    1    2  502    0  0.85793039215E+02 -0.45509572125E+02  0.58922859633E+03  0.59717828616E+03  0.00000000000E+00 0. -1.
         22    1    3    3    0    0 -0.99023405645E+02 -0.16724314356E+01  0.22579680241E+03  0.24656161070E+03  0.00000000000E+00 0. -1.
         22    1    3    3    0    0  0.29861047918E+02  0.30272291287E+02  0.52448248613E+02  0.67519719972E+02  0.00000000000E+00 0. -1.
</event>
<event>
 7    1  0.5779468E-006  0.9827892E+02  0.7818608E-02  0.1312718E+00
          2   -1    0    0  502    0  0.00000000000E+00  0.00000000000E+00  0.78566468818E+03  0.78566468818E+03  0.00000000000E+00 0. -1.
          1   -1    0    0  501    0 -0.00000000000E+00 -0.00000000000E+00 -0.10725259525E+04  0.10725259525E+04  0.00000000000E+00 0. -1.
         25    2    1    2    0    0 -0.66235337130E+02  0.15883883108E+03 -0.89894985731E+02  0.23091731927E+03  0.12499922295E+03 0.  0.
          2    1    1    2  501    0  0.29864112544E+02 -0.69164750223E+02 -0.90727787761E+03  0.91040033782E+03  0.00000000000E+00 0. -1.
          1    1    1    2  502    0  0.36371224587E+02 -0.89674080856E+02  0.71031159907E+03  0.71687298354E+03  0.00000000000E+00 0. -1.
         22    1    3    3    0    0 -0.16713487743E+02  0.15976117358E+03 -0.83307977248E+02  0.18095080085E+03  0.00000000000E+00 0.  1.
         22    1    3    3    0    0 -0.49521849387E+02 -0.92234250093E+00 -0.65870084839E+01  0.49966518421E+02  0.00000000000E+00 0.  1.
</event>
<event>
 7    1  0.5779468E-006  0.1060151E+03  0.7818608E-02  0.1283379E+00
          2   -1    0    0  502    0  0.00000000000E+00  0.00000000000E+00  0.63842213884E+03  0.63842213884E+03  0.00000000000E+00 0. -1.
          1   -1    0    0  501    0 -0.00000000000E+00 -0.00000000000E+00 -0.21076163761E+03  0.21076163761E+03  0.00000000000E+00 0. -1.
         25    2    1    2    0    0  0.13821492821E+03  0.10657164594E+03 -0.13293992420E+01  0.21468664118E+03  0.12501081754E+03 0.  0.
          2    1    1    2  501    0 -0.37374009157E+02 -0.83636072916E+02 -0.75998844720E+02  0.11902786922E+03  0.00000000000E+00 0. -1.
          1    1    1    2  502    0 -0.10084091905E+03 -0.22935573020E+02  0.50498874519E+03  0.51546926604E+03  0.00000000000E+00 0. -1.
         22    1    3    3    0    0  0.17566404679E+02  0.41091016382E+02 -0.51815570113E+02  0.68424436474E+02  0.00000000000E+00 0. -1.
         22    1    3    3    0    0  0.12064852353E+03  0.65480629555E+02  0.50486170871E+02  0.14626220471E+03  0.00000000000E+00 0. -1.
</event>
<event>
 7    1  0.5779468E-006  0.1032496E+03  0.7818608E-02  0.1298050E+00
          2   -1    0    0  502    0  0.00000000000E+00  0.00000000000E+00  0.62515196074E+03  0.62515196074E+03  0.00000000000E+00 0. -1.
          1   -1    0    0  501    0 -0.00000000000E+00 -0.00000000000E+00 -0.18500577028E+03  0.18500577028E+03  0.00000000000E+00 0. -1.
         25    2    1    2    0    0 -0.94490502301E+01 -0.66458616039E+02  0.30937580731E+03  0.34035912627E+03  0.12499964996E+03 0.  0.
          2    1    1    2  501    0 -0.32021292329E+02 -0.75487879474E+02 -0.13944338913E+03  0.16176600966E+03  0.00000000000E+00 0. -1.
          1    1    1    2  502    0  0.41470342559E+02  0.14194649551E+03  0.27021377229E+03  0.30803259509E+03  0.00000000000E+00 0. -1.
         22    1    3    3    0    0 -0.59469034037E+02 -0.54305255516E+02  0.12310765082E+03  0.14710921275E+03  0.00000000000E+00 0.  1.
         22    1    3    3    0    0  0.50019983807E+02 -0.12153360523E+02  0.18626815649E+03  0.19324991351E+03  0.00000000000E+00 0.  1.
</event>
<event>
 7    1  0.5779468E-006  0.1035215E+03  0.7818608E-02  0.1298106E+00
          2   -1    0    0  502    0  0.00000000000E+00  0.00000000000E+00  0.12065060403E+04  0.12065060403E+04  0.00000000000E+00 0. -1.
          1   -1    0    0  501    0 -0.00000000000E+00 -0.00000000000E+00 -0.10584664821E+04  0.10584664821E+04  0.00000000000E+00 0. -1.
         25    2    1    2    0    0  0.81897808208E+02 -0.15097929995E+03  0.61302641165E+03  0.64879509957E+03  0.12502679652E+03 0.  0.
          2    1    1    2  501    0 -0.37603634501E+02  0.72577370993E+02 -0.10354396201E+04  0.10386610202E+04  0.00000000000E+00 0. -1.
          1    1    1    2  502    0 -0.44294173707E+02  0.78401928956E+02  0.57045276662E+03  0.57751640256E+03  0.00000000000E+00 0. -1.
         22    1    3    3    0    0  0.45615223374E+02 -0.34221875765E+02  0.61461619190E+02  0.83841612686E+02  0.00000000000E+00 0. -1.
         22    1    3    3    0    0  0.36282584834E+02 -0.11675742418E+03  0.55156479246E+03  0.56495348689E+03  0.00000000000E+00 0. -1.
</event>
<event>
 7    1  0.9128802E-006  0.7845011E+02  0.7818608E-02  0.1395891E+00
          2   -1    0    0  502    0  0.00000000000E+00  0.00000000000E+00  0.14220754814E+04  0.14220754814E+04  0.00000000000E+00 0. -1.
          1   -1    0    0  501    0 -0.00000000000E+00 -0.00000000000E+00 -0.15636903325E+04  0.15636903325E+04  0.00000000000E+00 0. -1.
         25    2    1    2    0    0  0.46798324146E+02 -0.11330289381E+03 -0.13988439362E+03  0.22409897091E+03  0.12500030520E+03 0.  0.
          2    1    1    2  501    0 -0.21165571336E+02  0.74382572621E+02 -0.13802224395E+04  0.13823873304E+04  0.00000000000E+00 0. -1.
          1    1    1    2  502    0 -0.25632752810E+02  0.38920321185E+02  0.13784919821E+04  0.13792795127E+04  0.00000000000E+00 0. -1.
         22    1    3    3    0    0  0.19983796492E+02 -0.15368877821E+02  0.21697660695E+02  0.33261734882E+02  0.00000000000E+00 0. -1.
         22    1    3    3    0    0  0.26814527654E+02 -0.97934015985E+02 -0.16158205431E+03  0.19083723603E+03  0.00000000000E+00 0. -1.
</event>
<event>
 7    1  0.5779468E-006  0.5032573E+02  0.7818608E-02  0.1557244E+00
          2   -1    0    0  502    0  0.00000000000E+00  0.00000000000E+00  0.17971876490E+04  0.17971876490E+04  0.00000000000E+00 0. -1.
          1   -1    0    0  501    0 -0.00000000000E+00 -0.00000000000E+00 -0.45133007883E+03  0.45133007883E+03  0.00000000000E+00 0. -1.
         25    2    1    2    0    0 -0.13488624885E+02  0.45374833359E+02  0.35330173399E+03  0.37774114427E+03  0.12500175331E+03 0.  0.
          2    1    1    2  501    0 -0.21345637126E+02 -0.86504395516E+01 -0.43836055966E+03  0.43896519975E+03  0.00000000000E+00 0. -1.
          1    1    1    2  502    0  0.34834262011E+02 -0.36724393807E+02  0.14309163959E+04  0.14318113838E+04  0.00000000000E+00 0. -1.
         22    1    3    3    0    0  0.23830264611E+02 -0.96822935152E+01  0.92743429819E+01  0.27343038545E+02  0.00000000000E+00 0.  1.
         22    1    3    3    0    0 -0.37318889496E+02  0.55057126874E+02  0.34402739100E+03  0.35039810572E+03  0.00000000000E+00 0.  1.
</event>
<event>
 7    1  0.5779468E-006  0.1184165E+03  0.7818608E-02  0.1247811E+00
          2   -1    0    0  502    0  0.00000000000E+00  0.00000000000E+00  0.16298298307E+04  0.16298298307E+04  0.00000000000E+00 0. -1.
          1   -1    0    0  501    0 -0.00000000000E+00 -0.00000000000E+00 -0.59987447357E+03  0.59987447357E+03  0.00000000000E+00 0. -1.
         25    2    1    2    0    0 -0.48964666982E+02  0.10751745196E+03  0.13636975792E+03  0.21949883218E+03  0.12500194144E+03 0.  0.
          2    1    1    2  501    0 -0.66774660703E+02 -0.10020673372E+03 -0.54946363239E+03  0.56250380276E+03  0.00000000000E+00 0. -1.
          1    1    1    2  502    0  0.11573932769E+03 -0.73107182433E+01  0.14430492316E+04  0.14477016693E+04  0.00000000000E+00 0. -1.
         22    1    3    3    0    0  0.41036379588E+02  0.17713168350E+02  0.31385030336E+02  0.54614658398E+02  0.00000000000E+00 0. -1.
         22    1    3    3    0    0 -0.90001046570E+02  0.89804283612E+02  0.10498472758E+03  0.16488417378E+03  0.00000000000E+00 0. -1.
</event>
<event>
 7    1  0.5779468E-006  0.9219480E+02  0.7818608E-02  0.1415225E+00
          2   -1    0    0  502    0  0.00000000000E+00  0.00000000000E+00  0.55546037738E+03  0.55546037738E+03  0.00000000000E+00 0. -1.
          1   -1    0    0  501    0 -0.00000000000E+00 -0.00000000000E+00 -0.94537518255E+03  0.94537518255E+03  0.00000000000E+00 0. -1.
         25    2    1    2    0    0 -0.19978317283E+02 -0.60908940866E+02 -0.95243920465E+02  0.16972048125E+03  0.12499842051E+03 0.  0.
          2    1    1    2  501    0  0.10838074820E+02  0.93728412592E+02 -0.80959028347E+03  0.81506987816E+03  0.00000000000E+00 0. -1.
          1    1    1    2  502    0  0.91402424637E+01 -0.32819471726E+02  0.51491939877E+03  0.51604520053E+03  0.00000000000E+00 0. -1.
         22    1    3    3    0    0  0.37808567123E+02  0.14961946928E+02 -0.10158628020E+02  0.41911159934E+02  0.00000000000E+00 0.  1.
         22    1    3    3    0    0 -0.57786884406E+02 -0.75870887794E+02 -0.85085292445E+02  0.12780932131E+03  0.00000000000E+00 0.  1.
</event>
<event>
 7    1  0.5779468E-006  0.5486597E+02  0.7818608E-02  0.1527277E+00
          2   -1    0    0  502    0  0.00000000000E+00  0.00000000000E+00  0.50265983117E+03  0.50265983117E+03  0.00000000000E+00 0. -1.
          1   -1    0    0  501    0 -0.00000000000E+00 -0.00000000000E+00 -0.59501231978E+03  0.59501231978E+03  0.00000000000E+00 0. -1.
         25    2    1    2    0    0 -0.78777973295E+02 -0.10229794386E+02 -0.16502672723E+03  0.22173641936E+03  0.12499040443E+03 0.  0.
          2    1    1    2  501    0  0.25559861399E+02 -0.22811664500E+01 -0.39964256476E+03  0.40046559129E+03  0.00000000000E+00 0. -1.
          1    1    1    2  502    0  0.53218111896E+02  0.12510960836E+02  0.47231680338E+03  0.47547014031E+03  0.00000000000E+00 0. -1.
         22    1    3    3    0    0 -0.75094898625E+02 -0.10351770533E+01 -0.18487873634E+03  0.19955065157E+03  0.00000000000E+00 0. -1.
         22    1    3    3    0    0 -0.36830746699E+01 -0.91946173327E+01  0.19852009106E+02  0.22185767790E+02  0.00000000000E+00 0. -1.
</event>
<event>
 7    1  0.5779468E-006  0.1585595E+03  0.7818608E-02  0.1196676E+00
          2   -1    0    0  502    0  0.00000000000E+00  0.00000000000E+00  0.37837859011E+04  0.37837859011E+04  0.00000000000E+00 0. -1.
          1   -1    0    0  501    0 -0.00000000000E+00 -0.00000000000E+00 -0.20129750499E+03  0.20129750499E+03  0.00000000000E+00 0. -1.
         25    2    1    2    0    0 -0.98427925461E+02  0.14400559977E+03  0.22377654695E+04  0.22480308656E+04  0.12499122732E+03 0.  0.
          2    1    1    2  501    0 -0.76194393554E+02 -0.12675170653E+03 -0.16245813755E+03  0.21969120868E+03  0.00000000000E+00 0. -1.
          1    1    1    2  502    0  0.17462231902E+03 -0.17253893241E+02  0.15071810642E+04  0.15173613318E+04  0.00000000000E+00 0. -1.
         22    1    3    3    0    0 -0.88442419204E+02  0.27598574331E+02  0.12379632970E+04  0.12414253371E+04  0.00000000000E+00 0. -1.
         22    1    3    3    0    0 -0.99855062575E+01  0.11640702544E+03  0.99980217249E+03  0.10066055285E+04  0.00000000000E+00 0. -1.
</event>
<event>
 7    1  0.5779468E-006  0.5050925E+02  0.7818608E-02  0.1469764E+00
          2   -1    0    0  502    0  0.00000000000E+00  0.00000000000E+00  0.11217029138E+04  0.11217029138E+04  0.00000000000E+00 0. -1.
          1   -1    0    0  501    0 -0.00000000000E+00 -0.00000000000E+00 -0.32347854029E+04  0.32347854029E+04  0.00000000000E+00 0. -1.
         25    2    1    2    0    0 -0.49111242154E+02  0.10290285762E+02 -0.11733162559E+03  0.17863202001E+03  0.12499953648E+03 0.  0.
          2    1    1    2  501    0  0.25037339357E+02 -0.44000977892E+02 -0.30862027155E+04  0.30866179154E+04  0.00000000000E+00 0. -1.
          1    1    1    2  502    0  0.24073902797E+02  0.33710692131E+02  0.10904518519E+04  0.10912383814E+04  0.00000000000E+00 0. -1.
         22    1    3    3    0    0 -0.38855530675E+02  0.21149059657E+02  0.14040878464E+02  0.46413158225E+02  0.00000000000E+00 0. -1.
         22    1    3    3    0    0 -0.10255711480E+02 -0.10858773895E+02 -0.13137250406E+03  0.13221886178E+03  0.00000000000E+00 0. -1.
</event>
<event>
 7    1  0.5779468E-006  0.8131681E+02  0.7818608E-02  0.1499627E+00
          2   -1    0    0  502    0  0.00000000000E+00  0.00000000000E+00  0.51629463176E+03  0.51629463176E+03  0.00000000000E+00 0. -1.
          1   -1    0    0  501    0 -0.00000000000E+00 -0.00000000000E+00 -0.86382037815E+03  0.86382037815E+03  0.00000000000E+00 0. -1.
         25    2    1    2    0    0 -0.54344110280E+02 -0.29111605532E+02  0.39117907220E+02  0.14475482801E+03  0.12499192642E+03 0.  0.
          2    1    1    2  501    0  0.68832046190E+02  0.44126676877E+02 -0.80868280664E+03  0.81280557081E+03  0.00000000000E+00 0. -1.
          1    1    1    2  502    0 -0.14487935909E+02 -0.15015071345E+02  0.42203915303E+03  0.42255461108E+03  0.00000000000E+00 0. -1.
         22    1    3    3    0    0 -0.97008105745E+01 -0.77109912069E+01 -0.45259644198E+02  0.46925478198E+02  0.00000000000E+00 0. -1.
         22    1    3    3    0    0 -0.44643299706E+02 -0.21400614325E+02  0.84377551418E+02  0.97829349816E+02  0.00000000000E+00 0. -1.
</event>
<event>
 7    1  0.5779468E-006  0.1369214E+03  0.7818608E-02  0.1345368E+00
          2   -1    0    0  502    0  0.00000000000E+00  0.00000000000E+00  0.16937275034E+04  0.16937275034E+04  0.00000000000E+00 0. -1.
          1   -1    0    0  501    0 -0.00000000000E+00 -0.00000000000E+00 -0.30691979156E+03  0.30691979156E+03  0.00000000000E+00 0. -1.
         25    2    1    2    0    0 -0.10857371996E+03  0.12785540184E+03 -0.21209361397E+03  0.29789926008E+03  0.12500004650E+03 0.  0.
          2    1    1    2  501    0  0.36389433670E+01 -0.40392778719E+02 -0.40705172261E+02  0.57460678122E+02  0.00000000000E+00 0. -1.
          1    1    1    2  502    0  0.10493477659E+03 -0.87462623117E+02  0.16396064981E+04  0.16452873568E+04  0.00000000000E+00 0. -1.
         22    1    3    3    0    0 -0.26054655697E+02  0.10301565112E+03 -0.17354920157E+03  0.20349544178E+03  0.00000000000E+00 0. -1.
         22    1    3    3    0    0 -0.82519064262E+02  0.24839750716E+02 -0.38544412397E+02  0.94403818299E+02  0.00000000000E+00 0. -1.
</event>
<event>
 7    1  0.5779468E-006  0.1824345E+03  0.7818608E-02  0.1262836E+00
          2   -1    0    0  502    0  0.00000000000E+00  0.00000000000E+00  0.20851028293E+04  0.20851028293E+04  0.00000000000E+00 0. -1.
          1   -1    0    0  501    0 -0.00000000000E+00 -0.00000000000E+00 -0.72156687932E+03  0.72156687932E+03  0.00000000000E+00 0. -1.
         25    2    1    2    0    0 -0.21320184593E+03  0.37998140478E+02  0.40635400480E+03  0.47712426740E+03  0.12500041412E+03 0.  0.
          2    1    1    2  501    0  0.51925806768E+02  0.38879725620E+02 -0.67977723163E+03  0.68286529207E+03  0.00000000000E+00 0. -1.
          1    1    1    2  502    0  0.16127603917E+03 -0.76877866098E+02  0.16369591768E+04  0.16466801491E+04  0.00000000000E+00 0. -1.
         22    1    3    3    0    0 -0.20239785791E+03  0.70877978275E+02  0.36345636635E+03  0.42200605556E+03  0.00000000000E+00 0. -1.
         22    1    3    3    0    0 -0.10803988021E+02 -0.32879837798E+02  0.42897638452E+02  0.55118211832E+02  0.00000000000E+00 0. -1.
</event>
<event>
 7    1  0.5779468E-006  0.1635995E+03  0.7818608E-02  0.1361309E+00
          2   -1    0    0  502    0  0.00000000000E+00  0.00000000000E+00  0.92543282531E+03  0.92543282531E+03  0.00000000000E+00 0. -1.
          1   -1    0    0  501    0 -0.00000000000E+00 -0.00000000000E+00 -0.37475301159E+03  0.37475301159E+03  0.00000000000E+00 0. -1.
         25    2    1    2    0    0 -0.13717440277E+03  0.11753922036E+02  0.15622869124E+03  0.24288163379E+03  0.12501644934E+03 0.  0.
          2    1    1    2  501    0  0.16479851618E+03 -0.22517185968E+02 -0.31022665397E+03  0.35200305600E+03  0.00000000000E+00 0. -1.
          1    1    1    2  502    0 -0.27624113416E+02  0.10763263932E+02  0.70467777645E+03  0.70530114711E+03  0.00000000000E+00 0. -1.
         22    1    3    3    0    0  0.22453839730E+02 -0.90382242808E+01  0.28467794982E+02  0.37366827105E+02  0.00000000000E+00 0.  1.
         22    1    3    3    0    0 -0.15962824250E+03  0.20792146317E+02  0.12776089626E+03  0.20551480668E+03  0.00000000000E+00 0.  1.
</event>
<event>
 7    1  0.5779468E-006  0.1120954E+03  0.7818608E-02  0.1279329E+00
          2   -1    0    0  502    0  0.00000000000E+00  0.00000000000E+00  0.57358285790E+03  0.57358285790E+03  0.00000000000E+00 0. -1.
          1   -1    0    0  501    0 -0.00000000000E+00 -0.00000000000E+00 -0.15410775148E+04  0.15410775148E+04  0.00000000000E+00 0. -1.
         25    2    1    2    0    0 -0.46872307101E+01 -0.59200327159E+02 -0.55853976564E+03  0.57543204995E+03  0.12501490091E+03 0.  0.
          2    1    1    2  501    0 -0.15842325206E+02  0.14686312245E+03 -0.96484869618E+03  0.97609055037E+03  0.00000000000E+00 0. -1.
          1    1    1    2  502    0  0.20529555916E+02 -0.87662795287E+02  0.55589380491E+03  0.56313777238E+03  0.00000000000E+00 0. -1.
         22    1    3    3    0    0  0.33119370824E+02  0.66729263718E+01 -0.44814987352E+02  0.56123112543E+02  0.00000000000E+00 0.  1.
         22    1    3    3    0    0 -0.37806601535E+02 -0.65873253530E+02 -0.51372477828E+03  0.51930893741E+03  0.00000000000E+00 0.  1.
</event>
<event>
 7    1  0.5779468E-006  0.9425520E+02  0.7818608E-02  0.1336448E+00
          2   -1    0    0  502    0  0.00000000000E+00  0.00000000000E+00  0.60059666305E+03  0.60059666305E+03  0.00000000000E+00 0. -1.
          1   -1    0    0  501    0 -0.00000000000E+00 -0.00000000000E+00 -0.75986467949E+03  0.75986467949E+03  0.00000000000E+00 0. -1.
         25    2    1    2    0    0 -0.66340422818E+02 -0.13966756955E+03 -0.19582974584E+02  0.19979256616E+03  0.12500197965E+03 0.  0.
          2    1    1    2  501    0  0.47550563870E+02  0.78863642377E+02 -0.64490975315E+03  0.65145154840E+03  0.00000000000E+00 0. -1.
          1    1    1    2  502    0  0.18789858948E+02  0.60803927175E+02  0.50522471130E+03  0.50921722797E+03  0.00000000000E+00 0. -1.
         22    1    3    3    0    0 -0.39137774501E+01 -0.99281084418E+02 -0.59085130948E+02  0.11559889306E+03  0.00000000000E+00 0.  1.
         22    1    3    3    0    0 -0.62426645368E+02 -0.40386485134E+02  0.39502156364E+02  0.84193673105E+02  0.00000000000E+00 0.  1.
</event>
<event>
 7    1  0.5779468E-006  0.3741649E+02  0.7818608E-02  0.1535134E+00
          2   -1    0    0  502    0  0.00000000000E+00  0.00000000000E+00  0.57642725740E+03  0.57642725740E+03  0.00000000000E+00 0. -1.
          1   -1    0    0  501    0 -0.00000000000E+00 -0.00000000000E+00 -0.66553378333E+03  0.66553378333E+03  0.00000000000E+00 0. -1.
         25    2    1    2    0    0 -0.58920835420E+01  0.81891177649E+01  0.39021622132E+03  0.40987290536E+03  0.12500128349E+03 0.  0.
          2    1    1    2  501    0 -0.25658939580E+02  0.24866434626E+02 -0.65224855873E+03  0.65322653277E+03  0.00000000000E+00 0. -1.
          1    1    1    2  502    0  0.31551023122E+02 -0.33055552391E+02  0.17292581148E+03  0.17886160259E+03  0.00000000000E+00 0. -1.
         22    1    3    3    0    0 -0.56004948874E+01 -0.57797920846E+02  0.15297529532E+03  0.16362581146E+03  0.00000000000E+00 0. -1.
         22    1    3    3    0    0 -0.29158865465E+00  0.65987038611E+02  0.23724092600E+03  0.24624709390E+03  0.00000000000E+00 0. -1.
</event>
<event>
 7    1  0.5779468E-006  0.1200004E+03  0.7818608E-02  0.1245387E+00
          2   -1    0    0  502    0  0.00000000000E+00  0.00000000000E+00  0.40074160519E+03  0.40074160519E+03  0.00000000000E+00 0. -1.
          1   -1    0    0  501    0 -0.00000000000E+00 -0.00000000000E+00 -0.24723232274E+04  0.24723232274E+04  0.00000000000E+00 0. -1.
         25    2    1    2    0    0 -0.67656553451E+01  0.12075499579E+00 -0.74179356555E+01  0.12537397353E+03  0.12497127188E+03 0.  0.
          2    1    1    2  501    0  0.99507015053E+01  0.11983735969E+03 -0.23938377085E+04  0.23968560624E+04  0.00000000000E+00 0. -1.
          1    1    1    2  502    0 -0.31850461603E+01 -0.11995811468E+03  0.32967402194E+03  0.35083479665E+03  0.00000000000E+00 0. -1.
         22    1    3    3    0    0  0.16550750656E+01 -0.47040743686E+02 -0.44512840061E+02  0.64783977729E+02  0.00000000000E+00 0. -1.
         22    1    3    3    0    0 -0.84207304106E+01  0.47161498682E+02  0.37094904406E+02  0.60589995804E+02  0.00000000000E+00 0. -1.
</event>
<event>
 7    1  0.5779468E-006  0.4970113E+02  0.7818608E-02  0.1506660E+00
          2   -1    0    0  502    0  0.00000000000E+00  0.00000000000E+00  0.93282292008E+03  0.93282292008E+03  0.00000000000E+00 0. -1.
          1   -1    0    0  501    0 -0.00000000000E+00 -0.00000000000E+00 -0.77672554152E+02  0.77672554152E+02  0.00000000000E+00 0. -1.
         25    2    1    2    0    0 -0.14345933705E+02  0.69206450773E+02  0.14778854429E+03  0.20606296457E+03  0.12500061160E+03 0.  0.
          2    1    1    2  501    0 -0.14397101157E+02 -0.29175028177E+02 -0.42181729063E+02  0.53270602189E+02  0.00000000000E+00 0. -1.
          1    1    1    2  502    0  0.28743034862E+02 -0.40031422595E+02  0.74954355070E+03  0.75116190748E+03  0.00000000000E+00 0. -1.
         22    1    3    3    0    0 -0.38438603183E+02  0.13248961756E+02 -0.55780344896E+01  0.41038709422E+02  0.00000000000E+00 0. -1.
         22    1    3    3    0    0  0.24092669478E+02  0.55957489017E+02  0.15336657878E+03  0.16502425514E+03  0.00000000000E+00 0. -1.
</event>
<event>
 7    1  0.5779468E-006  0.1245387E+03  0.7818608E-02  0.1312246E+00
          2   -1    0    0  502    0  0.00000000000E+00  0.00000000000E+00  0.31472905552E+03  0.31472905552E+03  0.00000000000E+00 0. -1.
          1   -1    0    0  501    0 -0.00000000000E+00 -0.00000000000E+00 -0.43320762045E+03  0.43320762045E+03  0.00000000000E+00 0. -1.
         25    2    1    2    0    0 -0.15197547402E+03  0.73345629977E+02 -0.10397637092E+03  0.23433311447E+03  0.12499918674E+03 0.  0.
          2    1    1    2  501    0  0.11277058167E+03 -0.28315265955E+02 -0.24730095504E+03  0.27327041688E+03  0.00000000000E+00 0. -1.
          1    1    1    2  502    0  0.39204892353E+02 -0.45030364022E+02  0.23279876103E+03  0.24033314462E+03  0.00000000000E+00 0. -1.
         22    1    3    3    0    0 -0.12463093807E+03  0.73372913386E+02 -0.13154685337E+03  0.19550199430E+03  0.00000000000E+00 0. -1.
         22    1    3    3    0    0 -0.27344535951E+02 -0.27283409542E-01  0.27570482455E+02  0.38831120169E+02  0.00000000000E+00 0. -1.
</event>
<event>
 7    1  0.5779468E-006  0.6222759E+02  0.7818608E-02  0.1540536E+00
          2   -1    0    0  502    0  0.00000000000E+00  0.00000000000E+00  0.70233396644E+03  0.70233396644E+03  0.00000000000E+00 0. -1.
          1   -1    0    0  501    0 -0.00000000000E+00 -0.00000000000E+00 -0.10878628496E+03  0.10878628496E+03  0.00000000000E+00 0. -1.
         25    2    1    2    0    0 -0.47329029127E+02 -0.28721259878E+02  0.52749030244E+02  0.14653522064E+03  0.12500065172E+03 0.  0.
          2    1    1    2  501    0  0.73384302596E+01 -0.19398420647E+02 -0.58480075919E+02  0.62048936830E+02  0.00000000000E+00 0. -1.
          1    1    1    2  502    0  0.39990598867E+02  0.48119680525E+02  0.59927872716E+03  0.60253609392E+03  0.00000000000E+00 0. -1.
         22    1    3    3    0    0  0.76820568279E+01 -0.48613144411E+02  0.69979411759E+02  0.85553315989E+02  0.00000000000E+00 0. -1.
         22    1    3    3    0    0 -0.55011085955E+02  0.19891884534E+02 -0.17230381515E+02  0.60981904655E+02  0.00000000000E+00 0. -1.
</event>
<event>
 7    1  0.5779468E-006  0.7704249E+02  0.7818608E-02  0.1497727E+00
          2   -1    0    0  502    0  0.00000000000E+00  0.00000000000E+00  0.18987136252E+04  0.18987136252E+04  0.00000000000E+00 0. -1.
          1   -1    0    0  501    0 -0.00000000000E+00 -0.00000000000E+00 -0.44673502124E+02  0.44673502124E+02  0.00000000000E+00 0. -1.
         25    2    1    2    0    0 -0.61278932478E+02 -0.41906525758E+02  0.11882853639E+03  0.18776826391E+03  0.12500174160E+03 0.  0.
          2    1    1    2  501    0 -0.12310938650E+02  0.18608898262E+02  0.39768752642E+01  0.22664197357E+02  0.00000000000E+00 0. -1.
          1    1    1    2  502    0  0.73589871128E+02  0.23297627496E+02  0.17312347114E+04  0.17329546660E+04  0.00000000000E+00 0. -1.
         22    1    3    3    0    0 -0.53311220008E+02  0.24926982225E+02  0.98344071288E+01  0.59667044381E+02  0.00000000000E+00 0.  1.
         22    1    3    3    0    0 -0.79677124700E+01 -0.66833507983E+02  0.10899412926E+03  0.12810121953E+03  0.00000000000E+00 0.  1.
</event>
<event>
 7    1  0.5779468E-006  0.8494319E+02  0.7818608E-02  0.1418509E+00
          2   -1    0    0  502    0  0.00000000000E+00  0.00000000000E+00  0.73147639551E+03  0.73147639551E+03  0.00000000000E+00 0. -1.
          1   -1    0    0  501    0 -0.00000000000E+00 -0.00000000000E+00 -0.75335253605E+03  0.75335253605E+03  0.00000000000E+00 0. -1.
         25    2    1    2    0    0  0.70746077975E+01  0.53582732999E+02 -0.18540451305E+03  0.23004557462E+03  0.12499989437E+03 0.  0.
          2    1    1    2  501    0 -0.12351786028E+02 -0.89245040742E+02 -0.54144454065E+03  0.54888927346E+03  0.00000000000E+00 0. -1.
          1    1    1    2  502    0  0.52771782310E+01  0.35662307743E+02  0.70497291316E+03  0.70589408348E+03  0.00000000000E+00 0. -1.
         22    1    3    3    0    0 -0.45911604709E+02 -0.89339530130E+01 -0.33793267664E+02  0.57703343949E+02  0.00000000000E+00 0. -1.
         22    1    3    3    0    0  0.52986212507E+02  0.62516686012E+02 -0.15161124538E+03  0.17234223067E+03  0.00000000000E+00 0. -1.
</event>
<event>
 7    1  0.5779468E-006  0.2687807E+02  0.7818608E-02  0.1645523E+00
          2   -1    0    0  502    0  0.00000000000E+00  0.00000000000E+00  0.15453593927E+02  0.15453593927E+02  0.00000000000E+00 0. -1.
          1   -1    0    0  501    0 -0.00000000000E+00 -0.00000000000E+00 -0.13002119629E+04  0.13002119629E+04  0.00000000000E+00 0. -1.
         25    2    1    2    0    0  0.59118024287E+01  0.36832728921E+01 -0.49213215973E+03  0.50780837902E+03  0.12500708480E+03 0.  0.
          2    1    1    2  501    0 -0.68472826519E+01  0.24426556901E+02 -0.77333651977E+03  0.77375248935E+03  0.00000000000E+00 0. -1.
          1    1    1    2  502    0  0.93548022316E+00 -0.28109829793E+02 -0.19289689439E+02  0.34104688430E+02  0.00000000000E+00 0. -1.
         22    1    3    3    0    0  0.24696379057E+02  0.57155763825E+02 -0.33571163263E+03  0.34143665995E+03  0.00000000000E+00 0.  1.
         22    1    3    3    0    0 -0.18784576629E+02 -0.53472490933E+02 -0.15642052710E+03  0.16637171906E+03  0.00000000000E+00 0.  1.
</event>
<event>
 7    1  0.5779468E-006  0.9612932E+02  0.7818608E-02  0.1345225E+00
          2   -1    0    0  502    0  0.00000000000E+00  0.00000000000E+00  0.30045917968E+02  0.30045917968E+02  0.00000000000E+00 0. -1.
          1   -1    0    0  501    0 -0.00000000000E+00 -0.00000000000E+00 -0.16453694475E+04  0.16453694475E+04  0.00000000000E+00 0. -1.
         25    2    1    2    0    0  0.36887199095E+02 -0.76408260368E+02 -0.22519853784E+03  0.27117774693E+03  0.12499640506E+03 0.  0.
          2    1    1    2  501    0  0.48752298632E+02 -0.31118999745E+02 -0.53745224402E+03  0.54055535644E+03  0.00000000000E+00 0. -1.
          1    1    1    2  502    0 -0.85639497727E+02  0.10752726011E+03 -0.85267274765E+03  0.86368226207E+03  0.00000000000E+00 0. -1.
         22    1    3    3    0    0  0.56142350256E+02 -0.80102915979E+02 -0.84924134926E+02  0.12953975966E+03  0.00000000000E+00 0. -1.
         22    1    3    3    0    0 -0.19255151161E+02  0.36946556101E+01 -0.14027440291E+03  0.14163798727E+03  0.00000000000E+00 0. -1.
</event>
<event>
 7    1  0.5779468E-006  0.5126355E+02  0.7818608E-02  0.1461718E+00
          2   -1    0    0  502    0  0.00000000000E+00  0.00000000000E+00  0.13212619805E+03  0.13212619805E+03  0.00000000000E+00 0. -1.
          1   -1    0    0  501    0 -0.00000000000E+00 -0.00000000000E+00 -0.12561156447E+04  0.12561156447E+04  0.00000000000E+00 0. -1.
         25    2    1    2    0    0  0.42696062543E+02 -0.46639254414E+02 -0.20778437279E+03  0.25059448375E+03  0.12500030360E+03 0.  0.
          2    1    1    2  501    0  0.85079769329E+01  0.42405723608E+02 -0.10204829733E+04  0.10213991041E+04  0.00000000000E+00 0. -1.
          1    1    1    2  502    0 -0.51204039476E+02  0.42335308063E+01  0.10427789948E+03  0.11624825487E+03  0.00000000000E+00 0. -1.
         22    1    3    3    0    0 -0.13034423805E+01  0.17171488322E+02 -0.15697254298E+03  0.15791433824E+03  0.00000000000E+00 0.  1.
         22    1    3    3    0    0  0.43999504924E+02 -0.63810742736E+02 -0.50811829815E+02  0.92680145507E+02  0.00000000000E+00 0.  1.
</event>
<event>
 7    1  0.5779468E-006  0.1369857E+03  0.7818608E-02  0.1353021E+00
          2   -1    0    0  502    0  0.00000000000E+00  0.00000000000E+00  0.56343560359E+03  0.56343560359E+03  0.00000000000E+00 0. -1.
          1   -1    0    0  501    0 -0.00000000000E+00 -0.00000000000E+00 -0.51577677317E+03  0.51577677317E+03  0.00000000000E+00 0. -1.
         25    2    1    2    0    0 -0.69408345331E+02  0.77663489398E+02 -0.25723302810E+03  0.30437421047E+03  0.12500277304E+03 0.  0.
          2    1    1    2  501    0 -0.36306600804E+02  0.11122906153E+02 -0.22452719607E+03  0.22771550250E+03  0.00000000000E+00 0. -1.
          1    1    1    2  502    0  0.10571494613E+03 -0.88786395551E+02  0.52941905459E+03  0.54712266379E+03  0.00000000000E+00 0. -1.
         22    1    3    3    0    0 -0.95526963660E+02  0.35210668423E+02 -0.21915835350E+03  0.24165176570E+03  0.00000000000E+00 0.  1.
         22    1    3    3    0    0  0.26118618329E+02  0.42452820974E+02 -0.38074674595E+02  0.62722444768E+02  0.00000000000E+00 0.  1.
</event>
<event>
 7    1  0.5779468E-006  0.4038748E+02  0.7818608E-02  0.1595546E+00
          2   -1    0    0  502    0  0.00000000000E+00  0.00000000000E+00  0.79838864446E+03  0.79838864446E+03  0.00000000000E+00 0. -1.
          1   -1    0    0  501    0 -0.00000000000E+00 -0.00000000000E+00 -0.50717291394E+03  0.50717291394E+03  0.00000000000E+00 0. -1.
         25    2    1    2    0    0 -0.13467699751E+02  0.18539504475E+02  0.65939260542E+02  0.14320597910E+03  0.12503949059E+03 0.  0.
          2    1    1    2  501    0  0.67549762283E+01  0.21597390322E+02 -0.46766902920E+03  0.46821618709E+03  0.00000000000E+00 0. -1.
          1    1    1    2  502    0  0.67127235222E+01 -0.40136894798E+02  0.69294549918E+03  0.69413939221E+03  0.00000000000E+00 0. -1.
         22    1    3    3    0    0 -0.43964544168E+02  0.44792121714E+02  0.79002217866E+02  0.10089878958E+03  0.00000000000E+00 0.  1.
         22    1    3    3    0    0  0.30496844417E+02 -0.26252617238E+02 -0.13062957324E+02  0.42307189522E+02  0.00000000000E+00 0.  1.
</event>
<event>
 7    1  0.5779468E-006  0.9400595E+02  0.7818608E-02  0.1380568E+00
          2   -1    0    0  502    0  0.00000000000E+00  0.00000000000E+00  0.14542813512E+04  0.14542813512E+04  0.00000000000E+00 0. -1.
          1   -1    0    0  501    0 -0.00000000000E+00 -0.00000000000E+00 -0.16289781852E+03  0.16289781852E+03  0.00000000000E+00 0. -1.
         25    2    1    2    0    0 -0.79185470826E+02  0.10098246100E+03 -0.28170549139E+01  0.17916530383E+03  0.12499789630E+03 0.  0.
          2    1    1    2  501    0  0.53489881544E+01 -0.43675043764E+02 -0.63414618270E+02  0.77185069362E+02  0.00000000000E+00 0. -1.
          1    1    1    2  502    0  0.73836482671E+02 -0.57307417239E+02  0.13576152058E+04  0.13608287965E+04  0.00000000000E+00 0. -1.
         22    1    3    3    0    0  0.17295843701E+02  0.34160633983E+02  0.38925414104E+02  0.54601126239E+02  0.00000000000E+00 0. -1.
         22    1    3    3    0    0 -0.96481314527E+02  0.66821827020E+02 -0.41742469018E+02  0.12456417759E+03  0.00000000000E+00 0. -1.
</event>
<event>
 7    1  0.5779468E-006  0.3686288E+03  0.7818608E-02  0.1149760E+00
          2   -1    0    0  502    0  0.00000000000E+00  0.00000000000E+00  0.59593496901E+03  0.59593496901E+03  0.00000000000E+00 0. -1.
          1   -1    0    0  501    0 -0.00000000000E+00 -0.00000000000E+00 -0.51683930603E+03  0.51683930603E+03  0.00000000000E+00 0. -1.
         25    2    1    2    0    0  0.21375338891E+03  0.32737600147E+03  0.15464453576E+03  0.43863992204E+03  0.12499796462E+03 0.  0.
          2    1    1    2  501    0 -0.10757980416E+03  0.13970782284E+02 -0.25282314390E+03  0.27511477444E+03  0.00000000000E+00 0. -1.
          1    1    1    2  502    0 -0.10617358475E+03 -0.34134678375E+03  0.17727427112E+03  0.39901957856E+03  0.00000000000E+00 0. -1.
         22    1    3    3    0    0  0.16470987292E+03  0.13808621423E+03  0.80766685192E+02  0.22960923813E+03  0.00000000000E+00 0.  1.
         22    1    3    3    0    0  0.49043515998E+02  0.18928978724E+03  0.73877850567E+02  0.20903068391E+03  0.00000000000E+00 0.  1.
</event>
<event>
 7    1  0.5779468E-006  0.3798129E+02  0.7818608E-02  0.1583523E+00
          2   -1    0    0  502    0  0.00000000000E+00  0.00000000000E+00  0.35877690585E+04  0.35877690585E+04  0.00000000000E+00 0. -1.
          1   -1    0    0  501    0 -0.00000000000E+00 -0.00000000000E+00 -0.87093017265E+02  0.87093017265E+02  0.00000000000E+00 0. -1.
         25    2    1    2    0    0  0.85303775224E+01  0.45036584456E+02  0.24171137655E+04  0.24207773137E+04  0.12499114319E+03 0.  0.
          2    1    1    2  501    0 -0.23704045281E+02 -0.10420097274E+02 -0.82982193209E+02  0.86928157576E+02  0.00000000000E+00 0. -1.
          1    1    1    2  502    0  0.15173667759E+02 -0.34616487182E+02  0.11665444690E+04  0.11671566045E+04  0.00000000000E+00 0. -1.
         22    1    3    3    0    0 -0.51183130272E+02  0.70786195389E+01  0.15198231544E+04  0.15207012331E+04  0.00000000000E+00 0. -1.
         22    1    3    3    0    0  0.59713507794E+02  0.37957964917E+02  0.89729061105E+03  0.90007608056E+03  0.00000000000E+00 0. -1.
</event>
<event>
 7    1  0.5779468E-006  0.9478326E+02  0.7818608E-02  0.1293049E+00
          2   -1    0    0  502    0  0.00000000000E+00  0.00000000000E+00  0.70907481608E+02  0.70907481608E+02  0.00000000000E+00 0. -1.
          1   -1    0    0  501    0 -0.00000000000E+00 -0.00000000000E+00 -0.15037033866E+04  0.15037033866E+04  0.00000000000E+00 0. -1.
         25    2    1    2    0    0  0.40593435074E+02  0.41179832031E+02 -0.38812607435E+03  0.41183976046E+03  0.12500613251E+03 0.  0.
          2    1    1    2  501    0 -0.75380148381E+02  0.55430957880E+02 -0.10553906281E+04  0.10595301486E+04  0.00000000000E+00 0. -1.
          1    1    1    2  502    0  0.34786713306E+02 -0.96610789911E+02  0.10720797472E+02  0.10324095916E+03  0.00000000000E+00 0. -1.
         22    1    3    3    0    0  0.68607563177E+02  0.62131523929E+01 -0.33651552444E+03  0.34349424912E+03  0.00000000000E+00 0.  1.
         22    1    3    3    0    0 -0.28014128103E+02  0.34966679638E+02 -0.51610549909E+02  0.68345511339E+02  0.00000000000E+00 0.  1.
</event>
<event>
 7    1  0.5779468E-006  0.7263004E+02  0.7818608E-02  0.1420851E+00
          2   -1    0    0  502    0  0.00000000000E+00  0.00000000000E+00  0.82438663305E+03  0.82438663305E+03  0.00000000000E+00 0. -1.
          1   -1    0    0  501    0 -0.00000000000E+00 -0.00000000000E+00 -0.25106215944E+02  0.25106215944E+02  0.00000000000E+00 0. -1.
         25    2    1    2    0    0 -0.22745988974E+02  0.74376379552E+02  0.36364637786E+03  0.39231551410E+03  0.12499419436E+03 0.  0.
          2    1    1    2  501    0  0.41292201815E+02 -0.31118291076E+01  0.51669860577E+02  0.66215586558E+02  0.00000000000E+00 0. -1.
          1    1    1    2  502    0 -0.18546212841E+02 -0.71264550445E+02  0.38396417867E+03  0.39096174833E+03  0.00000000000E+00 0. -1.
         22    1    3    3    0    0  0.23274315442E+02  0.21972300088E+02  0.28663860265E+03  0.28842011764E+03  0.00000000000E+00 0. -1.
         22    1    3    3    0    0 -0.46020304416E+02  0.52404079465E+02  0.77007775215E+02  0.10389539647E+03  0.00000000000E+00 0. -1.
</event>
<event>
 7    1  0.5779468E-006  0.8149359E+02  0.7818608E-02  0.1493620E+00
          2   -1    0    0  502    0  0.00000000000E+00  0.00000000000E+00  0.17609727137E+03  0.17609727137E+03  0.00000000000E+00 0. -1.
          1   -1    0    0  501    0 -0.00000000000E+00 -0.00000000000E+00 -0.16367399191E+04  0.16367399191E+04  0.00000000000E+00 0. -1.
         25    2    1    2    0    0 -0.61496735703E+02 -0.80669136417E+02 -0.98504966456E+02  0.18872589721E+03  0.12499951115E+03 0.  0.
          2    1    1    2  501    0  0.54169711946E+02  0.60242229244E+02 -0.14911184208E+04  0.14933176583E+04  0.00000000000E+00 0. -1.
          1    1    1    2  502    0  0.73270237567E+01  0.20426907173E+02  0.12898073943E+03  0.13079363500E+03  0.00000000000E+00 0. -1.
         22    1    3    3    0    0 -0.43760720890E+02 -0.11446862928E+03 -0.70457052633E+02  0.14135863627E+03  0.00000000000E+00 0. -1.
         22    1    3    3    0    0 -0.17736014812E+02  0.33799492863E+02 -0.28047913824E+02  0.47367260941E+02  0.00000000000E+00 0. -1.
</event>
<event>
 7    1  0.5779468E-006  0.1217272E+03  0.7818608E-02  0.1323625E+00
          2   -1    0    0  502    0  0.00000000000E+00  0.00000000000E+00  0.73571895119E+03  0.73571895119E+03  0.00000000000E+00 0. -1.
          1   -1    0    0  501    0 -0.00000000000E+00 -0.00000000000E+00 -0.19607994748E+04  0.19607994748E+04  0.00000000000E+00 0. -1.
         25    2    1    2    0    0 -0.15653359188E+03  0.76831684262E+02  0.25604863042E+03  0.33405412932E+03  0.12500154831E+03 0.  0.
          2    1    1    2  501    0  0.10272820403E+03 -0.64673962781E+02 -0.19181442531E+04  0.19219815766E+04  0.00000000000E+00 0. -1.
          1    1    1    2  502    0  0.53805387843E+02 -0.12157721481E+02  0.43701509898E+03  0.44048272008E+03  0.00000000000E+00 0. -1.
         22    1    3    3    0    0 -0.11397988236E+03 -0.22128553865E+01  0.19369233252E+03  0.22475104002E+03  0.00000000000E+00 0. -1.
         22    1    3    3    0    0 -0.42553709513E+02  0.79044539649E+02  0.62356297904E+02  0.10930308930E+03  0.00000000000E+00 0. -1.
</event>
<event>
 7    1  0.5779468E-006  0.1482694E+03  0.7818608E-02  0.1304078E+00
          2   -1    0    0  502    0  0.00000000000E+00  0.00000000000E+00  0.21046999403E+04  0.21046999403E+04  0.00000000000E+00 0. -1.
          1   -1    0    0  501    0 -0.00000000000E+00 -0.00000000000E+00 -0.16392625716E+03  0.16392625716E+03  0.00000000000E+00 0. -1.
         25    2    1    2    0    0  0.73686943357E+02  0.12509181015E+03  0.35913640254E+03  0.40703972813E+03  0.12499863222E+03 0.  0.
          2    1    1    2  501    0 -0.24529474304E+02 -0.14748918479E+03 -0.99490173378E+02  0.17959133982E+03  0.00000000000E+00 0. -1.
          1    1    1    2  502    0 -0.49157469053E+02  0.22397374639E+02  0.16811274540E+04  0.16819951296E+04  0.00000000000E+00 0. -1.
         22    1    3    3    0    0 -0.23064306434E+02  0.68310059592E+02  0.19783206241E+03  0.21056056466E+03  0.00000000000E+00 0.  1.
         22    1    3    3    0    0  0.96751249790E+02  0.56781750562E+02  0.16130434013E+03  0.19647916347E+03  0.00000000000E+00 0.  1.
</event>
<event>
 7    1  0.5779468E-006  0.9354805E+02  0.7818608E-02  0.1345253E+00
          2   -1    0    0  502    0  0.00000000000E+00  0.00000000000E+00  0.19012071869E+03  0.19012071869E+03  0.00000000000E+00 0. -1.
          1   -1    0    0  501    0 -0.00000000000E+00 -0.00000000000E+00 -0.24793619046E+04  0.24793619046E+04  0.00000000000E+00 0. -1.
         25    2    1    2    0    0  0.85702306623E+02 -0.62223016272E+02 -0.54568786910E+02  0.17268299328E+03  0.12500029819E+03 0.  0.
          2    1    1    2  501    0 -0.93573831510E+02  0.33277636557E+01 -0.23580242590E+04  0.23598825272E+04  0.00000000000E+00 0. -1.
          1    1    1    2  502    0  0.78715248869E+01  0.58895252616E+02  0.12335186001E+03  0.13691710285E+03  0.00000000000E+00 0. -1.
         22    1    3    3    0    0  0.97624340534E+02  0.26020462723E+01 -0.27765259888E+02  0.10152926753E+03  0.00000000000E+00 0.  1.
         22    1    3    3    0    0 -0.11922033911E+02 -0.64825062544E+02 -0.26803527023E+02  0.71153725744E+02  0.00000000000E+00 0.  1.
</event>
<event>
 7    1  0.5779468E-006  0.7869278E+02  0.7818608E-02  0.1370956E+00
          2   -1    0    0  502    0  0.00000000000E+00  0.00000000000E+00  0.31570366148E+04  0.31570366148E+04  0.00000000000E+00 0. -1.
          1   -1    0    0  501    0 -0.00000000000E+00 -0.00000000000E+00 -0.40605435738E+03  0.40605435738E+03  0.00000000000E+00 0. -1.
         25    2    1    2    0    0  0.42418127016E+02 -0.70902603246E+02  0.23528398573E+04  0.23576060224E+04  0.12499714483E+03 0.  0.
          2    1    1    2  501    0 -0.74903166314E+02  0.24213827343E+02 -0.39881029073E+03  0.40650515587E+03  0.00000000000E+00 0. -1.
          1    1    1    2  502    0  0.32485039298E+02  0.46688775904E+02  0.79695269087E+03  0.79897979390E+03  0.00000000000E+00 0. -1.
         22    1    3    3    0    0 -0.44756766760E+02 -0.21907515910E+02  0.77337578869E+03  0.77497949519E+03  0.00000000000E+00 0.  1.
         22    1    3    3    0    0  0.87174893776E+02 -0.48995087336E+02  0.15794640686E+04  0.15826265273E+04  0.00000000000E+00 0.  1.
</event>
<event>
 7    1  0.5779468E-006  0.3236515E+02  0.7818608E-02  0.1577303E+00
          2   -1    0    0  502    0  0.00000000000E+00  0.00000000000E+00  0.32652567223E+03  0.32652567223E+03  0.00000000000E+00 0. -1.
          1   -1    0    0  501    0 -0.00000000000E+00 -0.00000000000E+00 -0.49509115008E+02  0.49509115008E+02  0.00000000000E+00 0. -1.
         25    2    1    2    0    0 -0.93720514984E+01  0.26081010841E+01  0.68563992464E+02  0.14290101646E+03  0.12500016761E+03 0.  0.
          2    1    1    2  501    0  0.40473268165E+02  0.28429727635E+01  0.26496978260E+02  0.48458825687E+02  0.00000000000E+00 0. -1.
          1    1    1    2  502    0 -0.31101216667E+02 -0.54510738477E+01  0.18195558650E+03  0.18467494509E+03  0.00000000000E+00 0. -1.
         22    1    3    3    0    0  0.28043018481E+02  0.33816198882E+02 -0.14788299689E+02  0.46353424901E+02  0.00000000000E+00 0. -1.
         22    1    3    3    0    0 -0.37415069979E+02 -0.31208097798E+02  0.83352292153E+02  0.96547591564E+02  0.00000000000E+00 0. -1.
</event>
<event>
 7    1  0.5779468E-006  0.8129252E+02  0.7818608E-02  0.1444979E+00
          2   -1    0    0  502    0  0.00000000000E+00  0.00000000000E+00  0.19155894097E+04  0.19155894097E+04  0.00000000000E+00 0. -1.
          1   -1    0    0  501    0 -0.00000000000E+00 -0.00000000000E+00 -0.36470480290E+03  0.36470480290E+03  0.00000000000E+00 0. -1.
         25    2    1    2    0    0  0.18123286769E+02 -0.90084233739E+02  0.84865197637E+03  0.86272408765E+03  0.12505619426E+03 0.  0.
          2    1    1    2  501    0 -0.28841036426E+02  0.10911304809E+02 -0.35549474531E+03  0.35682961746E+03  0.00000000000E+00 0. -1.
          1    1    1    2  502    0  0.10717749656E+02  0.79172928930E+02  0.10577273757E+04  0.10607405074E+04  0.00000000000E+00 0. -1.
         22    1    3    3    0    0 -0.48683452910E+01 -0.74197738681E+02  0.81749670591E+03  0.82087140855E+03  0.00000000000E+00 0.  1.
         22    1    3    3    0    0  0.22991632060E+02 -0.15886495058E+02  0.31155270468E+02  0.41852679102E+02  0.00000000000E+00 0.  1.
</event>
<event>
 7    1  0.5779468E-006  0.5006335E+02  0.7818608E-02  0.1547613E+00
          2   -1    0    0  502    0  0.00000000000E+00  0.00000000000E+00  0.89448240555E+03  0.89448240555E+03  0.00000000000E+00 0. -1.
          1   -1    0    0  501    0 -0.00000000000E+00 -0.00000000000E+00 -0.91771882671E+02  0.91771882671E+02  0.00000000000E+00 0. -1.
         25    2    1    2    0    0  0.23446004733E+02  0.67156270637E+02  0.16956416324E+03  0.22234438567E+03  0.12500136224E+03 0.  0.
          2    1    1    2  501    0 -0.16551426995E+02 -0.18233007647E+02 -0.62155023535E+02  0.66855360698E+02  0.00000000000E+00 0. -1.
          1    1    1    2  502    0 -0.68945777384E+01 -0.48923262991E+02  0.69530138317E+03  0.69705454185E+03  0.00000000000E+00 0. -1.
         22    1    3    3    0    0  0.42638255216E+02  0.51954774979E+02  0.18262155210E+03  0.19459689294E+03  0.00000000000E+00 0. -1.
         22    1    3    3    0    0 -0.19192250483E+02  0.15201495658E+02 -0.13057388866E+02  0.27747492731E+02  0.00000000000E+00 0. -1.
</event>
<event>
 7    1  0.5779468E-006  0.1249256E+03  0.7818608E-02  0.1328992E+00
          2   -1    0    0  502    0  0.00000000000E+00  0.00000000000E+00  0.42084757492E+03  0.42084757492E+03  0.00000000000E+00 0. -1.
          1   -1    0    0  501    0 -0.00000000000E+00 -0.00000000000E+00 -0.96541990928E+03  0.96541990928E+03  0.00000000000E+00 0. -1.
         25    2    1    2    0    0  0.14763685596E+03 -0.79440111879E+02 -0.11444926417E+03  0.23839037595E+03  0.12499585859E+03 0.  0.
          2    1    1    2  501    0 -0.31488836523E+02  0.40444487472E+02 -0.77767482159E+03  0.77936219534E+03  0.00000000000E+00 0. -1.
          1    1    1    2  502    0 -0.11614801944E+03  0.38995624407E+02  0.34755175140E+03  0.36851491291E+03  0.00000000000E+00 0. -1.
         22    1    3    3    0    0  0.32537505965E+02  0.51079846461E+01 -0.86913288015E+02  0.92944609500E+02  0.00000000000E+00 0. -1.
         22    1    3    3    0    0  0.11509935000E+03 -0.84548096525E+02 -0.27535976153E+02  0.14544576645E+03  0.00000000000E+00 0. -1.
</event>
<event>
 7    1  0.5779468E-006  0.8138115E+02  0.7818608E-02  0.1331591E+00
          2   -1    0    0  502    0  0.00000000000E+00  0.00000000000E+00  0.18475193110E+03  0.18475193110E+03  0.00000000000E+00 0. -1.
          1   -1    0    0  501    0 -0.00000000000E+00 -0.00000000000E+00 -0.36727354746E+03  0.36727354746E+03  0.00000000000E+00 0. -1.
         25    2    1    2    0    0  0.78240034386E+01 -0.19030995720E+02  0.27361553492E+02  0.12960123051E+03  0.12499772202E+03 0.  0.
          2    1    1    2  501    0 -0.80082926577E+02 -0.18406151826E+02 -0.29406915733E+03  0.30533380233E+03  0.00000000000E+00 0. -1.
          1    1    1    2  502    0  0.72258923138E+02  0.37437147546E+02  0.84185987485E+02  0.11709044572E+03  0.00000000000E+00 0. -1.
         22    1    3    3    0    0 -0.15653851290E+02 -0.34854664620E+02 -0.40737026885E+02  0.55851553832E+02  0.00000000000E+00 0.  1.
         22    1    3    3    0    0  0.23477854729E+02  0.15823668900E+02  0.68098580377E+02  0.73749676673E+02  0.00000000000E+00 0.  1.
</event>
<event>
 7    1  0.5779468E-006  0.5504904E+02  0.7818608E-02  0.1498091E+00
          2   -1    0    0  502    0  0.00000000000E+00  0.00000000000E+00  0.89506784177E+03  0.89506784177E+03  0.00000000000E+00 0. -1.
          1   -1    0    0  501    0 -0.00000000000E+00 -0.00000000000E+00 -0.73325142062E+02  0.73325142062E+02  0.00000000000E+00 0. -1.
         25    2    1    2    0    0  0.38919721695E+02 -0.18685144049E+02  0.28367698297E+03  0.31299015493E+03  0.12500530816E+03 0.  0.
          2    1    1    2  501    0  0.17379115839E+02  0.25849865344E+02 -0.53077039105E+02  0.61542028613E+02  0.00000000000E+00 0. -1.
          1    1    1    2  502    0 -0.56298837534E+02 -0.71647212946E+01  0.59114275584E+03  0.59386080029E+03  0.00000000000E+00 0. -1.
         22    1    3    3    0    0 -0.36110789354E+02  0.22358786151E+02  0.59919183200E+02  0.73445305781E+02  0.00000000000E+00 0. -1.
         22    1    3    3    0    0  0.75030511049E+02 -0.41043930200E+02  0.22375779977E+03  0.23954484915E+03  0.00000000000E+00 0. -1.
</event>
<event>
 7    1  0.5779468E-006  0.4224800E+02  0.7818608E-02  0.1492832E+00
          2   -1    0    0  502    0  0.00000000000E+00  0.00000000000E+00  0.15380819958E+03  0.15380819958E+03  0.00000000000E+00 0. -1.
          1   -1    0    0  501    0 -0.00000000000E+00 -0.00000000000E+00 -0.12383258164E+03  0.12383258164E+03  0.00000000000E+00 0. -1.
         25    2    1    2    0    0 -0.11199351008E+02  0.73630787244E+01  0.46948691918E+02  0.13418877118E+03  0.12499122467E+03 0.  0.
          2    1    1    2  501    0 -0.38033115086E+02 -0.18395000431E+02 -0.62536503736E+02  0.75469915752E+02  0.00000000000E+00 0. -1.
          1    1    1    2  502    0  0.49232466094E+02  0.11031921706E+02  0.45563429755E+02  0.67982094299E+02  0.00000000000E+00 0. -1.
         22    1    3    3    0    0  0.19921132692E+02  0.31617052913E+02 -0.29863059258E+02  0.47836093809E+02  0.00000000000E+00 0.  1.
         22    1    3    3    0    0 -0.31120483700E+02 -0.24253974189E+02  0.76811751176E+02  0.86352677367E+02  0.00000000000E+00 0.  1.
</event>
<event>
 7    1  0.5779468E-006  0.2832350E+02  0.7818608E-02  0.1670391E+00
          2   -1    0    0  502    0  0.00000000000E+00  0.00000000000E+00  0.14513518302E+03  0.14513518302E+03  0.00000000000E+00 0. -1.
          1   -1    0    0  501    0 -0.00000000000E+00 -0.00000000000E+00 -0.72651563385E+03  0.72651563385E+03  0.00000000000E+00 0. -1.
         25    2    1    2    0    0 -0.35478345762E+02 -0.24216681116E+02 -0.28091598150E+02  0.13512571733E+03  0.12499864374E+03 0.  0.
          2    1    1    2  501    0  0.78557468196E+01  0.19419806764E+02 -0.64258746466E+03  0.64292883851E+03  0.00000000000E+00 0. -1.
          1    1    1    2  502    0  0.27622598943E+02  0.47968743519E+01  0.89298611979E+02  0.93596261022E+02  0.00000000000E+00 0. -1.
         22    1    3    3    0    0 -0.66463253058E+02 -0.50949583266E+02  0.28943723333E+01  0.83794996469E+02  0.00000000000E+00 0. -1.
         22    1    3    3    0    0  0.30984907296E+02  0.26732902150E+02 -0.30985970483E+02  0.51330720863E+02  0.00000000000E+00 0. -1.
</event>
<event>
 7    1  0.5779468E-006  0.1071402E+03  0.7818608E-02  0.1281925E+00
          2   -1    0    0  502    0  0.00000000000E+00  0.00000000000E+00  0.99183972428E+03  0.99183972428E+03  0.00000000000E+00 0. -1.
          1   -1    0    0  501    0 -0.00000000000E+00 -0.00000000000E+00 -0.42264889512E+03  0.42264889512E+03  0.00000000000E+00 0. -1.
         25    2    1    2    0    0  0.50227363034E+02 -0.60603156009E+02 -0.52664527993E+01  0.14781249873E+03  0.12500107496E+03 0.  0.
          2    1    1    2  501    0  0.26051220186E+02  0.11186349423E+03 -0.33419845713E+03  0.35338465750E+03  0.00000000000E+00 0. -1.
          1    1    1    2  502    0 -0.76278583220E+02 -0.51260338218E+02  0.90865573908E+03  0.91329146317E+03  0.00000000000E+00 0. -1.
         22    1    3    3    0    0  0.45507240225E+01 -0.85071630376E+02 -0.30096324554E+02  0.90353085922E+02  0.00000000000E+00 0. -1.
         22    1    3    3    0    0  0.45676639012E+02  0.24468474367E+02  0.24829871754E+02  0.57459412811E+02  0.00000000000E+00 0. -1.
</event>
<event>
 7    1  0.5779468E-006  0.4734493E+02  0.7818608E-02  0.1535011E+00
          2   -1    0    0  502    0  0.00000000000E+00  0.00000000000E+00  0.12447066749E+04  0.12447066749E+04  0.00000000000E+00 0. -1.
          1   -1    0    0  501    0 -0.00000000000E+00 -0.00000000000E+00 -0.58315397258E+02  0.58315397258E+02  0.00000000000E+00 0. -1.
         25    2    1    2    0    0 -0.36144703251E+02 -0.33536094135E+02  0.12431188829E+03  0.18305533282E+03  0.12499880048E+03 0.  0.
          2    1    1    2  501    0  0.47442670428E+02  0.76317551568E+01 -0.86835821179E+01  0.48830884310E+02  0.00000000000E+00 0. -1.
          1    1    1    2  502    0 -0.11297967177E+02  0.25904338979E+02  0.10707629714E+04  0.10711358550E+04  0.00000000000E+00 0. -1.
         22    1    3    3    0    0  0.34494967307E+02 -0.20448693499E+02  0.72813084134E+00  0.40107131658E+02  0.00000000000E+00 0. -1.
         22    1    3    3    0    0 -0.70639670558E+02 -0.13087400637E+02  0.12358375745E+03  0.14294820117E+03  0.00000000000E+00 0. -1.
</event>
<event>
 7    1  0.5779468E-006  0.8911691E+02  0.7818608E-02  0.1427995E+00
          2   -1    0    0  502    0  0.00000000000E+00  0.00000000000E+00  0.22904114432E+03  0.22904114432E+03  0.00000000000E+00 0. -1.
          1   -1    0    0  501    0 -0.00000000000E+00 -0.00000000000E+00 -0.20673170751E+04  0.20673170751E+04  0.00000000000E+00 0. -1.
         25    2    1    2    0    0  0.41863030282E+02 -0.43135992286E+02  0.47945436259E+02  0.14675608576E+03  0.12500142685E+03 0.  0.
          2    1    1    2  501    0 -0.72436536014E+02  0.52432427323E+02 -0.20149668605E+04  0.20169500886E+04  0.00000000000E+00 0. -1.
          1    1    1    2  502    0  0.30573505733E+02 -0.92964350369E+01  0.12874549346E+03  0.13265204501E+03  0.00000000000E+00 0. -1.
         22    1    3    3    0    0 -0.39753813296E+02 -0.44950997879E+01 -0.76223761714E+01  0.40726799680E+02  0.00000000000E+00 0. -1.
         22    1    3    3    0    0  0.81616843577E+02 -0.38640892498E+02  0.55567812430E+02  0.10602928608E+03  0.00000000000E+00 0. -1.
</event>
<event>
 7    1  0.5779468E-006  0.8183979E+02  0.7818608E-02  0.1380900E+00
          2   -1    0    0  502    0  0.00000000000E+00  0.00000000000E+00  0.45843348725E+03  0.45843348725E+03  0.00000000000E+00 0. -1.
          1   -1    0    0  501    0 -0.00000000000E+00 -0.00000000000E+00 -0.98407874794E+03  0.98407874794E+03  0.00000000000E+00 0. -1.
         25    2    1    2    0    0 -0.10771172888E+03 -0.66376116274E+02 -0.17282821064E+02  0.17869189159E+03  0.12499796344E+03 0.  0.
          2    1    1    2  501    0  0.32814469524E+02  0.38261944511E+02 -0.88112715688E+03  0.88256774946E+03  0.00000000000E+00 0. -1.
          1    1    1    2  502    0  0.74897259360E+02  0.28114171762E+02  0.37276471724E+03  0.38125259414E+03  0.00000000000E+00 0. -1.
         22    1    3    3    0    0 -0.34851772752E+02  0.36509189987E+02  0.48002700107E+01  0.50701179568E+02  0.00000000000E+00 0.  1.
         22    1    3    3    0    0 -0.72859956132E+02 -0.10288530626E+03 -0.22083091074E+02  0.12799071202E+03  0.00000000000E+00 0.  1.
</event>
<event>
 7    1  0.5779468E-006  0.1731510E+03  0.7818608E-02  0.1247118E+00
          2   -1    0    0  502    0  0.00000000000E+00  0.00000000000E+00  0.77927662122E+03  0.77927662122E+03  0.00000000000E+00 0. -1.
          1   -1    0    0  501    0 -0.00000000000E+00 -0.00000000000E+00 -0.51390505804E+03  0.51390505804E+03  0.00000000000E+00 0. -1.
         25    2    1    2    0    0  0.11592372169E+03 -0.50970014294E+02  0.71046533000E+02  0.19159989745E+03  0.12500663680E+03 0.  0.
          2    1    1    2  501    0 -0.18071802834E+03  0.42794913502E+01 -0.43298674080E+03  0.46920660430E+03  0.00000000000E+00 0. -1.
          1    1    1    2  502    0  0.64794306645E+02  0.46690522944E+02  0.62731177099E+03  0.63237517750E+03  0.00000000000E+00 0. -1.
         22    1    3    3    0    0  0.13457965431E+01 -0.28853107989E+02  0.69096220021E+02  0.74890591065E+02  0.00000000000E+00 0.  1.
         22    1    3    3    0    0  0.11457792515E+03 -0.22116906305E+02  0.19503129799E+01  0.11670930638E+03  0.00000000000E+00 0.  1.
</event>
<event>
 7    1  0.5779468E-006  0.2309736E+03  0.7818608E-02  0.1220920E+00
          2   -1    0    0  502    0  0.00000000000E+00  0.00000000000E+00  0.67574883049E+03  0.67574883049E+03  0.00000000000E+00 0. -1.
          1   -1    0    0  501    0 -0.00000000000E+00 -0.00000000000E+00 -0.45221270796E+03  0.45221270796E+03  0.00000000000E+00 0. -1.
         25    2    1    2    0    0 -0.16650692423E+03 -0.41439140010E+02  0.22848881820E+03  0.31188742124E+03  0.12499946138E+03 0.  0.
          2    1    1    2  501    0  0.21629037548E+03  0.10191073454E+03 -0.37120308024E+03  0.44154167540E+03  0.00000000000E+00 0. -1.
          1    1    1    2  502    0 -0.49783451247E+02 -0.60471594531E+02  0.36625038457E+03  0.37453244180E+03  0.00000000000E+00 0. -1.
         22    1    3    3    0    0 -0.88407652185E+02 -0.14396249037E+02  0.20839730055E+03  0.22683165526E+03  0.00000000000E+00 0. -1.
         22    1    3    3    0    0 -0.78099272043E+02 -0.27042890973E+02  0.20091517655E+02  0.85055765986E+02  0.00000000000E+00 0. -1.
</event>
<event>
 7    1  0.5779468E-006  0.5568478E+02  0.7818608E-02  0.1513302E+00
          2   -1    0    0  502    0  0.00000000000E+00  0.00000000000E+00  0.23386063260E+03  0.23386063260E+03  0.00000000000E+00 0. -1.
          1   -1    0    0  501    0 -0.00000000000E+00 -0.00000000000E+00 -0.89444616004E+03  0.89444616004E+03  0.00000000000E+00 0. -1.
         25    2    1    2    0    0 -0.66193423293E+02 -0.46270682097E+02 -0.16269044973E+03  0.22048745637E+03  0.12499596263E+03 0.  0.
          2    1    1    2  501    0  0.49026917195E+02  0.24455236901E+02 -0.70084323158E+03  0.70298145955E+03  0.00000000000E+00 0. -1.
          1    1    1    2  502    0  0.17166506099E+02  0.21815445197E+02  0.20294815387E+03  0.20483787672E+03  0.00000000000E+00 0. -1.
         22    1    3    3    0    0 -0.49141042183E+02  0.38426957757E+02 -0.70688456275E+02  0.94277945247E+02  0.00000000000E+00 0.  1.
         22    1    3    3    0    0 -0.17052381110E+02 -0.84697639854E+02 -0.92001993456E+02  0.12620951112E+03  0.00000000000E+00 0.  1.
</event>
<event>
 7    1  0.9201395E-006  0.1046871E+03  0.7818608E-02  0.1289268E+00
          2   -1    0    0  502    0  0.00000000000E+00  0.00000000000E+00  0.15959751689E+04  0.15959751689E+04  0.00000000000E+00 0. -1.
          1   -1    0    0  501    0 -0.00000000000E+00 -0.00000000000E+00 -0.20966554660E+04  0.20966554660E+04  0.00000000000E+00 0. -1.
         25    2    1    2    0    0  0.92166636010E+02  0.23518836020E+01 -0.25579147966E+03  0.29925691619E+03  0.12500080269E+03 0.  0.
          2    1    1    2  501    0 -0.30200546072E+02  0.82403238292E+02 -0.18163199856E+04  0.18184390715E+04  0.00000000000E+00 0. -1.
          1    1    1    2  502    0 -0.61966089938E+02 -0.84755121894E+02  0.15714311681E+04  0.15749346472E+04  0.00000000000E+00 0. -1.
         22    1    3    3    0    0  0.82808780827E+02  0.52181206102E+02 -0.20660966874E+03  0.22862136310E+03  0.00000000000E+00 0. -1.
         22    1    3    3    0    0  0.93578551832E+01 -0.49829322500E+02 -0.49181810925E+02  0.70635553090E+02  0.00000000000E+00 0. -1.
</event>
<event>
 7    1  0.5779468E-006  0.1201957E+03  0.7818608E-02  0.1439935E+00
          2   -1    0    0  502    0  0.00000000000E+00  0.00000000000E+00  0.49096361984E+03  0.49096361984E+03  0.00000000000E+00 0. -1.
          1   -1    0    0  501    0 -0.00000000000E+00 -0.00000000000E+00 -0.83649104177E+03  0.83649104177E+03  0.00000000000E+00 0. -1.
         25    2    1    2    0    0  0.12655915109E+03  0.10961071790E+02 -0.45437920178E+02  0.18392152887E+03  0.12500064148E+03 0.  0.
          2    1    1    2  501    0 -0.11603399753E+03 -0.29884719075E+02 -0.71655554857E+03  0.72650453489E+03  0.00000000000E+00 0. -1.
          1    1    1    2  502    0 -0.10525153561E+02  0.18923647285E+02  0.41646604681E+03  0.41702859786E+03  0.00000000000E+00 0. -1.
         22    1    3    3    0    0  0.10808767142E+03  0.51968525462E+02 -0.63200498721E+02  0.13556539157E+03  0.00000000000E+00 0. -1.
         22    1    3    3    0    0  0.18471479673E+02 -0.41007453672E+02  0.17762578544E+02  0.48356137299E+02  0.00000000000E+00 0. -1.
</event>
<event>
 7    1  0.5779468E-006  0.9808378E+02  0.7818608E-02  0.1347659E+00
          2   -1    0    0  502    0  0.00000000000E+00  0.00000000000E+00  0.48826062691E+03  0.48826062691E+03  0.00000000000E+00 0. -1.
          1   -1    0    0  501    0 -0.00000000000E+00 -0.00000000000E+00 -0.22412452430E+03  0.22412452430E+03  0.00000000000E+00 0. -1.
         25    2    1    2    0    0  0.80836979340E+01 -0.14491510298E+03  0.17607340802E+03  0.26017646755E+03  0.12499686400E+03 0.  0.
          2    1    1    2  501    0 -0.30597446795E+01  0.55429445350E+02 -0.17010054763E+03  0.17893010298E+03  0.00000000000E+00 0. -1.
          1    1    1    2  502    0 -0.50239532545E+01  0.89485657628E+02  0.25816324221E+03  0.27327858068E+03  0.00000000000E+00 0. -1.
         22    1    3    3    0    0  0.27412406475E+02 -0.12444810241E+03  0.60205630587E+02  0.14093788766E+03  0.00000000000E+00 0.  1.
         22    1    3    3    0    0 -0.19328708541E+02 -0.20467000564E+02  0.11586777744E+03  0.11923857989E+03  0.00000000000E+00 0.  1.
</event>
<event>
 7    1  0.5779468E-006  0.6427503E+02  0.7818608E-02  0.1519917E+00
          2   -1    0    0  502    0  0.00000000000E+00  0.00000000000E+00  0.42572833663E+03  0.42572833663E+03  0.00000000000E+00 0. -1.
          1   -1    0    0  501    0 -0.00000000000E+00 -0.00000000000E+00 -0.12376231337E+03  0.12376231337E+03  0.00000000000E+00 0. -1.
         25    2    1    2    0    0  0.68229326525E+02  0.44745619313E+02 -0.19630308839E+02  0.15055996273E+03  0.12500216760E+03 0.  0.
          2    1    1    2  501    0 -0.90004475820E+01 -0.21170604310E+02 -0.32124216948E+02  0.39511616748E+02  0.00000000000E+00 0. -1.
          1    1    1    2  502    0 -0.59228878943E+02 -0.23575015003E+02  0.35372054905E+03  0.35941907052E+03  0.00000000000E+00 0. -1.
         22    1    3    3    0    0 -0.33395525085E+02  0.33018073743E+02 -0.52472283341E+01  0.47254499199E+02  0.00000000000E+00 0. -1.
         22    1    3    3    0    0  0.10162485161E+03  0.11727545570E+02 -0.14383080505E+02  0.10330546353E+03  0.00000000000E+00 0. -1.
</event>
<event>
 7    1  0.5779468E-006  0.4487756E+02  0.7818608E-02  0.1582769E+00
          2   -1    0    0  502    0  0.00000000000E+00  0.00000000000E+00  0.63994417318E+03  0.63994417318E+03  0.00000000000E+00 0. -1.
          1   -1    0    0  501    0 -0.00000000000E+00 -0.00000000000E+00 -0.88377873970E+03  0.88377873970E+03  0.00000000000E+00 0. -1.
         25    2    1    2    0    0  0.20460316525E+02  0.13813650202E+02  0.17468135684E+03  0.21621255138E+03  0.12499939785E+03 0.  0.
          2    1    1    2  501    0  0.13197825136E+02  0.17621687488E+02 -0.86167920993E+03  0.86196042095E+03  0.00000000000E+00 0. -1.
          1    1    1    2  502    0 -0.33658141661E+02 -0.31435337691E+02  0.44316328658E+03  0.44554994055E+03  0.00000000000E+00 0. -1.
         22    1    3    3    0    0 -0.12031158643E+02  0.52826092128E+02  0.15054364632E+03  0.15999604444E+03  0.00000000000E+00 0. -1.
         22    1    3    3    0    0  0.32491475167E+02 -0.39012441925E+02  0.24137710514E+02  0.56216506939E+02  0.00000000000E+00 0. -1.
</event>
<event>
 7    1  0.5779468E-006  0.8217395E+02  0.7818608E-02  0.1384662E+00
          2   -1    0    0  502    0  0.00000000000E+00  0.00000000000E+00  0.61468207091E+03  0.61468207091E+03  0.00000000000E+00 0. -1.
          1   -1    0    0  501    0 -0.00000000000E+00 -0.00000000000E+00 -0.88062957258E+03  0.88062957258E+03  0.00000000000E+00 0. -1.
         25    2    1    2    0    0 -0.70737774236E+02  0.80718535348E+02  0.16057335335E+03  0.23006338549E+03  0.12500417947E+03 0.  0.
          2    1    1    2  501    0  0.22078035321E+02 -0.78996460271E+02 -0.84247275937E+03  0.84645627806E+03  0.00000000000E+00 0. -1.
          1    1    1    2  502    0  0.48659738915E+02 -0.17220750767E+01  0.41595190435E+03  0.41879197994E+03  0.00000000000E+00 0. -1.
         22    1    3    3    0    0 -0.47943115887E+02  0.83666185475E+02  0.35281644468E+02  0.10268090080E+03  0.00000000000E+00 0. -1.
         22    1    3    3    0    0 -0.22794658349E+02 -0.29476501272E+01  0.12529170888E+03  0.12738248469E+03  0.00000000000E+00 0. -1.
</event>
<event>
 7    1  0.5779468E-006  0.3403378E+02  0.7818608E-02  0.1591014E+00
          2   -1    0    0  502    0  0.00000000000E+00  0.00000000000E+00  0.92434269993E+03  0.92434269993E+03  0.00000000000E+00 0. -1.
          1   -1    0    0  501    0 -0.00000000000E+00 -0.00000000000E+00 -0.24647139669E+03  0.24647139669E+03  0.00000000000E+00 0. -1.
         25    2    1    2    0    0 -0.35457059801E+02 -0.29793647075E+02  0.13380084824E+03  0.18887198474E+03  0.12500038054E+03 0.  0.
          2    1    1    2  501    0  0.33932567379E+02  0.22332616580E+01 -0.21736376222E+03  0.22000775375E+03  0.00000000000E+00 0. -1.
          1    1    1    2  502    0  0.15244924220E+01  0.27560385417E+02  0.76143421723E+03  0.76193435812E+03  0.00000000000E+00 0. -1.
         22    1    3    3    0    0  0.30235591349E+02  0.20462662257E+02  0.65342054355E+01  0.37089181327E+02  0.00000000000E+00 0. -1.
         22    1    3    3    0    0 -0.65692651150E+02 -0.50256309332E+02  0.12726664280E+03  0.15178280341E+03  0.00000000000E+00 0. -1.
</event>
<event>
 7    1  0.5779468E-006  0.8165818E+02  0.7818608E-02  0.1343675E+00
          2   -1    0    0  502    0  0.00000000000E+00  0.00000000000E+00  0.14099656860E+03  0.14099656860E+03  0.00000000000E+00 0. -1.
          1   -1    0    0  501    0 -0.00000000000E+00 -0.00000000000E+00 -0.50837499108E+03  0.50837499108E+03  0.00000000000E+00 0. -1.
         25    2    1    2    0    0 -0.21407768836E+02  0.10774037695E+03 -0.60879456306E+02  0.17719501713E+03  0.12500193800E+03 0.  0.
          2    1    1    2  501    0 -0.40088661577E+02 -0.56160853314E+02 -0.36588333467E+03  0.37233285756E+03  0.00000000000E+00 0. -1.
          1    1    1    2  502    0  0.61496430412E+02 -0.51579523639E+02  0.59384368493E+02  0.99843684996E+02  0.00000000000E+00 0. -1.
         22    1    3    3    0    0  0.28674795728E+02  0.72715735481E+01 -0.57756696269E+02  0.64891876655E+02  0.00000000000E+00 0.  1.
         22    1    3    3    0    0 -0.50082564564E+02  0.10046880340E+03 -0.31227600371E+01  0.11230314048E+03  0.00000000000E+00 0.  1.
</event>
<event>
 7    1  0.5779468E-006  0.4053377E+02  0.7818608E-02  0.1516045E+00
          2   -1    0    0  502    0  0.00000000000E+00  0.00000000000E+00  0.15526864789E+03  0.15526864789E+03  0.00000000000E+00 0. -1.
          1   -1    0    0  501    0 -0.00000000000E+00 -0.00000000000E+00 -0.28207276811E+03  0.28207276811E+03  0.00000000000E+00 0. -1.
         25    2    1    2    0    0 -0.23657709848E+02 -0.15184674009E+01 -0.18049817417E+03  0.22082341085E+03  0.12498557886E+03 0.  0.
          2    1    1    2  501    0  0.35490748497E+01  0.37269165475E+02 -0.73710694976E+02  0.82673170868E+02  0.00000000000E+00 0. -1.
          1    1    1    2  502    0  0.20108634999E+02 -0.35750698074E+02  0.12740474893E+03  0.13384483428E+03  0.00000000000E+00 0. -1.
         22    1    3    3    0    0  0.21739705674E+02 -0.56629808905E+01  0.10257624598E+02  0.24696214644E+02  0.00000000000E+00 0.  1.
         22    1    3    3    0    0 -0.45397415523E+02  0.41445134897E+01 -0.19075579877E+03  0.19612719621E+03  0.00000000000E+00 0.  1.
</event>
<event>
 7    1  0.5779468E-006  0.9810615E+02  0.7818608E-02  0.1345125E+00
          2   -1    0    0  502    0  0.00000000000E+00  0.00000000000E+00  0.14388145589E+04  0.14388145589E+04  0.00000000000E+00 0. -1.
          1   -1    0    0  501    0 -0.00000000000E+00 -0.00000000000E+00 -0.82155207164E+02  0.82155207164E+02  0.00000000000E+00 0. -1.
         25    2    1    2    0    0  0.69641728484E+02  0.58224509472E+02  0.25531046580E+02  0.15657794591E+03  0.12499901982E+03 0.  0.
          2    1    1    2  501    0 -0.43075724701E+02  0.36901286266E+02  0.39797905239E+02  0.69289943340E+02  0.00000000000E+00 0. -1.
          1    1    1    2  502    0 -0.26566003783E+02 -0.95125795738E+02  0.12913303999E+04  0.12951018768E+04  0.00000000000E+00 0. -1.
         22    1    3    3    0    0  0.11136759355E+02 -0.26649516715E+02  0.43224069870E+02  0.51986001637E+02  0.00000000000E+00 0.  1.
         22    1    3    3    0    0  0.58504969129E+02  0.84874026187E+02 -0.17693023290E+02  0.10459194427E+03  0.00000000000E+00 0.  1.
</event>
<event>
 7    1  0.5779468E-006  0.5926788E+02  0.7818608E-02  0.1428437E+00
          2   -1    0    0  502    0  0.00000000000E+00  0.00000000000E+00  0.47183990718E+02  0.47183990718E+02  0.00000000000E+00 0. -1.
          1   -1    0    0  501    0 -0.00000000000E+00 -0.00000000000E+00 -0.59628522350E+03  0.59628522350E+03  0.00000000000E+00 0. -1.
         25    2    1    2    0    0  0.56084083260E+02  0.13139361535E+02 -0.29382268679E+03  0.32445931087E+03  0.12499602361E+03 0.  0.
          2    1    1    2  501    0 -0.26050189463E+02  0.40183042382E+02 -0.25329145529E+03  0.25777868529E+03  0.00000000000E+00 0. -1.
          1    1    1    2  502    0 -0.30033893798E+02 -0.53322403918E+02 -0.19870907027E+01  0.61231218065E+02  0.00000000000E+00 0. -1.
         22    1    3    3    0    0  0.85311146957E+02 -0.13894820270E+02 -0.25334197048E+03  0.26768117572E+03  0.00000000000E+00 0.  1.
         22    1    3    3    0    0 -0.29227063697E+02  0.27034181805E+02 -0.40480716308E+02  0.56778135149E+02  0.00000000000E+00 0.  1.
</event>
<event>
 7    1  0.5779468E-006  0.1151340E+03  0.7818608E-02  0.1336253E+00
          2   -1    0    0  502    0  0.00000000000E+00  0.00000000000E+00  0.71226249270E+02  0.71226249270E+02  0.00000000000E+00 0. -1.
          1   -1    0    0  501    0 -0.00000000000E+00 -0.00000000000E+00 -0.14264791619E+04  0.14264791619E+04  0.00000000000E+00 0. -1.
         25    2    1    2    0    0 -0.43471342427E+02  0.62991020948E+02 -0.14985264902E+03  0.20961484243E+03  0.12499975767E+03 0.  0.
          2    1    1    2  501    0  0.94834393393E+02 -0.72237605888E+02 -0.12261474378E+04  0.12319291267E+04  0.00000000000E+00 0. -1.
          1    1    1    2  502    0 -0.51363050965E+02  0.92465849399E+01  0.20747174208E+02  0.56161442068E+02  0.00000000000E+00 0. -1.
         22    1    3    3    0    0  0.20051721196E+02 -0.74510190057E+01  0.10097151702E+02  0.23654633365E+02  0.00000000000E+00 0.  1.
         22    1    3    3    0    0 -0.63523063623E+02  0.70442039953E+02 -0.15994980072E+03  0.18596020907E+03  0.00000000000E+00 0.  1.
</event>
<event>
 7    1  0.5779468E-006  0.1155620E+03  0.7818608E-02  0.1389504E+00
          2   -1    0    0  502    0  0.00000000000E+00  0.00000000000E+00  0.29758885297E+03  0.29758885297E+03  0.00000000000E+00 0. -1.
          1   -1    0    0  501    0 -0.00000000000E+00 -0.00000000000E+00 -0.10471414157E+04  0.10471414157E+04  0.00000000000E+00 0. -1.
         25    2    1    2    0    0  0.10200520426E+03 -0.62187597490E+01  0.72265478943E+02  0.17689138354E+03  0.12499810981E+03 0.  0.
          2    1    1    2  501    0 -0.11328112741E+03 -0.25109646102E+02 -0.98980566960E+03  0.99658334911E+03  0.00000000000E+00 0. -1.
          1    1    1    2  502    0  0.11275923149E+02  0.31328405851E+02  0.16798762796E+03  0.17125553598E+03  0.00000000000E+00 0. -1.
         22    1    3    3    0    0  0.11314506306E+03  0.33353618110E+02  0.66403668869E+02  0.13536512245E+03  0.00000000000E+00 0.  1.
         22    1    3    3    0    0 -0.11139858798E+02 -0.39572377859E+02  0.58618100733E+01  0.41526261098E+02  0.00000000000E+00 0.  1.
</event>
<event>
 7    1  0.5779468E-006  0.1266235E+03  0.7818608E-02  0.1326858E+00
          2   -1    0    0  502    0  0.00000000000E+00  0.00000000000E+00  0.32591666879E+04  0.32591666879E+04  0.00000000000E+00 0. -1.
          1   -1    0    0  501    0 -0.00000000000E+00 -0.00000000000E+00 -0.43414132314E+03  0.43414132314E+03  0.00000000000E+00 0. -1.
         25    2    1    2    0    0  0.10574111514E+03  0.10664256768E+03  0.20057726694E+04  0.20152677406E+04  0.12500497713E+03 0.  0.
          2    1    1    2  501    0 -0.44326814517E+01 -0.51340292399E+02 -0.42516748824E+03  0.42827895973E+03  0.00000000000E+00 0. -1.
          1    1    1    2  502    0 -0.10130843368E+03 -0.55302275280E+02  0.12444201836E+04  0.12497613107E+04  0.00000000000E+00 0. -1.
         22    1    3    3    0    0  0.39952342606E+01 -0.13280987862E+02  0.27946333478E+02  0.31198462947E+02  0.00000000000E+00 0.  1.
         22    1    3    3    0    0  0.10174588088E+03  0.11992355554E+03  0.19778263359E+04  0.19840692776E+04  0.00000000000E+00 0.  1.
</event>
<event>
 7    1  0.5779468E-006  0.1431711E+03  0.7818608E-02  0.1400040E+00
          2   -1    0    0  502    0  0.00000000000E+00  0.00000000000E+00  0.26821853183E+04  0.26821853183E+04  0.00000000000E+00 0. -1.
          1   -1    0    0  501    0 -0.00000000000E+00 -0.00000000000E+00 -0.97763560638E+02  0.97763560638E+02  0.00000000000E+00 0. -1.
         25    2    1    2    0    0  0.75024416708E+02 -0.10517503202E+03  0.13424283994E+04  0.13544109043E+04  0.12499775839E+03 0.  0.
          2    1    1    2  501    0  0.17915104326E+02 -0.17016147182E+02 -0.85601558955E+02  0.89096167839E+02  0.00000000000E+00 0. -1.
          1    1    1    2  502    0 -0.92939521034E+02  0.12219117920E+03  0.13275949172E+04  0.13364418069E+04  0.00000000000E+00 0. -1.
         22    1    3    3    0    0  0.60174340537E+02 -0.12049013087E+03  0.77741037016E+03  0.78899030826E+03  0.00000000000E+00 0. -1.
         22    1    3    3    0    0  0.14850076171E+02  0.15315098855E+02  0.56501802927E+03  0.56542059603E+03  0.00000000000E+00 0. -1.
</event>
<event>
 7    1  0.5779468E-006  0.1220959E+03  0.7818608E-02  0.1354364E+00
          2   -1    0    0  502    0  0.00000000000E+00  0.00000000000E+00  0.12133697775E+03  0.12133697775E+03  0.00000000000E+00 0. -1.
          1   -1    0    0  501    0 -0.00000000000E+00 -0.00000000000E+00 -0.10612620567E+04  0.10612620567E+04  0.00000000000E+00 0. -1.
         25    2    1    2    0    0  0.70655457260E+02  0.12364035168E+03 -0.22552818972E+03  0.29456272743E+03  0.12500042332E+03 0.  0.
          2    1    1    2  501    0 -0.41408448500E+02 -0.77100636462E+01 -0.75919066830E+03  0.76035818896E+03  0.00000000000E+00 0. -1.
          1    1    1    2  502    0 -0.29247008759E+02 -0.11593028803E+03  0.44793779026E+02  0.12767811811E+03  0.00000000000E+00 0. -1.
         22    1    3    3    0    0  0.21018987441E+02  0.91412200524E+02 -0.43950484189E+02  0.10358394324E+03  0.00000000000E+00 0.  1.
         22    1    3    3    0    0  0.49636469818E+02  0.32228151154E+02 -0.18157770554E+03  0.19097878419E+03  0.00000000000E+00 0.  1.
</event>
<event>
 7    1  0.5779468E-006  0.1605040E+03  0.7818608E-02  0.1319302E+00
          2   -1    0    0  502    0  0.00000000000E+00  0.00000000000E+00  0.25193957336E+04  0.25193957336E+04  0.00000000000E+00 0. -1.
          1   -1    0    0  501    0 -0.00000000000E+00 -0.00000000000E+00 -0.95971167220E+02  0.95971167220E+02  0.00000000000E+00 0. -1.
         25    2    1    2    0    0  0.82089427184E+02  0.10898910186E+03  0.75003234567E+02  0.19966931776E+03  0.12500021152E+03 0.  0.
          2    1    1    2  501    0  0.42996091647E+02 -0.64607053481E+01 -0.15568092596E+02  0.46181924143E+02  0.00000000000E+00 0. -1.
          1    1    1    2  502    0 -0.12508551883E+03 -0.10252839651E+03  0.23639894244E+04  0.23695156589E+04  0.00000000000E+00 0. -1.
         22    1    3    3    0    0  0.41730694154E+02  0.12080399904E+03  0.18357457932E+02  0.12912030546E+03  0.00000000000E+00 0. -1.
         22    1    3    3    0    0  0.40358733030E+02 -0.11814897181E+02  0.56645776635E+02  0.70549012309E+02  0.00000000000E+00 0. -1.
</event>
<event>
 7    1  0.5779468E-006  0.1444926E+03  0.7818608E-02  0.1251134E+00
          2   -1    0    0  502    0  0.00000000000E+00  0.00000000000E+00  0.55685342255E+03  0.55685342255E+03  0.00000000000E+00 0. -1.
          1   -1    0    0  501    0 -0.00000000000E+00 -0.00000000000E+00 -0.52215414660E+03  0.52215414660E+03  0.00000000000E+00 0. -1.
         25    2    1    2    0    0 -0.58965633422E+02  0.14691097883E+03  0.18219546939E+03  0.27180701506E+03  0.12499633091E+03 0.  0.
          2    1    1    2  501    0 -0.32805030011E+02 -0.14139616554E+03 -0.45952745900E+03  0.48190718110E+03  0.00000000000E+00 0. -1.
          1    1    1    2  502    0  0.91770663433E+02 -0.55148132922E+01  0.31203126555E+03  0.32529337299E+03  0.00000000000E+00 0. -1.
         22    1    3    3    0    0 -0.62205048150E+02  0.19960531896E+02  0.25539274050E+02  0.70143747889E+02  0.00000000000E+00 0.  1.
         22    1    3    3    0    0  0.32394147278E+01  0.12695044694E+03  0.15665619534E+03  0.20166326717E+03  0.00000000000E+00 0.  1.
</event>
<event>
 7    1  0.5779468E-006  0.1341204E+03  0.7818608E-02  0.1329723E+00
          2   -1    0    0  502    0  0.00000000000E+00  0.00000000000E+00  0.49475917919E+03  0.49475917919E+03  0.00000000000E+00 0. -1.
          1   -1    0    0  501    0 -0.00000000000E+00 -0.00000000000E+00 -0.40373899759E+03  0.40373899759E+03  0.00000000000E+00 0. -1.
         25    2    1    2    0    0  0.46392401399E+02  0.17266491488E+03  0.16638624341E+03  0.27436232205E+03  0.12499949609E+03 0.  0.
          2    1    1    2  501    0 -0.30112060397E+02 -0.12810907232E+03 -0.33514739333E+03  0.36005894773E+03  0.00000000000E+00 0. -1.
          1    1    1    2  502    0 -0.16280341003E+02 -0.44555842567E+02  0.25978133151E+03  0.26407690700E+03  0.00000000000E+00 0. -1.
         22    1    3    3    0    0 -0.40027818693E+02  0.36676717468E+02  0.61849217961E+02  0.82296619833E+02  0.00000000000E+00 0.  1.
         22    1    3    3    0    0  0.86420220093E+02  0.13598819742E+03  0.10453702545E+03  0.19206570221E+03  0.00000000000E+00 0.  1.
</event>
<event>
 7    1  0.5779468E-006  0.8751691E+02  0.7818608E-02  0.1327644E+00
          2   -1    0    0  502    0  0.00000000000E+00  0.00000000000E+00  0.14164326564E+04  0.14164326564E+04  0.00000000000E+00 0. -1.
          1   -1    0    0  501    0 -0.00000000000E+00 -0.00000000000E+00 -0.75955198790E+03  0.75955198790E+03  0.00000000000E+00 0. -1.
         25    2    1    2    0    0 -0.20374829377E+02  0.15955993439E+03  0.32264477578E+03  0.38157386434E+03  0.12499782507E+03 0.  0.
          2    1    1    2  501    0  0.74190859979E+01 -0.86660412483E+02 -0.72620152322E+03  0.73139163398E+03  0.00000000000E+00 0. -1.
          1    1    1    2  502    0  0.12955743379E+02 -0.72899521911E+02  0.10604374159E+04  0.10630191460E+04  0.00000000000E+00 0. -1.
         22    1    3    3    0    0  0.19617129892E+02 -0.62072037283E+01  0.94668927925E+02  0.96879136443E+02  0.00000000000E+00 0.  1.
         22    1    3    3    0    0 -0.39991959269E+02  0.16576713812E+03  0.22797584785E+03  0.28469472789E+03  0.00000000000E+00 0.  1.
</event>
<event>
 7    1  0.5779468E-006  0.6527463E+03  0.7818608E-02  0.1114808E+00
          2   -1    0    0  502    0  0.00000000000E+00  0.00000000000E+00  0.13866320771E+04  0.13866320771E+04  0.00000000000E+00 0. -1.
          1   -1    0    0  501    0 -0.00000000000E+00 -0.00000000000E+00 -0.21597646752E+04  0.21597646752E+04  0.00000000000E+00 0. -1.
         25    2    1    2    0    0  0.18661855055E+03  0.67535327396E+03 -0.40547297555E+03  0.81912260283E+03  0.12499990606E+03 0.  0.
          2    1    1    2  501    0 -0.86445901447E+02 -0.36784123913E+02 -0.14573082299E+04  0.14603332643E+04  0.00000000000E+00 0. -1.
          1    1    1    2  502    0 -0.10017264910E+03 -0.63856915004E+03  0.10896486074E+04  0.12669408852E+04  0.00000000000E+00 0. -1.
         22    1    3    3    0    0  0.49714706242E+01  0.18784029403E+03 -0.72335449733E+02  0.20134822788E+03  0.00000000000E+00 0. -1.
         22    1    3    3    0    0  0.18164707992E+03  0.48751297993E+03 -0.33313752582E+03  0.61777437495E+03  0.00000000000E+00 0. -1.
</event>
<event>
 7    1  0.5779468E-006  0.6438959E+02  0.7818608E-02  0.1453034E+00
          2   -1    0    0  502    0  0.00000000000E+00  0.00000000000E+00  0.11828626680E+04  0.11828626680E+04  0.00000000000E+00 0. -1.
          1   -1    0    0  501    0 -0.00000000000E+00 -0.00000000000E+00 -0.14242786478E+04  0.14242786478E+04  0.00000000000E+00 0. -1.
         25    2    1    2    0    0  0.10897768934E+02 -0.38351424642E+02 -0.31578559823E+02  0.13495135765E+03  0.12500028140E+03 0.  0.
          2    1    1    2  501    0 -0.47040635911E+02  0.44632815617E+02 -0.13399319782E+04  0.13415001364E+04  0.00000000000E+00 0. -1.
          1    1    1    2  502    0  0.36142866977E+02 -0.62813909754E+01  0.11300945582E+04  0.11306898218E+04  0.00000000000E+00 0. -1.
         22    1    3    3    0    0  0.48155457226E+02  0.14183850755E+02 -0.46952474286E+02  0.68736195156E+02  0.00000000000E+00 0. -1.
         22    1    3    3    0    0 -0.37257688292E+02 -0.52535275397E+02  0.15373914463E+02  0.66215162492E+02  0.00000000000E+00 0. -1.
</event>
<event>
 7    1  0.5779468E-006  0.1329027E+03  0.7818608E-02  0.1346012E+00
          2   -1    0    0  502    0  0.00000000000E+00  0.00000000000E+00  0.95382513280E+02  0.95382513280E+02  0.00000000000E+00 0. -1.
          1   -1    0    0  501    0 -0.00000000000E+00 -0.00000000000E+00 -0.55551639507E+03  0.55551639507E+03  0.00000000000E+00 0. -1.
         25    2    1    2    0    0 -0.50782713874E+02 -0.12245753023E+03 -0.22892822140E+03  0.29258851035E+03  0.12500070038E+03 0.  0.
          2    1    1    2  501    0 -0.36357663819E+02  0.20117583850E+02 -0.21948888555E+03  0.22338748349E+03  0.00000000000E+00 0. -1.
          1    1    1    2  502    0  0.87140377693E+02  0.10233994638E+03 -0.11716774844E+02  0.13492291452E+03  0.00000000000E+00 0. -1.
         22    1    3    3    0    0 -0.11476382897E+02 -0.11030510729E+03 -0.22551089491E+03  0.25130477071E+03  0.00000000000E+00 0. -1.
         22    1    3    3    0    0 -0.39306330977E+02 -0.12152422943E+02 -0.34173264889E+01  0.41283739639E+02  0.00000000000E+00 0. -1.
</event>
<event>
 7    1  0.5779468E-006  0.1719179E+03  0.7818608E-02  0.1340081E+00
          2   -1    0    0  502    0  0.00000000000E+00  0.00000000000E+00  0.22248438052E+04  0.22248438052E+04  0.00000000000E+00 0. -1.
          1   -1    0    0  501    0 -0.00000000000E+00 -0.00000000000E+00 -0.11346219011E+03  0.11346219011E+03  0.00000000000E+00 0. -1.
         25    2    1    2    0    0  0.84717811758E+02  0.16717183527E+03  0.81909619463E+03  0.84950981396E+03  0.12499927128E+03 0.  0.
          2    1    1    2  501    0 -0.51181985161E+02 -0.16289121675E+03 -0.23697057931E+02  0.17237950764E+03  0.00000000000E+00 0. -1.
          1    1    1    2  502    0 -0.33535826597E+02 -0.42806185192E+01  0.13159824784E+04  0.13164166737E+04  0.00000000000E+00 0. -1.
         22    1    3    3    0    0  0.80440981421E+02  0.14060862591E+03  0.43027352065E+03  0.45975737052E+03  0.00000000000E+00 0. -1.
         22    1    3    3    0    0  0.42768303374E+01  0.26563209366E+02  0.38882267398E+03  0.38975244344E+03  0.00000000000E+00 0. -1.
</event>
<event>
 7    1  0.5779468E-006  0.2906637E+03  0.7818608E-02  0.1215782E+00
          2   -1    0    0  502    0  0.00000000000E+00  0.00000000000E+00  0.12358359342E+04  0.12358359342E+04  0.00000000000E+00 0. -1.
          1   -1    0    0  501    0 -0.00000000000E+00 -0.00000000000E+00 -0.21221053916E+03  0.21221053916E+03  0.00000000000E+00 0. -1.
         25    2    1    2    0    0  0.27811113131E+03 -0.17148367224E+03  0.47261694217E+03  0.58800033386E+03  0.12500066953E+03 0.  0.
          2    1    1    2  501    0 -0.21377176210E+03  0.18479651414E+03 -0.21863663878E+02  0.28341866154E+03  0.00000000000E+00 0. -1.
          1    1    1    2  502    0 -0.64339369212E+02 -0.13312841894E+02  0.57287211672E+03  0.57662747793E+03  0.00000000000E+00 0. -1.
         22    1    3    3    0    0  0.15560989667E+03 -0.42791984011E+02  0.15335167905E+03  0.22262598973E+03  0.00000000000E+00 0.  1.
         22    1    3    3    0    0  0.12250123465E+03 -0.12869168823E+03  0.31926526312E+03  0.36537434412E+03  0.00000000000E+00 0.  1.
</event>
<event>
 7    1  0.5779468E-006  0.5993492E+02  0.7818608E-02  0.1538059E+00
          2   -1    0    0  502    0  0.00000000000E+00  0.00000000000E+00  0.86898431251E+03  0.86898431251E+03  0.00000000000E+00 0. -1.
          1   -1    0    0  501    0 -0.00000000000E+00 -0.00000000000E+00 -0.25853856376E+03  0.25853856376E+03  0.00000000000E+00 0. -1.
         25    2    1    2    0    0  0.57653080460E+02 -0.85072465861E+01  0.26760065329E+03  0.30106465216E+03  0.12503425214E+03 0.  0.
          2    1    1    2  501    0 -0.50814079235E+01 -0.21285721246E+02 -0.23974552400E+03  0.24074222503E+03  0.00000000000E+00 0. -1.
          1    1    1    2  502    0 -0.52571672537E+02  0.29792967832E+02  0.58259061946E+03  0.58571599907E+03  0.00000000000E+00 0. -1.
         22    1    3    3    0    0 -0.34102076653E+02 -0.27928466094E+02  0.80783711945E+02  0.92026946956E+02  0.00000000000E+00 0. -1.
         22    1    3    3    0    0  0.91755157113E+02  0.19421219508E+02  0.18681694134E+03  0.20903770520E+03  0.00000000000E+00 0. -1.
</event>
<event>
 7    1  0.5779468E-006  0.1025653E+03  0.7818608E-02  0.1363097E+00
          2   -1    0    0  502    0  0.00000000000E+00  0.00000000000E+00  0.98179144230E+03  0.98179144230E+03  0.00000000000E+00 0. -1.
          1   -1    0    0  501    0 -0.00000000000E+00 -0.00000000000E+00 -0.73697737236E+03  0.73697737236E+03  0.00000000000E+00 0. -1.
         25    2    1    2    0    0  0.59692396475E+02 -0.77552674775E+02  0.42449649214E+03  0.45321021561E+03  0.12499851254E+03 0.  0.
          2    1    1    2  501    0  0.35967597535E+02  0.29607831998E+02 -0.71658475974E+03  0.71809749316E+03  0.00000000000E+00 0. -1.
          1    1    1    2  502    0 -0.95659994010E+02  0.47944842777E+02  0.53690233754E+03  0.54746110589E+03  0.00000000000E+00 0. -1.
         22    1    3    3    0    0  0.61642490706E+02 -0.10979737527E+02  0.76302190083E+02  0.98703472624E+02  0.00000000000E+00 0.  1.
         22    1    3    3    0    0 -0.19500942306E+01 -0.66572937248E+02  0.34819430205E+03  0.35450674299E+03  0.00000000000E+00 0.  1.
</event>
<event>
 7    1  0.5779468E-006  0.7107707E+02  0.7818608E-02  0.1365762E+00
          2   -1    0    0  502    0  0.00000000000E+00  0.00000000000E+00  0.38485134187E+03  0.38485134187E+03  0.00000000000E+00 0. -1.
          1   -1    0    0  501    0 -0.00000000000E+00 -0.00000000000E+00 -0.70206511497E+03  0.70206511497E+03  0.00000000000E+00 0. -1.
         25    2    1    2    0    0  0.11147655320E+03  0.64751004916E+02 -0.48125311818E+02  0.18590649886E+03  0.12500186450E+03 0.  0.
          2    1    1    2  501    0 -0.67700646768E+02 -0.15697835680E+02 -0.57953036978E+03  0.58368248998E+03  0.00000000000E+00 0. -1.
          1    1    1    2  502    0 -0.43775906431E+02 -0.49053169235E+02  0.31044190850E+03  0.31732746800E+03  0.00000000000E+00 0. -1.
         22    1    3    3    0    0  0.13247678211E+03  0.77292133791E+02 -0.50140437681E+02  0.16136367384E+03  0.00000000000E+00 0. -1.
         22    1    3    3    0    0 -0.21000228907E+02 -0.12541128875E+02  0.20151258630E+01  0.24542825018E+02  0.00000000000E+00 0. -1.
</event>
<event>
 7    1  0.5779468E-006  0.8007202E+02  0.7818608E-02  0.1411845E+00
          2   -1    0    0  502    0  0.00000000000E+00  0.00000000000E+00  0.29162960948E+04  0.29162960948E+04  0.00000000000E+00 0. -1.
          1   -1    0    0  501    0 -0.00000000000E+00 -0.00000000000E+00 -0.72080260441E+02  0.72080260441E+02  0.00000000000E+00 0. -1.
         25    2    1    2    0    0 -0.89392661282E+02  0.52594888740E+02  0.25893529928E+03  0.30566275269E+03  0.12499983583E+03 0.  0.
          2    1    1    2  501    0  0.76709106820E+02 -0.14375103536E+02 -0.17203504633E+02  0.79918028270E+02  0.00000000000E+00 0. -1.
          1    1    1    2  502    0  0.12683554462E+02 -0.38219785204E+02  0.26024840397E+04  0.26027955742E+04  0.00000000000E+00 0. -1.
         22    1    3    3    0    0 -0.67741759843E+01 -0.26013383160E+02  0.50635816714E+01  0.27353709493E+02  0.00000000000E+00 0. -1.
         22    1    3    3    0    0 -0.82618485298E+02  0.78608271900E+02  0.25387171760E+03  0.27830904319E+03  0.00000000000E+00 0. -1.
</event>
<event>
 7    1  0.5779468E-006  0.5744377E+02  0.7818608E-02  0.1460370E+00
          2   -1    0    0  502    0  0.00000000000E+00  0.00000000000E+00  0.21347139509E+04  0.21347139509E+04  0.00000000000E+00 0. -1.
          1   -1    0    0  501    0 -0.00000000000E+00 -0.00000000000E+00 -0.98906704153E+01  0.98906704153E+01  0.00000000000E+00 0. -1.
         25    2    1    2    0    0 -0.21703422441E+02  0.38100791922E+02  0.16663303857E+04  0.16715874543E+04  0.12499981651E+03 0.  0.
          2    1    1    2  501    0 -0.11584255874E+02 -0.58377055498E+02  0.13968314275E+03  0.15183364568E+03  0.00000000000E+00 0. -1.
          1    1    1    2  502    0  0.33287678315E+02  0.20276263576E+02  0.31880975202E+03  0.32118352133E+03  0.00000000000E+00 0. -1.
         22    1    3    3    0    0 -0.18857961880E+02  0.53787067322E+02  0.31201457717E+03  0.31717781717E+03  0.00000000000E+00 0. -1.
         22    1    3    3    0    0 -0.28454605611E+01 -0.15686275400E+02  0.13543158085E+04  0.13544096371E+04  0.00000000000E+00 0. -1.
</event>
<event>
 7    1  0.5779468E-006  0.4927540E+02  0.7818608E-02  0.1520545E+00
          2   -1    0    0  502    0  0.00000000000E+00  0.00000000000E+00  0.12324877286E+04  0.12324877286E+04  0.00000000000E+00 0. -1.
          1   -1    0    0  501    0 -0.00000000000E+00 -0.00000000000E+00 -0.66208348864E+03  0.66208348864E+03  0.00000000000E+00 0. -1.
         25    2    1    2    0    0  0.56081356194E+01 -0.54210488725E+02  0.32644253315E+03  0.35378041588E+03  0.12500250773E+03 0.  0.
          2    1    1    2  501    0 -0.28091088766E+02  0.10187544313E+02 -0.64738510837E+03  0.64807435829E+03  0.00000000000E+00 0. -1.
          1    1    1    2  502    0  0.22482953147E+02  0.44022944412E+02  0.89134681514E+03  0.89271644304E+03  0.00000000000E+00 0. -1.
         22    1    3    3    0    0  0.24293241916E+02 -0.90714676437E+02  0.20218233539E+03  0.22292826395E+03  0.00000000000E+00 0. -1.
         22    1    3    3    0    0 -0.18685106297E+02  0.36504187713E+02  0.12426019776E+03  0.13085215193E+03  0.00000000000E+00 0. -1.
</event>
<event>
 7    1  0.5779468E-006  0.7156046E+02  0.7818608E-02  0.1407294E+00
          2   -1    0    0  502    0  0.00000000000E+00  0.00000000000E+00  0.50624995796E+03  0.50624995796E+03  0.00000000000E+00 0. -1.
          1   -1    0    0  501    0 -0.00000000000E+00 -0.00000000000E+00 -0.33314224273E+03  0.33314224273E+03  0.00000000000E+00 0. -1.
         25    2    1    2    0    0  0.47243982366E+02  0.43545693548E+02  0.40045682249E+03  0.42440437762E+03  0.12500075107E+03 0.  0.
          2    1    1    2  501    0 -0.95793027237E+01 -0.71136264533E+02 -0.31100740714E+03  0.31918292321E+03  0.00000000000E+00 0. -1.
          1    1    1    2  502    0 -0.37664679642E+02  0.27590570984E+02  0.83658299871E+02  0.95804899859E+02  0.00000000000E+00 0. -1.
         22    1    3    3    0    0  0.65889669905E+02  0.76793473536E+02  0.31442999073E+03  0.33031031660E+03  0.00000000000E+00 0. -1.
         22    1    3    3    0    0 -0.18645687540E+02 -0.33247779988E+02  0.86026831757E+02  0.94094061024E+02  0.00000000000E+00 0. -1.
</event>
<event>
 7    1  0.5779468E-006  0.1747767E+03  0.7818608E-02  0.1388636E+00
          2   -1    0    0  502    0  0.00000000000E+00  0.00000000000E+00  0.60432342632E+02  0.60432342632E+02  0.00000000000E+00 0. -1.
          1   -1    0    0  501    0 -0.00000000000E+00 -0.00000000000E+00 -0.22946922194E+04  0.22946922194E+04  0.00000000000E+00 0. -1.
         25    2    1    2    0    0 -0.11983567270E+03  0.10050016018E+03 -0.15142466324E+04  0.15274254368E+04  0.12499892179E+03 0.  0.
          2    1    1    2  501    0 -0.21537006673E+02  0.52580879083E+01 -0.62840203815E+03  0.62879298000E+03  0.00000000000E+00 0. -1.
          1    1    1    2  502    0  0.14137267937E+03 -0.10575824809E+03 -0.91611206147E+02  0.19890614521E+03  0.00000000000E+00 0. -1.
         22    1    3    3    0    0 -0.15090516334E+02 -0.18397380164E+02 -0.59606568583E+02  0.64180451061E+02  0.00000000000E+00 0. -1.
         22    1    3    3    0    0 -0.10474515636E+03  0.11889754035E+03 -0.14546400639E+04  0.14632449857E+04  0.00000000000E+00 0. -1.
</event>
<event>
 7    1  0.5779468E-006  0.6232989E+02  0.7818608E-02  0.1432999E+00
          2   -1    0    0  502    0  0.00000000000E+00  0.00000000000E+00  0.99901923501E+03  0.99901923501E+03  0.00000000000E+00 0. -1.
          1   -1    0    0  501    0 -0.00000000000E+00 -0.00000000000E+00 -0.20289605319E+04  0.20289605319E+04  0.00000000000E+00 0. -1.
         25    2    1    2    0    0 -0.41769141733E+02  0.95120149398E+02  0.44445325971E+03  0.47324085537E+03  0.12500281238E+03 0.  0.
          2    1    1    2  501    0  0.34748328268E+02 -0.51694751730E+02 -0.20131886787E+04  0.20141520424E+04  0.00000000000E+00 0. -1.
          1    1    1    2  502    0  0.70208134657E+01 -0.43425397669E+02  0.53879412217E+03  0.54058686912E+03  0.00000000000E+00 0. -1.
         22    1    3    3    0    0 -0.64581552091E+02  0.68053667983E+02  0.41967141802E+03  0.43003043811E+03  0.00000000000E+00 0. -1.
         22    1    3    3    0    0  0.22812410357E+02  0.27066481415E+02  0.24781841690E+02  0.43210417263E+02  0.00000000000E+00 0. -1.
</event>
<event>
 7    1  0.5779468E-006  0.1505122E+03  0.7818608E-02  0.1222205E+00
          2   -1    0    0  502    0  0.00000000000E+00  0.00000000000E+00  0.17367140622E+04  0.17367140622E+04  0.00000000000E+00 0. -1.
          1   -1    0    0  501    0 -0.00000000000E+00 -0.00000000000E+00 -0.29673745093E+04  0.29673745093E+04  0.00000000000E+00 0. -1.
         25    2    1    2    0    0  0.23894254852E+03 -0.90362534757E+02  0.54166228776E+03  0.61178601597E+03  0.12500066468E+03 0.  0.
          2    1    1    2  501    0 -0.14969310483E+03  0.12265981311E+02 -0.29273511694E+04  0.29312016902E+04  0.00000000000E+00 0. -1.
          1    1    1    2  502    0 -0.89249443692E+02  0.78096553445E+02  0.11550284345E+04  0.11611008653E+04  0.00000000000E+00 0. -1.
         22    1    3    3    0    0  0.16047935685E+02 -0.55083010288E+01 -0.29671380648E+01  0.17224445659E+02  0.00000000000E+00 0. -1.
         22    1    3    3    0    0  0.22289461283E+03 -0.84854233728E+02  0.54462942582E+03  0.59456157031E+03  0.00000000000E+00 0. -1.
</event>
<event>
 7    1  0.5779468E-006  0.1893227E+03  0.7818608E-02  0.1319699E+00
          2   -1    0    0  502    0  0.00000000000E+00  0.00000000000E+00  0.28133631242E+02  0.28133631242E+02  0.00000000000E+00 0. -1.
          1   -1    0    0  501    0 -0.00000000000E+00 -0.00000000000E+00 -0.21660017343E+04  0.21660017343E+04  0.00000000000E+00 0. -1.
         25    2    1    2    0    0  0.15108489585E+03  0.12527555011E+03 -0.83095364672E+03  0.86291917599E+03  0.12499972835E+03 0.  0.
          2    1    1    2  501    0  0.10274778240E+02 -0.35263316781E+02 -0.58087248749E+03  0.58203257581E+03  0.00000000000E+00 0. -1.
          1    1    1    2  502    0 -0.16135967409E+03 -0.90012233326E+02 -0.72604196880E+03  0.74918361370E+03  0.00000000000E+00 0. -1.
         22    1    3    3    0    0  0.47162578120E+02 -0.21169259216E+02 -0.14872153692E+03  0.15745012497E+03  0.00000000000E+00 0.  1.
         22    1    3    3    0    0  0.10392231773E+03  0.14644480932E+03 -0.68223210980E+03  0.70546905102E+03  0.00000000000E+00 0.  1.
</event>
<event>
 7    1  0.5779468E-006  0.1124850E+03  0.7818608E-02  0.1277360E+00
          2   -1    0    0  502    0  0.00000000000E+00  0.00000000000E+00  0.63860886159E+03  0.63860886159E+03  0.00000000000E+00 0. -1.
          1   -1    0    0  501    0 -0.00000000000E+00 -0.00000000000E+00 -0.43846068032E+03  0.43846068032E+03  0.00000000000E+00 0. -1.
         25    2    1    2    0    0  0.13822402833E+02 -0.10477724537E+03  0.65203300975E+02  0.17619907832E+03  0.12500125909E+03 0.  0.
          2    1    1    2  501    0 -0.95835252834E+02  0.64376113185E+02 -0.37006312267E+03  0.38765370422E+03  0.00000000000E+00 0. -1.
          1    1    1    2  502    0  0.82012850001E+02  0.40401132184E+02  0.50500800296E+03  0.51321675937E+03  0.00000000000E+00 0. -1.
         22    1    3    3    0    0  0.52827705165E+02 -0.12808255400E+01  0.25622884897E+02  0.58727669607E+02  0.00000000000E+00 0. -1.
         22    1    3    3    0    0 -0.39005302332E+02 -0.10349641983E+03  0.39580416078E+02  0.11747140871E+03  0.00000000000E+00 0. -1.
</event>
<event>
 7    1  0.5779468E-006  0.1581238E+03  0.7818608E-02  0.1340718E+00
          2   -1    0    0  502    0  0.00000000000E+00  0.00000000000E+00  0.10438790957E+04  0.10438790957E+04  0.00000000000E+00 0. -1.
          1   -1    0    0  501    0 -0.00000000000E+00 -0.00000000000E+00 -0.23349781004E+03  0.23349781004E+03  0.00000000000E+00 0. -1.
         25    2    1    2    0    0 -0.65188462701E+02  0.10516384747E+03 -0.59614647499E+02  0.18570937329E+03  0.12500037859E+03 0.  0.
          2    1    1    2  501    0 -0.14361783444E+02  0.33615457118E+02 -0.10108927473E+03  0.10749558710E+03  0.00000000000E+00 0. -1.
          1    1    1    2  502    0  0.79550246146E+02 -0.13877930458E+03  0.97108520784E+03  0.98417194530E+03  0.00000000000E+00 0. -1.
         22    1    3    3    0    0 -0.81203390122E+02  0.29207553819E+02  0.24358679386E+01  0.86330789525E+02  0.00000000000E+00 0.  1.
         22    1    3    3    0    0  0.16014927421E+02  0.75956293647E+02 -0.62050515437E+02  0.99378583764E+02  0.00000000000E+00 0.  1.
</event>
<event>
 7    1  0.5779468E-006  0.8289268E+02  0.7818608E-02  0.1425366E+00
          2   -1    0    0  502    0  0.00000000000E+00  0.00000000000E+00  0.21114266145E+04  0.21114266145E+04  0.00000000000E+00 0. -1.
          1   -1    0    0  501    0 -0.00000000000E+00 -0.00000000000E+00 -0.49558399509E+03  0.49558399509E+03  0.00000000000E+00 0. -1.
         25    2    1    2    0    0 -0.97534999739E+02  0.56612313026E+02  0.70874377909E+03  0.72846427099E+03  0.12499767817E+03 0.  0.
          2    1    1    2  501    0  0.78064145071E+02 -0.27468033737E+02 -0.48197618195E+03  0.48902918480E+03  0.00000000000E+00 0. -1.
          1    1    1    2  502    0  0.19470854667E+02 -0.29144279289E+02  0.13890750223E+04  0.13895171538E+04  0.00000000000E+00 0. -1.
         22    1    3    3    0    0 -0.99011902304E+02  0.90093362173E+02  0.53300299491E+03  0.54955651510E+03  0.00000000000E+00 0. -1.
         22    1    3    3    0    0  0.14769025651E+01 -0.33481049147E+02  0.17574078418E+03  0.17890775589E+03  0.00000000000E+00 0. -1.
</event>
<event>
 7    1  0.5779468E-006  0.6906603E+02  0.7818608E-02  0.1426176E+00
          2   -1    0    0  502    0  0.00000000000E+00  0.00000000000E+00  0.75985792167E+02  0.75985792167E+02  0.00000000000E+00 0. -1.
          1   -1    0    0  501    0 -0.00000000000E+00 -0.00000000000E+00 -0.29074800806E+04  0.29074800806E+04  0.00000000000E+00 0. -1.
         25    2    1    2    0    0 -0.37429328115E+01  0.63951064764E+02 -0.31830460129E+03  0.34791726624E+03  0.12499942687E+03 0.  0.
          2    1    1    2  501    0  0.44276967654E+02 -0.53711117055E+02 -0.25666994103E+04  0.25676431210E+04  0.00000000000E+00 0. -1.
          1    1    1    2  502    0 -0.40534034842E+02 -0.10239947708E+02  0.53509723087E+02  0.67905485599E+02  0.00000000000E+00 0. -1.
         22    1    3    3    0    0 -0.29360362543E+02  0.37501236909E+02 -0.30510668210E+03  0.30880165337E+03  0.00000000000E+00 0.  1.
         22    1    3    3    0    0  0.25617429732E+02  0.26449827855E+02 -0.13197919184E+02  0.39115612872E+02  0.00000000000E+00 0.  1.
</event>
<event>
 7    1  0.5779468E-006  0.9371629E+02  0.7818608E-02  0.1375482E+00
          2   -1    0    0  502    0  0.00000000000E+00  0.00000000000E+00  0.24475128852E+04  0.24475128852E+04  0.00000000000E+00 0. -1.
          1   -1    0    0  501    0 -0.00000000000E+00 -0.00000000000E+00 -0.39651626859E+03  0.39651626859E+03  0.00000000000E+00 0. -1.
         25    2    1    2    0    0 -0.91671472203E+02 -0.38101348668E+02  0.10136745998E+04  0.10261671053E+04  0.12500944785E+03 0.  0.
          2    1    1    2  501    0  0.60310793000E+02  0.71770867761E+02 -0.38426269684E+03  0.39553289294E+03  0.00000000000E+00 0. -1.
          1    1    1    2  502    0  0.31360679203E+02 -0.33669519093E+02  0.14215847136E+04  0.14223291555E+04  0.00000000000E+00 0. -1.
         22    1    3    3    0    0  0.21218876864E+02 -0.18229075706E+02  0.45475127332E+03  0.45561086524E+03  0.00000000000E+00 0.  1.
         22    1    3    3    0    0 -0.11289034907E+03 -0.19872272962E+02  0.55892332649E+03  0.57055624003E+03  0.00000000000E+00 0.  1.
</event>
<event>
 7    1  0.5779468E-006  0.1053085E+03  0.7818608E-02  0.1293087E+00
          2   -1    0    0  502    0  0.00000000000E+00  0.00000000000E+00  0.54993716979E+02  0.54993716979E+02  0.00000000000E+00 0. -1.
          1   -1    0    0  501    0 -0.00000000000E+00 -0.00000000000E+00 -0.15111391224E+04  0.15111391224E+04  0.00000000000E+00 0. -1.
         25    2    1    2    0    0 -0.57291835637E+02  0.53130608144E+02 -0.36075712120E+03  0.38971218678E+03  0.12499868832E+03 0.  0.
          2    1    1    2  501    0  0.11545813287E+03  0.77288625915E+01 -0.10855068987E+04  0.10916572461E+04  0.00000000000E+00 0. -1.
          1    1    1    2  502    0 -0.58166297232E+02 -0.60859470735E+02 -0.98813855583E+01  0.84763406564E+02  0.00000000000E+00 0. -1.
         22    1    3    3    0    0 -0.92629640060E+02  0.55368995482E+02 -0.22697879918E+03  0.25132717950E+03  0.00000000000E+00 0.  1.
         22    1    3    3    0    0  0.35337804423E+02 -0.22383873377E+01 -0.13377832201E+03  0.13838500728E+03  0.00000000000E+00 0.  1.
</event>
<event>
 7    1  0.5779468E-006  0.1721893E+03  0.7818608E-02  0.1227113E+00
          2   -1    0    0  502    0  0.00000000000E+00  0.00000000000E+00  0.64891241557E+03  0.64891241557E+03  0.00000000000E+00 0. -1.
          1   -1    0    0  501    0 -0.00000000000E+00 -0.00000000000E+00 -0.20896337465E+04  0.20896337465E+04  0.00000000000E+00 0. -1.
         25    2    1    2    0    0 -0.13400882501E+03  0.20280474341E+03 -0.88495919752E+03  0.92621042299E+03  0.12499934897E+03 0.  0.
          2    1    1    2  501    0 -0.20333886939E+01 -0.98476749764E+02 -0.11702461335E+04  0.11743840164E+04  0.00000000000E+00 0. -1.
          1    1    1    2  502    0  0.13604221370E+03 -0.10432799365E+03  0.61448400009E+03  0.63795172273E+03  0.00000000000E+00 0. -1.
         22    1    3    3    0    0 -0.12901672179E+03  0.11435327681E+03 -0.70299282524E+03  0.72382380367E+03  0.00000000000E+00 0. -1.
         22    1    3    3    0    0 -0.49921032207E+01  0.88451466599E+02 -0.18196637228E+03  0.20238661932E+03  0.00000000000E+00 0. -1.
</event>
<event>
 7    1  0.5779468E-006  0.6786971E+02  0.7818608E-02  0.1523272E+00
          2   -1    0    0  502    0  0.00000000000E+00  0.00000000000E+00  0.21395725822E+03  0.21395725822E+03  0.00000000000E+00 0. -1.
          1   -1    0    0  501    0 -0.00000000000E+00 -0.00000000000E+00 -0.20210315969E+04  0.20210315969E+04  0.00000000000E+00 0. -1.
         25    2    1    2    0    0  0.57608482003E+02 -0.10741896260E+02 -0.76252553703E+02  0.15771231739E+03  0.12499839029E+03 0.  0.
          2    1    1    2  501    0 -0.67564746568E+02 -0.80921334621E+01 -0.19027836774E+04  0.19040000526E+04  0.00000000000E+00 0. -1.
          1    1    1    2  502    0  0.99562645653E+01  0.18834029722E+02  0.17196189235E+03  0.17327648514E+03  0.00000000000E+00 0. -1.
         22    1    3    3    0    0 -0.14027753410E+02 -0.37559400337E+02  0.11101234221E+02  0.41601968952E+02  0.00000000000E+00 0. -1.
         22    1    3    3    0    0  0.71636235413E+02  0.26817504078E+02 -0.87353787924E+02  0.11611034844E+03  0.00000000000E+00 0. -1.
</event>
<event>
 7    1  0.5779468E-006  0.1400659E+03  0.7818608E-02  0.1310457E+00
          2   -1    0    0  502    0  0.00000000000E+00  0.00000000000E+00  0.10858729984E+04  0.10858729984E+04  0.00000000000E+00 0. -1.
          1   -1    0    0  501    0 -0.00000000000E+00 -0.00000000000E+00 -0.12013135333E+04  0.12013135333E+04  0.00000000000E+00 0. -1.
         25    2    1    2    0    0 -0.11731410653E+01  0.17957838508E+03 -0.19885132119E+03  0.29566277981E+03  0.12499943511E+03 0.  0.
          2    1    1    2  501    0 -0.27197315620E+02 -0.13368553798E+03 -0.94847114201E+03  0.95823223921E+03  0.00000000000E+00 0. -1.
          1    1    1    2  502    0  0.28370456685E+02 -0.45892847093E+02  0.10318819283E+04  0.10332915127E+04  0.00000000000E+00 0. -1.
         22    1    3    3    0    0  0.36708183394E+02  0.16772751368E+02 -0.82981133904E+02  0.92275048093E+02  0.00000000000E+00 0. -1.
         22    1    3    3    0    0 -0.37881324459E+02  0.16280563371E+03 -0.11587018729E+03  0.20338773171E+03  0.00000000000E+00 0. -1.
</event>
<event>
 7    1  0.5779468E-006  0.8378922E+02  0.7818608E-02  0.1348761E+00
          2   -1    0    0  502    0  0.00000000000E+00  0.00000000000E+00  0.18076255420E+04  0.18076255420E+04  0.00000000000E+00 0. -1.
          1   -1    0    0  501    0 -0.00000000000E+00 -0.00000000000E+00 -0.47483706542E+03  0.47483706542E+03  0.00000000000E+00 0. -1.
         25    2    1    2    0    0  0.25778177876E+02  0.14390155080E+03 -0.11497641541E+02  0.19269982302E+03  0.12501542007E+03 0.  0.
          2    1    1    2  501    0 -0.14417143539E+01 -0.64358586713E+02 -0.36894218710E+03  0.37451627955E+03  0.00000000000E+00 0. -1.
          1    1    1    2  502    0 -0.24336463522E+02 -0.79542964090E+02  0.17132283052E+04  0.17152465048E+04  0.00000000000E+00 0. -1.
         22    1    3    3    0    0  0.30671894890E+02 -0.90017424174E+00  0.29043299586E+02  0.42250310065E+02  0.00000000000E+00 0. -1.
         22    1    3    3    0    0 -0.48937170140E+01  0.14480172504E+03 -0.40540941127E+02  0.15044951296E+03  0.00000000000E+00 0. -1.
</event>
<event>
 7    1  0.5779468E-006  0.1156719E+03  0.7818608E-02  0.1256264E+00
          2   -1    0    0  502    0  0.00000000000E+00  0.00000000000E+00  0.38927672323E+03  0.38927672323E+03  0.00000000000E+00 0. -1.
          1   -1    0    0  501    0 -0.00000000000E+00 -0.00000000000E+00 -0.49488857969E+03  0.49488857969E+03  0.00000000000E+00 0. -1.
         25    2    1    2    0    0 -0.10549944272E+03  0.33148294649E+02 -0.83257019085E+02  0.18653519458E+03  0.12503881692E+03 0.  0.
          2    1    1    2  501    0  0.10001878949E+03  0.75853945829E+02 -0.33964181752E+03  0.36209687040E+03  0.00000000000E+00 0. -1.
          1    1    1    2  502    0  0.54806532312E+01 -0.10900224048E+03  0.31728698015E+03  0.33553323794E+03  0.00000000000E+00 0. -1.
         22    1    3    3    0    0 -0.81724548091E+02 -0.37999102517E+02 -0.31818487890E+02  0.95578500325E+02  0.00000000000E+00 0. -1.
         22    1    3    3    0    0 -0.23774894631E+02  0.71147397166E+02 -0.51438531195E+02  0.90956694254E+02  0.00000000000E+00 0. -1.
</event>
<event>
 7    1  0.1002482E-005  0.9653622E+02  0.7818608E-02  0.1321417E+00
          2   -1    0    0  502    0  0.00000000000E+00  0.00000000000E+00  0.24616808402E+04  0.24616808402E+04  0.00000000000E+00 0. -1.
          1   -1    0    0  501    0 -0.00000000000E+00 -0.00000000000E+00 -0.19139504688E+04  0.19139504688E+04  0.00000000000E+00 0. -1.
         25    2    1    2    0    0 -0.17956598109E+02  0.94385947968E+02 -0.64729126697E+03  0.66621473581E+03  0.12499977330E+03 0.  0.
          2    1    1    2  501    0  0.69757515003E+02 -0.12879429974E+02 -0.12552448473E+04  0.12572476357E+04  0.00000000000E+00 0. -1.
          1    1    1    2  502    0 -0.51800916894E+02 -0.81506517995E+02  0.24502664857E+04  0.24521689376E+04  0.00000000000E+00 0. -1.
         22    1    3    3    0    0  0.19998775461E+02 -0.20786776932E+02 -0.60505295919E+02  0.67029336483E+02  0.00000000000E+00 0. -1.
         22    1    3    3    0    0 -0.37955373570E+02  0.11517272490E+03 -0.58678597106E+03  0.59918539933E+03  0.00000000000E+00 0. -1.
</event>
<event>
 7    1  0.5779468E-006  0.1283680E+03  0.7818608E-02  0.1370197E+00
          2   -1    0    0  502    0  0.00000000000E+00  0.00000000000E+00  0.44258517445E+04  0.44258517445E+04  0.00000000000E+00 0. -1.
          1   -1    0    0  501    0 -0.00000000000E+00 -0.00000000000E+00 -0.30307194336E+02  0.30307194336E+02  0.00000000000E+00 0. -1.
         25    2    1    2    0    0  0.10186364277E+02  0.14744835947E+03  0.42517571306E+03  0.46716641999E+03  0.12500118504E+03 0.  0.
          2    1    1    2  501    0  0.24834089992E+02 -0.24786820143E+02  0.28891492360E+02  0.45451477526E+02  0.00000000000E+00 0. -1.
          1    1    1    2  502    0 -0.35020454268E+02 -0.12266153933E+03  0.39414773447E+04  0.39435410413E+04  0.00000000000E+00 0. -1.
         22    1    3    3    0    0  0.21190767653E+02 -0.16996655935E+02  0.83696543932E+02  0.87994581724E+02  0.00000000000E+00 0.  1.
         22    1    3    3    0    0 -0.11004403376E+02  0.16444501541E+03  0.34147916913E+03  0.37917183827E+03  0.00000000000E+00 0.  1.
</event>
<event>
 7    1  0.5779468E-006  0.1828494E+03  0.7818608E-02  0.1318997E+00
          2   -1    0    0  502    0  0.00000000000E+00  0.00000000000E+00  0.25781778253E+04  0.25781778253E+04  0.00000000000E+00 0. -1.
          1   -1    0    0  501    0 -0.00000000000E+00 -0.00000000000E+00 -0.23358679231E+04  0.23358679231E+04  0.00000000000E+00 0. -1.
         25    2    1    2    0    0 -0.63022485764E+02  0.17178981788E+03  0.14684796560E+04  0.14851063729E+04  0.12499945363E+03 0.  0.
          2    1    1    2  501    0 -0.35057238973E+02 -0.15347707636E+02 -0.23196567831E+04  0.23199724467E+04  0.00000000000E+00 0. -1.
          1    1    1    2  502    0  0.98079724736E+02 -0.15644211024E+03  0.10934870292E+04  0.11089669289E+04  0.00000000000E+00 0. -1.
         22    1    3    3    0    0 -0.49143758113E+02  0.94486600206E+02  0.40629281410E+03  0.42001985354E+03  0.00000000000E+00 0.  1.
         22    1    3    3    0    0 -0.13878727651E+02  0.77303217671E+02  0.10621868419E+04  0.10650865193E+04  0.00000000000E+00 0.  1.
</event>
<event>
 7    1  0.5779468E-006  0.1328037E+03  0.7818608E-02  0.1301958E+00
          2   -1    0    0  502    0  0.00000000000E+00  0.00000000000E+00  0.17511419212E+04  0.17511419212E+04  0.00000000000E+00 0. -1.
          1   -1    0    0  501    0 -0.00000000000E+00 -0.00000000000E+00 -0.72920887103E+02  0.72920887103E+02  0.00000000000E+00 0. -1.
         25    2    1    2    0    0  0.47265921305E+02  0.17416952567E+03  0.33106277323E+03  0.39723975378E+03  0.12501108420E+03 0.  0.
          2    1    1    2  501    0 -0.43088144245E+02 -0.11281659948E+03  0.54143627201E+02  0.13234691406E+03  0.00000000000E+00 0. -1.
          1    1    1    2  502    0 -0.41777770597E+01 -0.61352926189E+02  0.12930146336E+04  0.12944761404E+04  0.00000000000E+00 0. -1.
         22    1    3    3    0    0  0.21416287594E+02  0.64321476301E+02  0.24804989831E+03  0.25714715970E+03  0.00000000000E+00 0. -1.
         22    1    3    3    0    0  0.25849633712E+02  0.10984804937E+03  0.83012874918E+02  0.14009259408E+03  0.00000000000E+00 0. -1.
</event>
<event>
 7    1  0.5779468E-006  0.4248711E+02  0.7818608E-02  0.1512117E+00
          2   -1    0    0  502    0  0.00000000000E+00  0.00000000000E+00  0.21844738027E+04  0.21844738027E+04  0.00000000000E+00 0. -1.
          1   -1    0    0  501    0 -0.00000000000E+00 -0.00000000000E+00 -0.12142436363E+04  0.12142436363E+04  0.00000000000E+00 0. -1.
         25    2    1    2    0    0 -0.49560472855E+02  0.43800881846E+02  0.11383492421E+04  0.11471007774E+04  0.12500575470E+03 0.  0.
          2    1    1    2  501    0  0.36334656085E+02 -0.49836077902E+01 -0.12091861593E+04  0.12097422087E+04  0.00000000000E+00 0. -1.
          1    1    1    2  502    0  0.13225816770E+02 -0.38817274056E+02  0.10410670836E+04  0.10418744529E+04  0.00000000000E+00 0. -1.
         22    1    3    3    0    0 -0.35298902936E+01 -0.12764294836E+01  0.90536434891E+03  0.90537212994E+03  0.00000000000E+00 0.  1.
         22    1    3    3    0    0 -0.46030582561E+02  0.45077311330E+02  0.23298489321E+03  0.24172864744E+03  0.00000000000E+00 0.  1.
</event>
<event>
 7    1  0.5779468E-006  0.1443683E+03  0.7818608E-02  0.1211426E+00
          2   -1    0    0  502    0  0.00000000000E+00  0.00000000000E+00  0.16378479094E+04  0.16378479094E+04  0.00000000000E+00 0. -1.
          1   -1    0    0  501    0 -0.00000000000E+00 -0.00000000000E+00 -0.12387496483E+03  0.12387496483E+03  0.00000000000E+00 0. -1.
         25    2    1    2    0    0 -0.13996801182E+03 -0.76099123824E+02  0.73241033140E+03  0.75988823765E+03  0.12499247652E+03 0.  0.
          2    1    1    2  501    0  0.43596312395E+01  0.14430246908E+03 -0.52842181604E+02  0.15373517855E+03  0.00000000000E+00 0. -1.
          1    1    1    2  502    0  0.13560838058E+03 -0.68203345258E+02  0.83440479480E+03  0.84809945806E+03  0.00000000000E+00 0. -1.
         22    1    3    3    0    0 -0.85259792841E+02 -0.38324120718E+01  0.16999774011E+03  0.19021869335E+03  0.00000000000E+00 0. -1.
         22    1    3    3    0    0 -0.54708218974E+02 -0.72266711752E+02  0.56241259130E+03  0.56966954430E+03  0.00000000000E+00 0. -1.
</event>
<event>
 7    1  0.5779468E-006  0.3667113E+02  0.7818608E-02  0.1588987E+00
          2   -1    0    0  502    0  0.00000000000E+00  0.00000000000E+00  0.25069684108E+03  0.25069684108E+03  0.00000000000E+00 0. -1.
          1   -1    0    0  501    0 -0.00000000000E+00 -0.00000000000E+00 -0.88202475322E+03  0.88202475322E+03  0.00000000000E+00 0. -1.
         25    2    1    2    0    0 -0.22166659374E+02  0.67262216872E+01 -0.20679636580E+02  0.12879927839E+03  0.12500001559E+03 0.  0.
          2    1    1    2  501    0 -0.10964836397E+02 -0.23503948909E+02 -0.80532119837E+03  0.80573872675E+03  0.00000000000E+00 0. -1.
          1    1    1    2  502    0  0.33131495770E+02  0.16777727222E+02  0.19467292280E+03  0.19818358917E+03  0.00000000000E+00 0. -1.
         22    1    3    3    0    0 -0.59707495307E+01  0.22262799509E+02  0.49776922827E+02  0.54854572627E+02  0.00000000000E+00 0. -1.
         22    1    3    3    0    0 -0.16195909843E+02 -0.15536577822E+02 -0.70456559408E+02  0.73944705758E+02  0.00000000000E+00 0. -1.
</event>
<event>
 7    1  0.5779468E-006  0.1156820E+03  0.7818608E-02  0.1320652E+00
          2   -1    0    0  502    0  0.00000000000E+00  0.00000000000E+00  0.50764686603E+03  0.50764686603E+03  0.00000000000E+00 0. -1.
          1   -1    0    0  501    0 -0.00000000000E+00 -0.00000000000E+00 -0.26468858872E+04  0.26468858872E+04  0.00000000000E+00 0. -1.
         25    2    1    2    0    0 -0.11904764860E+03  0.12120621410E+03 -0.35912173589E+03  0.41648528468E+03  0.12501312806E+03 0.  0.
          2    1    1    2  501    0  0.89015524834E+02 -0.69723628192E+02 -0.22558066540E+04  0.22586387069E+04  0.00000000000E+00 0. -1.
          1    1    1    2  502    0  0.30032123768E+02 -0.51482585911E+02  0.47568936880E+03  0.47940876160E+03  0.00000000000E+00 0. -1.
         22    1    3    3    0    0 -0.10057037238E+03  0.13472194356E+02 -0.16492972816E+03  0.19364326751E+03  0.00000000000E+00 0. -1.
         22    1    3    3    0    0 -0.18477276225E+02  0.10773401975E+03 -0.19419200774E+03  0.22284201717E+03  0.00000000000E+00 0. -1.
</event>
<event>
 7    1  0.6300508E-006  0.1179680E+03  0.7818608E-02  0.1361865E+00
          2   -1    0    0  502    0  0.00000000000E+00  0.00000000000E+00  0.18623691885E+04  0.18623691885E+04  0.00000000000E+00 0. -1.
          1   -1    0    0  501    0 -0.00000000000E+00 -0.00000000000E+00 -0.64498631265E+03  0.64498631265E+03  0.00000000000E+00 0. -1.
         25    2    1    2    0    0 -0.13696544070E+02  0.10779804953E+03 -0.35751690659E+03  0.39401975409E+03  0.12500085327E+03 0.  0.
          2    1    1    2  501    0 -0.40807368077E+02 -0.30853173614E+01 -0.26576099467E+03  0.26889341152E+03  0.00000000000E+00 0. -1.
          1    1    1    2  502    0  0.54503912147E+02 -0.10471273217E+03  0.18406607771E+04  0.18444423355E+04  0.00000000000E+00 0. -1.
         22    1    3    3    0    0  0.38063694441E+02  0.83419467450E+01 -0.17916866493E+03  0.18335714713E+03  0.00000000000E+00 0.  1.
         22    1    3    3    0    0 -0.51760238510E+02  0.99456102786E+02 -0.17834824166E+03  0.21066260697E+03  0.00000000000E+00 0.  1.
</event>
<event>
 7    1  0.5779468E-006  0.1710382E+03  0.7818608E-02  0.1296436E+00
          2   -1    0    0  502    0  0.00000000000E+00  0.00000000000E+00  0.21036556288E+04  0.21036556288E+04  0.00000000000E+00 0. -1.
          1   -1    0    0  501    0 -0.00000000000E+00 -0.00000000000E+00 -0.80934472854E+02  0.80934472854E+02  0.00000000000E+00 0. -1.
         25    2    1    2    0    0 -0.88543512232E+02 -0.10373697203E+03  0.32191645260E+03  0.37129139027E+03  0.12500312439E+03 0.  0.
          2    1    1    2  501    0  0.12190374521E+03  0.14130856961E+03  0.10004183949E+03  0.21174750197E+03  0.00000000000E+00 0. -1.
          1    1    1    2  502    0 -0.33360232981E+02 -0.37571597580E+02  0.16007628638E+04  0.16015512094E+04  0.00000000000E+00 0. -1.
         22    1    3    3    0    0 -0.72187154643E+02 -0.10083925618E+03  0.13376395865E+03  0.18240706542E+03  0.00000000000E+00 0. -1.
         22    1    3    3    0    0 -0.16356357588E+02 -0.28977158492E+01  0.18815249396E+03  0.18888432485E+03  0.00000000000E+00 0. -1.
</event>
<event>
 7    1  0.5779468E-006  0.5198832E+02  0.7818608E-02  0.1448200E+00
          2   -1    0    0  502    0  0.00000000000E+00  0.00000000000E+00  0.85062216988E+03  0.85062216988E+03  0.00000000000E+00 0. -1.
          1   -1    0    0  501    0 -0.00000000000E+00 -0.00000000000E+00 -0.88301072490E+02  0.88301072490E+02  0.00000000000E+00 0. -1.
         25    2    1    2    0    0  0.45704025431E+02 -0.86707405816E+02  0.98979047591E+02  0.18714350826E+03  0.12497523218E+03 0.  0.
          2    1    1    2  501    0 -0.20210090794E+02  0.42522657100E+02 -0.30479213710E+02  0.56085707673E+02  0.00000000000E+00 0. -1.
          1    1    1    2  502    0 -0.25493934636E+02  0.44184748716E+02  0.69382126351E+03  0.69569402644E+03  0.00000000000E+00 0. -1.
         22    1    3    3    0    0 -0.39118074433E+02 -0.10017234176E+02  0.45716619812E+02  0.60996541336E+02  0.00000000000E+00 0. -1.
         22    1    3    3    0    0  0.84822099864E+02 -0.76690171640E+02  0.53262427779E+02  0.12614696693E+03  0.00000000000E+00 0. -1.
</event>
<event>
 7    1  0.5779468E-006  0.1893938E+03  0.7818608E-02  0.1290015E+00
          2   -1    0    0  502    0  0.00000000000E+00  0.00000000000E+00  0.57878915664E+03  0.57878915664E+03  0.00000000000E+00 0. -1.
          1   -1    0    0  501    0 -0.00000000000E+00 -0.00000000000E+00 -0.34313457428E+04  0.34313457428E+04  0.00000000000E+00 0. -1.
         25    2    1    2    0    0 -0.12482130484E+03 -0.14916022108E+03  0.17762367659E+03  0.29155485021E+03  0.12499972202E+03 0.  0.
          2    1    1    2  501    0  0.81798083067E+02  0.17082999104E+03 -0.33700224010E+04  0.33753406932E+04  0.00000000000E+00 0. -1.
          1    1    1    2  502    0  0.43023221771E+02 -0.21669769959E+02  0.33984213826E+03  0.34323935596E+03  0.00000000000E+00 0. -1.
         22    1    3    3    0    0 -0.99780415534E+02 -0.63305611768E+02  0.16239147118E+03  0.20083506098E+03  0.00000000000E+00 0. -1.
         22    1    3    3    0    0 -0.25040889304E+02 -0.85854609311E+02  0.15232205403E+02  0.90719789233E+02  0.00000000000E+00 0. -1.
</event>
<event>
 7    1  0.5779468E-006  0.6423371E+02  0.7818608E-02  0.1498083E+00
          2   -1    0    0  502    0  0.00000000000E+00  0.00000000000E+00  0.25116516439E+04  0.25116516439E+04  0.00000000000E+00 0. -1.
          1   -1    0    0  501    0 -0.00000000000E+00 -0.00000000000E+00 -0.97324334676E+02  0.97324334676E+02  0.00000000000E+00 0. -1.
         25    2    1    2    0    0  0.83987096037E+02  0.12454712768E+02  0.82208116521E+03  0.83585227654E+03  0.12499053498E+03 0.  0.
          2    1    1    2  501    0 -0.21466417323E+02 -0.15871105595E+02 -0.87872713144E+02  0.91838514692E+02  0.00000000000E+00 0. -1.
          1    1    1    2  502    0 -0.62520678714E+02  0.34163928272E+01  0.16801188572E+04  0.16812851874E+04  0.00000000000E+00 0. -1.
         22    1    3    3    0    0  0.41047395475E+02 -0.56500258433E+02  0.38872105181E+03  0.39494458345E+03  0.00000000000E+00 0. -1.
         22    1    3    3    0    0  0.42939700562E+02  0.68954971201E+02  0.43336011340E+03  0.44090769309E+03  0.00000000000E+00 0. -1.
</event>
<event>
 7    1  0.5779468E-006  0.7272607E+02  0.7818608E-02  0.1389153E+00
          2   -1    0    0  502    0  0.00000000000E+00  0.00000000000E+00  0.60025624553E+03  0.60025624553E+03  0.00000000000E+00 0. -1.
          1   -1    0    0  501    0 -0.00000000000E+00 -0.00000000000E+00 -0.29833540099E+03  0.29833540099E+03  0.00000000000E+00 0. -1.
         25    2    1    2    0    0  0.23381527816E+02 -0.60667185648E+02 -0.81743280314E+02  0.16289203566E+03  0.12499859258E+03 0.  0.
          2    1    1    2  501    0 -0.69461101643E+02  0.34366870141E+02 -0.16614808518E+03  0.18333333743E+03  0.00000000000E+00 0. -1.
          1    1    1    2  502    0  0.46079573827E+02  0.26300315507E+02  0.54981221004E+03  0.55236627343E+03  0.00000000000E+00 0. -1.
         22    1    3    3    0    0  0.22772517578E+02  0.14009815293E+02 -0.84026407289E+02  0.88177659321E+02  0.00000000000E+00 0. -1.
         22    1    3    3    0    0  0.60901023820E+00 -0.74677000941E+02  0.22831269750E+01  0.74714376340E+02  0.00000000000E+00 0. -1.
</event>
<event>
 7    1  0.5779468E-006  0.6061122E+02  0.7818608E-02  0.1499102E+00
          2   -1    0    0  502    0  0.00000000000E+00  0.00000000000E+00  0.38732024777E+03  0.38732024777E+03  0.00000000000E+00 0. -1.
          1   -1    0    0  501    0 -0.00000000000E+00 -0.00000000000E+00 -0.35149187047E+02  0.35149187047E+02  0.00000000000E+00 0. -1.
         25    2    1    2    0    0 -0.81691526880E+01  0.43955842618E+02  0.19168078106E+03  0.23316431235E+03  0.12500089428E+03 0.  0.
          2    1    1    2  501    0  0.10026415350E+01 -0.71120481895E+02  0.12727929299E+03  0.14580516678E+03  0.00000000000E+00 0. -1.
          1    1    1    2  502    0  0.71665111530E+01  0.27164639276E+02  0.33210986670E+02  0.43499955686E+02  0.00000000000E+00 0. -1.
         22    1    3    3    0    0 -0.24200655880E+02 -0.39849802062E+02  0.55786793620E+02  0.72703815662E+02  0.00000000000E+00 0.  1.
         22    1    3    3    0    0  0.16031503192E+02  0.83805644680E+02  0.13589398744E+03  0.16046049669E+03  0.00000000000E+00 0.  1.
</event>
<event>
 7    1  0.5779468E-006  0.7653110E+02  0.7818608E-02  0.1363678E+00
          2   -1    0    0  502    0  0.00000000000E+00  0.00000000000E+00  0.40922764102E+03  0.40922764102E+03  0.00000000000E+00 0. -1.
          1   -1    0    0  501    0 -0.00000000000E+00 -0.00000000000E+00 -0.37373874264E+03  0.37373874264E+03  0.00000000000E+00 0. -1.
         25    2    1    2    0    0  0.86076570149E+02 -0.69272558421E+02  0.39216440640E+02  0.17137785822E+03  0.12499831116E+03 0.  0.
          2    1    1    2  501    0 -0.11279804351E+02  0.61099095791E+02 -0.29976631848E+03  0.30613751679E+03  0.00000000000E+00 0. -1.
          1    1    1    2  502    0 -0.74796765798E+02  0.81734626297E+01  0.29603877622E+03  0.30545100866E+03  0.00000000000E+00 0. -1.
         22    1    3    3    0    0  0.22119755241E+02 -0.64671787973E+02 -0.32066510780E+02  0.75498243987E+02  0.00000000000E+00 0. -1.
         22    1    3    3    0    0  0.63956814908E+02 -0.46007704485E+01  0.71282951421E+02  0.95879614231E+02  0.00000000000E+00 0. -1.
</event>
<event>
 7    1  0.5779468E-006  0.6846206E+02  0.7818608E-02  0.1381415E+00
          2   -1    0    0  502    0  0.00000000000E+00  0.00000000000E+00  0.31799395287E+03  0.31799395287E+03  0.00000000000E+00 0. -1.
          1   -1    0    0  501    0 -0.00000000000E+00 -0.00000000000E+00 -0.17023610751E+04  0.17023610751E+04  0.00000000000E+00 0. -1.
         25    2    1    2    0    0 -0.38069679541E+02 -0.57940223469E+01 -0.99174195176E+03  0.10003295879E+04  0.12499725715E+03 0.  0.
          2    1    1    2  501    0  0.86784752085E+02 -0.29237841775E+02 -0.70044792875E+03  0.70640904968E+03  0.00000000000E+00 0. -1.
          1    1    1    2  502    0 -0.48715072544E+02  0.35031864122E+02  0.30782275829E+03  0.31361639039E+03  0.00000000000E+00 0. -1.
         22    1    3    3    0    0 -0.68772876249E+02 -0.44710952243E+01 -0.91602155098E+03  0.91861046209E+03  0.00000000000E+00 0.  1.
         22    1    3    3    0    0  0.30703196709E+02 -0.13229271227E+01 -0.75720400778E+02  0.81719125780E+02  0.00000000000E+00 0.  1.
</event>
<event>
 7    1  0.5779468E-006  0.8147994E+02  0.7818608E-02  0.1465263E+00
          2   -1    0    0  502    0  0.00000000000E+00  0.00000000000E+00  0.29986265595E+03  0.29986265595E+03  0.00000000000E+00 0. -1.
          1   -1    0    0  501    0 -0.00000000000E+00 -0.00000000000E+00 -0.83119155436E+02  0.83119155436E+02  0.00000000000E+00 0. -1.
         25    2    1    2    0    0  0.55956985108E+02  0.30084766634E+02  0.10253117098E+03  0.17370873727E+03  0.12500322802E+03 0.  0.
          2    1    1    2  501    0  0.14798759659E+02  0.22010580491E+02 -0.30223420921E+02  0.40210994929E+02  0.00000000000E+00 0. -1.
          1    1    1    2  502    0 -0.70755744767E+02 -0.52095347126E+02  0.14443575045E+03  0.16906207918E+03  0.00000000000E+00 0. -1.
         22    1    3    3    0    0  0.13484036228E+02 -0.39318971306E+02  0.78566265889E+02  0.88884525500E+02  0.00000000000E+00 0.  1.
         22    1    3    3    0    0  0.42472948879E+02  0.69403737940E+02  0.23964905094E+02  0.84824211772E+02  0.00000000000E+00 0.  1.
</event>
<event>
 7    1  0.5779468E-006  0.6855666E+02  0.7818608E-02  0.1473133E+00
          2   -1    0    0  502    0  0.00000000000E+00  0.00000000000E+00  0.28651205207E+03  0.28651205207E+03  0.00000000000E+00 0. -1.
          1   -1    0    0  501    0 -0.00000000000E+00 -0.00000000000E+00 -0.10853485603E+04  0.10853485603E+04  0.00000000000E+00 0. -1.
         25    2    1    2    0    0 -0.36174650268E+02 -0.35886529945E+02  0.82035539016E+02  0.15796200574E+03  0.12500286894E+03 0.  0.
          2    1    1    2  501    0  0.63981137907E+02  0.25189670772E+02 -0.10449135623E+04  0.10471735569E+04  0.00000000000E+00 0. -1.
          1    1    1    2  502    0 -0.27806487639E+02  0.10696859173E+02  0.16404151506E+03  0.16672504975E+03  0.00000000000E+00 0. -1.
         22    1    3    3    0    0  0.44806735760E+02 -0.88183340940E+01  0.47400073789E+02  0.65819249318E+02  0.00000000000E+00 0. -1.
         22    1    3    3    0    0 -0.80981386028E+02 -0.27068195851E+02  0.34635465227E+02  0.92142756422E+02  0.00000000000E+00 0. -1.
</event>
<event>
 7    1  0.5779468E-006  0.7120098E+02  0.7818608E-02  0.1419554E+00
          2   -1    0    0  502    0  0.00000000000E+00  0.00000000000E+00  0.15973488420E+04  0.15973488420E+04  0.00000000000E+00 0. -1.
          1   -1    0    0  501    0 -0.00000000000E+00 -0.00000000000E+00 -0.56795640880E+02  0.56795640880E+02  0.00000000000E+00 0. -1.
         25    2    1    2    0    0  0.21391106786E+02 -0.99686501459E+02  0.40982206093E+03  0.44042431299E+03  0.12499790329E+03 0.  0.
          2    1    1    2  501    0  0.14394545370E+02  0.40162069460E+02 -0.29207734365E+02  0.51703834543E+02  0.00000000000E+00 0. -1.
          1    1    1    2  502    0 -0.35785652156E+02  0.59524431999E+02  0.11599388746E+04  0.11620163353E+04  0.00000000000E+00 0. -1.
         22    1    3    3    0    0 -0.38497339516E+02 -0.62983350385E+02  0.30801989492E+03  0.31674154013E+03  0.00000000000E+00 0.  1.
         22    1    3    3    0    0  0.59888446302E+02 -0.36703151074E+02  0.10180216601E+03  0.12368277286E+03  0.00000000000E+00 0.  1.
</event>
<event>
 7    1  0.5779468E-006  0.5214745E+02  0.7818608E-02  0.1446160E+00
          2   -1    0    0  502    0  0.00000000000E+00  0.00000000000E+00  0.43035747873E+03  0.43035747873E+03  0.00000000000E+00 0. -1.
          1   -1    0    0  501    0 -0.00000000000E+00 -0.00000000000E+00 -0.11737373374E+03  0.11737373374E+03  0.00000000000E+00 0. -1.
         25    2    1    2    0    0  0.59958512119E+02 -0.27725632293E+02  0.56632267006E+02  0.15231154745E+03  0.12501143931E+03 0.  0.
          2    1    1    2  501    0 -0.17580862001E+02  0.49514322928E+02 -0.57546600435E+02  0.77925388067E+02  0.00000000000E+00 0. -1.
          1    1    1    2  502    0 -0.42377650118E+02 -0.21788690636E+02  0.31389807842E+03  0.31749427696E+03  0.00000000000E+00 0. -1.
         22    1    3    3    0    0  0.34620077654E+02 -0.67282197634E+02  0.70407893087E+02  0.10335722183E+03  0.00000000000E+00 0. -1.
         22    1    3    3    0    0  0.25338434464E+02  0.39556565341E+02 -0.13775626081E+02  0.48954325617E+02  0.00000000000E+00 0. -1.
</event>
<event>
 7    1  0.5779468E-006  0.2843981E+02  0.7818608E-02  0.1673430E+00
          2   -1    0    0  502    0  0.00000000000E+00  0.00000000000E+00  0.22369487207E+04  0.22369487207E+04  0.00000000000E+00 0. -1.
          1   -1    0    0  501    0 -0.00000000000E+00 -0.00000000000E+00 -0.93017424810E+02  0.93017424810E+02  0.00000000000E+00 0. -1.
         25    2    1    2    0    0  0.58183479267E+01  0.21247699459E+02  0.20879395779E+03  0.24434887905E+03  0.12500455982E+03 0.  0.
          2    1    1    2  501    0 -0.20242225530E+02  0.33490048900E+01 -0.73738167621E+02  0.76539407446E+02  0.00000000000E+00 0. -1.
          1    1    1    2  502    0  0.14423877603E+02 -0.24596704349E+02  0.20088755058E+04  0.20090778591E+04  0.00000000000E+00 0. -1.
         22    1    3    3    0    0  0.18236445979E+02 -0.38609148866E+02  0.22465758150E+02  0.48248778506E+02  0.00000000000E+00 0.  1.
         22    1    3    3    0    0 -0.12418098052E+02  0.59856848325E+02  0.18632819964E+03  0.19610010054E+03  0.00000000000E+00 0.  1.
</event>
<event>
 7    1  0.5779468E-006  0.6224889E+02  0.7818608E-02  0.1398526E+00
          2   -1    0    0  502    0  0.00000000000E+00  0.00000000000E+00  0.12966149589E+04  0.12966149589E+04  0.00000000000E+00 0. -1.
          1   -1    0    0  501    0 -0.00000000000E+00 -0.00000000000E+00 -0.34791508404E+03  0.34791508404E+03  0.00000000000E+00 0. -1.
         25    2    1    2    0    0 -0.87093479956E+01 -0.26635429679E+02  0.41536343324E+03  0.43466995271E+03  0.12500354898E+03 0.  0.
          2    1    1    2  501    0 -0.57091672115E+02  0.69627063912E+01 -0.33445043782E+03  0.33935974078E+03  0.00000000000E+00 0. -1.
          1    1    1    2  502    0  0.65801020111E+02  0.19672723288E+02  0.86778687942E+03  0.87050034944E+03  0.00000000000E+00 0. -1.
         22    1    3    3    0    0 -0.89301288795E+00  0.12392756652E+02 -0.42812735597E+01  0.13141810863E+02  0.00000000000E+00 0. -1.
         22    1    3    3    0    0 -0.78163351077E+01 -0.39028186331E+02  0.41964470680E+03  0.42152814184E+03  0.00000000000E+00 0. -1.
</event>
<event>
 7    1  0.5779468E-006  0.9221121E+02  0.7818608E-02  0.1375451E+00
          2   -1    0    0  502    0  0.00000000000E+00  0.00000000000E+00  0.29794022554E+03  0.29794022554E+03  0.00000000000E+00 0. -1.
          1   -1    0    0  501    0 -0.00000000000E+00 -0.00000000000E+00 -0.19517627680E+04  0.19517627680E+04  0.00000000000E+00 0. -1.
         25    2    1    2    0    0 -0.22543599334E+02 -0.89094459719E+02 -0.19138259474E+03  0.24636949618E+03  0.12499837780E+03 0.  0.
          2    1    1    2  501    0 -0.41296026308E+02  0.21967091528E+02 -0.17246275290E+04  0.17252617276E+04  0.00000000000E+00 0. -1.
          1    1    1    2  502    0  0.63839625641E+02  0.67127368191E+02  0.26218758129E+03  0.27807176977E+03  0.00000000000E+00 0. -1.
         22    1    3    3    0    0 -0.33053675191E+02 -0.37123297409E+02 -0.18662758671E+03  0.19313347916E+03  0.00000000000E+00 0. -1.
         22    1    3    3    0    0  0.10510075858E+02 -0.51971162309E+02 -0.47550080379E+01  0.53236017016E+02  0.00000000000E+00 0. -1.
</event>
<event>
 7    1  0.5779468E-006  0.7074025E+02  0.7818608E-02  0.1394628E+00
          2   -1    0    0  502    0  0.00000000000E+00  0.00000000000E+00  0.10025615570E+04  0.10025615570E+04  0.00000000000E+00 0. -1.
          1   -1    0    0  501    0 -0.00000000000E+00 -0.00000000000E+00 -0.86597526761E+02  0.86597526761E+02  0.00000000000E+00 0. -1.
         25    2    1    2    0    0  0.63456968807E+02 -0.97397650901E+02  0.41749668829E+03  0.45104571142E+03  0.12500263903E+03 0.  0.
          2    1    1    2  501    0 -0.50829622776E+02  0.46742412838E+02 -0.51204824070E+02  0.85967655066E+02  0.00000000000E+00 0. -1.
          1    1    1    2  502    0 -0.12627346031E+02  0.50655238063E+02  0.54967216603E+03  0.55214571729E+03  0.00000000000E+00 0. -1.
         22    1    3    3    0    0 -0.72063389087E+01 -0.99710892104E+02  0.24860561552E+03  0.26795325225E+03  0.00000000000E+00 0.  1.
         22    1    3    3    0    0  0.70663307716E+02  0.23132412037E+01  0.16889107277E+03  0.18309245917E+03  0.00000000000E+00 0.  1.
</event>
<event>
 7    1  0.5779468E-006  0.1062140E+03  0.7818608E-02  0.1400601E+00
          2   -1    0    0  502    0  0.00000000000E+00  0.00000000000E+00  0.55652036638E+02  0.55652036638E+02  0.00000000000E+00 0. -1.
          1   -1    0    0  501    0 -0.00000000000E+00 -0.00000000000E+00 -0.11861621854E+04  0.11861621854E+04  0.00000000000E+00 0. -1.
         25    2    1    2    0    0  0.83519278082E+02  0.17773639867E+02 -0.32510433262E+03  0.35862167543E+03  0.12500122765E+03 0.  0.
          2    1    1    2  501    0  0.18315450851E+02  0.27640321421E+02 -0.76327720522E+03  0.76399707795E+03  0.00000000000E+00 0. -1.
          1    1    1    2  502    0 -0.10183472893E+03 -0.45413961288E+02 -0.42128610963E+02  0.11919546870E+03  0.00000000000E+00 0. -1.
         22    1    3    3    0    0  0.36676412499E+02 -0.40781646043E+02 -0.23539154095E+03  0.24169708198E+03  0.00000000000E+00 0.  1.
         22    1    3    3    0    0  0.46842865583E+02  0.58555285910E+02 -0.89712791671E+02  0.11692459345E+03  0.00000000000E+00 0.  1.
</event>
<event>
 7    1  0.5779468E-006  0.2295758E+03  0.7818608E-02  0.1172111E+00
          2   -1    0    0  502    0  0.00000000000E+00  0.00000000000E+00  0.79965854947E+03  0.79965854947E+03  0.00000000000E+00 0. -1.
          1   -1    0    0  501    0 -0.00000000000E+00 -0.00000000000E+00 -0.10554222043E+04  0.10554222043E+04  0.00000000000E+00 0. -1.
         25    2    1    2    0    0 -0.18912153924E+02  0.22707315376E+03 -0.27834608809E+03  0.38081783374E+03  0.12500316403E+03 0.  0.
          2    1    1    2  501    0  0.14810232903E+03 -0.19021509732E+03 -0.69945504454E+03  0.73983338830E+03  0.00000000000E+00 0. -1.
          1    1    1    2  502    0 -0.12919017511E+03 -0.36858056431E+02  0.72203747782E+03  0.73442953171E+03  0.00000000000E+00 0. -1.
         22    1    3    3    0    0  0.30570447008E+02  0.69450932113E+01 -0.17389652481E+02  0.35849498789E+02  0.00000000000E+00 0.  1.
         22    1    3    3    0    0 -0.49482600932E+02  0.22012806054E+03 -0.26095643561E+03  0.34496833495E+03  0.00000000000E+00 0.  1.
</event>
<event>
 7    1  0.5779468E-006  0.5784703E+02  0.7818608E-02  0.1449109E+00
          2   -1    0    0  502    0  0.00000000000E+00  0.00000000000E+00  0.26822025757E+04  0.26822025757E+04  0.00000000000E+00 0. -1.
          1   -1    0    0  501    0 -0.00000000000E+00 -0.00000000000E+00 -0.47017313832E+02  0.47017313832E+02  0.00000000000E+00 0. -1.
         25    2    1    2    0    0 -0.45947557610E+02 -0.37495696074E+02  0.77335351175E+03  0.78563117074E+03  0.12499430799E+03 0.  0.
          2    1    1    2  501    0  0.36661712308E+02 -0.20553095941E+02 -0.29496300087E+02  0.51347274718E+02  0.00000000000E+00 0. -1.
          1    1    1    2  502    0  0.92858453016E+01  0.58048792015E+02  0.18913280502E+04  0.18922414440E+04  0.00000000000E+00 0. -1.
         22    1    3    3    0    0  0.15486971185E+02 -0.17753600617E+01  0.57008943690E+03  0.57030251994E+03  0.00000000000E+00 0.  1.
         22    1    3    3    0    0 -0.61434528794E+02 -0.35720336012E+02  0.20326407485E+03  0.21532865081E+03  0.00000000000E+00 0.  1.
</event>
<event>
 7    1  0.5779468E-006  0.2354221E+03  0.7818608E-02  0.1228709E+00
          2   -1    0    0  502    0  0.00000000000E+00  0.00000000000E+00  0.21900921613E+04  0.21900921613E+04  0.00000000000E+00 0. -1.
          1   -1    0    0  501    0 -0.00000000000E+00 -0.00000000000E+00 -0.20310044679E+03  0.20310044679E+03  0.00000000000E+00 0. -1.
         25    2    1    2    0    0  0.11639688985E+03 -0.17581162946E+03  0.29619935909E+03  0.38446856550E+03  0.12499621000E+03 0.  0.
          2    1    1    2  501    0 -0.73935039358E+02  0.23254060499E+03 -0.64188931430E+02  0.25231278591E+03  0.00000000000E+00 0. -1.
          1    1    1    2  502    0 -0.42461850493E+02 -0.56728975534E+02  0.17549812869E+04  0.17564112567E+04  0.00000000000E+00 0. -1.
         22    1    3    3    0    0  0.12766770573E+03 -0.12443175192E+03  0.27505428074E+03  0.32777608412E+03  0.00000000000E+00 0.  1.
         22    1    3    3    0    0 -0.11270815876E+02 -0.51379877535E+02  0.21145078351E+02  0.56692481375E+02  0.00000000000E+00 0.  1.
</event>
<event>
 7    1  0.5779468E-006  0.6524330E+02  0.7818608E-02  0.1448518E+00
          2   -1    0    0  502    0  0.00000000000E+00  0.00000000000E+00  0.40338789071E+03  0.40338789071E+03  0.00000000000E+00 0. -1.
          1   -1    0    0  501    0 -0.00000000000E+00 -0.00000000000E+00 -0.73096183464E+03  0.73096183464E+03  0.00000000000E+00 0. -1.
         25    2    1    2    0    0  0.11117138480E+02 -0.43375680349E+02  0.61886722571E+02  0.14649542368E+03  0.12500360920E+03 0.  0.
          2    1    1    2  501    0 -0.48535659499E+02  0.44222459376E+02 -0.68591299639E+03  0.68904860117E+03  0.00000000000E+00 0. -1.
          1    1    1    2  502    0  0.37418521019E+02 -0.84677902753E+00  0.29645232990E+03  0.29880570050E+03  0.00000000000E+00 0. -1.
         22    1    3    3    0    0  0.56444456242E+02 -0.48529555218E+02  0.64731665550E+01  0.74719450314E+02  0.00000000000E+00 0.  1.
         22    1    3    3    0    0 -0.45327317762E+02  0.51538748686E+01  0.55413556016E+02  0.71775973361E+02  0.00000000000E+00 0.  1.
</event>
<event>
 7    1  0.5779468E-006  0.1155639E+03  0.7818608E-02  0.1321395E+00
          2   -1    0    0  502    0  0.00000000000E+00  0.00000000000E+00  0.21295686828E+04  0.21295686828E+04  0.00000000000E+00 0. -1.
          1   -1    0    0  501    0 -0.00000000000E+00 -0.00000000000E+00 -0.16025117686E+04  0.16025117686E+04  0.00000000000E+00 0. -1.
         25    2    1    2    0    0 -0.66009393071E+02 -0.19254388130E+02 -0.66755116310E+02  0.15750185146E+03  0.12499046453E+03 0.  0.
          2    1    1    2  501    0 -0.24295778933E+02 -0.54060105505E+02 -0.14881700085E+04  0.14893497756E+04  0.00000000000E+00 0. -1.
          1    1    1    2  502    0  0.90305172004E+02  0.73314493635E+02  0.20819820390E+04  0.20852288244E+04  0.00000000000E+00 0. -1.
         22    1    3    3    0    0  0.11053298633E+02 -0.40650493854E+02  0.13463632699E+02  0.44225642637E+02  0.00000000000E+00 0.  1.
         22    1    3    3    0    0 -0.77062691704E+02  0.21396105724E+02 -0.80218749009E+02  0.11327620882E+03  0.00000000000E+00 0.  1.
</event>
<event>
 7    1  0.5779468E-006  0.1511014E+03  0.7818608E-02  0.1272498E+00
          2   -1    0    0  502    0  0.00000000000E+00  0.00000000000E+00  0.59016154697E+03  0.59016154697E+03  0.00000000000E+00 0. -1.
          1   -1    0    0  501    0 -0.00000000000E+00 -0.00000000000E+00 -0.52422170243E+03  0.52422170243E+03  0.00000000000E+00 0. -1.
         25    2    1    2    0    0 -0.16013471620E+03  0.69744134484E+00 -0.13601929739E+03  0.24447797822E+03  0.12499847524E+03 0.  0.
          2    1    1    2  501    0  0.24010623647E+02 -0.67144692933E+02 -0.31925723814E+03  0.32712398864E+03  0.00000000000E+00 0. -1.
          1    1    1    2  502    0  0.13612409256E+03  0.66447251588E+02  0.52121638008E+03  0.54278128254E+03  0.00000000000E+00 0. -1.
         22    1    3    3    0    0 -0.16450475386E+03  0.28986834527E+02 -0.13670035771E+03  0.21584494068E+03  0.00000000000E+00 0. -1.
         22    1    3    3    0    0  0.43700376536E+01 -0.28289393182E+02  0.68106031755E+00  0.28633037541E+02  0.00000000000E+00 0. -1.
</event>
<event>
 7    1  0.5779468E-006  0.5363621E+03  0.7818608E-02  0.1263289E+00
          2   -1    0    0  502    0  0.00000000000E+00  0.00000000000E+00  0.25773854912E+04  0.25773854912E+04  0.00000000000E+00 0. -1.
          1   -1    0    0  501    0 -0.00000000000E+00 -0.00000000000E+00 -0.91232491475E+03  0.91232491475E+03  0.00000000000E+00 0. -1.
         25    2    1    2    0    0  0.28203891920E+03  0.47939314156E+03 -0.10707760266E+02  0.57017770161E+03  0.12499687659E+03 0.  0.
          2    1    1    2  501    0 -0.10894034463E+02 -0.19074675890E+02 -0.59062041455E+03  0.59102876185E+03  0.00000000000E+00 0. -1.
          1    1    1    2  502    0 -0.27114488474E+03 -0.46031846567E+03  0.22663887512E+04  0.23285039425E+04  0.00000000000E+00 0. -1.
         22    1    3    3    0    0  0.65587413384E+01  0.10235913023E+03  0.77485720901E+01  0.10286130953E+03  0.00000000000E+00 0. -1.
         22    1    3    3    0    0  0.27548017787E+03  0.37703401133E+03 -0.18456332356E+02  0.46731639208E+03  0.00000000000E+00 0. -1.
</event>
<event>
 7    1  0.5779468E-006  0.5876448E+02  0.7818608E-02  0.1405017E+00
          2   -1    0    0  502    0  0.00000000000E+00  0.00000000000E+00  0.91773389637E+03  0.91773389637E+03  0.00000000000E+00 0. -1.
          1   -1    0    0  501    0 -0.00000000000E+00 -0.00000000000E+00 -0.11266917769E+03  0.11266917769E+03  0.00000000000E+00 0. -1.
         25    2    1    2    0    0 -0.11778349741E+02 -0.36563092403E+02  0.39230480138E+03  0.41352429674E+03  0.12499479013E+03 0.  0.
          2    1    1    2  501    0 -0.46975391533E+02  0.35439945647E+02 -0.91727760368E+02  0.10898008616E+03  0.00000000000E+00 0. -1.
          1    1    1    2  502    0  0.58753741274E+02  0.11231467565E+01  0.50448767767E+03  0.50789869117E+03  0.00000000000E+00 0. -1.
         22    1    3    3    0    0 -0.57532117180E+02  0.12926622959E+02  0.13086270483E+03  0.14353428024E+03  0.00000000000E+00 0. -1.
         22    1    3    3    0    0  0.45753767439E+02 -0.49489715362E+02  0.26144209655E+03  0.26999001650E+03  0.00000000000E+00 0. -1.
</event>
<event>
 7    1  0.5779468E-006  0.9790043E+02  0.7818608E-02  0.1429353E+00
          2   -1    0    0  502    0  0.00000000000E+00  0.00000000000E+00  0.10857135197E+04  0.10857135197E+04  0.00000000000E+00 0. -1.
          1   -1    0    0  501    0 -0.00000000000E+00 -0.00000000000E+00 -0.74123649218E+03  0.74123649218E+03  0.00000000000E+00 0. -1.
         25    2    1    2    0    0  0.15240836835E+02 -0.11016450845E+03 -0.20782077025E+03  0.26680124365E+03  0.12499971614E+03 0.  0.
          2    1    1    2  501    0  0.96822420346E+01  0.95752597766E+02 -0.49913156757E+03  0.50832531663E+03  0.00000000000E+00 0. -1.
          1    1    1    2  502    0 -0.24923078870E+02  0.14411910687E+02  0.10514293653E+04  0.10518234516E+04  0.00000000000E+00 0. -1.
         22    1    3    3    0    0 -0.29654367705E+02 -0.34431612724E+02 -0.50236897571E+01  0.45718212318E+02  0.00000000000E+00 0.  1.
         22    1    3    3    0    0  0.44895204540E+02 -0.75732895729E+02 -0.20279708050E+03  0.22108303134E+03  0.00000000000E+00 0.  1.
</event>
<event>
 7    1  0.5779468E-006  0.5370288E+02  0.7818608E-02  0.1453258E+00
          2   -1    0    0  502    0  0.00000000000E+00  0.00000000000E+00  0.10688142193E+04  0.10688142193E+04  0.00000000000E+00 0. -1.
          1   -1    0    0  501    0 -0.00000000000E+00 -0.00000000000E+00 -0.53142902207E+02  0.53142902207E+02  0.00000000000E+00 0. -1.
         25    2    1    2    0    0  0.37924866126E+02 -0.30001518906E+02  0.29199851797E+03  0.32128879046E+03  0.12499986310E+03 0.  0.
          2    1    1    2  501    0 -0.18831689116E+01  0.55087241744E+02 -0.17780139743E+02  0.57916179928E+02  0.00000000000E+00 0. -1.
          1    1    1    2  502    0 -0.36041697215E+02 -0.25085722838E+02  0.74145293884E+03  0.74275215109E+03  0.00000000000E+00 0. -1.
         22    1    3    3    0    0  0.49819059072E+02  0.34550820046E+02  0.19469026302E+03  0.20391173662E+03  0.00000000000E+00 0.  1.
         22    1    3    3    0    0 -0.11894192946E+02 -0.64552338952E+02  0.97308254941E+02  0.11737705385E+03  0.00000000000E+00 0.  1.
</event>
<event>
 7    1  0.5779468E-006  0.6943490E+02  0.7818608E-02  0.1392420E+00
          2   -1    0    0  502    0  0.00000000000E+00  0.00000000000E+00  0.16349139168E+03  0.16349139168E+03  0.00000000000E+00 0. -1.
          1   -1    0    0  501    0 -0.00000000000E+00 -0.00000000000E+00 -0.97756911169E+03  0.97756911169E+03  0.00000000000E+00 0. -1.
         25    2    1    2    0    0  0.11811547644E+02  0.92419097076E+02 -0.60419501686E+02  0.16720239724E+03  0.12500129318E+03 0.  0.
          2    1    1    2  501    0  0.34463790171E+02 -0.41745526888E+02 -0.85212215634E+03  0.85383992128E+03  0.00000000000E+00 0. -1.
          1    1    1    2  502    0 -0.46275337815E+02 -0.50673570188E+02  0.98463938015E+02  0.12001818485E+03  0.00000000000E+00 0. -1.
         22    1    3    3    0    0 -0.25449904105E+02  0.65306328485E+02 -0.88764819075E+02  0.11310087208E+03  0.00000000000E+00 0.  1.
         22    1    3    3    0    0  0.37261451749E+02  0.27112768592E+02  0.28345317389E+02  0.54101525164E+02  0.00000000000E+00 0.  1.
</event>
<event>
 7    1  0.5779468E-006  0.4741686E+02  0.7818608E-02  0.1462888E+00
          2   -1    0    0  502    0  0.00000000000E+00  0.00000000000E+00  0.24914114710E+04  0.24914114710E+04  0.00000000000E+00 0. -1.
          1   -1    0    0  501    0 -0.00000000000E+00 -0.00000000000E+00 -0.50064055075E+03  0.50064055075E+03  0.00000000000E+00 0. -1.
         25    2    1    2    0    0 -0.17345989303E+02 -0.25616614236E+02  0.22994666411E+02  0.13081775014E+03  0.12500973881E+03 0.  0.
          2    1    1    2  501    0  0.44338130145E+02 -0.13558726541E+02 -0.44529089063E+03  0.44769820876E+03  0.00000000000E+00 0. -1.
          1    1    1    2  502    0 -0.26992140842E+02  0.39175340777E+02  0.24130671445E+04  0.24135360629E+04  0.00000000000E+00 0. -1.
         22    1    3    3    0    0 -0.21623101981E+02 -0.23455576138E+01 -0.49763514796E+02  0.54309000954E+02  0.00000000000E+00 0. -1.
         22    1    3    3    0    0  0.42771126776E+01 -0.23271056622E+02  0.72758181207E+02  0.76508749184E+02  0.00000000000E+00 0. -1.
</event>
<event>
 7    1  0.5779468E-006  0.5865632E+02  0.7818608E-02  0.1520941E+00
          2   -1    0    0  502    0  0.00000000000E+00  0.00000000000E+00  0.48396184400E+03  0.48396184400E+03  0.00000000000E+00 0. -1.
          1   -1    0    0  501    0 -0.00000000000E+00 -0.00000000000E+00 -0.50841393596E+03  0.50841393596E+03  0.00000000000E+00 0. -1.
         25    2    1    2    0    0 -0.77764894731E+02 -0.23238994511E+02 -0.16352729350E+02  0.14992525111E+03  0.12499095746E+03 0.  0.
          2    1    1    2  501    0  0.52745465026E+02  0.24150152767E+02 -0.42291745807E+03  0.42687760576E+03  0.00000000000E+00 0. -1.
          1    1    1    2  502    0  0.25019429705E+02 -0.91115825656E+00  0.41481809546E+03  0.41557292308E+03  0.00000000000E+00 0. -1.
         22    1    3    3    0    0 -0.82558211059E+02  0.25891352447E+01 -0.57828729049E+02  0.10083017276E+03  0.00000000000E+00 0.  1.
         22    1    3    3    0    0  0.47933163280E+01 -0.25828129755E+02  0.41475999698E+02  0.49095078359E+02  0.00000000000E+00 0.  1.
</event>
<event>
 7    1  0.5779468E-006  0.7075327E+02  0.7818608E-02  0.1401907E+00
          2   -1    0    0  502    0  0.00000000000E+00  0.00000000000E+00  0.17292873005E+04  0.17292873005E+04  0.00000000000E+00 0. -1.
          1   -1    0    0  501    0 -0.00000000000E+00 -0.00000000000E+00 -0.97603060599E+02  0.97603060599E+02  0.00000000000E+00 0. -1.
         25    2    1    2    0    0  0.22499652750E+02 -0.19653033776E+02  0.16935618690E+03  0.21260026792E+03  0.12499951907E+03 0.  0.
          2    1    1    2  501    0  0.14407704465E+00 -0.49264769519E+02 -0.67044214496E+02  0.83198347167E+02  0.00000000000E+00 0. -1.
          1    1    1    2  502    0 -0.22643729795E+02  0.68917803295E+02  0.15293722675E+04  0.15310917460E+04  0.00000000000E+00 0. -1.
         22    1    3    3    0    0  0.34263880581E+02 -0.37217900399E+01  0.18448622122E+03  0.18767799832E+03  0.00000000000E+00 0.  1.
         22    1    3    3    0    0 -0.11764227831E+02 -0.15931243736E+02 -0.15130034322E+02  0.24922269600E+02  0.00000000000E+00 0.  1.
</event>
<event>
 7    1  0.5779468E-006  0.2318099E+03  0.7818608E-02  0.1278586E+00
          2   -1    0    0  502    0  0.00000000000E+00  0.00000000000E+00  0.13575465128E+04  0.13575465128E+04  0.00000000000E+00 0. -1.
          1   -1    0    0  501    0 -0.00000000000E+00 -0.00000000000E+00 -0.68061572055E+03  0.68061572055E+03  0.00000000000E+00 0. -1.
         25    2    1    2    0    0 -0.23709340204E+03 -0.56610124435E+02  0.16434662324E+02  0.27443216115E+03  0.12499970187E+03 0.  0.
          2    1    1    2  501    0  0.21119982735E+03  0.91995028515E+02 -0.52714343841E+03  0.57528137203E+03  0.00000000000E+00 0. -1.
          1    1    1    2  502    0  0.25893574699E+02 -0.35384904081E+02  0.11876395684E+04  0.11884487002E+04  0.00000000000E+00 0. -1.
         22    1    3    3    0    0 -0.20230134711E+03 -0.51579019007E+02 -0.35448352844E+02  0.21176122394E+03  0.00000000000E+00 0. -1.
         22    1    3    3    0    0 -0.34792054931E+02 -0.50311054274E+01  0.51883015168E+02  0.62670937213E+02  0.00000000000E+00 0. -1.
</event>
<event>
 7    1  0.5779468E-006  0.1366874E+03  0.7818608E-02  0.1275711E+00
          2   -1    0    0  502    0  0.00000000000E+00  0.00000000000E+00  0.88809083025E+03  0.88809083025E+03  0.00000000000E+00 0. -1.
          1   -1    0    0  501    0 -0.00000000000E+00 -0.00000000000E+00 -0.12922536554E+03  0.12922536554E+03  0.00000000000E+00 0. -1.
         25    2    1    2    0    0 -0.42836047966E+01 -0.15003250374E+03  0.33495837553E+03  0.38774875837E+03  0.12499553923E+03 0.  0.
          2    1    1    2  501    0  0.70423367324E+02  0.29706503740E+02 -0.78007209641E+02  0.10921104242E+03  0.00000000000E+00 0. -1.
          1    1    1    2  502    0 -0.66139762527E+02  0.12032600000E+03  0.50191429881E+03  0.52035639500E+03  0.00000000000E+00 0. -1.
         22    1    3    3    0    0  0.27426738880E+02 -0.17625391537E+02  0.79911284921E+01  0.33566926684E+02  0.00000000000E+00 0. -1.
         22    1    3    3    0    0 -0.31710343677E+02 -0.13240711220E+03  0.32696724704E+03  0.35418183169E+03  0.00000000000E+00 0. -1.
</event>
<event>
 7    1  0.5779468E-006  0.2593630E+03  0.7818608E-02  0.1184965E+00
          2   -1    0    0  502    0  0.00000000000E+00  0.00000000000E+00  0.11199991161E+04  0.11199991161E+04  0.00000000000E+00 0. -1.
          1   -1    0    0  501    0 -0.00000000000E+00 -0.00000000000E+00 -0.17451618654E+04  0.17451618654E+04  0.00000000000E+00 0. -1.
         25    2    1    2    0    0 -0.22098196955E+03  0.17417348626E+03 -0.18380738839E+00  0.30788703314E+03  0.12499982885E+03 0.  0.
          2    1    1    2  501    0 -0.26804391525E+02 -0.99328073483E+02 -0.15720779347E+04  0.15754407555E+04  0.00000000000E+00 0. -1.
          1    1    1    2  502    0  0.24778636107E+03 -0.74845412776E+02  0.94709899277E+03  0.98183319288E+03  0.00000000000E+00 0. -1.
         22    1    3    3    0    0 -0.21384358736E+03  0.10613498472E+03  0.87522049907E+01  0.23889394284E+03  0.00000000000E+00 0.  1.
         22    1    3    3    0    0 -0.71383821931E+01  0.68038501543E+02 -0.89360123791E+01  0.68993090304E+02  0.00000000000E+00 0.  1.
</event>
<event>
 7    1  0.5779468E-006  0.3237726E+02  0.7818608E-02  0.1615151E+00
          2   -1    0    0  502    0  0.00000000000E+00  0.00000000000E+00  0.34527497750E+02  0.34527497750E+02  0.00000000000E+00 0. -1.
          1   -1    0    0  501    0 -0.00000000000E+00 -0.00000000000E+00 -0.56538764906E+03  0.56538764906E+03  0.00000000000E+00 0. -1.
         25    2    1    2    0    0 -0.19289391940E+02  0.13985977875E+02 -0.35644347280E+03  0.37847797524E+03  0.12500376083E+03 0.  0.
          2    1    1    2  501    0  0.45010322739E+01 -0.34275623317E+02 -0.18917905104E+03  0.19231170271E+03  0.00000000000E+00 0. -1.
          1    1    1    2  502    0  0.14788359666E+02  0.20289645442E+02  0.14762372531E+02  0.29125468864E+02  0.00000000000E+00 0. -1.
         22    1    3    3    0    0 -0.61752410153E+02  0.38620092777E+02 -0.15684696453E+03  0.17293305644E+03  0.00000000000E+00 0. -1.
         22    1    3    3    0    0  0.42463018213E+02 -0.24634114902E+02 -0.19959650827E+03  0.20554491881E+03  0.00000000000E+00 0. -1.
</event>
<event>
 7    1  0.5779468E-006  0.1155080E+03  0.7818608E-02  0.1335588E+00
          2   -1    0    0  502    0  0.00000000000E+00  0.00000000000E+00  0.69326372542E+03  0.69326372542E+03  0.00000000000E+00 0. -1.
          1   -1    0    0  501    0 -0.00000000000E+00 -0.00000000000E+00 -0.24480851987E+03  0.24480851987E+03  0.00000000000E+00 0. -1.
         25    2    1    2    0    0  0.30903914520E+02  0.11069973674E+03 -0.14354035989E+02  0.17041214388E+03  0.12499910715E+03 0.  0.
          2    1    1    2  501    0 -0.78370982955E+02 -0.88689380769E+02 -0.12811909370E+03  0.17441995127E+03  0.00000000000E+00 0. -1.
          1    1    1    2  502    0  0.47467068435E+02 -0.22010355967E+02  0.59092833524E+03  0.59324015014E+03  0.00000000000E+00 0. -1.
         22    1    3    3    0    0  0.26366550070E+02  0.18179613399E+02 -0.59343077604E+02  0.67433627853E+02  0.00000000000E+00 0. -1.
         22    1    3    3    0    0  0.45373644506E+01  0.92520123336E+02  0.44989041615E+02  0.10297851603E+03  0.00000000000E+00 0. -1.
</event>
<event>
 7    1  0.5779468E-006  0.9691729E+02  0.7818608E-02  0.1332879E+00
          2   -1    0    0  502    0  0.00000000000E+00  0.00000000000E+00  0.44103817779E+03  0.44103817779E+03  0.00000000000E+00 0. -1.
          1   -1    0    0  501    0 -0.00000000000E+00 -0.00000000000E+00 -0.26834806596E+03  0.26834806596E+03  0.00000000000E+00 0. -1.
         25    2    1    2    0    0  0.12079563877E+02 -0.69283620804E+02  0.77703498876E+02  0.16312423772E+03  0.12500218886E+03 0.  0.
          2    1    1    2  501    0  0.48911526388E+02  0.88184097219E+02 -0.21090731773E+03  0.23377482560E+03  0.00000000000E+00 0. -1.
          1    1    1    2  502    0 -0.60991090265E+02 -0.18900476415E+02  0.30589393068E+03  0.31248718042E+03  0.00000000000E+00 0. -1.
         22    1    3    3    0    0 -0.39343786372E+02 -0.72971574637E+02  0.19106092027E+02  0.85075419385E+02  0.00000000000E+00 0. -1.
         22    1    3    3    0    0  0.51423350249E+02  0.36879538327E+01  0.58597406849E+02  0.78048818336E+02  0.00000000000E+00 0. -1.
</event>
<event>
 7    1  0.6826870E-006  0.7007784E+02  0.7818608E-02  0.1489517E+00
          2   -1    0    0  502    0  0.00000000000E+00  0.00000000000E+00  0.72998279526E+03  0.72998279526E+03  0.00000000000E+00 0. -1.
          1   -1    0    0  501    0 -0.00000000000E+00 -0.00000000000E+00 -0.89327273919E+03  0.89327273919E+03  0.00000000000E+00 0. -1.
         25    2    1    2    0    0 -0.12680790729E+02  0.50048989105E+02 -0.42089057536E+03  0.44208587218E+03  0.12500135278E+03 0.  0.
          2    1    1    2  501    0 -0.24083872833E+02  0.97074535935E+01 -0.45970659926E+03  0.46043938254E+03  0.00000000000E+00 0. -1.
          1    1    1    2  502    0  0.36764663562E+02 -0.59756442698E+02  0.71730723068E+03  0.72073027973E+03  0.00000000000E+00 0. -1.
         22    1    3    3    0    0  0.54148599078E+01  0.81801578886E+02 -0.17213733265E+03  0.19066221520E+03  0.00000000000E+00 0. -1.
         22    1    3    3    0    0 -0.18095650637E+02 -0.31752589782E+02 -0.24875324271E+03  0.25142365698E+03  0.00000000000E+00 0. -1.
</event>
<event>
 7    1  0.5779468E-006  0.1307404E+03  0.7818608E-02  0.1272272E+00
          2   -1    0    0  502    0  0.00000000000E+00  0.00000000000E+00  0.14123360437E+04  0.14123360437E+04  0.00000000000E+00 0. -1.
          1   -1    0    0  501    0 -0.00000000000E+00 -0.00000000000E+00 -0.17822594243E+03  0.17822594243E+03  0.00000000000E+00 0. -1.
         25    2    1    2    0    0 -0.54942415026E+02 -0.94507401591E+02  0.80476163441E+03  0.82171693018E+03  0.12500842852E+03 0.  0.
          2    1    1    2  501    0 -0.82534987052E+02 -0.31218243096E+01 -0.14684900568E+03  0.16848264108E+03  0.00000000000E+00 0. -1.
          1    1    1    2  502    0  0.13747740208E+03  0.97629225901E+02  0.57619747257E+03  0.60036241491E+03  0.00000000000E+00 0. -1.
         22    1    3    3    0    0 -0.72326844403E+02 -0.11704157265E+03  0.66221850927E+03  0.67636030056E+03  0.00000000000E+00 0. -1.
         22    1    3    3    0    0  0.17384429377E+02  0.22534171063E+02  0.14254312514E+03  0.14535662962E+03  0.00000000000E+00 0. -1.
</event>
<event>
 7    1  0.5779468E-006  0.7495087E+02  0.7818608E-02  0.1351942E+00
          2   -1    0    0  502    0  0.00000000000E+00  0.00000000000E+00  0.27728492916E+03  0.27728492916E+03  0.00000000000E+00 0. -1.
          1   -1    0    0  501    0 -0.00000000000E+00 -0.00000000000E+00 -0.76772431469E+03  0.76772431469E+03  0.00000000000E+00 0. -1.
         25    2    1    2    0    0 -0.12407774788E+03  0.60265548819E+02 -0.13436701918E+02  0.18663210166E+03  0.12499508997E+03 0.  0.
          2    1    1    2  501    0  0.55279342291E+02 -0.43008975783E+02 -0.65917393524E+03  0.66288449566E+03  0.00000000000E+00 0. -1.
          1    1    1    2  502    0  0.68798405589E+02 -0.17256573036E+02  0.18217125164E+03  0.19549264653E+03  0.00000000000E+00 0. -1.
         22    1    3    3    0    0 -0.99452548383E+02  0.98759379469E+02 -0.56096689730E+01  0.14027007093E+03  0.00000000000E+00 0.  1.
         22    1    3    3    0    0 -0.24625199497E+02 -0.38493830650E+02 -0.78270329445E+01  0.46362030727E+02  0.00000000000E+00 0.  1.
</event>
<event>
 7    1  0.5779468E-006  0.1593052E+03  0.7818608E-02  0.1294915E+00
          2   -1    0    0  502    0  0.00000000000E+00  0.00000000000E+00  0.16716001364E+04  0.16716001364E+04  0.00000000000E+00 0. -1.
          1   -1    0    0  501    0 -0.00000000000E+00 -0.00000000000E+00 -0.13926708639E+04  0.13926708639E+04  0.00000000000E+00 0. -1.
         25    2    1    2    0    0 -0.17588723328E+03  0.41908389108E+02  0.21577844369E+03  0.30802215080E+03  0.12499870686E+03 0.  0.
          2    1    1    2  501    0  0.39558149915E+02  0.37796609880E+02 -0.13415670061E+04  0.13426821898E+04  0.00000000000E+00 0. -1.
          1    1    1    2  502    0  0.13632908336E+03 -0.79704998988E+02  0.14047178349E+04  0.14135666597E+04  0.00000000000E+00 0. -1.
         22    1    3    3    0    0 -0.17183265345E+03  0.36719387230E+01  0.13497456110E+03  0.21853621226E+03  0.00000000000E+00 0.  1.
         22    1    3    3    0    0 -0.40545798283E+01  0.38236450385E+02  0.80803882583E+02  0.89485938538E+02  0.00000000000E+00 0.  1.
</event>
<event>
 7    1  0.5779468E-006  0.8967321E+02  0.7818608E-02  0.1329114E+00
          2   -1    0    0  502    0  0.00000000000E+00  0.00000000000E+00  0.12002290528E+04  0.12002290528E+04  0.00000000000E+00 0. -1.
          1   -1    0    0  501    0 -0.00000000000E+00 -0.00000000000E+00 -0.12776547833E+04  0.12776547833E+04  0.00000000000E+00 0. -1.
         25    2    1    2    0    0 -0.31313134563E+02 -0.11207217148E+03  0.47320117648E+02  0.17720996712E+03  0.12499397944E+03 0.  0.
          2    1    1    2  501    0 -0.40600268389E+02  0.58648790574E+02 -0.12098133961E+04  0.12119144012E+04  0.00000000000E+00 0. -1.
          1    1    1    2  502    0  0.71913402952E+02  0.53423380908E+02  0.10850675479E+04  0.10887594678E+04  0.00000000000E+00 0. -1.
         22    1    3    3    0    0 -0.42082107314E+02 -0.67813922802E+02  0.86091213908E+02  0.11739390527E+03  0.00000000000E+00 0. -1.
         22    1    3    3    0    0  0.10768972752E+02 -0.44258248681E+02 -0.38771096260E+02  0.59816061853E+02  0.00000000000E+00 0. -1.
</event>
<event>
 7    1  0.5779468E-006  0.7158997E+02  0.7818608E-02  0.1417959E+00
          2   -1    0    0  502    0  0.00000000000E+00  0.00000000000E+00  0.88539840045E+03  0.88539840045E+03  0.00000000000E+00 0. -1.
          1   -1    0    0  501    0 -0.00000000000E+00 -0.00000000000E+00 -0.67486994854E+02  0.67486994854E+02  0.00000000000E+00 0. -1.
         25    2    1    2    0    0  0.10764627547E+02 -0.83833596180E+02  0.41401087314E+03  0.44064740120E+03  0.12498471927E+03 0.  0.
          2    1    1    2  501    0 -0.43858850210E+02  0.56446619098E+02 -0.29050925853E+02  0.77160714372E+02  0.00000000000E+00 0. -1.
          1    1    1    2  502    0  0.33094222663E+02  0.27386977082E+02  0.43295145831E+03  0.43507727973E+03  0.00000000000E+00 0. -1.
         22    1    3    3    0    0  0.63348179002E+02 -0.49306675826E+02  0.29864297117E+03  0.30924385894E+03  0.00000000000E+00 0. -1.
         22    1    3    3    0    0 -0.52583551455E+02 -0.34526920354E+02  0.11536790196E+03  0.13140354225E+03  0.00000000000E+00 0. -1.
</event>
<event>
 7    1  0.5779468E-006  0.7370407E+02  0.7818608E-02  0.1362259E+00
          2   -1    0    0  502    0  0.00000000000E+00  0.00000000000E+00  0.51058140641E+03  0.51058140641E+03  0.00000000000E+00 0. -1.
          1   -1    0    0  501    0 -0.00000000000E+00 -0.00000000000E+00 -0.12455233537E+04  0.12455233537E+04  0.00000000000E+00 0. -1.
         25    2    1    2    0    0  0.12088897266E+03  0.15407429896E+02 -0.23651133908E+03  0.29396282081E+03  0.12499997559E+03 0.  0.
          2    1    1    2  501    0 -0.60071591167E+02  0.25564490371E+02 -0.97639990510E+03  0.97858004982E+03  0.00000000000E+00 0. -1.
          1    1    1    2  502    0 -0.60817381494E+02 -0.40971920268E+02  0.47796929691E+03  0.48356188946E+03  0.00000000000E+00 0. -1.
         22    1    3    3    0    0 -0.59591139128E+01  0.41687015597E+02 -0.36840301016E+02  0.55951104430E+02  0.00000000000E+00 0.  1.
         22    1    3    3    0    0  0.12684808657E+03 -0.26279585701E+02 -0.19967103807E+03  0.23801171638E+03  0.00000000000E+00 0.  1.
</event>
<event>
 7    1  0.5779468E-006  0.4786599E+02  0.7818608E-02  0.1549778E+00
          2   -1    0    0  502    0  0.00000000000E+00  0.00000000000E+00  0.28487158340E+03  0.28487158340E+03  0.00000000000E+00 0. -1.
          1   -1    0    0  501    0 -0.00000000000E+00 -0.00000000000E+00 -0.24024118643E+03  0.24024118643E+03  0.00000000000E+00 0. -1.
         25    2    1    2    0    0  0.26866047217E+02  0.17174982918E+02 -0.15633453405E+03  0.20268745240E+03  0.12499980917E+03 0.  0.
          2    1    1    2  501    0 -0.48652903444E+02 -0.30230941079E+02 -0.46427279914E+02  0.73732673438E+02  0.00000000000E+00 0. -1.
          1    1    1    2  502    0  0.21786856227E+02  0.13055958161E+02  0.24739221093E+03  0.24869264399E+03  0.00000000000E+00 0. -1.
         22    1    3    3    0    0 -0.15714920204E+02  0.47143399365E+02 -0.14757152278E+02  0.51838522009E+02  0.00000000000E+00 0. -1.
         22    1    3    3    0    0  0.42580967421E+02 -0.29968416447E+02 -0.14157738177E+03  0.15084893039E+03  0.00000000000E+00 0. -1.
</event>
<event>
 7    1  0.5779468E-006  0.7903303E+02  0.7818608E-02  0.1431988E+00
          2   -1    0    0  502    0  0.00000000000E+00  0.00000000000E+00  0.30641561203E+03  0.30641561203E+03  0.00000000000E+00 0. -1.
          1   -1    0    0  501    0 -0.00000000000E+00 -0.00000000000E+00 -0.88238767185E+03  0.88238767185E+03  0.00000000000E+00 0. -1.
         25    2    1    2    0    0  0.33784088531E+02 -0.34870991960E+02 -0.21668577398E+03  0.25482341355E+03  0.12499958691E+03 0.  0.
          2    1    1    2  501    0 -0.61137933274E+02  0.56639366933E+02 -0.64286991175E+03  0.64824963417E+03  0.00000000000E+00 0. -1.
          1    1    1    2  502    0  0.27353844743E+02 -0.21768374972E+02  0.28358362591E+03  0.28573023616E+03  0.00000000000E+00 0. -1.
         22    1    3    3    0    0  0.57131244790E+02 -0.24099775038E+02 -0.22029879304E+03  0.22885876978E+03  0.00000000000E+00 0.  1.
         22    1    3    3    0    0 -0.23347156259E+02 -0.10771216922E+02  0.36130190595E+01  0.25964643770E+02  0.00000000000E+00 0.  1.
</event>
<event>
 7    1  0.5779468E-006  0.5452972E+02  0.7818608E-02  0.1523282E+00
          2   -1    0    0  502    0  0.00000000000E+00  0.00000000000E+00  0.13475510498E+03  0.13475510498E+03  0.00000000000E+00 0. -1.
          1   -1    0    0  501    0 -0.00000000000E+00 -0.00000000000E+00 -0.13431916303E+04  0.13431916303E+04  0.00000000000E+00 0. -1.
         25    2    1    2    0    0 -0.25619055926E+02 -0.60388055197E+02 -0.17522116296E+03  0.22501273869E+03  0.12500089355E+03 0.  0.
          2    1    1    2  501    0 -0.13580860203E+02  0.22771213383E+02 -0.11361936462E+04  0.11365029562E+04  0.00000000000E+00 0. -1.
          1    1    1    2  502    0  0.39199916129E+02  0.37616841814E+02  0.10297828383E+03  0.11643104033E+03  0.00000000000E+00 0. -1.
         22    1    3    3    0    0 -0.18476436373E+02 -0.92901331163E+02 -0.79478667623E+02  0.12364826986E+03  0.00000000000E+00 0.  1.
         22    1    3    3    0    0 -0.71426195526E+01  0.32513275967E+02 -0.95742495334E+02  0.10136446883E+03  0.00000000000E+00 0.  1.
</event>
<event>
 7    1  0.5779468E-006  0.3566669E+02  0.7818608E-02  0.1611149E+00
          2   -1    0    0  502    0  0.00000000000E+00  0.00000000000E+00  0.27211122965E+03  0.27211122965E+03  0.00000000000E+00 0. -1.
          1   -1    0    0  501    0 -0.00000000000E+00 -0.00000000000E+00 -0.96284305181E+03  0.96284305181E+03  0.00000000000E+00 0. -1.
         25    2    1    2    0    0  0.53517707443E+02  0.15873022212E+02 -0.24811811178E+03  0.28337630447E+03  0.12499373865E+03 0.  0.
          2    1    1    2  501    0 -0.30273538915E+02 -0.17958624597E+02 -0.69611517345E+03  0.69700454379E+03  0.00000000000E+00 0. -1.
          1    1    1    2  502    0 -0.23244168528E+02  0.20856023843E+01  0.25350146307E+03  0.25457343319E+03  0.00000000000E+00 0. -1.
         22    1    3    3    0    0  0.52668681243E+02 -0.12312621493E+01 -0.25818906995E+03  0.26350920635E+03  0.00000000000E+00 0. -1.
         22    1    3    3    0    0  0.84902620015E+00  0.17104284362E+02  0.10070958177E+02  0.19867098118E+02  0.00000000000E+00 0. -1.
</event>
<event>
 7    1  0.5779468E-006  0.4439737E+02  0.7818608E-02  0.1541838E+00
          2   -1    0    0  502    0  0.00000000000E+00  0.00000000000E+00  0.91411669514E+03  0.91411669514E+03  0.00000000000E+00 0. -1.
          1   -1    0    0  501    0 -0.00000000000E+00 -0.00000000000E+00 -0.20499393279E+04  0.20499393279E+04  0.00000000000E+00 0. -1.
         25    2    1    2    0    0  0.67328833525E+02  0.23341719697E+02  0.31403604602E+03  0.34542982055E+03  0.12500046009E+03 0.  0.
          2    1    1    2  501    0 -0.25365087978E+02 -0.13691808424E+02 -0.20333469776E+04  0.20335512742E+04  0.00000000000E+00 0. -1.
          1    1    1    2  502    0 -0.41963745546E+02 -0.96499112731E+01  0.58348829890E+03  0.58507492826E+03  0.00000000000E+00 0. -1.
         22    1    3    3    0    0  0.22379954632E+02  0.71015382776E+02  0.12661670735E+03  0.14688715921E+03  0.00000000000E+00 0.  1.
         22    1    3    3    0    0  0.44948878893E+02 -0.47673663079E+02  0.18741933867E+03  0.19854266135E+03  0.00000000000E+00 0.  1.
</event>
<event>
 7    1  0.5779468E-006  0.3414341E+03  0.7818608E-02  0.1187668E+00
          2   -1    0    0  502    0  0.00000000000E+00  0.00000000000E+00  0.16739951787E+04  0.16739951787E+04  0.00000000000E+00 0. -1.
          1   -1    0    0  501    0 -0.00000000000E+00 -0.00000000000E+00 -0.63716452859E+03  0.63716452859E+03  0.00000000000E+00 0. -1.
         25    2    1    2    0    0  0.27112177733E+03 -0.97349716979E+02 -0.75467104614E+02  0.32296249631E+03  0.12500201841E+03 0.  0.
          2    1    1    2  501    0  0.69355048546E+02  0.30678665240E+02 -0.41505957296E+03  0.42193098057E+03  0.00000000000E+00 0. -1.
          1    1    1    2  502    0 -0.34047682588E+03  0.66671051739E+02  0.15273573276E+04  0.15662662304E+04  0.00000000000E+00 0. -1.
         22    1    3    3    0    0  0.21513773808E+03 -0.12712695799E+03 -0.51297328497E+02  0.25510179480E+03  0.00000000000E+00 0.  1.
         22    1    3    3    0    0  0.55984039250E+02  0.29777241015E+02 -0.24169776117E+02  0.67860701520E+02  0.00000000000E+00 0.  1.
</event>
<event>
 7    1  0.5779468E-006  0.5349047E+02  0.7818608E-02  0.1440686E+00
          2   -1    0    0  502    0  0.00000000000E+00  0.00000000000E+00  0.59284089669E+03  0.59284089669E+03  0.00000000000E+00 0. -1.
          1   -1    0    0  501    0 -0.00000000000E+00 -0.00000000000E+00 -0.12858059023E+04  0.12858059023E+04  0.00000000000E+00 0. -1.
         25    2    1    2    0    0  0.37104147965E+02 -0.72984342625E+02 -0.40981235328E+03  0.43620497564E+03  0.12500073523E+03 0.  0.
          2    1    1    2  501    0  0.98129546759E+01  0.47379288261E+02 -0.86088432878E+03  0.86224295797E+03  0.00000000000E+00 0. -1.
          1    1    1    2  502    0 -0.46917102641E+02  0.25605054364E+02  0.57773167648E+03  0.58019886534E+03  0.00000000000E+00 0. -1.
         22    1    3    3    0    0  0.46801078711E+02 -0.10090783912E+03 -0.24924113211E+03  0.27293566074E+03  0.00000000000E+00 0.  1.
         22    1    3    3    0    0 -0.96969307459E+01  0.27923496494E+02 -0.16057122116E+03  0.16326931490E+03  0.00000000000E+00 0.  1.
</event>
<event>
 7    1  0.5779468E-006  0.1445993E+03  0.7818608E-02  0.1306181E+00
          2   -1    0    0  502    0  0.00000000000E+00  0.00000000000E+00  0.59182623442E+02  0.59182623442E+02  0.00000000000E+00 0. -1.
          1   -1    0    0  501    0 -0.00000000000E+00 -0.00000000000E+00 -0.78242096830E+03  0.78242096830E+03  0.00000000000E+00 0. -1.
         25    2    1    2    0    0  0.12393542007E+03  0.44299740875E+02 -0.41176839907E+03  0.45000183397E+03  0.12500392282E+03 0.  0.
          2    1    1    2  501    0 -0.16244722183E+03 -0.59695598881E+01 -0.29140653240E+03  0.33368024012E+03  0.00000000000E+00 0. -1.
          1    1    1    2  502    0  0.38511801759E+02 -0.38330180987E+02 -0.20063413396E+02  0.57921517645E+02  0.00000000000E+00 0. -1.
         22    1    3    3    0    0  0.14324654782E+03  0.11993485779E+02 -0.31920761128E+03  0.35008129951E+03  0.00000000000E+00 0.  1.
         22    1    3    3    0    0 -0.19311127749E+02  0.32306255095E+02 -0.92560787782E+02  0.99920534466E+02  0.00000000000E+00 0.  1.
</event>
<event>
 7    1  0.5779468E-006  0.9696792E+02  0.7818608E-02  0.1371281E+00
          2   -1    0    0  502    0  0.00000000000E+00  0.00000000000E+00  0.78222674842E+03  0.78222674842E+03  0.00000000000E+00 0. -1.
          1   -1    0    0  501    0 -0.00000000000E+00 -0.00000000000E+00 -0.97133068491E+03  0.97133068491E+03  0.00000000000E+00 0. -1.
         25    2    1    2    0    0 -0.59158556785E+02  0.33584730482E+02  0.33399655978E+02  0.14618267514E+03  0.12500467403E+03 0.  0.
          2    1    1    2  501    0  0.97639457160E+02 -0.83178265561E+01 -0.91154508498E+03  0.91679719229E+03  0.00000000000E+00 0. -1.
          1    1    1    2  502    0 -0.38480900375E+02 -0.25266903926E+02  0.68904149252E+03  0.69057756591E+03  0.00000000000E+00 0. -1.
         22    1    3    3    0    0 -0.94197900643E+02  0.20521089254E+02  0.55120322347E+00  0.96408834734E+02  0.00000000000E+00 0.  1.
         22    1    3    3    0    0  0.35039343858E+02  0.13063641227E+02  0.32848452754E+02  0.49773840403E+02  0.00000000000E+00 0.  1.
</event>
<event>
 7    1  0.5779468E-006  0.9321004E+02  0.7818608E-02  0.1312144E+00
          2   -1    0    0  502    0  0.00000000000E+00  0.00000000000E+00  0.14180491163E+04  0.14180491163E+04  0.00000000000E+00 0. -1.
          1   -1    0    0  501    0 -0.00000000000E+00 -0.00000000000E+00 -0.19539828001E+03  0.19539828001E+03  0.00000000000E+00 0. -1.
         25    2    1    2    0    0 -0.51048117301E+02  0.73531402983E+01  0.50455639217E+01  0.13531345068E+03  0.12499717303E+03 0.  0.
          2    1    1    2  501    0  0.93442314782E+02  0.60309921023E+02 -0.10510118023E+03  0.15301964205E+03  0.00000000000E+00 0. -1.
          1    1    1    2  502    0 -0.42394197481E+02 -0.67663061322E+02  0.13227064526E+04  0.13251143036E+04  0.00000000000E+00 0. -1.
         22    1    3    3    0    0  0.41245844654E+02  0.94447429473E+01 -0.42634321401E+01  0.42527634829E+02  0.00000000000E+00 0.  1.
         22    1    3    3    0    0 -0.92293961955E+02 -0.20916026490E+01  0.93089960618E+01  0.92785815848E+02  0.00000000000E+00 0.  1.
</event>
<event>
 7    1  0.5779468E-006  0.1347543E+03  0.7818608E-02  0.1271202E+00
          2   -1    0    0  502    0  0.00000000000E+00  0.00000000000E+00  0.33376205308E+03  0.33376205308E+03  0.00000000000E+00 0. -1.
          1   -1    0    0  501    0 -0.00000000000E+00 -0.00000000000E+00 -0.10546498709E+04  0.10546498709E+04  0.00000000000E+00 0. -1.
         25    2    1    2    0    0 -0.48304784779E+02  0.61428209907E+02 -0.52131071723E+02  0.15636022766E+03  0.12499637974E+03 0.  0.
          2    1    1    2  501    0  0.12917186158E+03 -0.57453632668E+02 -0.93918381797E+03  0.94976446220E+03  0.00000000000E+00 0. -1.
          1    1    1    2  502    0 -0.80867076806E+02 -0.39745772393E+01  0.27042707185E+03  0.28228723415E+03  0.00000000000E+00 0. -1.
         22    1    3    3    0    0 -0.80115079872E+02  0.33540461560E+01 -0.19409811823E+02  0.82501008742E+02  0.00000000000E+00 0.  1.
         22    1    3    3    0    0  0.31810295093E+02  0.58074163751E+02 -0.32721259901E+02  0.73859218915E+02  0.00000000000E+00 0.  1.
</event>
<event>
 7    1  0.5779468E-006  0.1086832E+03  0.7818608E-02  0.1366547E+00
          2   -1    0    0  502    0  0.00000000000E+00  0.00000000000E+00  0.31387376154E+03  0.31387376154E+03  0.00000000000E+00 0. -1.
          1   -1    0    0  501    0 -0.00000000000E+00 -0.00000000000E+00 -0.29150139817E+03  0.29150139817E+03  0.00000000000E+00 0. -1.
         25    2    1    2    0    0 -0.12399088997E+03 -0.74929262253E+02  0.20368250471E+03  0.27946690410E+03  0.12500821022E+03 0.  0.
          2    1    1    2  501    0  0.99213160304E+02  0.40132950108E+02 -0.23445339064E+03  0.25772523595E+03  0.00000000000E+00 0. -1.
          1    1    1    2  502    0  0.24777729669E+02  0.34796312145E+02  0.53143249292E+02  0.68183019673E+02  0.00000000000E+00 0. -1.
         22    1    3    3    0    0 -0.13468936613E+03 -0.97565180800E+02  0.17726935980E+03  0.24307327245E+03  0.00000000000E+00 0.  1.
         22    1    3    3    0    0  0.10698476161E+02  0.22635918547E+02  0.26413144910E+02  0.36393631650E+02  0.00000000000E+00 0.  1.
</event>
<event>
 7    1  0.5779468E-006  0.1770104E+03  0.7818608E-02  0.1215348E+00
          2   -1    0    0  502    0  0.00000000000E+00  0.00000000000E+00  0.86604455896E+03  0.86604455896E+03  0.00000000000E+00 0. -1.
          1   -1    0    0  501    0 -0.00000000000E+00 -0.00000000000E+00 -0.67471245514E+03  0.67471245514E+03  0.00000000000E+00 0. -1.
         25    2    1    2    0    0 -0.54149326207E+02 -0.11554451520E+03 -0.19018957895E+03  0.26092055107E+03  0.12499909403E+03 0.  0.
          2    1    1    2  501    0  0.18495370584E+02  0.21789532092E+03 -0.41866901520E+03  0.47233906667E+03  0.00000000000E+00 0. -1.
          1    1    1    2  502    0  0.35653955623E+02 -0.10235080572E+03  0.80019069798E+03  0.80749739635E+03  0.00000000000E+00 0. -1.
         22    1    3    3    0    0 -0.59147135029E+02 -0.96617044092E+02 -0.57960772890E+02  0.12725049306E+03  0.00000000000E+00 0.  1.
         22    1    3    3    0    0  0.49978088213E+01 -0.18927471111E+02 -0.13222880606E+03  0.13367005801E+03  0.00000000000E+00 0.  1.
</event>
<event>
 7    1  0.5779468E-006  0.4709466E+02  0.7818608E-02  0.1508718E+00
          2   -1    0    0  502    0  0.00000000000E+00  0.00000000000E+00  0.23743149358E+04  0.23743149358E+04  0.00000000000E+00 0. -1.
          1   -1    0    0  501    0 -0.00000000000E+00 -0.00000000000E+00 -0.93881061483E+03  0.93881061483E+03  0.00000000000E+00 0. -1.
         25    2    1    2    0    0  0.14131279881E+02  0.20901933302E+01  0.59272511567E+03  0.60593065679E+03  0.12499934447E+03 0.  0.
          2    1    1    2  501    0 -0.42118973207E+02 -0.21143299002E+02 -0.93145058891E+03  0.93264207849E+03  0.00000000000E+00 0. -1.
          1    1    1    2  502    0  0.27987693326E+02  0.19053105672E+02  0.17742297942E+04  0.17745528153E+04  0.00000000000E+00 0. -1.
         22    1    3    3    0    0  0.31915950607E+02 -0.55577459782E+02  0.26042239950E+03  0.26819266973E+03  0.00000000000E+00 0. -1.
         22    1    3    3    0    0 -0.17784670726E+02  0.57667653112E+02  0.33230271617E+03  0.33773798706E+03  0.00000000000E+00 0. -1.
</event>
<event>
 7    1  0.5779468E-006  0.1534428E+03  0.7818608E-02  0.1274438E+00
          2   -1    0    0  502    0  0.00000000000E+00  0.00000000000E+00  0.21540312479E+04  0.21540312479E+04  0.00000000000E+00 0. -1.
          1   -1    0    0  501    0 -0.00000000000E+00 -0.00000000000E+00 -0.87884443102E+03  0.87884443102E+03  0.00000000000E+00 0. -1.
         25    2    1    2    0    0 -0.69616059228E+02 -0.88796344643E+02  0.80425416051E+03  0.82169426260E+03  0.12500207985E+03 0.  0.
          2    1    1    2  501    0  0.36793564709E+02  0.14940197919E+03 -0.86242522561E+03  0.87604337082E+03  0.00000000000E+00 0. -1.
          1    1    1    2  502    0  0.32822494519E+02 -0.60605634544E+02  0.13333578820E+04  0.13351380455E+04  0.00000000000E+00 0. -1.
         22    1    3    3    0    0 -0.14446559053E+02 -0.10616483490E+03  0.59616401963E+03  0.60571545592E+03  0.00000000000E+00 0. -1.
         22    1    3    3    0    0 -0.55169500175E+02  0.17368490257E+02  0.20809014088E+03  0.21597880668E+03  0.00000000000E+00 0. -1.
</event>
<event>
 7    1  0.5779468E-006  0.4225661E+02  0.7818608E-02  0.1506002E+00
          2   -1    0    0  502    0  0.00000000000E+00  0.00000000000E+00  0.80205041211E+03  0.80205041211E+03  0.00000000000E+00 0. -1.
          1   -1    0    0  501    0 -0.00000000000E+00 -0.00000000000E+00 -0.10428826987E+04  0.10428826987E+04  0.00000000000E+00 0. -1.
         25    2    1    2    0    0  0.12159551242E+00  0.78744877881E+02  0.15178660226E+03  0.21180894947E+03  0.12499235125E+03 0.  0.
          2    1    1    2  501    0 -0.67477651230E+01 -0.37840601440E+02 -0.10118141178E+04  0.10125439509E+04  0.00000000000E+00 0. -1.
          1    1    1    2  502    0  0.66261696106E+01 -0.40904276442E+02  0.61919522900E+03  0.62058021043E+03  0.00000000000E+00 0. -1.
         22    1    3    3    0    0 -0.52665644842E+02  0.20071969468E+02  0.10732265328E+03  0.12122172253E+03  0.00000000000E+00 0. -1.
         22    1    3    3    0    0  0.52787240354E+02  0.58672908414E+02  0.44463948979E+02  0.90587226940E+02  0.00000000000E+00 0. -1.
</event>
<event>
 7    1  0.5779468E-006  0.1176703E+03  0.7818608E-02  0.1283952E+00
          2   -1    0    0  502    0  0.00000000000E+00  0.00000000000E+00  0.94036063916E+03  0.94036063916E+03  0.00000000000E+00 0. -1.
          1   -1    0    0  501    0 -0.00000000000E+00 -0.00000000000E+00 -0.81622915861E+03  0.81622915861E+03  0.00000000000E+00 0. -1.
         25    2    1    2    0    0 -0.64562483142E+00  0.19285664433E+02  0.31488435962E+03  0.33933931183E+03  0.12500661956E+03 0.  0.
          2    1    1    2  501    0  0.11754431709E+03  0.54438554535E+01 -0.79380300312E+03  0.80247710858E+03  0.00000000000E+00 0. -1.
          1    1    1    2  502    0 -0.11689869226E+03 -0.24729519886E+02  0.60305012404E+03  0.61477337736E+03  0.00000000000E+00 0. -1.
         22    1    3    3    0    0  0.16200755014E+02  0.31744065037E+02  0.14907145471E+02  0.38631245310E+02  0.00000000000E+00 0. -1.
         22    1    3    3    0    0 -0.16846379845E+02 -0.12458400604E+02  0.29997721415E+03  0.30070806652E+03  0.00000000000E+00 0. -1.
</event>
<event>
 7    1  0.5779468E-006  0.1719539E+03  0.7818608E-02  0.1257748E+00
          2   -1    0    0  502    0  0.00000000000E+00  0.00000000000E+00  0.23388826817E+03  0.23388826817E+03  0.00000000000E+00 0. -1.
          1   -1    0    0  501    0 -0.00000000000E+00 -0.00000000000E+00 -0.28268532916E+04  0.28268532916E+04  0.00000000000E+00 0. -1.
         25    2    1    2    0    0  0.33601077356E+02 -0.15276103654E+03 -0.73061435511E+03  0.75754957741E+03  0.12497623631E+03 0.  0.
          2    1    1    2  501    0  0.70880771878E+02  0.14501398181E+02 -0.20479712030E+04  0.20492487460E+04  0.00000000000E+00 0. -1.
          1    1    1    2  502    0 -0.10448184923E+03  0.13825963836E+03  0.18562053470E+03  0.25394323642E+03  0.00000000000E+00 0. -1.
         22    1    3    3    0    0  0.74070347331E+02 -0.95376141357E+02 -0.56327405485E+03  0.57607350708E+03  0.00000000000E+00 0. -1.
         22    1    3    3    0    0 -0.40469269975E+02 -0.57384895186E+02 -0.16734030027E+03  0.18147607033E+03  0.00000000000E+00 0. -1.
</event>
<event>
 7    1  0.5779468E-006  0.1389602E+03  0.7818608E-02  0.1253140E+00
          2   -1    0    0  502    0  0.00000000000E+00  0.00000000000E+00  0.14541310511E+04  0.14541310511E+04  0.00000000000E+00 0. -1.
          1   -1    0    0  501    0 -0.00000000000E+00 -0.00000000000E+00 -0.59005765289E+03  0.59005765289E+03  0.00000000000E+00 0. -1.
         25    2    1    2    0    0  0.13312441749E+03  0.11208470310E+03  0.17171472404E+02  0.21495553968E+03  0.12500373345E+03 0.  0.
          2    1    1    2  501    0 -0.41495569043E+02 -0.13170767612E+03 -0.47977434062E+03  0.49925165209E+03  0.00000000000E+00 0. -1.
          1    1    1    2  502    0 -0.91628848448E+02  0.19622973023E+02  0.13266762664E+04  0.13299815122E+04  0.00000000000E+00 0. -1.
         22    1    3    3    0    0  0.77054463001E+02  0.93720318821E+02 -0.44849459377E+02  0.12935363325E+03  0.00000000000E+00 0. -1.
         22    1    3    3    0    0  0.56069954489E+02  0.18364384275E+02  0.62020931781E+02  0.85601906435E+02  0.00000000000E+00 0. -1.
</event>
<event>
 7    1  0.5779468E-006  0.1333911E+03  0.7818608E-02  0.1256705E+00
          2   -1    0    0  502    0  0.00000000000E+00  0.00000000000E+00  0.20063952402E+04  0.20063952402E+04  0.00000000000E+00 0. -1.
          1   -1    0    0  501    0 -0.00000000000E+00 -0.00000000000E+00 -0.55823833505E+02  0.55823833505E+02  0.00000000000E+00 0. -1.
         25    2    1    2    0    0  0.65724374252E+02  0.69445422937E+02  0.12607863798E+04  0.12705705703E+04  0.12499967306E+03 0.  0.
          2    1    1    2  501    0 -0.13804187005E+03 -0.90334734783E+01  0.53338179685E+02  0.14826369394E+03  0.00000000000E+00 0. -1.
          1    1    1    2  502    0  0.72317495795E+02 -0.60411949458E+02  0.63644684717E+03  0.64338480951E+03  0.00000000000E+00 0. -1.
         22    1    3    3    0    0 -0.24738940027E+02  0.46937858252E+02  0.70742370039E+03  0.70941064946E+03  0.00000000000E+00 0.  1.
         22    1    3    3    0    0  0.90463314279E+02  0.22507564685E+02  0.55336267945E+03  0.56115992080E+03  0.00000000000E+00 0.  1.
</event>
<event>
 7    1  0.5779468E-006  0.1049811E+03  0.7818608E-02  0.1321231E+00
          2   -1    0    0  502    0  0.00000000000E+00  0.00000000000E+00  0.21983894159E+04  0.21983894159E+04  0.00000000000E+00 0. -1.
          1   -1    0    0  501    0 -0.00000000000E+00 -0.00000000000E+00 -0.45871616107E+02  0.45871616107E+02  0.00000000000E+00 0. -1.
         25    2    1    2    0    0  0.58969085456E+02  0.14374271814E+03  0.45449365174E+03  0.49631549981E+03  0.12500109531E+03 0.  0.
          2    1    1    2  501    0 -0.49671295698E+02 -0.42449226299E+02  0.22155983949E+02  0.68993202958E+02  0.00000000000E+00 0. -1.
          1    1    1    2  502    0 -0.92977897581E+01 -0.10129349184E+03  0.16758681641E+04  0.16789523292E+04  0.00000000000E+00 0. -1.
         22    1    3    3    0    0  0.98527317216E+02  0.10561130972E+03  0.32525354399E+03  0.35588094759E+03  0.00000000000E+00 0.  1.
         22    1    3    3    0    0 -0.39558231760E+02  0.38131408414E+02  0.12924010774E+03  0.14043455222E+03  0.00000000000E+00 0.  1.
</event>
<event>
 7    1  0.5779468E-006  0.7262471E+02  0.7818608E-02  0.1406749E+00
          2   -1    0    0  502    0  0.00000000000E+00  0.00000000000E+00  0.35185037941E+04  0.35185037941E+04  0.00000000000E+00 0. -1.
          1   -1    0    0  501    0 -0.00000000000E+00 -0.00000000000E+00 -0.40683339560E+03  0.40683339560E+03  0.00000000000E+00 0. -1.
         25    2    1    2    0    0 -0.54390050460E+02  0.11343251623E+02  0.77387876074E+03  0.78587555935E+03  0.12500044608E+03 0.  0.
          2    1    1    2  501    0  0.45584670926E+02 -0.56697886062E+02 -0.39733730317E+03  0.40394250209E+03  0.00000000000E+00 0. -1.
          1    1    1    2  502    0  0.88053795338E+01  0.45354634439E+02  0.27351289409E+04  0.27355191283E+04  0.00000000000E+00 0. -1.
         22    1    3    3    0    0 -0.28011686771E+02  0.38517183043E+02  0.98234208383E+02  0.10917045242E+03  0.00000000000E+00 0. -1.
         22    1    3    3    0    0 -0.26378363689E+02 -0.27173931420E+02  0.67564455235E+03  0.67670510693E+03  0.00000000000E+00 0. -1.
</event>
<event>
 7    1  0.5779468E-006  0.6099705E+02  0.7818608E-02  0.1446094E+00
          2   -1    0    0  502    0  0.00000000000E+00  0.00000000000E+00  0.10101577629E+04  0.10101577629E+04  0.00000000000E+00 0. -1.
          1   -1    0    0  501    0 -0.00000000000E+00 -0.00000000000E+00 -0.11398336916E+04  0.11398336916E+04  0.00000000000E+00 0. -1.
         25    2    1    2    0    0 -0.34225010120E+02 -0.73590722789E+02  0.24248983227E+03  0.28462655576E+03  0.12499604672E+03 0.  0.
          2    1    1    2  501    0  0.38504166706E+02  0.13364545835E+02 -0.11171724051E+04  0.11179156339E+04  0.00000000000E+00 0. -1.
          1    1    1    2  502    0 -0.42791565860E+01  0.60226176954E+02  0.74500664413E+03  0.74744926474E+03  0.00000000000E+00 0. -1.
         22    1    3    3    0    0  0.29997251618E+02  0.15837176432E+02  0.29898112932E+02  0.45216682971E+02  0.00000000000E+00 0. -1.
         22    1    3    3    0    0 -0.64222261738E+02 -0.89427899221E+02  0.21259171933E+03  0.23940987279E+03  0.00000000000E+00 0. -1.
</event>
<event>
 7    1  0.5779468E-006  0.6276472E+02  0.7818608E-02  0.1390573E+00
          2   -1    0    0  502    0  0.00000000000E+00  0.00000000000E+00  0.11880913480E+02  0.11880913480E+02  0.00000000000E+00 0. -1.
          1   -1    0    0  501    0 -0.00000000000E+00 -0.00000000000E+00 -0.16099880801E+04  0.16099880801E+04  0.00000000000E+00 0. -1.
         25    2    1    2    0    0 -0.51601832534E+02 -0.15466079968E+02 -0.99044936050E+03  0.99975847102E+03  0.12500046359E+03 0.  0.
          2    1    1    2  501    0  0.30554888700E+02 -0.52541512087E+02 -0.32432042749E+03  0.32996659135E+03  0.00000000000E+00 0. -1.
          1    1    1    2  502    0  0.21046943835E+02  0.68007592054E+02 -0.28333737864E+03  0.29214393123E+03  0.00000000000E+00 0. -1.
         22    1    3    3    0    0 -0.45448658365E+02 -0.21481175762E+02 -0.13172689889E+03  0.14099289823E+03  0.00000000000E+00 0. -1.
         22    1    3    3    0    0 -0.61531741693E+01  0.60150957940E+01 -0.85872246161E+03  0.85876557279E+03  0.00000000000E+00 0. -1.
</event>
<event>
 7    1  0.5779468E-006  0.2313538E+03  0.7818608E-02  0.1267277E+00
          2   -1    0    0  502    0  0.00000000000E+00  0.00000000000E+00  0.93279083803E+03  0.93279083803E+03  0.00000000000E+00 0. -1.
          1   -1    0    0  501    0 -0.00000000000E+00 -0.00000000000E+00 -0.33300132831E+03  0.33300132831E+03  0.00000000000E+00 0. -1.
         25    2    1    2    0    0 -0.22501378340E+03 -0.52826189661E+02 -0.94434798864E+02  0.27922194758E+03  0.12500062295E+03 0.  0.
          2    1    1    2  501    0  0.23413578935E+03  0.46978106903E+01 -0.51054310279E+02  0.23968349938E+03  0.00000000000E+00 0. -1.
          1    1    1    2  502    0 -0.91220059436E+01  0.48128378971E+02  0.74527861886E+03  0.74688671938E+03  0.00000000000E+00 0. -1.
         22    1    3    3    0    0 -0.11663689268E+03 -0.89504255124E+02 -0.39117286607E+02  0.15213592124E+03  0.00000000000E+00 0.  1.
         22    1    3    3    0    0 -0.10837689072E+03  0.36678065463E+02 -0.55317512256E+02  0.12708602634E+03  0.00000000000E+00 0.  1.
</event>
<event>
 7    1  0.5779468E-006  0.9778090E+02  0.7818608E-02  0.1332910E+00
          2   -1    0    0  502    0  0.00000000000E+00  0.00000000000E+00  0.21329995244E+04  0.21329995244E+04  0.00000000000E+00 0. -1.
          1   -1    0    0  501    0 -0.00000000000E+00 -0.00000000000E+00 -0.36794815494E+03  0.36794815494E+03  0.00000000000E+00 0. -1.
         25    2    1    2    0    0  0.23092130440E+02 -0.31617209322E+02  0.10802567952E+04  0.10881697876E+04  0.12500339472E+03 0.  0.
          2    1    1    2  501    0 -0.82670577811E+02  0.52916514170E+02 -0.35639651077E+03  0.36966613964E+03  0.00000000000E+00 0. -1.
          1    1    1    2  502    0  0.59578447371E+02 -0.21299304849E+02  0.10411910850E+04  0.10431117521E+04  0.00000000000E+00 0. -1.
         22    1    3    3    0    0  0.50080724540E+02  0.31804133508E+02  0.61178713202E+03  0.61465687728E+03  0.00000000000E+00 0. -1.
         22    1    3    3    0    0 -0.26988594100E+02 -0.63421342830E+02  0.46846966317E+03  0.47351291033E+03  0.00000000000E+00 0. -1.
</event>
<event>
 7    1  0.5779468E-006  0.7019003E+02  0.7818608E-02  0.1418635E+00
          2   -1    0    0  502    0  0.00000000000E+00  0.00000000000E+00  0.17611150932E+04  0.17611150932E+04  0.00000000000E+00 0. -1.
          1   -1    0    0  501    0 -0.00000000000E+00 -0.00000000000E+00 -0.39301782144E+02  0.39301782144E+02  0.00000000000E+00 0. -1.
         25    2    1    2    0    0 -0.10318975698E+03 -0.11159934793E+02  0.71010848363E+03  0.72845705432E+03  0.12499180519E+03 0.  0.
          2    1    1    2  501    0  0.37498143057E+02  0.22217392136E+02 -0.12694463899E+02  0.45396835349E+02  0.00000000000E+00 0. -1.
          1    1    1    2  502    0  0.65691613928E+02 -0.11057457342E+02  0.10243992913E+04  0.10265629857E+04  0.00000000000E+00 0. -1.
         22    1    3    3    0    0 -0.77503854143E+02  0.75263016149E+01  0.68079612352E+03  0.68523488997E+03  0.00000000000E+00 0. -1.
         22    1    3    3    0    0 -0.25685902842E+02 -0.18686236408E+02  0.29312360110E+02  0.43222164350E+02  0.00000000000E+00 0. -1.
</event>
<event>
 7    1  0.5779468E-006  0.6884779E+02  0.7818608E-02  0.1444105E+00
          2   -1    0    0  502    0  0.00000000000E+00  0.00000000000E+00  0.66980211769E+03  0.66980211769E+03  0.00000000000E+00 0. -1.
          1   -1    0    0  501    0 -0.00000000000E+00 -0.00000000000E+00 -0.24478466709E+03  0.24478466709E+03  0.00000000000E+00 0. -1.
         25    2    1    2    0    0 -0.80613769315E+02  0.43595198884E+02  0.47808489476E+03  0.50258350392E+03  0.12500356254E+03 0.  0.
          2    1    1    2  501    0  0.22244887835E+02 -0.29123235561E+02 -0.22597985827E+03  0.22893207340E+03  0.00000000000E+00 0. -1.
          1    1    1    2  502    0  0.58368881480E+02 -0.14471963322E+02  0.17291241411E+03  0.18307120746E+03  0.00000000000E+00 0. -1.
         22    1    3    3    0    0  0.99260264905E+01 -0.47972636843E+01  0.27315290057E+03  0.27337528570E+03  0.00000000000E+00 0.  1.
         22    1    3    3    0    0 -0.90539795806E+02  0.48392462568E+02  0.20493199419E+03  0.22920821822E+03  0.00000000000E+00 0.  1.
</event>
<event>
 7    1  0.5779468E-006  0.3146926E+02  0.7818608E-02  0.1627625E+00
          2   -1    0    0  502    0  0.00000000000E+00  0.00000000000E+00  0.19678867798E+04  0.19678867798E+04  0.00000000000E+00 0. -1.
          1   -1    0    0  501    0 -0.00000000000E+00 -0.00000000000E+00 -0.17533463478E+03  0.17533463478E+03  0.00000000000E+00 0. -1.
         25    2    1    2    0    0 -0.11342075791E+00  0.19075261375E+02 -0.52469287288E+02  0.13690171200E+03  0.12500069671E+03 0.  0.
          2    1    1    2  501    0 -0.23982158591E+02  0.12066053390E+01 -0.78730002667E+02  0.82310468028E+02  0.00000000000E+00 0. -1.
          1    1    1    2  502    0  0.24095579349E+02 -0.20281866714E+02  0.19237514350E+04  0.19240092345E+04  0.00000000000E+00 0. -1.
         22    1    3    3    0    0 -0.15343648280E+02  0.58872205266E+01  0.39483797388E+02  0.42767477880E+02  0.00000000000E+00 0. -1.
         22    1    3    3    0    0  0.15230227522E+02  0.13188040848E+02 -0.91953084676E+02  0.94134234119E+02  0.00000000000E+00 0. -1.
</event>
<event>
 7    1  0.5779468E-006  0.2083809E+03  0.7818608E-02  0.1267662E+00
          2   -1    0    0  502    0  0.00000000000E+00  0.00000000000E+00  0.34198984260E+03  0.34198984260E+03  0.00000000000E+00 0. -1.
          1   -1    0    0  501    0 -0.00000000000E+00 -0.00000000000E+00 -0.73833599634E+03  0.73833599634E+03  0.00000000000E+00 0. -1.
         25    2    1    2    0    0 -0.21168128957E+03  0.81207715136E+02  0.20380943966E+03  0.32949457744E+03  0.12499891004E+03 0.  0.
          2    1    1    2  501    0  0.54156412461E+02  0.16872606059E+01 -0.56722402263E+03  0.56980598076E+03  0.00000000000E+00 0. -1.
          1    1    1    2  502    0  0.15752487711E+03 -0.82894975742E+02 -0.32931570771E+02  0.18102528074E+03  0.00000000000E+00 0. -1.
         22    1    3    3    0    0  0.95802450452E+01 -0.12427336308E+02  0.21823506561E+01  0.15842425232E+02  0.00000000000E+00 0. -1.
         22    1    3    3    0    0 -0.22126153462E+03  0.93635051445E+02  0.20162708901E+03  0.31365215220E+03  0.00000000000E+00 0. -1.
</event>
<event>
 7    1  0.5779468E-006  0.5877485E+02  0.7818608E-02  0.1503666E+00
          2   -1    0    0  502    0  0.00000000000E+00  0.00000000000E+00  0.45839085666E+03  0.45839085666E+03  0.00000000000E+00 0. -1.
          1   -1    0    0  501    0 -0.00000000000E+00 -0.00000000000E+00 -0.70410216216E+03  0.70410216216E+03  0.00000000000E+00 0. -1.
         25    2    1    2    0    0  0.31339874473E+02 -0.79223412630E+01  0.19445248394E+03  0.23341281649E+03  0.12499929267E+03 0.  0.
          2    1    1    2  501    0 -0.58884184635E+02  0.24679582191E+01 -0.68254159103E+03  0.68508135393E+03  0.00000000000E+00 0. -1.
          1    1    1    2  502    0  0.27544310162E+02  0.54543830439E+01  0.24237780159E+03  0.24399884840E+03  0.00000000000E+00 0. -1.
         22    1    3    3    0    0  0.45909168739E+02 -0.49509385893E+02  0.17022450522E+03  0.18312622216E+03  0.00000000000E+00 0.  1.
         22    1    3    3    0    0 -0.14569294267E+02  0.41587044630E+02  0.24227978727E+02  0.50286594334E+02  0.00000000000E+00 0.  1.
</event>
<event>
 7    1  0.5779468E-006  0.6553161E+03  0.7818608E-02  0.1182343E+00
          2   -1    0    0  502    0  0.00000000000E+00  0.00000000000E+00  0.90375926466E+03  0.90375926466E+03  0.00000000000E+00 0. -1.
          1   -1    0    0  501    0 -0.00000000000E+00 -0.00000000000E+00 -0.80874312824E+03  0.80874312824E+03  0.00000000000E+00 0. -1.
         25    2    1    2    0    0 -0.57762480758E+03 -0.24519927158E+03  0.19243967009E+03  0.66815510492E+03  0.12500046596E+03 0.  0.
          2    1    1    2  501    0  0.61919715685E+03  0.25065191587E+03 -0.37334602609E+03  0.76525731436E+03  0.00000000000E+00 0. -1.
          1    1    1    2  502    0 -0.41572349267E+02 -0.54526442852E+01  0.27592249241E+03  0.27908997361E+03  0.00000000000E+00 0. -1.
         22    1    3    3    0    0 -0.49397738938E+03 -0.20286216592E+03  0.20806154445E+03  0.57311109382E+03  0.00000000000E+00 0. -1.
         22    1    3    3    0    0 -0.83647418202E+02 -0.42337105664E+02 -0.15621874359E+02  0.95044011102E+02  0.00000000000E+00 0. -1.
</event>
<event>
 7    1  0.5779468E-006  0.8437895E+02  0.7818608E-02  0.1370409E+00
          2   -1    0    0  502    0  0.00000000000E+00  0.00000000000E+00  0.86823003056E+03  0.86823003056E+03  0.00000000000E+00 0. -1.
          1   -1    0    0  501    0 -0.00000000000E+00 -0.00000000000E+00 -0.25691900713E+03  0.25691900713E+03  0.00000000000E+00 0. -1.
         25    2    1    2    0    0 -0.28064618240E+02 -0.73754858600E+02 -0.65197452190E+00  0.14782916736E+03  0.12500254273E+03 0.  0.
          2    1    1    2  501    0 -0.44468665145E+02  0.29358284882E+02 -0.17645682617E+03  0.18432683628E+03  0.00000000000E+00 0. -1.
          1    1    1    2  502    0  0.72533283385E+02  0.44396573717E+02  0.78841982413E+03  0.79299303404E+03  0.00000000000E+00 0. -1.
         22    1    3    3    0    0  0.26645070861E+02 -0.68882838207E+02  0.35629756623E+02  0.82001736308E+02  0.00000000000E+00 0. -1.
         22    1    3    3    0    0 -0.54709689101E+02 -0.48720203930E+01 -0.36281731145E+02  0.65827431054E+02  0.00000000000E+00 0. -1.
</event>
<event>
 7    1  0.5779468E-006  0.3371786E+02  0.7818608E-02  0.1639529E+00
          2   -1    0    0  502    0  0.00000000000E+00  0.00000000000E+00  0.39227678764E+02  0.39227678764E+02  0.00000000000E+00 0. -1.
          1   -1    0    0  501    0 -0.00000000000E+00 -0.00000000000E+00 -0.15227304139E+04  0.15227304139E+04  0.00000000000E+00 0. -1.
         25    2    1    2    0    0 -0.44929245731E+02 -0.22951116821E+02 -0.55592474329E+03  0.57203495967E+03  0.12500513588E+03 0.  0.
          2    1    1    2  501    0  0.24004440372E+02  0.22921541195E+02 -0.95491797645E+03  0.95549461116E+03  0.00000000000E+00 0. -1.
          1    1    1    2  502    0  0.20924805358E+02  0.29575625964E-01  0.27339984634E+02  0.34428521806E+02  0.00000000000E+00 0. -1.
         22    1    3    3    0    0 -0.71260998523E+02  0.10280501942E+02 -0.47736263666E+03  0.48276174818E+03  0.00000000000E+00 0.  1.
         22    1    3    3    0    0  0.26331752792E+02 -0.33231618763E+02 -0.78562106636E+02  0.89273211490E+02  0.00000000000E+00 0.  1.
</event>
<event>
 7    1  0.5779468E-006  0.2596156E+02  0.7818608E-02  0.1657547E+00
          2   -1    0    0  502    0  0.00000000000E+00  0.00000000000E+00  0.17133801272E+04  0.17133801272E+04  0.00000000000E+00 0. -1.
          1   -1    0    0  501    0 -0.00000000000E+00 -0.00000000000E+00 -0.32714032384E+02  0.32714032384E+02  0.00000000000E+00 0. -1.
         25    2    1    2    0    0 -0.38790996872E+02 -0.10422320790E+02  0.93072020436E+03  0.93993523659E+03  0.12499913584E+03 0.  0.
          2    1    1    2  501    0  0.22636422928E+02 -0.94837451123E+01 -0.22495285445E+02  0.33292445563E+02  0.00000000000E+00 0. -1.
          1    1    1    2  502    0  0.16154573944E+02  0.19906065902E+02  0.77244117595E+03  0.77286647748E+03  0.00000000000E+00 0. -1.
         22    1    3    3    0    0  0.29784385615E+02 -0.44132993425E+02  0.31142334817E+03  0.31594197651E+03  0.00000000000E+00 0.  1.
         22    1    3    3    0    0 -0.68575382487E+02  0.33710672635E+02  0.61929685619E+03  0.62399326008E+03  0.00000000000E+00 0.  1.
</event>
<event>
 7    1  0.5779468E-006  0.8722180E+02  0.7818608E-02  0.1364166E+00
          2   -1    0    0  502    0  0.00000000000E+00  0.00000000000E+00  0.81438761440E+03  0.81438761440E+03  0.00000000000E+00 0. -1.
          1   -1    0    0  501    0 -0.00000000000E+00 -0.00000000000E+00 -0.99865081616E+03  0.99865081616E+03  0.00000000000E+00 0. -1.
         25    2    1    2    0    0 -0.36576775744E+02 -0.35475436368E+01  0.25106129334E+02  0.13268523084E+03  0.12499842865E+03 0.  0.
          2    1    1    2  501    0  0.82257054994E+02  0.32893186256E+02 -0.94177766943E+03  0.94593517929E+03  0.00000000000E+00 0. -1.
          1    1    1    2  502    0 -0.45680279249E+02 -0.29345642619E+02  0.73240833834E+03  0.73441802042E+03  0.00000000000E+00 0. -1.
         22    1    3    3    0    0 -0.36661728977E+02  0.72667251326E+01  0.73843073851E+02  0.82762837201E+02  0.00000000000E+00 0.  1.
         22    1    3    3    0    0  0.84953233020E-01 -0.10814268769E+02 -0.48736944517E+02  0.49922393642E+02  0.00000000000E+00 0.  1.
</event>
<event>
 7    1  0.5779468E-006  0.7225000E+02  0.7818608E-02  0.1353506E+00
          2   -1    0    0  502    0  0.00000000000E+00  0.00000000000E+00  0.29788841993E+03  0.29788841993E+03  0.00000000000E+00 0. -1.
          1   -1    0    0  501    0 -0.00000000000E+00 -0.00000000000E+00 -0.18959172976E+03  0.18959172976E+03  0.00000000000E+00 0. -1.
         25    2    1    2    0    0  0.36569767452E+02  0.55715828297E+02 -0.50003000023E+02  0.15022270101E+03  0.12499983390E+03 0.  0.
          2    1    1    2  501    0 -0.70936983009E+02  0.10428534276E+02 -0.68110237005E+02  0.98892943482E+02  0.00000000000E+00 0. -1.
          1    1    1    2  502    0  0.34367215558E+02 -0.66144362573E+02  0.22640992720E+03  0.23836450520E+03  0.00000000000E+00 0. -1.
         22    1    3    3    0    0  0.78141653809E+02  0.61592772856E+02 -0.31742673143E+02  0.10443842696E+03  0.00000000000E+00 0.  1.
         22    1    3    3    0    0 -0.41571886357E+02 -0.58769445591E+01 -0.18260326880E+02  0.45784274051E+02  0.00000000000E+00 0.  1.
</event>
<event>
 7    1  0.5779468E-006  0.7279584E+02  0.7818608E-02  0.1514911E+00
          2   -1    0    0  502    0  0.00000000000E+00  0.00000000000E+00  0.23036880057E+03  0.23036880057E+03  0.00000000000E+00 0. -1.
          1   -1    0    0  501    0 -0.00000000000E+00 -0.00000000000E+00 -0.52173690928E+03  0.52173690928E+03  0.00000000000E+00 0. -1.
         25    2    1    2    0    0  0.47256000318E+02  0.78690288568E+02 -0.29906238952E+02  0.15794041976E+03  0.12500200793E+03 0.  0.
          2    1    1    2  501    0 -0.13983963928E+02 -0.15674330962E+02 -0.41990750237E+03  0.42043257063E+03  0.00000000000E+00 0. -1.
          1    1    1    2  502    0 -0.33272036390E+02 -0.63015957606E+02  0.15844563261E+03  0.17373271946E+03  0.00000000000E+00 0. -1.
         22    1    3    3    0    0  0.68997946933E+02  0.48685779060E+02 -0.65262319796E+02  0.10672484317E+03  0.00000000000E+00 0.  1.
         22    1    3    3    0    0 -0.21741946615E+02  0.30004509508E+02  0.35356080844E+02  0.51215576597E+02  0.00000000000E+00 0.  1.
</event>
<event>
 7    1  0.5779468E-006  0.1123148E+03  0.7818608E-02  0.1421536E+00
          2   -1    0    0  502    0  0.00000000000E+00  0.00000000000E+00  0.12038242534E+04  0.12038242534E+04  0.00000000000E+00 0. -1.
          1   -1    0    0  501    0 -0.00000000000E+00 -0.00000000000E+00 -0.21700512319E+03  0.21700512319E+03  0.00000000000E+00 0. -1.
         25    2    1    2    0    0 -0.70631197422E+02 -0.86328468678E+02  0.36671670752E+03  0.40317141657E+03  0.12499870803E+03 0.  0.
          2    1    1    2  501    0 -0.19513925862E+02  0.18131764431E+02 -0.19396241506E+03  0.19578297332E+03  0.00000000000E+00 0. -1.
          1    1    1    2  502    0  0.90145123284E+02  0.68196704247E+02  0.81406483770E+03  0.82187498666E+03  0.00000000000E+00 0. -1.
         22    1    3    3    0    0 -0.57399938044E+02 -0.11806517350E+03  0.31270293967E+03  0.33914195635E+03  0.00000000000E+00 0. -1.
         22    1    3    3    0    0 -0.13231259379E+02  0.31736704824E+02  0.54013767853E+02  0.64029460216E+02  0.00000000000E+00 0. -1.
</event>
<event>
 7    1  0.5779468E-006  0.8716031E+02  0.7818608E-02  0.1315786E+00
          2   -1    0    0  502    0  0.00000000000E+00  0.00000000000E+00  0.16434961147E+04  0.16434961147E+04  0.00000000000E+00 0. -1.
          1   -1    0    0  501    0 -0.00000000000E+00 -0.00000000000E+00 -0.13997048954E+03  0.13997048954E+03  0.00000000000E+00 0. -1.
         25    2    1    2    0    0  0.36967062382E+01 -0.14898373685E+02  0.76703431024E+02  0.14745800814E+03  0.12499928263E+03 0.  0.
          2    1    1    2  501    0 -0.64501479588E+02 -0.51645249555E+02 -0.86720766046E+02  0.11978382167E+03  0.00000000000E+00 0. -1.
          1    1    1    2  502    0  0.60804773349E+02  0.66543623239E+02  0.15135429602E+04  0.15162247744E+04  0.00000000000E+00 0. -1.
         22    1    3    3    0    0  0.19985037291E+02 -0.16377600676E+01 -0.31441977167E+02  0.37291847658E+02  0.00000000000E+00 0.  1.
         22    1    3    3    0    0 -0.16288331053E+02 -0.13260613617E+02  0.10814540819E+03  0.11016616048E+03  0.00000000000E+00 0.  1.
</event>
<event>
 7    1  0.5779468E-006  0.1023982E+03  0.7818608E-02  0.1335896E+00
          2   -1    0    0  502    0  0.00000000000E+00  0.00000000000E+00  0.26669480659E+03  0.26669480659E+03  0.00000000000E+00 0. -1.
          1   -1    0    0  501    0 -0.00000000000E+00 -0.00000000000E+00 -0.10014696220E+04  0.10014696220E+04  0.00000000000E+00 0. -1.
         25    2    1    2    0    0  0.35816041594E+02  0.69467985562E+02  0.70122665518E+02  0.16324613000E+03  0.12499408341E+03 0.  0.
          2    1    1    2  501    0 -0.90981419362E+02 -0.48936075357E+02 -0.94621197046E+03  0.95183478145E+03  0.00000000000E+00 0. -1.
          1    1    1    2  502    0  0.55165377768E+02 -0.20531910206E+02  0.14131448958E+03  0.15308351709E+03  0.00000000000E+00 0. -1.
         22    1    3    3    0    0 -0.41102588771E+02  0.71145523086E+01  0.44443960503E+02  0.60953304122E+02  0.00000000000E+00 0. -1.
         22    1    3    3    0    0  0.76918630365E+02  0.62353433254E+02  0.25678705015E+02  0.10229282588E+03  0.00000000000E+00 0. -1.
</event>
<event>
 7    1  0.5779468E-006  0.1006882E+03  0.7818608E-02  0.1318983E+00
          2   -1    0    0  502    0  0.00000000000E+00  0.00000000000E+00  0.28438877653E+04  0.28438877653E+04  0.00000000000E+00 0. -1.
          1   -1    0    0  501    0 -0.00000000000E+00 -0.00000000000E+00 -0.97587691192E+02  0.97587691192E+02  0.00000000000E+00 0. -1.
         25    2    1    2    0    0  0.37442389283E+02 -0.52068221687E+01  0.20924200210E+03  0.24665139843E+03  0.12500261354E+03 0.  0.
          2    1    1    2  501    0  0.65094863977E+02  0.24368392205E+02 -0.62319977146E+02  0.93353839805E+02  0.00000000000E+00 0. -1.
          1    1    1    2  502    0 -0.10253725326E+03 -0.19161570036E+02  0.25993780491E+04  0.26014702182E+04  0.00000000000E+00 0. -1.
         22    1    3    3    0    0  0.58388464382E+02 -0.51295721768E+02  0.14824129380E+03  0.16737964342E+03  0.00000000000E+00 0. -1.
         22    1    3    3    0    0 -0.20946075099E+02  0.46088899600E+02  0.61000708298E+02  0.79271755002E+02  0.00000000000E+00 0. -1.
</event>
<event>
 7    1  0.5779468E-006  0.4361085E+02  0.7818608E-02  0.1520849E+00
          2   -1    0    0  502    0  0.00000000000E+00  0.00000000000E+00  0.13791625434E+04  0.13791625434E+04  0.00000000000E+00 0. -1.
          1   -1    0    0  501    0 -0.00000000000E+00 -0.00000000000E+00 -0.27760284565E+02  0.27760284565E+02  0.00000000000E+00 0. -1.
         25    2    1    2    0    0 -0.75446281827E+01  0.12791749511E+02  0.39579633163E+03  0.41533110249E+03  0.12499855316E+03 0.  0.
          2    1    1    2  501    0  0.99443969949E+00 -0.45842992845E+02  0.12018182188E+02  0.47402590714E+02  0.00000000000E+00 0. -1.
          1    1    1    2  502    0  0.65501884832E+01  0.33051243334E+02  0.94358774503E+03  0.94418913478E+03  0.00000000000E+00 0. -1.
         22    1    3    3    0    0 -0.40450447560E+02  0.10867522855E+02  0.39691659952E+02  0.57704156094E+02  0.00000000000E+00 0. -1.
         22    1    3    3    0    0  0.32905819377E+02  0.19242266565E+01  0.35610467168E+03  0.35762694639E+03  0.00000000000E+00 0. -1.
</event>
<event>
 7    1  0.5779468E-006  0.1563037E+03  0.7818608E-02  0.1249075E+00
          2   -1    0    0  502    0  0.00000000000E+00  0.00000000000E+00  0.24690078689E+04  0.24690078689E+04  0.00000000000E+00 0. -1.
          1   -1    0    0  501    0 -0.00000000000E+00 -0.00000000000E+00 -0.62693579568E+03  0.62693579568E+03  0.00000000000E+00 0. -1.
         25    2    1    2    0    0 -0.35652267749E+02  0.10025255175E+03  0.24954776193E+02  0.16604103621E+03  0.12500090610E+03 0.  0.
          2    1    1    2  501    0 -0.86750772838E+02  0.81938433671E+00 -0.55033676782E+03  0.55713277232E+03  0.00000000000E+00 0. -1.
          1    1    1    2  502    0  0.12240304059E+03 -0.10107193608E+03  0.23674540648E+04  0.23727698560E+04  0.00000000000E+00 0. -1.
         22    1    3    3    0    0  0.45001806571E+02  0.35031812151E+02  0.25117973241E+02  0.62316153900E+02  0.00000000000E+00 0. -1.
         22    1    3    3    0    0 -0.80654074319E+02  0.65220739594E+02 -0.16319704782E+00  0.10372488231E+03  0.00000000000E+00 0. -1.
</event>
<event>
 7    1  0.5779468E-006  0.9227375E+02  0.7818608E-02  0.1407701E+00
          2   -1    0    0  502    0  0.00000000000E+00  0.00000000000E+00  0.41039144426E+03  0.41039144426E+03  0.00000000000E+00 0. -1.
          1   -1    0    0  501    0 -0.00000000000E+00 -0.00000000000E+00 -0.93805080990E+03  0.93805080990E+03  0.00000000000E+00 0. -1.
         25    2    1    2    0    0  0.39895007753E+02 -0.76543047455E+02 -0.10046466144E+03  0.18212293065E+03  0.12500065565E+03 0.  0.
          2    1    1    2  501    0 -0.71667233340E+02  0.59419112393E+02 -0.79314678681E+03  0.79859166580E+03  0.00000000000E+00 0. -1.
          1    1    1    2  502    0  0.31772225586E+02  0.17123935061E+02  0.36595208262E+03  0.36772765771E+03  0.00000000000E+00 0. -1.
         22    1    3    3    0    0  0.80550155678E+02 -0.50870801169E+02 -0.93595338339E+02  0.13355243671E+03  0.00000000000E+00 0.  1.
         22    1    3    3    0    0 -0.40655147925E+02 -0.25672246286E+02 -0.68693231033E+01  0.48570493945E+02  0.00000000000E+00 0.  1.
</event>
<event>
 7    1  0.5779468E-006  0.9510837E+02  0.7818608E-02  0.1305567E+00
          2   -1    0    0  502    0  0.00000000000E+00  0.00000000000E+00  0.53832247882E+03  0.53832247882E+03  0.00000000000E+00 0. -1.
          1   -1    0    0  501    0 -0.00000000000E+00 -0.00000000000E+00 -0.23409416132E+03  0.23409416132E+03  0.00000000000E+00 0. -1.
         25    2    1    2    0    0 -0.43998872882E+02 -0.95478339834E+02  0.39724594896E+02  0.16809302854E+03  0.12500083445E+03 0.  0.
          2    1    1    2  501    0  0.82818648868E+02  0.65132922285E+01 -0.15385584183E+03  0.17485128436E+03  0.00000000000E+00 0. -1.
          1    1    1    2  502    0 -0.38819775986E+02  0.88965047605E+02  0.41835956444E+03  0.42947232724E+03  0.00000000000E+00 0. -1.
         22    1    3    3    0    0  0.27377509027E+02  0.13475799719E+02 -0.38256970463E+01  0.30753229692E+02  0.00000000000E+00 0. -1.
         22    1    3    3    0    0 -0.71376381909E+02 -0.10895413955E+03  0.43550291942E+02  0.13733979885E+03  0.00000000000E+00 0. -1.
</event>
<event>
 7    1  0.5779468E-006  0.1647035E+03  0.7818608E-02  0.1295331E+00
          2   -1    0    0  502    0  0.00000000000E+00  0.00000000000E+00  0.49428195481E+03  0.49428195481E+03  0.00000000000E+00 0. -1.
          1   -1    0    0  501    0 -0.00000000000E+00 -0.00000000000E+00 -0.46664850392E+03  0.46664850392E+03  0.00000000000E+00 0. -1.
         25    2    1    2    0    0 -0.13238345042E+03  0.18012049258E+02  0.13927551784E+02  0.18349179270E+03  0.12500179769E+03 0.  0.
          2    1    1    2  501    0  0.17047176573E+03  0.18431487945E+02 -0.36067855832E+03  0.39936119628E+03  0.00000000000E+00 0. -1.
          1    1    1    2  502    0 -0.38088315301E+02 -0.36443537203E+02  0.37438445743E+03  0.37807746975E+03  0.00000000000E+00 0. -1.
         22    1    3    3    0    0 -0.98633507481E+02  0.53969025900E+02  0.49336285013E+02  0.12278148710E+03  0.00000000000E+00 0. -1.
         22    1    3    3    0    0 -0.33749942944E+02 -0.35956976641E+02 -0.35408733229E+02  0.60710305606E+02  0.00000000000E+00 0. -1.
</event>
<event>
 7    1  0.5779468E-006  0.1161753E+03  0.7818608E-02  0.1355425E+00
          2   -1    0    0  502    0  0.00000000000E+00  0.00000000000E+00  0.75575419211E+03  0.75575419211E+03  0.00000000000E+00 0. -1.
          1   -1    0    0  501    0 -0.00000000000E+00 -0.00000000000E+00 -0.19927868460E+03  0.19927868460E+03  0.00000000000E+00 0. -1.
         25    2    1    2    0    0 -0.28710854005E+02  0.84835398774E+02 -0.10572806882E+03  0.18661456728E+03  0.12500085665E+03 0.  0.
          2    1    1    2  501    0  0.29595805106E+02  0.32384127367E+02 -0.38261972345E+02  0.58211870893E+02  0.00000000000E+00 0. -1.
          1    1    1    2  502    0 -0.88495110117E+00 -0.11721952614E+03  0.70046554868E+03  0.71020643853E+03  0.00000000000E+00 0. -1.
         22    1    3    3    0    0  0.22354118347E+02  0.58107566707E+02 -0.11250269987E+03  0.12858092158E+03  0.00000000000E+00 0.  1.
         22    1    3    3    0    0 -0.51064972352E+02  0.26727832066E+02  0.67746310508E+01  0.58033645708E+02  0.00000000000E+00 0.  1.
</event>
<event>
 7    1  0.5779468E-006  0.5194794E+02  0.7818608E-02  0.1465986E+00
          2   -1    0    0  502    0  0.00000000000E+00  0.00000000000E+00  0.12048374459E+04  0.12048374459E+04  0.00000000000E+00 0. -1.
          1   -1    0    0  501    0 -0.00000000000E+00 -0.00000000000E+00 -0.42482038706E+02  0.42482038706E+02  0.00000000000E+00 0. -1.
         25    2    1    2    0    0  0.55747196616E+02 -0.43976416460E+02  0.43173262659E+03  0.45503736580E+03  0.12499707307E+03 0.  0.
          2    1    1    2  501    0 -0.44284986423E+01  0.41147466544E+02 -0.15647220930E+02  0.44244334395E+02  0.00000000000E+00 0. -1.
          1    1    1    2  502    0 -0.51318697974E+02  0.28289499162E+01  0.74627000155E+03  0.74803778443E+03  0.00000000000E+00 0. -1.
         22    1    3    3    0    0  0.70630979762E+02  0.15154179227E+02  0.14627749705E+03  0.16314254686E+03  0.00000000000E+00 0. -1.
         22    1    3    3    0    0 -0.14883783146E+02 -0.59130595687E+02  0.28545512954E+03  0.29189481894E+03  0.00000000000E+00 0. -1.
</event>
<event>
 7    1  0.5779468E-006  0.1056640E+03  0.7818608E-02  0.1380770E+00
          2   -1    0    0  502    0  0.00000000000E+00  0.00000000000E+00  0.11227773951E+04  0.11227773951E+04  0.00000000000E+00 0. -1.
          1   -1    0    0  501    0 -0.00000000000E+00 -0.00000000000E+00 -0.36390594987E+03  0.36390594987E+03  0.00000000000E+00 0. -1.
         25    2    1    2    0    0 -0.50734171413E+02 -0.82875626078E+02  0.51776932565E+02  0.16657835156E+03  0.12500068367E+03 0.  0.
          2    1    1    2  501    0  0.32356848509E+02 -0.21919266468E+02 -0.30245251682E+03  0.30496712088E+03  0.00000000000E+00 0. -1.
          1    1    1    2  502    0  0.18377322904E+02  0.10479489255E+03  0.10095470295E+04  0.10151378725E+04  0.00000000000E+00 0. -1.
         22    1    3    3    0    0 -0.17700036168E+02 -0.10533188445E+03  0.76869409396E+01  0.10708494863E+03  0.00000000000E+00 0. -1.
         22    1    3    3    0    0 -0.33034135245E+02  0.22456258369E+02  0.44089991625E+02  0.59493402936E+02  0.00000000000E+00 0. -1.
</event>
<event>
 7    1  0.5779468E-006  0.4460635E+02  0.7818608E-02  0.1592124E+00
          2   -1    0    0  502    0  0.00000000000E+00  0.00000000000E+00  0.10099838619E+04  0.10099838619E+04  0.00000000000E+00 0. -1.
          1   -1    0    0  501    0 -0.00000000000E+00 -0.00000000000E+00 -0.47128586971E+03  0.47128586971E+03  0.00000000000E+00 0. -1.
         25    2    1    2    0    0 -0.20193281403E+02 -0.61435110063E+02  0.81153497231E+03  0.82364784591E+03  0.12499888570E+03 0.  0.
          2    1    1    2  501    0  0.92424396801E+01  0.43612020899E+02 -0.46358834854E+03  0.46572694571E+03  0.00000000000E+00 0. -1.
          1    1    1    2  502    0  0.10950841723E+02  0.17823089163E+02  0.19075136843E+03  0.19189494000E+03  0.00000000000E+00 0. -1.
         22    1    3    3    0    0  0.60824520766E+01  0.37590757162E+02  0.20071665824E+03  0.20429693620E+03  0.00000000000E+00 0. -1.
         22    1    3    3    0    0 -0.26275733480E+02 -0.99025867224E+02  0.61081831407E+03  0.61935090971E+03  0.00000000000E+00 0. -1.
</event>
<event>
 7    1  0.5779468E-006  0.1406598E+03  0.7818608E-02  0.1303383E+00
          2   -1    0    0  502    0  0.00000000000E+00  0.00000000000E+00  0.16269447469E+04  0.16269447469E+04  0.00000000000E+00 0. -1.
          1   -1    0    0  501    0 -0.00000000000E+00 -0.00000000000E+00 -0.96966419457E+03  0.96966419457E+03  0.00000000000E+00 0. -1.
         25    2    1    2    0    0 -0.72154081112E+02  0.13156755076E+03  0.48399765704E+03  0.52191422498E+03  0.12499797751E+03 0.  0.
          2    1    1    2  501    0  0.15446654399E+02 -0.13982831373E+03 -0.94476388786E+03  0.95518027631E+03  0.00000000000E+00 0. -1.
          1    1    1    2  502    0  0.56707426714E+02  0.82607629664E+01  0.11180467831E+04  0.11195144402E+04  0.00000000000E+00 0. -1.
         22    1    3    3    0    0 -0.79663552744E+02  0.10130858787E+03  0.21174545402E+03  0.24788273217E+03  0.00000000000E+00 0.  1.
         22    1    3    3    0    0  0.75094716318E+01  0.30258962890E+02  0.27225220303E+03  0.27403149281E+03  0.00000000000E+00 0.  1.
</event>
<event>
 7    1  0.5779468E-006  0.3913656E+02  0.7818608E-02  0.1607210E+00
          2   -1    0    0  502    0  0.00000000000E+00  0.00000000000E+00  0.19402268265E+04  0.19402268265E+04  0.00000000000E+00 0. -1.
          1   -1    0    0  501    0 -0.00000000000E+00 -0.00000000000E+00 -0.12559884471E+03  0.12559884471E+03  0.00000000000E+00 0. -1.
         25    2    1    2    0    0  0.43291395065E+02 -0.55384538829E+01  0.50247227085E+03  0.51962532255E+03  0.12500909366E+03 0.  0.
          2    1    1    2  501    0 -0.36145036546E+02 -0.15027761930E+02 -0.11366336498E+03  0.12021504828E+03  0.00000000000E+00 0. -1.
          1    1    1    2  502    0 -0.71463585192E+01  0.20566215813E+02  0.14258190759E+04  0.14259853004E+04  0.00000000000E+00 0. -1.
         22    1    3    3    0    0  0.16602164010E+02  0.25838089135E+02  0.45791805462E+03  0.45894681985E+03  0.00000000000E+00 0.  1.
         22    1    3    3    0    0  0.26689231055E+02 -0.31376543018E+02  0.44554216236E+02  0.60678502704E+02  0.00000000000E+00 0.  1.
</event>
<event>
 7    1  0.5779468E-006  0.2369611E+03  0.7818608E-02  0.1171454E+00
          2   -1    0    0  502    0  0.00000000000E+00  0.00000000000E+00  0.12669803607E+04  0.12669803607E+04  0.00000000000E+00 0. -1.
          1   -1    0    0  501    0 -0.00000000000E+00 -0.00000000000E+00 -0.83467822863E+03  0.83467822863E+03  0.00000000000E+00 0. -1.
         25    2    1    2    0    0 -0.27944964282E+03  0.88305956895E+02  0.14205361470E+02  0.31893138026E+03  0.12500155247E+03 0.  0.
          2    1    1    2  501    0  0.47385613973E+02 -0.12227544275E+03 -0.66332571940E+03  0.67616395226E+03  0.00000000000E+00 0. -1.
          1    1    1    2  502    0  0.23206402885E+03  0.33969485855E+02  0.10814224900E+04  0.11065632568E+04  0.00000000000E+00 0. -1.
         22    1    3    3    0    0 -0.19482416588E+03  0.18352718456E+02  0.52572963027E+02  0.20262574942E+03  0.00000000000E+00 0. -1.
         22    1    3    3    0    0 -0.84625476947E+02  0.69953238439E+02 -0.38367601556E+02  0.11630563084E+03  0.00000000000E+00 0. -1.
</event>
<event>
 7    1  0.5779468E-006  0.9918332E+02  0.7818608E-02  0.1421565E+00
          2   -1    0    0  502    0  0.00000000000E+00  0.00000000000E+00  0.65213568563E+03  0.65213568563E+03  0.00000000000E+00 0. -1.
          1   -1    0    0  501    0 -0.00000000000E+00 -0.00000000000E+00 -0.30808818945E+03  0.30808818945E+03  0.00000000000E+00 0. -1.
         25    2    1    2    0    0  0.66601069852E+02 -0.54114074799E+02 -0.80436377583E+02  0.17165885981E+03  0.12503086705E+03 0.  0.
          2    1    1    2  501    0 -0.61914132591E+02  0.83905278071E+02 -0.16669188089E+03  0.19662054485E+03  0.00000000000E+00 0. -1.
          1    1    1    2  502    0 -0.46869372613E+01 -0.29791203272E+02  0.59117575465E+03  0.59194447042E+03  0.00000000000E+00 0. -1.
         22    1    3    3    0    0  0.74951287975E+02 -0.23897015880E+02  0.67985244501E+01  0.78961907726E+02  0.00000000000E+00 0.  1.
         22    1    3    3    0    0 -0.83502181226E+01 -0.30217058919E+02 -0.87234902033E+02  0.92696952081E+02  0.00000000000E+00 0.  1.
</event>
<event>
 7    1  0.5779468E-006  0.1132739E+03  0.7818608E-02  0.1266169E+00
          2   -1    0    0  502    0  0.00000000000E+00  0.00000000000E+00  0.16435517294E+03  0.16435517294E+03  0.00000000000E+00 0. -1.
          1   -1    0    0  501    0 -0.00000000000E+00 -0.00000000000E+00 -0.29009282939E+03  0.29009282939E+03  0.00000000000E+00 0. -1.
         25    2    1    2    0    0 -0.21880402714E+02 -0.96209033609E+01 -0.10132400019E+03  0.16267565429E+03  0.12500200671E+03 0.  0.
          2    1    1    2  501    0 -0.23275912526E+01 -0.11324998770E+03 -0.95157737926E+02  0.14793908368E+03  0.00000000000E+00 0. -1.
          1    1    1    2  502    0  0.24207993967E+02  0.12287089106E+03  0.70744081666E+02  0.14383326434E+03  0.00000000000E+00 0. -1.
         22    1    3    3    0    0 -0.45515523241E+02  0.39209471821E+02 -0.88444522196E+02  0.10691809502E+03  0.00000000000E+00 0.  1.
         22    1    3    3    0    0  0.23635120527E+02 -0.48830375182E+02 -0.12879477993E+02  0.55757559273E+02  0.00000000000E+00 0.  1.
</event>
<event>
 7    1  0.5779468E-006  0.1113201E+03  0.7818608E-02  0.1411774E+00
          2   -1    0    0  502    0  0.00000000000E+00  0.00000000000E+00  0.95831305430E+03  0.95831305430E+03  0.00000000000E+00 0. -1.
          1   -1    0    0  501    0 -0.00000000000E+00 -0.00000000000E+00 -0.28324235616E+02  0.28324235616E+02  0.00000000000E+00 0. -1.
         25    2    1    2    0    0 -0.53743816485E+02 -0.91522070928E+02  0.66321233886E+03  0.68318455058E+03  0.12500334578E+03 0.  0.
          2    1    1    2  501    0  0.80640835359E+02  0.80729849175E+02  0.22886059580E+03  0.25572920284E+03  0.00000000000E+00 0. -1.
          1    1    1    2  502    0 -0.26897018874E+02  0.10792221753E+02  0.37915884031E+02  0.47723536505E+02  0.00000000000E+00 0. -1.
         22    1    3    3    0    0  0.20089801090E+02 -0.54682954186E+02  0.11621889987E+03  0.13000253180E+03  0.00000000000E+00 0.  1.
         22    1    3    3    0    0 -0.73833617575E+02 -0.36839116742E+02  0.54699343899E+03  0.55318201878E+03  0.00000000000E+00 0.  1.
</event>
<event>
 7    1  0.5779468E-006  0.9004707E+02  0.7818608E-02  0.1397245E+00
          2   -1    0    0  502    0  0.00000000000E+00  0.00000000000E+00  0.34303013542E+02  0.34303013542E+02  0.00000000000E+00 0. -1.
          1   -1    0    0  501    0 -0.00000000000E+00 -0.00000000000E+00 -0.16760996984E+04  0.16760996984E+04  0.00000000000E+00 0. -1.
         25    2    1    2    0    0  0.49917238345E+02 -0.11099672033E+03 -0.86075130624E+03  0.87825335221E+03  0.12499654738E+03 0.  0.
          2    1    1    2  501    0 -0.27652012773E+02  0.77566583369E+02 -0.78721659888E+03  0.79151195962E+03  0.00000000000E+00 0. -1.
          1    1    1    2  502    0 -0.22265225572E+02  0.33430136964E+02  0.61712202798E+01  0.40637400101E+02  0.00000000000E+00 0. -1.
         22    1    3    3    0    0 -0.22508906596E+01  0.26914163595E+02 -0.13524986843E+03  0.13792014219E+03  0.00000000000E+00 0.  1.
         22    1    3    3    0    0  0.52168129004E+02 -0.13791088393E+03 -0.72550143781E+03  0.74033321001E+03  0.00000000000E+00 0.  1.
</event>
<event>
 7    1  0.5779468E-006  0.1794733E+03  0.7818608E-02  0.1295925E+00
          2   -1    0    0  502    0  0.00000000000E+00  0.00000000000E+00  0.10799551789E+04  0.10799551789E+04  0.00000000000E+00 0. -1.
          1   -1    0    0  501    0 -0.00000000000E+00 -0.00000000000E+00 -0.17877108126E+03  0.17877108126E+03  0.00000000000E+00 0. -1.
         25    2    1    2    0    0 -0.13656457717E+02 -0.22031361679E+03  0.31510241120E+03  0.40452307877E+03  0.12499921254E+03 0.  0.
          2    1    1    2  501    0  0.16283390071E+02  0.17227485878E+03 -0.76983855922E+02  0.18939453485E+03  0.00000000000E+00 0. -1.
          1    1    1    2  502    0 -0.26269323535E+01  0.48038758009E+02  0.66306554241E+03  0.66480864659E+03  0.00000000000E+00 0. -1.
         22    1    3    3    0    0 -0.40669025474E+02 -0.19638986540E+03  0.19737176957E+03  0.28138685877E+03  0.00000000000E+00 0. -1.
         22    1    3    3    0    0  0.27012567757E+02 -0.23923751386E+02  0.11773064163E+03  0.12313622000E+03  0.00000000000E+00 0. -1.
</event>
<event>
 7    1  0.5779468E-006  0.5825983E+02  0.7818608E-02  0.1413289E+00
          2   -1    0    0  502    0  0.00000000000E+00  0.00000000000E+00  0.10485480178E+04  0.10485480178E+04  0.00000000000E+00 0. -1.
          1   -1    0    0  501    0 -0.00000000000E+00 -0.00000000000E+00 -0.42398643565E+02  0.42398643565E+02  0.00000000000E+00 0. -1.
         25    2    1    2    0    0  0.14730792659E+01 -0.14302736245E+02  0.25123098415E+03  0.28097394602E+03  0.12499045050E+03 0.  0.
          2    1    1    2  501    0  0.51103946760E+02 -0.19583837277E+02  0.23175364778E+01  0.54776920617E+02  0.00000000000E+00 0. -1.
          1    1    1    2  502    0 -0.52577026026E+02  0.33886573522E+02  0.75260085356E+03  0.75519579468E+03  0.00000000000E+00 0. -1.
         22    1    3    3    0    0 -0.54276363952E+02 -0.34435391322E+02  0.15702742809E+03  0.16967419672E+03  0.00000000000E+00 0.  1.
         22    1    3    3    0    0  0.55749443218E+02  0.20132655077E+02  0.94203556066E+02  0.11129974930E+03  0.00000000000E+00 0.  1.
</event>
<event>
 7    1  0.5779468E-006  0.7852048E+02  0.7818608E-02  0.1410584E+00
          2   -1    0    0  502    0  0.00000000000E+00  0.00000000000E+00  0.99427405039E+02  0.99427405039E+02  0.00000000000E+00 0. -1.
          1   -1    0    0  501    0 -0.00000000000E+00 -0.00000000000E+00 -0.69775156143E+03  0.69775156143E+03  0.00000000000E+00 0. -1.
         25    2    1    2    0    0 -0.35713913168E+02 -0.16094250101E+02 -0.48355895383E+03  0.50098750761E+03  0.12499884990E+03 0.  0.
          2    1    1    2  501    0 -0.32234350594E+02 -0.26090864304E+02 -0.18509801175E+03  0.18968674311E+03  0.00000000000E+00 0. -1.
          1    1    1    2  502    0  0.67948263762E+02  0.42185114404E+02  0.70332809193E+02  0.10650471574E+03  0.00000000000E+00 0. -1.
         22    1    3    3    0    0 -0.68481861475E+02  0.29349281485E+02 -0.29657289029E+03  0.30578852975E+03  0.00000000000E+00 0. -1.
         22    1    3    3    0    0  0.32767948307E+02 -0.45443531585E+02 -0.18698606354E+03  0.19519897786E+03  0.00000000000E+00 0. -1.
</event>
<event>
 7    1  0.5779468E-006  0.3725697E+02  0.7818608E-02  0.1554237E+00
          2   -1    0    0  502    0  0.00000000000E+00  0.00000000000E+00  0.59950032726E+03  0.59950032726E+03  0.00000000000E+00 0. -1.
          1   -1    0    0  501    0 -0.00000000000E+00 -0.00000000000E+00 -0.65282637684E+03  0.65282637684E+03  0.00000000000E+00 0. -1.
         25    2    1    2    0    0 -0.16083467840E+02 -0.48645053986E+02  0.13005099542E+03  0.18751813233E+03  0.12499907731E+03 0.  0.
          2    1    1    2  501    0  0.28619655263E+02  0.13660960298E+02 -0.62290530750E+03  0.62371205586E+03  0.00000000000E+00 0. -1.
          1    1    1    2  502    0 -0.12536187423E+02  0.34984093688E+02  0.43952826250E+03  0.44109651591E+03  0.00000000000E+00 0. -1.
         22    1    3    3    0    0 -0.70345671178E+02 -0.28404099047E+02  0.86508887108E+02  0.11506126127E+03  0.00000000000E+00 0. -1.
         22    1    3    3    0    0  0.54262203338E+02 -0.20240954940E+02  0.43542108310E+02  0.72456871062E+02  0.00000000000E+00 0. -1.
</event>
<event>
 7    1  0.5779468E-006  0.1733039E+03  0.7818608E-02  0.1244045E+00
          2   -1    0    0  502    0  0.00000000000E+00  0.00000000000E+00  0.33793068674E+03  0.33793068674E+03  0.00000000000E+00 0. -1.
          1   -1    0    0  501    0 -0.00000000000E+00 -0.00000000000E+00 -0.14971621488E+04  0.14971621488E+04  0.00000000000E+00 0. -1.
         25    2    1    2    0    0  0.13061238330E+03 -0.83757919379E+02  0.10311286361E+03  0.22434525664E+03  0.12499419109E+03 0.  0.
          2    1    1    2  501    0 -0.85090004126E+02  0.15232149385E+03 -0.14211833919E+04  0.14318534770E+04  0.00000000000E+00 0. -1.
          1    1    1    2  502    0 -0.45522379176E+02 -0.68563574471E+02  0.15883906618E+03  0.17889410191E+03  0.00000000000E+00 0. -1.
         22    1    3    3    0    0  0.14435341095E+03 -0.88800760795E+02  0.61600181411E+02  0.18032765933E+03  0.00000000000E+00 0.  1.
         22    1    3    3    0    0 -0.13741027645E+02  0.50428414159E+01  0.41512682195E+02  0.44017597314E+02  0.00000000000E+00 0.  1.
</event>
<event>
 7    1  0.5779468E-006  0.4793663E+02  0.7818608E-02  0.1546404E+00
          2   -1    0    0  502    0  0.00000000000E+00  0.00000000000E+00  0.57942758058E+03  0.57942758058E+03  0.00000000000E+00 0. -1.
          1   -1    0    0  501    0 -0.00000000000E+00 -0.00000000000E+00 -0.16933605410E+04  0.16933605410E+04  0.00000000000E+00 0. -1.
         25    2    1    2    0    0 -0.33969814326E+02  0.41141952865E+02  0.10797183475E+03  0.17356976310E+03  0.12498774737E+03 0.  0.
          2    1    1    2  501    0  0.25208064940E+02  0.60284096521E+01 -0.16591482033E+04  0.16593506407E+04  0.00000000000E+00 0. -1.
          1    1    1    2  502    0  0.87617493859E+01 -0.47170362517E+02  0.43724340804E+03  0.43986771788E+03  0.00000000000E+00 0. -1.
         22    1    3    3    0    0 -0.79493291300E+02  0.22473529792E+02  0.46381152702E+02  0.94738873906E+02  0.00000000000E+00 0.  1.
         22    1    3    3    0    0  0.45523476974E+02  0.18668423073E+02  0.61590682050E+02  0.78830889195E+02  0.00000000000E+00 0.  1.
</event>
<event>
 7    1  0.5779468E-006  0.1222959E+03  0.7818608E-02  0.1367793E+00
          2   -1    0    0  502    0  0.00000000000E+00  0.00000000000E+00  0.79764366292E+02  0.79764366292E+02  0.00000000000E+00 0. -1.
          1   -1    0    0  501    0 -0.00000000000E+00 -0.00000000000E+00 -0.12928619665E+04  0.12928619665E+04  0.00000000000E+00 0. -1.
         25    2    1    2    0    0 -0.37741806345E+02  0.13107400774E+03 -0.51507621121E+03  0.54729652383E+03  0.12500056879E+03 0.  0.
          2    1    1    2  501    0 -0.25461906284E+02 -0.27626862548E+02 -0.70299734523E+03  0.70400058211E+03  0.00000000000E+00 0. -1.
          1    1    1    2  502    0  0.63203712629E+02 -0.10344714519E+03  0.49759562677E+01  0.12132922681E+03  0.00000000000E+00 0. -1.
         22    1    3    3    0    0 -0.68865891779E+02  0.59058021601E+02 -0.38368847358E+03  0.39426793646E+03  0.00000000000E+00 0. -1.
         22    1    3    3    0    0  0.31124085434E+02  0.72015986138E+02 -0.13138773763E+03  0.15302858737E+03  0.00000000000E+00 0. -1.
</event>
<event>
 7    1  0.5779468E-006  0.7324008E+02  0.7818608E-02  0.1440867E+00
          2   -1    0    0  502    0  0.00000000000E+00  0.00000000000E+00  0.86979272013E+03  0.86979272013E+03  0.00000000000E+00 0. -1.
          1   -1    0    0  501    0 -0.00000000000E+00 -0.00000000000E+00 -0.18389555318E+03  0.18389555318E+03  0.00000000000E+00 0. -1.
         25    2    1    2    0    0  0.14227748304E+01  0.57606561977E+02  0.35040055251E+03  0.37646548179E+03  0.12500068602E+03 0.  0.
          2    1    1    2  501    0  0.32853600174E+02 -0.66003049146E+02 -0.16225580170E+03  0.17822094918E+03  0.00000000000E+00 0. -1.
          1    1    1    2  502    0 -0.34276375005E+02  0.83964871697E+01  0.49775241614E+03  0.49900184233E+03  0.00000000000E+00 0. -1.
         22    1    3    3    0    0  0.42680407346E+02 -0.74088927884E+01  0.49083668643E+02  0.65465375512E+02  0.00000000000E+00 0.  1.
         22    1    3    3    0    0 -0.41257632515E+02  0.65015454765E+02  0.30131688387E+03  0.31100010628E+03  0.00000000000E+00 0.  1.
</event>
<event>
 7    1  0.5779468E-006  0.7652681E+02  0.7818608E-02  0.1385106E+00
          2   -1    0    0  502    0  0.00000000000E+00  0.00000000000E+00  0.18325151514E+04  0.18325151514E+04  0.00000000000E+00 0. -1.
          1   -1    0    0  501    0 -0.00000000000E+00 -0.00000000000E+00 -0.40732714853E+03  0.40732714853E+03  0.00000000000E+00 0. -1.
         25    2    1    2    0    0  0.50308916846E+02 -0.44183967460E+02  0.59311406403E+03  0.60983015881E+03  0.12500127817E+03 0.  0.
          2    1    1    2  501    0 -0.38427428932E+02 -0.35175486870E+02 -0.39595341462E+03  0.39936585823E+03  0.00000000000E+00 0. -1.
          1    1    1    2  502    0 -0.11881487914E+02  0.79359454330E+02  0.12280273535E+04  0.12306462829E+04  0.00000000000E+00 0. -1.
         22    1    3    3    0    0  0.48681855792E+02 -0.35098823251E+02  0.99980660964E+02  0.11661038995E+03  0.00000000000E+00 0.  1.
         22    1    3    3    0    0  0.16270610547E+01 -0.90851442091E+01  0.49313340307E+03  0.49321976886E+03  0.00000000000E+00 0.  1.
</event>
<event>
 7    1  0.5779468E-006  0.1979889E+03  0.7818608E-02  0.1301423E+00
          2   -1    0    0  502    0  0.00000000000E+00  0.00000000000E+00  0.38553449207E+03  0.38553449207E+03  0.00000000000E+00 0. -1.
          1   -1    0    0  501    0 -0.00000000000E+00 -0.00000000000E+00 -0.12195033183E+04  0.12195033183E+04  0.00000000000E+00 0. -1.
         25    2    1    2    0    0 -0.12023321669E+03 -0.13480558354E+03  0.72714749136E+01  0.21979077223E+03  0.12500614970E+03 0.  0.
          2    1    1    2  501    0  0.10158585993E+03  0.17182630444E+03 -0.11026497448E+04  0.11205714728E+04  0.00000000000E+00 0. -1.
          1    1    1    2  502    0  0.18647356755E+02 -0.37020720901E+02  0.26140944365E+03  0.26467556540E+03  0.00000000000E+00 0. -1.
         22    1    3    3    0    0 -0.79766355254E+02 -0.35069228139E+02  0.53935749227E+02  0.10247725229E+03  0.00000000000E+00 0.  1.
         22    1    3    3    0    0 -0.40466861432E+02 -0.99736355404E+02 -0.46664274313E+02  0.11731351994E+03  0.00000000000E+00 0.  1.
</event>
<event>
 7    1  0.5779468E-006  0.5043551E+02  0.7818608E-02  0.1466729E+00
          2   -1    0    0  502    0  0.00000000000E+00  0.00000000000E+00  0.21868090357E+04  0.21868090357E+04  0.00000000000E+00 0. -1.
          1   -1    0    0  501    0 -0.00000000000E+00 -0.00000000000E+00 -0.93344560085E+03  0.93344560085E+03  0.00000000000E+00 0. -1.
         25    2    1    2    0    0  0.30378303018E+02  0.13707842981E+01  0.10559054116E+03  0.16643264214E+03  0.12500296654E+03 0.  0.
          2    1    1    2  501    0 -0.44881959529E+00 -0.42396310485E+02 -0.90221225254E+03  0.90320794794E+03  0.00000000000E+00 0. -1.
          1    1    1    2  502    0 -0.29929483422E+02  0.41025526187E+02  0.20499851462E+04  0.20506140464E+04  0.00000000000E+00 0. -1.
         22    1    3    3    0    0 -0.43738204644E+01 -0.28260347689E+02 -0.18598280737E+02  0.34112660455E+02  0.00000000000E+00 0.  1.
         22    1    3    3    0    0  0.34752123482E+02  0.29631131987E+02  0.12418882189E+03  0.13231998168E+03  0.00000000000E+00 0.  1.
</event>
<event>
 7    1  0.5779468E-006  0.5402215E+02  0.7818608E-02  0.1562394E+00
          2   -1    0    0  502    0  0.00000000000E+00  0.00000000000E+00  0.22138914778E+04  0.22138914778E+04  0.00000000000E+00 0. -1.
          1   -1    0    0  501    0 -0.00000000000E+00 -0.00000000000E+00 -0.15215874652E+04  0.15215874652E+04  0.00000000000E+00 0. -1.
         25    2    1    2    0    0  0.53256354364E+01 -0.72587205781E+02  0.27084290807E+01  0.14467084201E+03  0.12500020842E+03 0.  0.
          2    1    1    2  501    0  0.60520112102E+01  0.19865218668E+02 -0.14501920952E+04  0.14503407761E+04  0.00000000000E+00 0. -1.
          1    1    1    2  502    0 -0.11377646647E+02  0.52721987113E+02  0.21397876788E+04  0.21404673249E+04  0.00000000000E+00 0. -1.
         22    1    3    3    0    0 -0.19029385889E+02 -0.90577920175E+02  0.36324827991E+02  0.99428216715E+02  0.00000000000E+00 0. -1.
         22    1    3    3    0    0  0.24355021325E+02  0.17990714395E+02 -0.33616398910E+02  0.45242625298E+02  0.00000000000E+00 0. -1.
</event>
<event>
 7    1  0.5779468E-006  0.8078444E+02  0.7818608E-02  0.1380726E+00
          2   -1    0    0  502    0  0.00000000000E+00  0.00000000000E+00  0.12607307827E+04  0.12607307827E+04  0.00000000000E+00 0. -1.
          1   -1    0    0  501    0 -0.00000000000E+00 -0.00000000000E+00 -0.60453492307E+02  0.60453492307E+02  0.00000000000E+00 0. -1.
         25    2    1    2    0    0 -0.33808476115E+02  0.28712443310E+02  0.13990947511E+03  0.19278664261E+03  0.12499844353E+03 0.  0.
          2    1    1    2  501    0  0.78130356007E+01  0.50536459515E+02 -0.12216212605E+02  0.52575784503E+02  0.00000000000E+00 0. -1.
          1    1    1    2  502    0  0.25995440514E+02 -0.79248902825E+02  0.10725840279E+04  0.10758218479E+04  0.00000000000E+00 0. -1.
         22    1    3    3    0    0 -0.12747116982E+02  0.23651683799E+02 -0.18680732321E+02  0.32724011030E+02  0.00000000000E+00 0.  1.
         22    1    3    3    0    0 -0.21061359133E+02  0.50607595113E+01  0.15859020743E+03  0.16006263158E+03  0.00000000000E+00 0.  1.
</event>
<event>
 7    1  0.7663683E-006  0.7729941E+02  0.7818608E-02  0.1342184E+00
          2   -1    0    0  502    0  0.00000000000E+00  0.00000000000E+00  0.16644797677E+04  0.16644797677E+04  0.00000000000E+00 0. -1.
          1   -1    0    0  501    0 -0.00000000000E+00 -0.00000000000E+00 -0.11045711221E+04  0.11045711221E+04  0.00000000000E+00 0. -1.
         25    2    1    2    0    0 -0.52434984918E+02  0.78081371600E+02 -0.78107392049E+02  0.17484767976E+03  0.12499927276E+03 0.  0.
          2    1    1    2  501    0  0.77323955036E+02 -0.85673978587E+01 -0.97570112394E+03  0.97879777155E+03  0.00000000000E+00 0. -1.
          1    1    1    2  502    0 -0.24888970118E+02 -0.69513973742E+02  0.16137171615E+04  0.16154054385E+04  0.00000000000E+00 0. -1.
         22    1    3    3    0    0 -0.72103455956E+00  0.71684437830E+01  0.32704739411E+02  0.33488900505E+02  0.00000000000E+00 0. -1.
         22    1    3    3    0    0 -0.51713950359E+02  0.70912927817E+02 -0.11081213146E+03  0.14135877925E+03  0.00000000000E+00 0. -1.
</event>
<event>
 7    1  0.5779468E-006  0.5048844E+02  0.7818608E-02  0.1456808E+00
          2   -1    0    0  502    0  0.00000000000E+00  0.00000000000E+00  0.14969264097E+04  0.14969264097E+04  0.00000000000E+00 0. -1.
          1   -1    0    0  501    0 -0.00000000000E+00 -0.00000000000E+00 -0.45545284582E+02  0.45545284582E+02  0.00000000000E+00 0. -1.
         25    2    1    2    0    0 -0.11557031337E+01  0.37249745617E+02  0.79857909469E+03  0.80916129014E+03  0.12499817519E+03 0.  0.
          2    1    1    2  501    0 -0.45217985923E+02 -0.51559241152E+01 -0.25836019985E+02  0.52333065389E+02  0.00000000000E+00 0. -1.
          1    1    1    2  502    0  0.46373689056E+02 -0.32093821501E+02  0.67863805039E+03  0.68097733872E+03  0.00000000000E+00 0. -1.
         22    1    3    3    0    0 -0.74881749469E+01  0.27315577089E+02  0.79673349089E+03  0.79723677099E+03  0.00000000000E+00 0.  1.
         22    1    3    3    0    0  0.63324718132E+01  0.99341685279E+01  0.18456037942E+01  0.11924519151E+02  0.00000000000E+00 0.  1.
</event>
<event>
 7    1  0.5779468E-006  0.7824089E+02  0.7818608E-02  0.1477417E+00
          2   -1    0    0  502    0  0.00000000000E+00  0.00000000000E+00  0.54819646296E+03  0.54819646296E+03  0.00000000000E+00 0. -1.
          1   -1    0    0  501    0 -0.00000000000E+00 -0.00000000000E+00 -0.25397754323E+03  0.25397754323E+03  0.00000000000E+00 0. -1.
         25    2    1    2    0    0 -0.85261728518E+02 -0.89003332065E+01  0.17272532006E+03  0.22979929385E+03  0.12499960394E+03 0.  0.
          2    1    1    2  501    0  0.90884564420E+01  0.23635079637E+02 -0.22036879718E+03  0.22181889865E+03  0.00000000000E+00 0. -1.
          1    1    1    2  502    0  0.76173272076E+02 -0.14734746431E+02  0.34186239685E+03  0.35055581369E+03  0.00000000000E+00 0. -1.
         22    1    3    3    0    0 -0.15399566920E+02 -0.13042784795E+02 -0.17748618993E+02  0.26875162747E+02  0.00000000000E+00 0. -1.
         22    1    3    3    0    0 -0.69862161598E+02  0.41424515884E+01  0.19047393905E+03  0.20292413111E+03  0.00000000000E+00 0. -1.
</event>
<event>
 7    1  0.5779468E-006  0.6752789E+02  0.7818608E-02  0.1422190E+00
          2   -1    0    0  502    0  0.00000000000E+00  0.00000000000E+00  0.42114323163E+04  0.42114323163E+04  0.00000000000E+00 0. -1.
          1   -1    0    0  501    0 -0.00000000000E+00 -0.00000000000E+00 -0.36670210287E+02  0.36670210287E+02  0.00000000000E+00 0. -1.
         25    2    1    2    0    0 -0.10956824545E+03 -0.11361899393E+01  0.67224508214E+03  0.69248860125E+03  0.12498208296E+03 0.  0.
          2    1    1    2  501    0  0.43693227436E+02 -0.58488812187E+01 -0.77183340003E+01  0.44753549748E+02  0.00000000000E+00 0. -1.
          1    1    1    2  502    0  0.65875018017E+02  0.69850711580E+01  0.35102353579E+04  0.35108603756E+04  0.00000000000E+00 0. -1.
         22    1    3    3    0    0  0.20548275467E+02  0.16967982755E+02  0.21818063180E+03  0.21980202946E+03  0.00000000000E+00 0. -1.
         22    1    3    3    0    0 -0.13011652092E+03 -0.18104172695E+02  0.45406445034E+03  0.47268657179E+03  0.00000000000E+00 0. -1.
</event>
<event>
 7    1  0.5779468E-006  0.1164760E+03  0.7818608E-02  0.1293888E+00
          2   -1    0    0  502    0  0.00000000000E+00  0.00000000000E+00  0.70093623206E+03  0.70093623206E+03  0.00000000000E+00 0. -1.
          1   -1    0    0  501    0 -0.00000000000E+00 -0.00000000000E+00 -0.11564464535E+04  0.11564464535E+04  0.00000000000E+00 0. -1.
         25    2    1    2    0    0  0.36430025481E+01 -0.71946323990E+02  0.12521640350E+03  0.19103266408E+03  0.12499914414E+03 0.  0.
          2    1    1    2  501    0 -0.62290045363E+02 -0.42749673156E+02 -0.11145986431E+04  0.11171560856E+04  0.00000000000E+00 0. -1.
          1    1    1    2  502    0  0.58647042815E+02  0.11469599715E+03  0.53387201820E+03  0.54919393589E+03  0.00000000000E+00 0. -1.
         22    1    3    3    0    0 -0.34269369376E+02  0.17124136657E+02  0.69449603936E+02  0.79315025188E+02  0.00000000000E+00 0. -1.
         22    1    3    3    0    0  0.37912371924E+02 -0.89070460647E+02  0.55766799566E+02  0.11171763889E+03  0.00000000000E+00 0. -1.
</event>
<event>
 7    1  0.5779468E-006  0.1568463E+03  0.7818608E-02  0.1277213E+00
          2   -1    0    0  502    0  0.00000000000E+00  0.00000000000E+00  0.64280753364E+03  0.64280753364E+03  0.00000000000E+00 0. -1.
          1   -1    0    0  501    0 -0.00000000000E+00 -0.00000000000E+00 -0.26631486910E+04  0.26631486910E+04  0.00000000000E+00 0. -1.
         25    2    1    2    0    0  0.16551977453E+03  0.79904018653E+02 -0.67199138619E+02  0.23221232175E+03  0.12500156072E+03 0.  0.
          2    1    1    2  501    0 -0.10855633720E+03 -0.11255659689E+03 -0.25090768984E+04  0.25139451760E+04  0.00000000000E+00 0. -1.
          1    1    1    2  502    0 -0.56963437325E+02  0.32652578235E+02  0.55593487973E+03  0.55979872682E+03  0.00000000000E+00 0. -1.
         22    1    3    3    0    0  0.22188455807E+02  0.74889237720E+02 -0.32871485153E+02  0.84742315484E+02  0.00000000000E+00 0. -1.
         22    1    3    3    0    0  0.14333131872E+03  0.50147809337E+01 -0.34327653466E+02  0.14747000626E+03  0.00000000000E+00 0. -1.
</event>
<event>
 7    1  0.5779468E-006  0.5491350E+02  0.7818608E-02  0.1530708E+00
          2   -1    0    0  502    0  0.00000000000E+00  0.00000000000E+00  0.13581985427E+03  0.13581985427E+03  0.00000000000E+00 0. -1.
          1   -1    0    0  501    0 -0.00000000000E+00 -0.00000000000E+00 -0.29398300430E+03  0.29398300430E+03  0.00000000000E+00 0. -1.
         25    2    1    2    0    0  0.73358733145E+02 -0.17714463928E+02 -0.11873525147E+03  0.18819815545E+03  0.12500071924E+03 0.  0.
          2    1    1    2  501    0 -0.51894574956E+02  0.47711613915E+01 -0.13399501487E+03  0.14377230227E+03  0.00000000000E+00 0. -1.
          1    1    1    2  502    0 -0.21464158189E+02  0.12943302537E+02  0.94567116312E+02  0.97832400844E+02  0.00000000000E+00 0. -1.
         22    1    3    3    0    0  0.88403159467E+02  0.24632454314E+02 -0.45887454670E+02  0.10260377627E+03  0.00000000000E+00 0.  1.
         22    1    3    3    0    0 -0.15044426321E+02 -0.42346918242E+02 -0.72847796799E+02  0.85594379176E+02  0.00000000000E+00 0.  1.
</event>
<event>
 7    1  0.5779468E-006  0.9918709E+02  0.7818608E-02  0.1288638E+00
          2   -1    0    0  502    0  0.00000000000E+00  0.00000000000E+00  0.11858970176E+04  0.11858970176E+04  0.00000000000E+00 0. -1.
          1   -1    0    0  501    0 -0.00000000000E+00 -0.00000000000E+00 -0.32266402784E+03  0.32266402784E+03  0.00000000000E+00 0. -1.
         25    2    1    2    0    0 -0.40386961801E+02 -0.56297333878E+02  0.18118190715E+03  0.23077693357E+03  0.12502245039E+03 0.  0.
          2    1    1    2  501    0  0.95353400709E+02 -0.27309491236E+02 -0.28696131857E+03  0.30361962666E+03  0.00000000000E+00 0. -1.
          1    1    1    2  502    0 -0.54966438908E+02  0.83606825114E+02  0.96901240120E+03  0.97416448524E+03  0.00000000000E+00 0. -1.
         22    1    3    3    0    0  0.27310447226E+01 -0.20233294573E+02  0.17273086438E+03  0.17393330999E+03  0.00000000000E+00 0. -1.
         22    1    3    3    0    0 -0.43118006523E+02 -0.36064039306E+02  0.84510427743E+01  0.56843623579E+02  0.00000000000E+00 0. -1.
</event>
<event>
 7    1  0.5779468E-006  0.1283129E+03  0.7818608E-02  0.1305484E+00
          2   -1    0    0  502    0  0.00000000000E+00  0.00000000000E+00  0.60160088035E+03  0.60160088035E+03  0.00000000000E+00 0. -1.
          1   -1    0    0  501    0 -0.00000000000E+00 -0.00000000000E+00 -0.18408892947E+04  0.18408892947E+04  0.00000000000E+00 0. -1.
         25    2    1    2    0    0 -0.15181155565E+03  0.11138497915E+03  0.45832047903E+03  0.51101440742E+03  0.12499880435E+03 0.  0.
          2    1    1    2  501    0  0.10916623140E+03 -0.66900914940E+02 -0.18039939285E+04  0.18085317505E+04  0.00000000000E+00 0. -1.
          1    1    1    2  502    0  0.42645324254E+02 -0.44484064211E+02  0.10638503512E+03  0.12294401713E+03  0.00000000000E+00 0. -1.
         22    1    3    3    0    0 -0.88108870238E+02 -0.79134604567E+01  0.21778386969E+03  0.23506511815E+03  0.00000000000E+00 0.  1.
         22    1    3    3    0    0 -0.63702685417E+02  0.11929843961E+03  0.24053660934E+03  0.27594928928E+03  0.00000000000E+00 0.  1.
</event>
<event>
 7    1  0.9483293E-006  0.5290008E+02  0.7818608E-02  0.1435483E+00
          2   -1    0    0  502    0  0.00000000000E+00  0.00000000000E+00  0.11420791108E+04  0.11420791108E+04  0.00000000000E+00 0. -1.
          1   -1    0    0  501    0 -0.00000000000E+00 -0.00000000000E+00 -0.84310639889E+03  0.84310639889E+03  0.00000000000E+00 0. -1.
         25    2    1    2    0    0 -0.51941176922E+02 -0.64901910729E+02 -0.34215025033E+03  0.37363316693E+03  0.12499922301E+03 0.  0.
          2    1    1    2  501    0  0.49494230909E+02  0.14090867804E+02 -0.48327353743E+03  0.48600570309E+03  0.00000000000E+00 0. -1.
          1    1    1    2  502    0  0.24469460127E+01  0.50811042925E+02  0.11243964996E+04  0.11255466397E+04  0.00000000000E+00 0. -1.
         22    1    3    3    0    0  0.32242570881E+02 -0.34969469690E+02 -0.54061448307E+02  0.72007550857E+02  0.00000000000E+00 0. -1.
         22    1    3    3    0    0 -0.84183747803E+02 -0.29932441039E+02 -0.28808880202E+03  0.30162561607E+03  0.00000000000E+00 0. -1.
</event>
<event>
 7    1  0.5779468E-006  0.3640251E+02  0.7818608E-02  0.1569233E+00
          2   -1    0    0  502    0  0.00000000000E+00  0.00000000000E+00  0.80488912391E+03  0.80488912391E+03  0.00000000000E+00 0. -1.
          1   -1    0    0  501    0 -0.00000000000E+00 -0.00000000000E+00 -0.38295261343E+03  0.38295261343E+03  0.00000000000E+00 0. -1.
         25    2    1    2    0    0  0.13427843210E+02 -0.36089661653E+02  0.40887926402E+03  0.42928967134E+03  0.12499839488E+03 0.  0.
          2    1    1    2  501    0 -0.29411854995E+02  0.25308881605E+01 -0.37126482907E+03  0.37243661999E+03  0.00000000000E+00 0. -1.
          1    1    1    2  502    0  0.15984011785E+02  0.33558773492E+02  0.38432207552E+03  0.38611544601E+03  0.00000000000E+00 0. -1.
         22    1    3    3    0    0  0.37219158780E+02  0.28807887955E+02  0.76652922884E+02  0.89949045439E+02  0.00000000000E+00 0. -1.
         22    1    3    3    0    0 -0.23791315570E+02 -0.64897549608E+02  0.33222634114E+03  0.33934062590E+03  0.00000000000E+00 0. -1.
</event>
<event>
 7    1  0.5779468E-006  0.3678219E+02  0.7818608E-02  0.1602027E+00
          2   -1    0    0  502    0  0.00000000000E+00  0.00000000000E+00  0.98877476403E+03  0.98877476403E+03  0.00000000000E+00 0. -1.
          1   -1    0    0  501    0 -0.00000000000E+00 -0.00000000000E+00 -0.60636910809E+03  0.60636910809E+03  0.00000000000E+00 0. -1.
         25    2    1    2    0    0  0.18813955683E+02 -0.38187194385E+02 -0.69501865754E+02  0.14921648877E+03  0.12499129744E+03 0.  0.
          2    1    1    2  501    0  0.50191370707E+01  0.36462087585E+02 -0.49617777096E+03  0.49754100932E+03  0.00000000000E+00 0. -1.
          1    1    1    2  502    0 -0.23833092754E+02  0.17251068000E+01  0.94808529265E+03  0.94838637403E+03  0.00000000000E+00 0. -1.
         22    1    3    3    0    0 -0.44071256465E+02 -0.47829241002E+02 -0.51896076722E+02  0.83205256566E+02  0.00000000000E+00 0. -1.
         22    1    3    3    0    0  0.62885212147E+02  0.96420466163E+01 -0.17605789032E+02  0.66011232205E+02  0.00000000000E+00 0. -1.
</event>
<event>
 7    1  0.5779468E-006  0.7070327E+02  0.7818608E-02  0.1367655E+00
          2   -1    0    0  502    0  0.00000000000E+00  0.00000000000E+00  0.67258349388E+03  0.67258349388E+03  0.00000000000E+00 0. -1.
          1   -1    0    0  501    0 -0.00000000000E+00 -0.00000000000E+00 -0.11947577770E+03  0.11947577770E+03  0.00000000000E+00 0. -1.
         25    2    1    2    0    0  0.71993843486E+02 -0.52526476030E+00  0.48205839874E+02  0.15209242764E+03  0.12499965657E+03 0.  0.
          2    1    1    2  501    0 -0.29052002776E+02  0.58214278847E+02 -0.48979207928E+02  0.81436379685E+02  0.00000000000E+00 0. -1.
          1    1    1    2  502    0 -0.42941840710E+02 -0.57689014086E+02  0.55388108423E+03  0.55853046425E+03  0.00000000000E+00 0. -1.
         22    1    3    3    0    0  0.39222817808E+02  0.30083940977E+02  0.82133453619E+02  0.95861239012E+02  0.00000000000E+00 0. -1.
         22    1    3    3    0    0  0.32771025678E+02 -0.30609205737E+02 -0.33927613744E+02  0.56231188625E+02  0.00000000000E+00 0. -1.
</event>
<event>
 7    1  0.5779468E-006  0.8575102E+02  0.7818608E-02  0.1359207E+00
          2   -1    0    0  502    0  0.00000000000E+00  0.00000000000E+00  0.19968461698E+04  0.19968461698E+04  0.00000000000E+00 0. -1.
          1   -1    0    0  501    0 -0.00000000000E+00 -0.00000000000E+00 -0.23365748132E+03  0.23365748132E+03  0.00000000000E+00 0. -1.
         25    2    1    2    0    0  0.26986687307E+02 -0.15571844259E+02  0.13579590232E+03  0.18718021451E+03  0.12500056797E+03 0.  0.
          2    1    1    2  501    0  0.40580270966E+02 -0.40834621208E+02 -0.20290330555E+03  0.21091224736E+03  0.00000000000E+00 0. -1.
          1    1    1    2  502    0 -0.67566958273E+02  0.56406465468E+02  0.18302960917E+04  0.18324111893E+04  0.00000000000E+00 0. -1.
         22    1    3    3    0    0  0.41328594967E+02  0.48159829314E+02  0.69178630516E+02  0.93878138252E+02  0.00000000000E+00 0.  1.
         22    1    3    3    0    0 -0.14341907660E+02 -0.63731673573E+02  0.66617271807E+02  0.93302076262E+02  0.00000000000E+00 0.  1.
</event>
<event>
 7    1  0.5779468E-006  0.5812980E+02  0.7818608E-02  0.1448116E+00
          2   -1    0    0  502    0  0.00000000000E+00  0.00000000000E+00  0.20318505268E+04  0.20318505268E+04  0.00000000000E+00 0. -1.
          1   -1    0    0  501    0 -0.00000000000E+00 -0.00000000000E+00 -0.20005584571E+04  0.20005584571E+04  0.00000000000E+00 0. -1.
         25    2    1    2    0    0 -0.49851610886E+02 -0.30829494742E+02  0.52407478890E+03  0.54195397440E+03  0.12499634053E+03 0.  0.
          2    1    1    2  501    0  0.15989065435E+02  0.55899823532E+02 -0.19908982888E+04  0.19917470816E+04  0.00000000000E+00 0. -1.
          1    1    1    2  502    0  0.33862545451E+02 -0.25070328790E+02  0.14981155696E+04  0.14987079280E+04  0.00000000000E+00 0. -1.
         22    1    3    3    0    0 -0.77389860211E+02  0.19950311090E+02  0.32355994667E+03  0.33328402972E+03  0.00000000000E+00 0. -1.
         22    1    3    3    0    0  0.27538249325E+02 -0.50779805832E+02  0.20051484223E+03  0.20866994468E+03  0.00000000000E+00 0. -1.
</event>
<event>
 7    1  0.5779468E-006  0.8591051E+02  0.7818608E-02  0.1349518E+00
          2   -1    0    0  502    0  0.00000000000E+00  0.00000000000E+00  0.33062166824E+04  0.33062166824E+04  0.00000000000E+00 0. -1.
          1   -1    0    0  501    0 -0.00000000000E+00 -0.00000000000E+00 -0.54380821914E+03  0.54380821914E+03  0.00000000000E+00 0. -1.
         25    2    1    2    0    0 -0.82804666564E+01 -0.14334755553E+03 -0.18682127025E+02  0.19128570119E+03  0.12499643916E+03 0.  0.
          2    1    1    2  501    0  0.21109430787E+02  0.58699898219E+02 -0.43603505056E+03  0.44047457525E+03  0.00000000000E+00 0. -1.
          1    1    1    2  502    0 -0.12828964131E+02  0.84647657309E+02  0.32171256409E+04  0.32182646251E+04  0.00000000000E+00 0. -1.
         22    1    3    3    0    0 -0.38804936448E+01 -0.14072271030E+03  0.28662666324E+02  0.14366449759E+03  0.00000000000E+00 0. -1.
         22    1    3    3    0    0 -0.43999730116E+01 -0.26248452267E+01 -0.47344793350E+02  0.47621203600E+02  0.00000000000E+00 0. -1.
</event>
<event>
 7    1  0.5779468E-006  0.6338015E+02  0.7818608E-02  0.1423992E+00
          2   -1    0    0  502    0  0.00000000000E+00  0.00000000000E+00  0.60315561453E+03  0.60315561453E+03  0.00000000000E+00 0. -1.
          1   -1    0    0  501    0 -0.00000000000E+00 -0.00000000000E+00 -0.34974567554E+03  0.34974567554E+03  0.00000000000E+00 0. -1.
         25    2    1    2    0    0  0.15396475157E+02 -0.20192541602E+02  0.21354669112E+03  0.24873952109E+03  0.12499747949E+03 0.  0.
          2    1    1    2  501    0  0.14343542551E+02 -0.44047744185E+02 -0.32713492767E+03  0.33039855006E+03  0.00000000000E+00 0. -1.
          1    1    1    2  502    0 -0.29740017708E+02  0.64240285786E+02  0.36699817554E+03  0.37376321892E+03  0.00000000000E+00 0. -1.
         22    1    3    3    0    0  0.41682122663E+02  0.36777529181E+01  0.20875915224E+03  0.21291150476E+03  0.00000000000E+00 0. -1.
         22    1    3    3    0    0 -0.26285647506E+02 -0.23870294520E+02  0.47875388826E+01  0.35828016326E+02  0.00000000000E+00 0. -1.
</event>
<event>
 7    1  0.5779468E-006  0.7628488E+02  0.7818608E-02  0.1499882E+00
          2   -1    0    0  502    0  0.00000000000E+00  0.00000000000E+00  0.14206031545E+04  0.14206031545E+04  0.00000000000E+00 0. -1.
          1   -1    0    0  501    0 -0.00000000000E+00 -0.00000000000E+00 -0.43719360736E+03  0.43719360736E+03  0.00000000000E+00 0. -1.
         25    2    1    2    0    0 -0.11382412922E+02 -0.56798664679E+02  0.54020019182E+02  0.14798363295E+03  0.12500138206E+03 0.  0.
          2    1    1    2  501    0  0.21204126164E+01  0.76976991488E+02 -0.38631803989E+03  0.39391824191E+03  0.00000000000E+00 0. -1.
          1    1    1    2  502    0  0.92620003059E+01 -0.20178326809E+02  0.13157075678E+04  0.13158948870E+04  0.00000000000E+00 0. -1.
         22    1    3    3    0    0 -0.61752869638E+02 -0.14355136663E+01  0.33979846183E+02  0.70498989742E+02  0.00000000000E+00 0. -1.
         22    1    3    3    0    0  0.50370456716E+02 -0.55363151012E+02  0.20040172999E+02  0.77484643211E+02  0.00000000000E+00 0. -1.
</event>
<event>
 7    1  0.5779468E-006  0.1441642E+03  0.7818608E-02  0.1280722E+00
          2   -1    0    0  502    0  0.00000000000E+00  0.00000000000E+00  0.35235126813E+03  0.35235126813E+03  0.00000000000E+00 0. -1.
          1   -1    0    0  501    0 -0.00000000000E+00 -0.00000000000E+00 -0.66693901228E+03  0.66693901228E+03  0.00000000000E+00 0. -1.
         25    2    1    2    0    0  0.12846416278E+03  0.68743893077E+02 -0.22874095440E+03  0.29862551269E+03  0.12500403456E+03 0.  0.
          2    1    1    2  501    0 -0.84292063906E+02 -0.12186196169E+03 -0.38558118645E+03  0.41307183527E+03  0.00000000000E+00 0. -1.
          1    1    1    2  502    0 -0.44172098871E+02  0.53118068615E+02  0.29973439670E+03  0.30759293246E+03  0.00000000000E+00 0. -1.
         22    1    3    3    0    0  0.42436663294E+02 -0.12271755196E+02 -0.35569033722E+01  0.44318370105E+02  0.00000000000E+00 0. -1.
         22    1    3    3    0    0  0.86027499483E+02  0.81015648273E+02 -0.22518405102E+03  0.25430714258E+03  0.00000000000E+00 0. -1.
</event>
<event>
 7    1  0.5779468E-006  0.6462465E+02  0.7818608E-02  0.1388460E+00
          2   -1    0    0  502    0  0.00000000000E+00  0.00000000000E+00  0.19116120857E+04  0.19116120857E+04  0.00000000000E+00 0. -1.
          1   -1    0    0  501    0 -0.00000000000E+00 -0.00000000000E+00 -0.19870959222E+03  0.19870959222E+03  0.00000000000E+00 0. -1.
         25    2    1    2    0    0 -0.55701114819E+02 -0.10190241040E+03  0.15436223820E+03  0.23007812957E+03  0.12498611797E+03 0.  0.
          2    1    1    2  501    0  0.10611930380E+02  0.62253497862E+02 -0.15410679594E+03  0.16654433529E+03  0.00000000000E+00 0. -1.
          1    1    1    2  502    0  0.45089184439E+02  0.39648912541E+02  0.17126470512E+04  0.17136992130E+04  0.00000000000E+00 0. -1.
         22    1    3    3    0    0  0.37521717398E+01 -0.10845122781E+03  0.80945081152E+02  0.13538040393E+03  0.00000000000E+00 0.  1.
         22    1    3    3    0    0 -0.59453286559E+02  0.65488174060E+01  0.73417157048E+02  0.94697725639E+02  0.00000000000E+00 0.  1.
</event>
<event>
 7    1  0.6537628E-006  0.9295370E+02  0.7818608E-02  0.1409438E+00
          2   -1    0    0  502    0  0.00000000000E+00  0.00000000000E+00  0.11332099679E+04  0.11332099679E+04  0.00000000000E+00 0. -1.
          1   -1    0    0  501    0 -0.00000000000E+00 -0.00000000000E+00 -0.96588791168E+03  0.96588791168E+03  0.00000000000E+00 0. -1.
         25    2    1    2    0    0  0.45558385658E+02  0.42972277768E+02 -0.21780052513E+03  0.25881471644E+03  0.12500322211E+03 0.  0.
          2    1    1    2  501    0 -0.68342362108E+02 -0.69994736297E+02 -0.72400921343E+03  0.73058831273E+03  0.00000000000E+00 0. -1.
          1    1    1    2  502    0  0.22783976450E+02  0.27022458529E+02  0.11091317948E+04  0.11096948504E+04  0.00000000000E+00 0. -1.
         22    1    3    3    0    0  0.52830232952E+02  0.47484864013E+02 -0.41422880070E+02  0.82229561700E+02  0.00000000000E+00 0. -1.
         22    1    3    3    0    0 -0.72718472938E+01 -0.45125862443E+01 -0.17637764506E+03  0.17658515474E+03  0.00000000000E+00 0. -1.
</event>
<event>
 7    1  0.5779468E-006  0.5336237E+02  0.7818608E-02  0.1465548E+00
          2   -1    0    0  502    0  0.00000000000E+00  0.00000000000E+00  0.15720809390E+04  0.15720809390E+04  0.00000000000E+00 0. -1.
          1   -1    0    0  501    0 -0.00000000000E+00 -0.00000000000E+00 -0.94564343288E+03  0.94564343288E+03  0.00000000000E+00 0. -1.
         25    2    1    2    0    0  0.94537821224E+01  0.90037584111E+02  0.96788394053E+03  0.98011294562E+03  0.12500369304E+03 0.  0.
          2    1    1    2  501    0 -0.17411010978E+02 -0.50413381866E+02 -0.93808781432E+03  0.93960278828E+03  0.00000000000E+00 0. -1.
          1    1    1    2  502    0  0.79572288557E+01 -0.39624202245E+02  0.59664137994E+03  0.59800863802E+03  0.00000000000E+00 0. -1.
         22    1    3    3    0    0 -0.12029222687E+02  0.21734733080E+02  0.75695240542E+03  0.75735991767E+03  0.00000000000E+00 0.  1.
         22    1    3    3    0    0  0.21483004809E+02  0.68302851031E+02  0.21093153511E+03  0.22275302794E+03  0.00000000000E+00 0.  1.
</event>
<event>
 7    1  0.5779468E-006  0.3808758E+02  0.7818608E-02  0.1529891E+00
          2   -1    0    0  502    0  0.00000000000E+00  0.00000000000E+00  0.74260867880E+03  0.74260867880E+03  0.00000000000E+00 0. -1.
          1   -1    0    0  501    0 -0.00000000000E+00 -0.00000000000E+00 -0.47052593114E+03  0.47052593114E+03  0.00000000000E+00 0. -1.
         25    2    1    2    0    0  0.19643828172E+02  0.32797873557E+02  0.22752581664E+01  0.13073064505E+03  0.12499497694E+03 0.  0.
          2    1    1    2  501    0  0.16648351151E+02 -0.34511745555E+02 -0.40490496657E+03  0.40671397829E+03  0.00000000000E+00 0. -1.
          1    1    1    2  502    0 -0.36292179322E+02  0.17138719983E+01  0.67471245607E+03  0.67568998661E+03  0.00000000000E+00 0. -1.
         22    1    3    3    0    0  0.47526704982E+01 -0.24239932654E+02 -0.47525085549E+02  0.53561142337E+02  0.00000000000E+00 0. -1.
         22    1    3    3    0    0  0.14891157673E+02  0.57037806211E+02  0.49800343716E+02  0.77169502709E+02  0.00000000000E+00 0. -1.
</event>
<event>
 7    1  0.5779468E-006  0.3888700E+02  0.7818608E-02  0.1545140E+00
          2   -1    0    0  502    0  0.00000000000E+00  0.00000000000E+00  0.10365712038E+04  0.10365712038E+04  0.00000000000E+00 0. -1.
          1   -1    0    0  501    0 -0.00000000000E+00 -0.00000000000E+00 -0.24378022788E+03  0.24378022788E+03  0.00000000000E+00 0. -1.
         25    2    1    2    0    0 -0.23747040516E+02  0.10669149281E+02  0.93987142557E+03  0.94850477006E+03  0.12500099815E+03 0.  0.
          2    1    1    2  501    0  0.33349950268E+02  0.20078624342E+02 -0.23500489189E+03  0.23820719878E+03  0.00000000000E+00 0. -1.
          1    1    1    2  502    0 -0.96029097527E+01 -0.30747773623E+02  0.87924442247E+02  0.93639462850E+02  0.00000000000E+00 0. -1.
         22    1    3    3    0    0 -0.30012678720E+02 -0.14477333121E+01  0.48664449476E+02  0.57193403977E+02  0.00000000000E+00 0.  1.
         22    1    3    3    0    0  0.62656382041E+01  0.12116882593E+02  0.89120697610E+03  0.89131136608E+03  0.00000000000E+00 0.  1.
</event>
<event>
 7    1  0.5779468E-006  0.1530819E+03  0.7818608E-02  0.1212498E+00
          2   -1    0    0  502    0  0.00000000000E+00  0.00000000000E+00  0.40470308006E+03  0.40470308006E+03  0.00000000000E+00 0. -1.
          1   -1    0    0  501    0 -0.00000000000E+00 -0.00000000000E+00 -0.47102280969E+03  0.47102280969E+03  0.00000000000E+00 0. -1.
         25    2    1    2    0    0 -0.29925185992E+02 -0.97509613238E+02  0.76471718142E+02  0.17855043149E+03  0.12501476505E+03 0.  0.
          2    1    1    2  501    0  0.88491654854E+02 -0.94098089043E+02 -0.37138309893E+03  0.39320558174E+03  0.00000000000E+00 0. -1.
          1    1    1    2  502    0 -0.58566468863E+02  0.19160770228E+03  0.22859165117E+03  0.30396987652E+03  0.00000000000E+00 0. -1.
         22    1    3    3    0    0 -0.59996466711E+02 -0.74045035162E+02  0.96366213553E+02  0.13553114168E+03  0.00000000000E+00 0.  1.
         22    1    3    3    0    0  0.30071280720E+02 -0.23464578076E+02 -0.19894495411E+02  0.43019289813E+02  0.00000000000E+00 0.  1.
</event>
<event>
 7    1  0.5779468E-006  0.7791200E+02  0.7818608E-02  0.1392261E+00
          2   -1    0    0  502    0  0.00000000000E+00  0.00000000000E+00  0.23792648974E+04  0.23792648974E+04  0.00000000000E+00 0. -1.
          1   -1    0    0  501    0 -0.00000000000E+00 -0.00000000000E+00 -0.75580652660E+02  0.75580652660E+02  0.00000000000E+00 0. -1.
         25    2    1    2    0    0  0.53953573214E+02 -0.87528809476E+02  0.50514668563E+03  0.53044409926E+03  0.12500195153E+03 0.  0.
          2    1    1    2  501    0 -0.68238738376E+01  0.76936563598E+02 -0.38794939613E+02  0.86434063956E+02  0.00000000000E+00 0. -1.
          1    1    1    2  502    0 -0.47129699377E+02  0.10592245879E+02  0.18373324987E+04  0.18379673869E+04  0.00000000000E+00 0. -1.
         22    1    3    3    0    0  0.32399292411E+02 -0.66672293906E+02  0.49224285040E+03  0.49779306212E+03  0.00000000000E+00 0.  1.
         22    1    3    3    0    0  0.21554280803E+02 -0.20856515570E+02  0.12903835226E+02  0.32651037138E+02  0.00000000000E+00 0.  1.
</event>
<event>
 7    1  0.5779468E-006  0.6737985E+02  0.7818608E-02  0.1430557E+00
          2   -1    0    0  502    0  0.00000000000E+00  0.00000000000E+00  0.75266645772E+03  0.75266645772E+03  0.00000000000E+00 0. -1.
          1   -1    0    0  501    0 -0.00000000000E+00 -0.00000000000E+00 -0.10728059186E+04  0.10728059186E+04  0.00000000000E+00 0. -1.
         25    2    1    2    0    0  0.48371213367E+01 -0.31818624413E+02 -0.68125375279E+02  0.14595283558E+03  0.12500136342E+03 0.  0.
          2    1    1    2  501    0 -0.37391005336E+02  0.57478444449E+02 -0.96394608065E+03  0.96638186307E+03  0.00000000000E+00 0. -1.
          1    1    1    2  502    0  0.32553883999E+02 -0.25659820036E+02  0.71193199506E+03  0.71313767767E+03  0.00000000000E+00 0. -1.
         22    1    3    3    0    0  0.56936787277E+01  0.47189142384E+02 -0.11962763815E+02  0.49013680279E+02  0.00000000000E+00 0. -1.
         22    1    3    3    0    0 -0.85655739100E+00 -0.79007766797E+02 -0.56162611464E+02  0.96939155305E+02  0.00000000000E+00 0. -1.
</event>
<event>
 7    1  0.5779468E-006  0.6513772E+02  0.7818608E-02  0.1419631E+00
          2   -1    0    0  502    0  0.00000000000E+00  0.00000000000E+00  0.17308072454E+04  0.17308072454E+04  0.00000000000E+00 0. -1.
          1   -1    0    0  501    0 -0.00000000000E+00 -0.00000000000E+00 -0.15143125270E+04  0.15143125270E+04  0.00000000000E+00 0. -1.
         25    2    1    2    0    0  0.79702888107E+02  0.55988022606E+02  0.37024238614E+02  0.16273459001E+03  0.12499817396E+03 0.  0.
          2    1    1    2  501    0 -0.63814421789E+02 -0.12172297788E+02 -0.14503971242E+04  0.14518513227E+04  0.00000000000E+00 0. -1.
          1    1    1    2  502    0 -0.15888466318E+02 -0.43815724818E+02  0.16298676040E+04  0.16305338597E+04  0.00000000000E+00 0. -1.
         22    1    3    3    0    0 -0.12627772817E+02  0.32209643541E+02 -0.30322726838E+02  0.46004234004E+02  0.00000000000E+00 0.  1.
         22    1    3    3    0    0  0.92330660925E+02  0.23778379065E+02  0.67346965452E+02  0.11673035601E+03  0.00000000000E+00 0.  1.
</event>
<event>
 7    1  0.5779468E-006  0.4797058E+02  0.7818608E-02  0.1571625E+00
          2   -1    0    0  502    0  0.00000000000E+00  0.00000000000E+00  0.50667467698E+03  0.50667467698E+03  0.00000000000E+00 0. -1.
          1   -1    0    0  501    0 -0.00000000000E+00 -0.00000000000E+00 -0.70930071537E+02  0.70930071537E+02  0.00000000000E+00 0. -1.
         25    2    1    2    0    0 -0.33772475779E+02 -0.45949018899E+02  0.28516959010E+03  0.31654341618E+03  0.12500458691E+03 0.  0.
          2    1    1    2  501    0  0.40733045364E+02  0.25006252037E+02 -0.44163567301E+02  0.65076219177E+02  0.00000000000E+00 0. -1.
          1    1    1    2  502    0 -0.69605695849E+01  0.20942766862E+02  0.19473858264E+03  0.19598511317E+03  0.00000000000E+00 0. -1.
         22    1    3    3    0    0 -0.17095599350E+02 -0.53747117492E+01  0.26929644478E+03  0.26989205660E+03  0.00000000000E+00 0.  1.
         22    1    3    3    0    0 -0.16676876429E+02 -0.40574307150E+02  0.15873145323E+02  0.46651359579E+02  0.00000000000E+00 0.  1.
</event>
<event>
 7    1  0.5779468E-006  0.8254687E+02  0.7818608E-02  0.1402504E+00
          2   -1    0    0  502    0  0.00000000000E+00  0.00000000000E+00  0.29949035265E+03  0.29949035265E+03  0.00000000000E+00 0. -1.
          1   -1    0    0  501    0 -0.00000000000E+00 -0.00000000000E+00 -0.42767287331E+03  0.42767287331E+03  0.00000000000E+00 0. -1.
         25    2    1    2    0    0 -0.69479895248E+02  0.11024476273E+02  0.19312787588E+02  0.14473057534E+03  0.12499984301E+03 0.  0.
          2    1    1    2  501    0 -0.10470747566E+02 -0.40702939455E+02 -0.35531671882E+03  0.35779370664E+03  0.00000000000E+00 0. -1.
          1    1    1    2  502    0  0.79950642814E+02  0.29678463183E+02  0.20782141057E+03  0.22463894399E+03  0.00000000000E+00 0. -1.
         22    1    3    3    0    0 -0.85660699784E+02  0.36124069243E+02 -0.20266012309E+02  0.95149435737E+02  0.00000000000E+00 0.  1.
         22    1    3    3    0    0  0.16180804536E+02 -0.25099592970E+02  0.39578799897E+02  0.49581139600E+02  0.00000000000E+00 0.  1.
</event>
<event>
 7    1  0.5779468E-006  0.1464702E+03  0.7818608E-02  0.1211259E+00
          2   -1    0    0  502    0  0.00000000000E+00  0.00000000000E+00  0.22704127796E+03  0.22704127796E+03  0.00000000000E+00 0. -1.
          1   -1    0    0  501    0 -0.00000000000E+00 -0.00000000000E+00 -0.11038203511E+04  0.11038203511E+04  0.00000000000E+00 0. -1.
         25    2    1    2    0    0  0.57873844965E+02 -0.56795647498E+02 -0.18393191230E+03  0.23670870186E+03  0.12499973467E+03 0.  0.
          2    1    1    2  501    0  0.10077504379E+03  0.92505085873E+02 -0.85419118904E+03  0.86507536538E+03  0.00000000000E+00 0. -1.
          1    1    1    2  502    0 -0.15864888876E+03 -0.35709438375E+02  0.16134402820E+03  0.22907756182E+03  0.00000000000E+00 0. -1.
         22    1    3    3    0    0  0.66623322289E+02 -0.61416917020E+02 -0.19901332539E+03  0.21867100505E+03  0.00000000000E+00 0. -1.
         22    1    3    3    0    0 -0.87494773240E+01  0.46212695227E+01  0.15081413085E+02  0.18037696807E+02  0.00000000000E+00 0. -1.
</event>
<event>
 7    1  0.5779468E-006  0.9358612E+02  0.7818608E-02  0.1360779E+00
          2   -1    0    0  502    0  0.00000000000E+00  0.00000000000E+00  0.10205769765E+04  0.10205769765E+04  0.00000000000E+00 0. -1.
          1   -1    0    0  501    0 -0.00000000000E+00 -0.00000000000E+00 -0.17994513035E+04  0.17994513035E+04  0.00000000000E+00 0. -1.
         25    2    1    2    0    0  0.41989405008E+02  0.60349479962E+01  0.22088014961E+02  0.13384186528E+03  0.12500493497E+03 0.  0.
          2    1    1    2  501    0 -0.92906146347E+02 -0.16873156133E+02 -0.17415756864E+04  0.17441336322E+04  0.00000000000E+00 0. -1.
          1    1    1    2  502    0  0.50916741339E+02  0.10838208136E+02  0.94061334440E+03  0.94205278248E+03  0.00000000000E+00 0. -1.
         22    1    3    3    0    0 -0.27974252421E+02  0.43272263611E+02 -0.14144081840E+00  0.51527348099E+02  0.00000000000E+00 0. -1.
         22    1    3    3    0    0  0.69963657430E+02 -0.37237315615E+02  0.22229455779E+02  0.82314517185E+02  0.00000000000E+00 0. -1.
</event>
<event>
 7    1  0.5779468E-006  0.9242236E+02  0.7818608E-02  0.1398098E+00
          2   -1    0    0  502    0  0.00000000000E+00  0.00000000000E+00  0.73884066648E+03  0.73884066648E+03  0.00000000000E+00 0. -1.
          1   -1    0    0  501    0 -0.00000000000E+00 -0.00000000000E+00 -0.11730592745E+04  0.11730592745E+04  0.00000000000E+00 0. -1.
         25    2    1    2    0    0 -0.74825047174E+02  0.71573646003E+02 -0.81030330530E+02  0.18141881441E+03  0.12500118907E+03 0.  0.
          2    1    1    2  501    0  0.38017630940E+02 -0.84064929942E+02 -0.10392409055E+04  0.10433282860E+04  0.00000000000E+00 0. -1.
          1    1    1    2  502    0  0.36807416234E+02  0.12491283939E+02  0.68605262795E+03  0.68715284063E+03  0.00000000000E+00 0. -1.
         22    1    3    3    0    0 -0.36634630212E+02  0.39941757398E+02  0.28464456870E+02  0.61218178834E+02  0.00000000000E+00 0.  1.
         22    1    3    3    0    0 -0.38190416962E+02  0.31631888605E+02 -0.10949478740E+03  0.12020063557E+03  0.00000000000E+00 0.  1.
</event>
<event>
 7    1  0.5779468E-006  0.1408550E+03  0.7818608E-02  0.1265474E+00
          2   -1    0    0  502    0  0.00000000000E+00  0.00000000000E+00  0.40189367728E+04  0.40189367728E+04  0.00000000000E+00 0. -1.
          1   -1    0    0  501    0 -0.00000000000E+00 -0.00000000000E+00 -0.48334628062E+03  0.48334628062E+03  0.00000000000E+00 0. -1.
         25    2    1    2    0    0 -0.17808765807E+02 -0.17700595144E+03 -0.85868767930E+02  0.23376654196E+03  0.12500036740E+03 0.  0.
          2    1    1    2  501    0 -0.47706246582E+02  0.12789079852E+03 -0.30868574495E+03  0.33751863866E+03  0.00000000000E+00 0. -1.
          1    1    1    2  502    0  0.65515012389E+02  0.49115152923E+02  0.39301450051E+04  0.39309978728E+04  0.00000000000E+00 0. -1.
         22    1    3    3    0    0  0.32188837410E+02 -0.39889013346E+02  0.18334127905E+02  0.54437072713E+02  0.00000000000E+00 0.  1.
         22    1    3    3    0    0 -0.49997603217E+02 -0.13711693810E+03 -0.10420289583E+03  0.17932946925E+03  0.00000000000E+00 0.  1.
</event>
<event>
 7    1  0.5779468E-006  0.6994123E+02  0.7818608E-02  0.1428127E+00
          2   -1    0    0  502    0  0.00000000000E+00  0.00000000000E+00  0.41060977114E+03  0.41060977114E+03  0.00000000000E+00 0. -1.
          1   -1    0    0  501    0 -0.00000000000E+00 -0.00000000000E+00 -0.55444338154E+03  0.55444338154E+03  0.00000000000E+00 0. -1.
         25    2    1    2    0    0 -0.35230780374E+02 -0.90144698613E+02  0.11076253532E+03  0.19302863884E+03  0.12499776642E+03 0.  0.
          2    1    1    2  501    0 -0.95879095492E+01  0.39529721096E+02 -0.50806694065E+03  0.50969259661E+03  0.00000000000E+00 0. -1.
          1    1    1    2  502    0  0.44818689923E+02  0.50614977517E+02  0.25347079493E+03  0.26233191723E+03  0.00000000000E+00 0. -1.
         22    1    3    3    0    0 -0.56923481859E+01  0.14536699863E+02  0.77834366716E+02  0.79384552105E+02  0.00000000000E+00 0. -1.
         22    1    3    3    0    0 -0.29538432188E+02 -0.10468139848E+03  0.32928168608E+02  0.11364408674E+03  0.00000000000E+00 0. -1.
</event>
<event>
 7    1  0.5779468E-006  0.1621700E+03  0.7818608E-02  0.1205723E+00
          2   -1    0    0  502    0  0.00000000000E+00  0.00000000000E+00  0.18571134114E+03  0.18571134114E+03  0.00000000000E+00 0. -1.
          1   -1    0    0  501    0 -0.00000000000E+00 -0.00000000000E+00 -0.77921479461E+03  0.77921479461E+03  0.00000000000E+00 0. -1.
         25    2    1    2    0    0 -0.14314232753E+03  0.12321465514E+03 -0.37746882572E+03  0.44020260400E+03  0.12499616395E+03 0.  0.
          2    1    1    2  501    0  0.16425611607E+03  0.61670560754E+01 -0.31844885143E+03  0.35836821179E+03  0.00000000000E+00 0. -1.
          1    1    1    2  502    0 -0.21113788538E+02 -0.12938171122E+03  0.10241422368E+03  0.16635531995E+03  0.00000000000E+00 0. -1.
         22    1    3    3    0    0 -0.11824688222E+03  0.13518122209E+03 -0.23875063110E+03  0.29876102793E+03  0.00000000000E+00 0. -1.
         22    1    3    3    0    0 -0.24895445306E+02 -0.11966566942E+02 -0.13871819462E+03  0.14144157607E+03  0.00000000000E+00 0. -1.
</event>
<event>
 7    1  0.5779468E-006  0.1131935E+03  0.7818608E-02  0.1420583E+00
          2   -1    0    0  502    0  0.00000000000E+00  0.00000000000E+00  0.13704103072E+02  0.13704103072E+02  0.00000000000E+00 0. -1.
          1   -1    0    0  501    0 -0.00000000000E+00 -0.00000000000E+00 -0.32893221072E+04  0.32893221072E+04  0.00000000000E+00 0. -1.
         25    2    1    2    0    0  0.35485540984E+02  0.10879275157E+03 -0.17861081758E+04  0.17941297012E+04  0.12499553038E+03 0.  0.
          2    1    1    2  501    0  0.23751887685E+02 -0.12030674120E+02 -0.11617635946E+04  0.11620686464E+04  0.00000000000E+00 0. -1.
          1    1    1    2  502    0 -0.59237428669E+02 -0.96762077454E+02 -0.32774623380E+03  0.34682786272E+03  0.00000000000E+00 0. -1.
         22    1    3    3    0    0 -0.42609141179E+02  0.25452650938E+02 -0.35216220344E+03  0.35564250854E+03  0.00000000000E+00 0. -1.
         22    1    3    3    0    0  0.78094682163E+02  0.83340100635E+02 -0.14339459723E+04  0.14384871926E+04  0.00000000000E+00 0. -1.
</event>
<event>
 7    1  0.5779468E-006  0.6761310E+02  0.7818608E-02  0.1429520E+00
          2   -1    0    0  502    0  0.00000000000E+00  0.00000000000E+00  0.14811676616E+04  0.14811676616E+04  0.00000000000E+00 0. -1.
          1   -1    0    0  501    0 -0.00000000000E+00 -0.00000000000E+00 -0.67595597593E+02  0.67595597593E+02  0.00000000000E+00 0. -1.
         25    2    1    2    0    0  0.13102724212E+02  0.10560448092E+03  0.39192913030E+03  0.42492022889E+03  0.12499907989E+03 0.  0.
          2    1    1    2  501    0 -0.11546598947E+00 -0.41633776438E+02 -0.41449179749E+02  0.58748780198E+02  0.00000000000E+00 0. -1.
          1    1    1    2  502    0 -0.12987258223E+02 -0.63970704481E+02  0.10630921134E+04  0.10650942501E+04  0.00000000000E+00 0. -1.
         22    1    3    3    0    0 -0.25489908045E+02  0.76661697043E+02  0.35524802199E+03  0.36431841613E+03  0.00000000000E+00 0. -1.
         22    1    3    3    0    0  0.38592632258E+02  0.28942783876E+02  0.36681108309E+02  0.60601812760E+02  0.00000000000E+00 0. -1.
</event>
<event>
 7    1  0.5779468E-006  0.6213895E+02  0.7818608E-02  0.1531429E+00
          2   -1    0    0  502    0  0.00000000000E+00  0.00000000000E+00  0.17803453705E+04  0.17803453705E+04  0.00000000000E+00 0. -1.
          1   -1    0    0  501    0 -0.00000000000E+00 -0.00000000000E+00 -0.20591504579E+03  0.20591504579E+03  0.00000000000E+00 0. -1.
         25    2    1    2    0    0 -0.33147457937E+01 -0.40746525923E+02 -0.56531807659E+02  0.14315066105E+03  0.12499999827E+03 0.  0.
          2    1    1    2  501    0 -0.83156092162E+01 -0.20416623599E+02 -0.10436410619E+03  0.10666702648E+03  0.00000000000E+00 0. -1.
          1    1    1    2  502    0  0.11630355010E+02  0.61163149522E+02  0.17353262385E+04  0.17364427287E+04  0.00000000000E+00 0. -1.
         22    1    3    3    0    0  0.34647546486E+02 -0.66146457124E+02 -0.62122305598E+02  0.97133861863E+02  0.00000000000E+00 0. -1.
         22    1    3    3    0    0 -0.37962292280E+02  0.25399931201E+02  0.55904979388E+01  0.46016799187E+02  0.00000000000E+00 0. -1.
</event>
<event>
 7    1  0.5779468E-006  0.6696110E+02  0.7818608E-02  0.1483850E+00
          2   -1    0    0  502    0  0.00000000000E+00  0.00000000000E+00  0.29109015482E+04  0.29109015482E+04  0.00000000000E+00 0. -1.
          1   -1    0    0  501    0 -0.00000000000E+00 -0.00000000000E+00 -0.49504251355E+03  0.49504251355E+03  0.00000000000E+00 0. -1.
         25    2    1    2    0    0  0.30679696142E+01 -0.92115086825E+02  0.31798708117E+03  0.35388074088E+03  0.12498477233E+03 0.  0.
          2    1    1    2  501    0 -0.10700146089E+02  0.26171739372E+02 -0.47624847379E+03  0.47708705899E+03  0.00000000000E+00 0. -1.
          1    1    1    2  502    0  0.76321764746E+01  0.65943347453E+02  0.25741204272E+04  0.25749762618E+04  0.00000000000E+00 0. -1.
         22    1    3    3    0    0  0.47805662064E+02 -0.66371525533E+01  0.17392358807E+03  0.18049611522E+03  0.00000000000E+00 0.  1.
         22    1    3    3    0    0 -0.44737692450E+02 -0.85477934271E+02  0.14406349309E+03  0.17338462566E+03  0.00000000000E+00 0.  1.
</event>
<event>
 7    1  0.5779468E-006  0.8553730E+02  0.7818608E-02  0.1354309E+00
          2   -1    0    0  502    0  0.00000000000E+00  0.00000000000E+00  0.18060885645E+04  0.18060885645E+04  0.00000000000E+00 0. -1.
          1   -1    0    0  501    0 -0.00000000000E+00 -0.00000000000E+00 -0.18355204987E+03  0.18355204987E+03  0.00000000000E+00 0. -1.
         25    2    1    2    0    0 -0.43577593414E+02 -0.64919089109E+02  0.82474929313E+02  0.16893889704E+03  0.12499896876E+03 0.  0.
          2    1    1    2  501    0  0.56608620784E+02 -0.20335720220E+02 -0.13271159133E+03  0.14570670519E+03  0.00000000000E+00 0. -1.
          1    1    1    2  502    0 -0.13031027370E+02  0.85254809329E+02  0.16727731767E+04  0.16749950122E+04  0.00000000000E+00 0. -1.
         22    1    3    3    0    0 -0.10986665067E+02 -0.70788192051E+02 -0.84868873917E+01  0.72136691086E+02  0.00000000000E+00 0.  1.
         22    1    3    3    0    0 -0.32590928347E+02  0.58691029427E+01  0.90961816705E+02  0.96802205957E+02  0.00000000000E+00 0.  1.
</event>
<event>
 7    1  0.5779468E-006  0.1560136E+03  0.7818608E-02  0.1301680E+00
          2   -1    0    0  502    0  0.00000000000E+00  0.00000000000E+00  0.17369982803E+04  0.17369982803E+04  0.00000000000E+00 0. -1.
          1   -1    0    0  501    0 -0.00000000000E+00 -0.00000000000E+00 -0.69301977000E+03  0.69301977000E+03  0.00000000000E+00 0. -1.
         25    2    1    2    0    0  0.59910268792E+02 -0.12645213005E+03 -0.22194845666E+03  0.29062974507E+03  0.12500059923E+03 0.  0.
          2    1    1    2  501    0 -0.11216984037E+03  0.12164125404E+03 -0.42063533679E+03  0.45200968389E+03  0.00000000000E+00 0. -1.
          1    1    1    2  502    0  0.52259571580E+02  0.48108760067E+01  0.16865623037E+04  0.16873786213E+04  0.00000000000E+00 0. -1.
         22    1    3    3    0    0  0.76688388760E+02 -0.23782732242E+02 -0.12412035873E+03  0.14782621816E+03  0.00000000000E+00 0. -1.
         22    1    3    3    0    0 -0.16778119969E+02 -0.10266939780E+03 -0.97828097934E+02  0.14280352692E+03  0.00000000000E+00 0. -1.
</event>
<event>
 7    1  0.5779468E-006  0.6399378E+02  0.7818608E-02  0.1443157E+00
          2   -1    0    0  502    0  0.00000000000E+00  0.00000000000E+00  0.38071192825E+03  0.38071192825E+03  0.00000000000E+00 0. -1.
          1   -1    0    0  501    0 -0.00000000000E+00 -0.00000000000E+00 -0.10214178987E+03  0.10214178987E+03  0.00000000000E+00 0. -1.
         25    2    1    2    0    0 -0.43058760997E+02  0.99218340777E+01  0.80335200107E+02  0.15502000174E+03  0.12499982749E+03 0.  0.
          2    1    1    2  501    0  0.63791295356E+02  0.23940874832E+02 -0.44820861853E+02  0.81556143289E+02  0.00000000000E+00 0. -1.
          1    1    1    2  502    0 -0.20732534359E+02 -0.33862708909E+02  0.24305580012E+03  0.24627757309E+03  0.00000000000E+00 0. -1.
         22    1    3    3    0    0  0.33023164069E+02 -0.23655263834E+02  0.18391328167E+01  0.40663045652E+02  0.00000000000E+00 0.  1.
         22    1    3    3    0    0 -0.76081925066E+02  0.33577097912E+02  0.78496067290E+02  0.11435695609E+03  0.00000000000E+00 0.  1.
</event>
<event>
 7    1  0.5779468E-006  0.8573884E+02  0.7818608E-02  0.1446786E+00
          2   -1    0    0  502    0  0.00000000000E+00  0.00000000000E+00  0.11726550714E+04  0.11726550714E+04  0.00000000000E+00 0. -1.
          1   -1    0    0  501    0 -0.00000000000E+00 -0.00000000000E+00 -0.17395553504E+03  0.17395553504E+03  0.00000000000E+00 0. -1.
         25    2    1    2    0    0 -0.78948585171E+02 -0.77758970429E+02  0.92056168938E+02  0.19073196646E+03  0.12500003284E+03 0.  0.
          2    1    1    2  501    0  0.64392615232E+02  0.52852647574E+02 -0.11046803277E+03  0.13835822172E+03  0.00000000000E+00 0. -1.
          1    1    1    2  502    0  0.14555969938E+02  0.24906322854E+02  0.10171114002E+04  0.10175204183E+04  0.00000000000E+00 0. -1.
         22    1    3    3    0    0 -0.53834101572E+02 -0.11189614324E+03  0.74882576744E+02  0.14500433671E+03  0.00000000000E+00 0.  1.
         22    1    3    3    0    0 -0.25114483599E+02  0.34137172814E+02  0.17173592194E+02  0.45727629755E+02  0.00000000000E+00 0.  1.
</event>
<event>
 7    1  0.5779468E-006  0.2008982E+03  0.7818608E-02  0.1264544E+00
          2   -1    0    0  502    0  0.00000000000E+00  0.00000000000E+00  0.21092465574E+04  0.21092465574E+04  0.00000000000E+00 0. -1.
          1   -1    0    0  501    0 -0.00000000000E+00 -0.00000000000E+00 -0.84097762411E+03  0.84097762411E+03  0.00000000000E+00 0. -1.
         25    2    1    2    0    0 -0.16515816420E+03  0.10664235992E+03 -0.60082457284E+02  0.24059041897E+03  0.12499614352E+03 0.  0.
          2    1    1    2  501    0  0.19466130819E+03 -0.56785916952E+02 -0.67532962990E+03  0.70511543331E+03  0.00000000000E+00 0. -1.
          1    1    1    2  502    0 -0.29503143989E+02 -0.49856442965E+02  0.20036810205E+04  0.20045183292E+04  0.00000000000E+00 0. -1.
         22    1    3    3    0    0 -0.17612216852E+03  0.61919580083E+02 -0.43892824274E+02  0.19178016755E+03  0.00000000000E+00 0.  1.
         22    1    3    3    0    0  0.10964004320E+02  0.44722779833E+02 -0.16189633010E+02  0.48810251420E+02  0.00000000000E+00 0.  1.
</event>
<event>
 7    1  0.5779468E-006  0.7332790E+02  0.7818608E-02  0.1408777E+00
          2   -1    0    0  502    0  0.00000000000E+00  0.00000000000E+00  0.48179903827E+03  0.48179903827E+03  0.00000000000E+00 0. -1.
          1   -1    0    0  501    0 -0.00000000000E+00 -0.00000000000E+00 -0.32701430291E+03  0.32701430291E+03  0.00000000000E+00 0. -1.
         25    2    1    2    0    0  0.38698198704E+02 -0.16960585691E+02  0.12751883707E+03  0.18349907021E+03  0.12500257161E+03 0.  0.
          2    1    1    2  501    0 -0.73551955589E+02 -0.11563394740E+02 -0.29278822127E+03  0.30210684333E+03  0.00000000000E+00 0. -1.
          1    1    1    2  502    0  0.34853756885E+02  0.28523980432E+02  0.32005411957E+03  0.32320742764E+03  0.00000000000E+00 0. -1.
         22    1    3    3    0    0 -0.44971086781E+02 -0.15163423292E+02  0.36641598974E+02  0.59957775372E+02  0.00000000000E+00 0.  1.
         22    1    3    3    0    0  0.83669285485E+02 -0.17971623993E+01  0.90877238098E+02  0.12354129484E+03  0.00000000000E+00 0.  1.
</event>
<event>
 7    1  0.5779468E-006  0.1323252E+03  0.7818608E-02  0.1324373E+00
          2   -1    0    0  502    0  0.00000000000E+00  0.00000000000E+00  0.20916575293E+03  0.20916575293E+03  0.00000000000E+00 0. -1.
          1   -1    0    0  501    0 -0.00000000000E+00 -0.00000000000E+00 -0.21029988555E+04  0.21029988555E+04  0.00000000000E+00 0. -1.
         25    2    1    2    0    0  0.12560776051E+03  0.42647428504E+02 -0.97732370024E+02  0.20680616011E+03  0.12498423521E+03 0.  0.
          2    1    1    2  501    0  0.79937165620E+01 -0.49770288508E+02 -0.19213966213E+04  0.19220577404E+04  0.00000000000E+00 0. -1.
          1    1    1    2  502    0 -0.13360147707E+03  0.71228600038E+01  0.12529588871E+03  0.18330070796E+03  0.00000000000E+00 0. -1.
         22    1    3    3    0    0  0.85018508749E+02  0.85791726806E+02 -0.80368895652E+02  0.14507765716E+03  0.00000000000E+00 0. -1.
         22    1    3    3    0    0  0.40589251761E+02 -0.43144298302E+02 -0.17363474371E+02  0.61728502952E+02  0.00000000000E+00 0. -1.
</event>
<event>
 7    1  0.5779468E-006  0.1021516E+03  0.7818608E-02  0.1321133E+00
          2   -1    0    0  502    0  0.00000000000E+00  0.00000000000E+00  0.73736935005E+03  0.73736935005E+03  0.00000000000E+00 0. -1.
          1   -1    0    0  501    0 -0.00000000000E+00 -0.00000000000E+00 -0.11173527181E+03  0.11173527181E+03  0.00000000000E+00 0. -1.
         25    2    1    2    0    0  0.48723681782E+02  0.85867822924E+01  0.17009579754E+03  0.21680643874E+03  0.12499888618E+03 0.  0.
          2    1    1    2  501    0  0.65334091495E+02  0.15755514115E+02 -0.68189337959E+02  0.95742182698E+02  0.00000000000E+00 0. -1.
          1    1    1    2  502    0 -0.11405777328E+03 -0.24342296407E+02  0.52372761866E+03  0.53655600042E+03  0.00000000000E+00 0. -1.
         22    1    3    3    0    0 -0.15483895352E+02  0.53146116380E+02  0.58223324164E+02  0.80338136513E+02  0.00000000000E+00 0.  1.
         22    1    3    3    0    0  0.64207577135E+02 -0.44559334088E+02  0.11187247337E+03  0.13646830223E+03  0.00000000000E+00 0.  1.
</event>
<event>
 7    1  0.5779468E-006  0.7514872E+02  0.7818608E-02  0.1377808E+00
          2   -1    0    0  502    0  0.00000000000E+00  0.00000000000E+00  0.12204645102E+04  0.12204645102E+04  0.00000000000E+00 0. -1.
          1   -1    0    0  501    0 -0.00000000000E+00 -0.00000000000E+00 -0.13098238521E+04  0.13098238521E+04  0.00000000000E+00 0. -1.
         25    2    1    2    0    0  0.43680494385E+02  0.26338558476E+02  0.59481159935E+03  0.60994034954E+03  0.12499874409E+03 0.  0.
          2    1    1    2  501    0 -0.13671475596E+02 -0.73970462404E+02 -0.12998879415E+04  0.13020626709E+04  0.00000000000E+00 0. -1.
          1    1    1    2  502    0 -0.30009018789E+02  0.47631903928E+02  0.61571700026E+03  0.61828534180E+03  0.00000000000E+00 0. -1.
         22    1    3    3    0    0  0.77047884058E+02  0.39714354973E+02  0.28071612494E+03  0.29379439959E+03  0.00000000000E+00 0.  1.
         22    1    3    3    0    0 -0.33367389673E+02 -0.13375796497E+02  0.31409547441E+03  0.31614594995E+03  0.00000000000E+00 0.  1.
</event>
<event>
 7    1  0.5779468E-006  0.8017850E+02  0.7818608E-02  0.1329315E+00
          2   -1    0    0  502    0  0.00000000000E+00  0.00000000000E+00  0.11102067514E+04  0.11102067514E+04  0.00000000000E+00 0. -1.
          1   -1    0    0  501    0 -0.00000000000E+00 -0.00000000000E+00 -0.15462561720E+03  0.15462561720E+03  0.00000000000E+00 0. -1.
         25    2    1    2    0    0  0.66459460935E+02 -0.66075556413E+02  0.10203018517E+03  0.18659764331E+03  0.12500273077E+03 0.  0.
          2    1    1    2  501    0  0.13058180371E+02  0.79108004200E+02 -0.96109194747E+02  0.12516217367E+03  0.00000000000E+00 0. -1.
          1    1    1    2  502    0 -0.79517641306E+02 -0.13032447787E+02  0.94966014382E+03  0.95307255166E+03  0.00000000000E+00 0. -1.
         22    1    3    3    0    0  0.34102909688E+02 -0.94545191854E+02  0.10241945603E+03  0.14349754954E+03  0.00000000000E+00 0. -1.
         22    1    3    3    0    0  0.32356551247E+02  0.28469635441E+02 -0.38927086174E+00  0.43100093765E+02  0.00000000000E+00 0. -1.
</event>
<event>
 7    1  0.5779468E-006  0.1325380E+03  0.7818608E-02  0.1256031E+00
          2   -1    0    0  502    0  0.00000000000E+00  0.00000000000E+00  0.64800211190E+03  0.64800211190E+03  0.00000000000E+00 0. -1.
          1   -1    0    0  501    0 -0.00000000000E+00 -0.00000000000E+00 -0.97375503104E+03  0.97375503104E+03  0.00000000000E+00 0. -1.
         25    2    1    2    0    0  0.16366348757E+01  0.22318949350E+03 -0.68254111551E+02  0.26476500887E+03  0.12500263036E+03 0.  0.
          2    1    1    2  501    0  0.27240550131E+01 -0.12781845228E+03 -0.79797348444E+03  0.80815014638E+03  0.00000000000E+00 0. -1.
          1    1    1    2  502    0 -0.43606898888E+01 -0.95371041227E+02  0.54047467685E+03  0.54884198768E+03  0.00000000000E+00 0. -1.
         22    1    3    3    0    0 -0.61100025652E+02  0.12749049408E+03 -0.38928882081E+02  0.14663729769E+03  0.00000000000E+00 0. -1.
         22    1    3    3    0    0  0.62736660527E+02  0.95698999429E+02 -0.29325229471E+02  0.11812771118E+03  0.00000000000E+00 0. -1.
</event>
<event>
 7    1  0.5779468E-006  0.6437667E+02  0.7818608E-02  0.1414173E+00
          2   -1    0    0  502    0  0.00000000000E+00  0.00000000000E+00  0.24252401634E+02  0.24252401634E+02  0.00000000000E+00 0. -1.
          1   -1    0    0  501    0 -0.00000000000E+00 -0.00000000000E+00 -0.21030773449E+04  0.21030773449E+04  0.00000000000E+00 0. -1.
         25    2    1    2    0    0  0.17105813338E+02  0.24599096728E+02 -0.10282283045E+04  0.10362318580E+04  0.12500117183E+03 0.  0.
          2    1    1    2  501    0 -0.60499425548E+02 -0.47763681150E+02 -0.10372768493E+04  0.10401369197E+04  0.00000000000E+00 0. -1.
          1    1    1    2  502    0  0.43393612210E+02  0.23164584422E+02 -0.13319789524E+02  0.50960968840E+02  0.00000000000E+00 0. -1.
         22    1    3    3    0    0 -0.34603332344E+02  0.18347502415E+02 -0.84049384687E+03  0.84140592349E+03  0.00000000000E+00 0.  1.
         22    1    3    3    0    0  0.51709145682E+02  0.62515943124E+01 -0.18773445761E+03  0.19482593450E+03  0.00000000000E+00 0.  1.
</event>
<event>
 7    1  0.5779468E-006  0.1320531E+03  0.7818608E-02  0.1258775E+00
          2   -1    0    0  502    0  0.00000000000E+00  0.00000000000E+00  0.76335256857E+03  0.76335256857E+03  0.00000000000E+00 0. -1.
          1   -1    0    0  501    0 -0.00000000000E+00 -0.00000000000E+00 -0.26667171892E+03  0.26667171892E+03  0.00000000000E+00 0. -1.
         25    2    1    2    0    0  0.31616196205E+02 -0.14111116475E+03 -0.42386016957E+01  0.19119286465E+03  0.12499920428E+03 0.  0.
          2    1    1    2  501    0 -0.10591240348E+03  0.84739718815E+02 -0.13778929062E+03  0.19334980157E+03  0.00000000000E+00 0. -1.
          1    1    1    2  502    0  0.74296207276E+02  0.56371445932E+02  0.63870874197E+03  0.64548162127E+03  0.00000000000E+00 0. -1.
         22    1    3    3    0    0  0.30134997666E+02 -0.11730607570E+03  0.50701256983E+02  0.13129908964E+03  0.00000000000E+00 0.  1.
         22    1    3    3    0    0  0.14811985387E+01 -0.23805089046E+02 -0.54939858679E+02  0.59893775013E+02  0.00000000000E+00 0.  1.
</event>
<event>
 7    1  0.5779468E-006  0.5087669E+02  0.7818608E-02  0.1509091E+00
          2   -1    0    0  502    0  0.00000000000E+00  0.00000000000E+00  0.67457797571E+03  0.67457797571E+03  0.00000000000E+00 0. -1.
          1   -1    0    0  501    0 -0.00000000000E+00 -0.00000000000E+00 -0.35848532504E+02  0.35848532504E+02  0.00000000000E+00 0. -1.
         25    2    1    2    0    0 -0.24554788436E+02  0.48187326280E+01  0.22070349772E+03  0.25487471549E+03  0.12499971549E+03 0.  0.
          2    1    1    2  501    0  0.51760404803E+02 -0.20217444993E+02  0.24405557623E+02  0.60691975007E+02  0.00000000000E+00 0. -1.
          1    1    1    2  502    0 -0.27205616366E+02  0.15398712365E+02  0.39362038786E+03  0.39485981771E+03  0.00000000000E+00 0. -1.
         22    1    3    3    0    0 -0.50078020127E+02 -0.80844813369E+01  0.22051542119E+03  0.22627465152E+03  0.00000000000E+00 0. -1.
         22    1    3    3    0    0  0.25523231691E+02  0.12903213965E+02  0.18807653469E+00  0.28600063975E+02  0.00000000000E+00 0. -1.
</event>
<event>
 7    1  0.5779468E-006  0.1432364E+03  0.7818608E-02  0.1286133E+00
          2   -1    0    0  502    0  0.00000000000E+00  0.00000000000E+00  0.21275762473E+04  0.21275762473E+04  0.00000000000E+00 0. -1.
          1   -1    0    0  501    0 -0.00000000000E+00 -0.00000000000E+00 -0.18478586031E+03  0.18478586031E+03  0.00000000000E+00 0. -1.
         25    2    1    2    0    0 -0.95325433120E+01  0.87500747925E+02  0.22325798197E+03  0.27058620344E+03  0.12500206683E+03 0.  0.
          2    1    1    2  501    0  0.40509985343E+02 -0.14584923788E+03 -0.12484702599E+03  0.19621375844E+03  0.00000000000E+00 0. -1.
          1    1    1    2  502    0 -0.30977442032E+02  0.58348489952E+02  0.18443794310E+04  0.18455621457E+04  0.00000000000E+00 0. -1.
         22    1    3    3    0    0  0.51746970537E+02  0.54643696047E+02  0.15898920553E+03  0.17590125057E+03  0.00000000000E+00 0.  1.
         22    1    3    3    0    0 -0.61279513849E+02  0.32857051878E+02  0.64268776434E+02  0.94684952870E+02  0.00000000000E+00 0.  1.
</event>
<event>
 7    1  0.7585638E-006  0.6100043E+02  0.7818608E-02  0.1424795E+00
          2   -1    0    0  502    0  0.00000000000E+00  0.00000000000E+00  0.14422938018E+04  0.14422938018E+04  0.00000000000E+00 0. -1.
          1   -1    0    0  501    0 -0.00000000000E+00 -0.00000000000E+00 -0.51901905337E+03  0.51901905337E+03  0.00000000000E+00 0. -1.
         25    2    1    2    0    0  0.10795133638E+02 -0.43728101978E+02 -0.21328250326E+03  0.25127787603E+03  0.12498985147E+03 0.  0.
          2    1    1    2  501    0 -0.47568787044E+02 -0.50569720311E+01 -0.28408262973E+03  0.28808211153E+03  0.00000000000E+00 0. -1.
          1    1    1    2  502    0  0.36773653406E+02  0.48785074009E+02  0.14206398814E+04  0.14219528676E+04  0.00000000000E+00 0. -1.
         22    1    3    3    0    0  0.29266168594E+02 -0.45003890769E+02 -0.20274618539E+02  0.57383960873E+02  0.00000000000E+00 0.  1.
         22    1    3    3    0    0 -0.18471034957E+02  0.12757887912E+01 -0.19300788472E+03  0.19389391515E+03  0.00000000000E+00 0.  1.
</event>
<event>
 7    1  0.5779468E-006  0.7292144E+02  0.7818608E-02  0.1364055E+00
          2   -1    0    0  502    0  0.00000000000E+00  0.00000000000E+00  0.74267233608E+02  0.74267233608E+02  0.00000000000E+00 0. -1.
          1   -1    0    0  501    0 -0.00000000000E+00 -0.00000000000E+00 -0.60847484043E+03  0.60847484043E+03  0.00000000000E+00 0. -1.
         25    2    1    2    0    0  0.25388787785E+02  0.15107170254E+02 -0.27035027213E+03  0.29931139945E+03  0.12500090824E+03 0.  0.
          2    1    1    2  501    0 -0.33431663278E+01 -0.84616355433E+02 -0.29293204638E+03  0.30492669309E+03  0.00000000000E+00 0. -1.
          1    1    1    2  502    0 -0.22045621457E+02  0.69509185179E+02  0.29074711690E+02  0.78503981488E+02  0.00000000000E+00 0. -1.
         22    1    3    3    0    0  0.40840023697E+02  0.46931773538E+02 -0.61478621432E+02  0.87464963250E+02  0.00000000000E+00 0. -1.
         22    1    3    3    0    0 -0.15451235913E+02 -0.31824603284E+02 -0.20887165070E+03  0.21184643620E+03  0.00000000000E+00 0. -1.
</event>
<event>
 7    1  0.5779468E-006  0.1090930E+03  0.7818608E-02  0.1266471E+00
          2   -1    0    0  502    0  0.00000000000E+00  0.00000000000E+00  0.15987320951E+03  0.15987320951E+03  0.00000000000E+00 0. -1.
          1   -1    0    0  501    0 -0.00000000000E+00 -0.00000000000E+00 -0.99620189893E+03  0.99620189893E+03  0.00000000000E+00 0. -1.
         25    2    1    2    0    0 -0.41598836878E+02 -0.31520318370E+02 -0.20506967746E+03  0.24577071664E+03  0.12500271536E+03 0.  0.
          2    1    1    2  501    0  0.12590917464E+03 -0.30558275905E+02 -0.74472620074E+03  0.75591272152E+03  0.00000000000E+00 0. -1.
          1    1    1    2  502    0 -0.84310337758E+02  0.62078594275E+02  0.11346718878E+03  0.15439167027E+03  0.00000000000E+00 0. -1.
         22    1    3    3    0    0 -0.58331596093E+02 -0.10360002425E+02 -0.21013123438E+03  0.21832324754E+03  0.00000000000E+00 0. -1.
         22    1    3    3    0    0  0.16732759216E+02 -0.21160315945E+02  0.50615569212E+01  0.27447469106E+02  0.00000000000E+00 0. -1.
</event>
<event>
 7    1  0.5779468E-006  0.3595347E+02  0.7818608E-02  0.1560960E+00
          2   -1    0    0  502    0  0.00000000000E+00  0.00000000000E+00  0.19048199527E+03  0.19048199527E+03  0.00000000000E+00 0. -1.
          1   -1    0    0  501    0 -0.00000000000E+00 -0.00000000000E+00 -0.54212390900E+03  0.54212390900E+03  0.00000000000E+00 0. -1.
         25    2    1    2    0    0  0.13320537265E+02  0.44422157894E+01  0.61372778437E+02  0.13994459817E+03  0.12498280934E+03 0.  0.
          2    1    1    2  501    0  0.14339157246E+01  0.31454769517E+02 -0.49812520723E+03  0.49911940527E+03  0.00000000000E+00 0. -1.
          1    1    1    2  502    0 -0.14754452990E+02 -0.35896985306E+02  0.85110515057E+02  0.93541900827E+02  0.00000000000E+00 0. -1.
         22    1    3    3    0    0  0.67366742203E+02  0.53743360725E+01  0.51567920184E+02  0.85008304508E+02  0.00000000000E+00 0. -1.
         22    1    3    3    0    0 -0.54046204938E+02 -0.93212028304E+00  0.98048582536E+01  0.54936293666E+02  0.00000000000E+00 0. -1.
</event>
<event>
 7    1  0.5779468E-006  0.1129319E+03  0.7818608E-02  0.1274413E+00
          2   -1    0    0  502    0  0.00000000000E+00  0.00000000000E+00  0.14479733732E+04  0.14479733732E+04  0.00000000000E+00 0. -1.
          1   -1    0    0  501    0 -0.00000000000E+00 -0.00000000000E+00 -0.46820202625E+03  0.46820202625E+03  0.00000000000E+00 0. -1.
         25    2    1    2    0    0  0.17461983816E+03  0.10074297049E+03  0.13085987280E+03  0.27090750288E+03  0.12500133930E+03 0.  0.
          2    1    1    2  501    0 -0.87731111982E+02 -0.65753500979E+02 -0.38882784283E+03  0.40398930958E+03  0.00000000000E+00 0. -1.
          1    1    1    2  502    0 -0.86888726179E+02 -0.34989469516E+02  0.12377393170E+04  0.12412785870E+04  0.00000000000E+00 0. -1.
         22    1    3    3    0    0  0.18102008684E+03  0.74102806500E+02  0.14160490582E+03  0.24147763276E+03  0.00000000000E+00 0.  1.
         22    1    3    3    0    0 -0.64002486816E+01  0.26640163994E+02 -0.10745033022E+02  0.29429870123E+02  0.00000000000E+00 0.  1.
</event>
<event>
 7    1  0.5779468E-006  0.4641628E+02  0.7818608E-02  0.1491823E+00
          2   -1    0    0  502    0  0.00000000000E+00  0.00000000000E+00  0.21413437235E+03  0.21413437235E+03  0.00000000000E+00 0. -1.
          1   -1    0    0  501    0 -0.00000000000E+00 -0.00000000000E+00 -0.14016113001E+03  0.14016113001E+03  0.00000000000E+00 0. -1.
         25    2    1    2    0    0  0.25364170752E+02 -0.20958962258E+02  0.18764354705E+01  0.12927042989E+03  0.12499881510E+03 0.  0.
          2    1    1    2  501    0  0.50657409633E+00  0.49578287381E+02 -0.65484561057E+02  0.82137025353E+02  0.00000000000E+00 0. -1.
          1    1    1    2  502    0 -0.25870744848E+02 -0.28619325123E+02  0.13758136793E+03  0.14288804712E+03  0.00000000000E+00 0. -1.
         22    1    3    3    0    0  0.37270730021E+02 -0.53892971911E+02  0.40581190413E+02  0.77073943412E+02  0.00000000000E+00 0.  1.
         22    1    3    3    0    0 -0.11906559270E+02  0.32934009653E+02 -0.38704754942E+02  0.52196486478E+02  0.00000000000E+00 0.  1.
</event>
<event>
 7    1  0.5779468E-006  0.2054951E+03  0.7818608E-02  0.1239449E+00
          2   -1    0    0  502    0  0.00000000000E+00  0.00000000000E+00  0.33096459300E+04  0.33096459300E+04  0.00000000000E+00 0. -1.
          1   -1    0    0  501    0 -0.00000000000E+00 -0.00000000000E+00 -0.84477670141E+03  0.84477670141E+03  0.00000000000E+00 0. -1.
         25    2    1    2    0    0 -0.10543661777E+03 -0.10100647921E+03  0.19385621063E+02  0.19318451435E+03  0.12500106028E+03 0.  0.
          2    1    1    2  501    0  0.13187548475E+03  0.16874327997E+03 -0.74232480510E+03  0.77260051402E+03  0.00000000000E+00 0. -1.
          1    1    1    2  502    0 -0.26438866980E+02 -0.67736800753E+02  0.31878084127E+04  0.31886376031E+04  0.00000000000E+00 0. -1.
         22    1    3    3    0    0  0.12758639747E+02  0.28956119671E+01  0.32730349396E+02  0.35248308164E+02  0.00000000000E+00 0. -1.
         22    1    3    3    0    0 -0.11819525752E+03 -0.10390209118E+03 -0.13344728332E+02  0.15793620619E+03  0.00000000000E+00 0. -1.
</event>
<event>
 7    1  0.5779468E-006  0.5231674E+02  0.7818608E-02  0.1455571E+00
          2   -1    0    0  502    0  0.00000000000E+00  0.00000000000E+00  0.19511241774E+03  0.19511241774E+03  0.00000000000E+00 0. -1.
          1   -1    0    0  501    0 -0.00000000000E+00 -0.00000000000E+00 -0.22029699203E+04  0.22029699203E+04  0.00000000000E+00 0. -1.
         25    2    1    2    0    0  0.19840931698E+02  0.86425888409E+02 -0.32053554246E+03  0.35529000384E+03  0.12499942439E+03 0.  0.
          2    1    1    2  501    0 -0.27215437589E+02 -0.34978761638E+02 -0.18609882130E+04  0.18615158670E+04  0.00000000000E+00 0. -1.
          1    1    1    2  502    0  0.73745058915E+01 -0.51447126771E+02  0.17366625291E+03  0.18127646728E+03  0.00000000000E+00 0. -1.
         22    1    3    3    0    0 -0.37148060264E+02  0.17566505684E+02 -0.20572110672E+03  0.20978497147E+03  0.00000000000E+00 0.  1.
         22    1    3    3    0    0  0.56988991962E+02  0.68859382725E+02 -0.11481443574E+03  0.14550503238E+03  0.00000000000E+00 0.  1.
</event>
<event>
 7    1  0.5779468E-006  0.5985963E+02  0.7818608E-02  0.1526739E+00
          2   -1    0    0  502    0  0.00000000000E+00  0.00000000000E+00  0.15577247401E+04  0.15577247401E+04  0.00000000000E+00 0. -1.
          1   -1    0    0  501    0 -0.00000000000E+00 -0.00000000000E+00 -0.92565098900E+03  0.92565098900E+03  0.00000000000E+00 0. -1.
         25    2    1    2    0    0  0.64751718454E+02 -0.49023658307E+02  0.37895277508E+03  0.40721909308E+03  0.12500431957E+03 0.  0.
          2    1    1    2  501    0 -0.14431437289E+02  0.18679268190E+02 -0.91062359314E+03  0.91092947577E+03  0.00000000000E+00 0. -1.
          1    1    1    2  502    0 -0.50320281165E+02  0.30344390117E+02  0.11637445692E+04  0.11652271603E+04  0.00000000000E+00 0. -1.
         22    1    3    3    0    0  0.11952343163E+02 -0.84558637875E+02  0.22104635461E+03  0.23696943396E+03  0.00000000000E+00 0. -1.
         22    1    3    3    0    0  0.52799375291E+02  0.35534979568E+02  0.15790642047E+03  0.17024965912E+03  0.00000000000E+00 0. -1.
</event>
<event>
 7    1  0.5779468E-006  0.1567713E+03  0.7818608E-02  0.1230408E+00
          2   -1    0    0  502    0  0.00000000000E+00  0.00000000000E+00  0.20579069141E+03  0.20579069141E+03  0.00000000000E+00 0. -1.
          1   -1    0    0  501    0 -0.00000000000E+00 -0.00000000000E+00 -0.13107509560E+04  0.13107509560E+04  0.00000000000E+00 0. -1.
         25    2    1    2    0    0 -0.13425798041E+03 -0.33935023650E+02 -0.44403314502E+02  0.19176560275E+03  0.12500240368E+03 0.  0.
          2    1    1    2  501    0 -0.28659038501E+02  0.10055452210E+03 -0.11305378290E+04  0.11353626448E+04  0.00000000000E+00 0. -1.
          1    1    1    2  502    0  0.16291701892E+03 -0.66619498449E+02  0.69980878925E+02  0.18941339985E+03  0.00000000000E+00 0. -1.
         22    1    3    3    0    0 -0.14976710226E+03 -0.39053905242E+01 -0.22518807649E+02  0.15150093628E+03  0.00000000000E+00 0. -1.
         22    1    3    3    0    0  0.15509121848E+02 -0.30029633125E+02 -0.21884506853E+02  0.40264666475E+02  0.00000000000E+00 0. -1.
</event>
<event>
 7    1  0.5779468E-006  0.6712316E+02  0.7818608E-02  0.1437174E+00
          2   -1    0    0  502    0  0.00000000000E+00  0.00000000000E+00  0.21919253323E+03  0.21919253323E+03  0.00000000000E+00 0. -1.
          1   -1    0    0  501    0 -0.00000000000E+00 -0.00000000000E+00 -0.40768216070E+03  0.40768216070E+03  0.00000000000E+00 0. -1.
         25    2    1    2    0    0  0.95712696331E+02  0.38327040190E+02  0.90203853565E+01  0.16226855534E+03  0.12497933610E+03 0.  0.
          2    1    1    2  501    0 -0.36310608009E+02 -0.15763583810E+02 -0.32221915276E+03  0.32464154576E+03  0.00000000000E+00 0. -1.
          1    1    1    2  502    0 -0.59402088322E+02 -0.22563456380E+02  0.12470913994E+03  0.13996459283E+03  0.00000000000E+00 0. -1.
         22    1    3    3    0    0  0.11397898233E+03 -0.58996902534E+01  0.48013675401E+01  0.11423251677E+03  0.00000000000E+00 0. -1.
         22    1    3    3    0    0 -0.18266286000E+02  0.44226730444E+02  0.42190178164E+01  0.48036038568E+02  0.00000000000E+00 0. -1.
</event>
<event>
 7    1  0.5779468E-006  0.9854809E+02  0.7818608E-02  0.1329821E+00
          2   -1    0    0  502    0  0.00000000000E+00  0.00000000000E+00  0.11385511854E+04  0.11385511854E+04  0.00000000000E+00 0. -1.
          1   -1    0    0  501    0 -0.00000000000E+00 -0.00000000000E+00 -0.41081557643E+03  0.41081557643E+03  0.00000000000E+00 0. -1.
         25    2    1    2    0    0  0.21553583955E+02  0.10148980928E+03 -0.33003090806E+02  0.16576681960E+03  0.12499878442E+03 0.  0.
          2    1    1    2  501    0 -0.75392329560E+02 -0.65962712541E+02 -0.30237207620E+03  0.31853407238E+03  0.00000000000E+00 0. -1.
          1    1    1    2  502    0  0.53838745605E+02 -0.35527096744E+02  0.10631107760E+04  0.10650658699E+04  0.00000000000E+00 0. -1.
         22    1    3    3    0    0  0.91240852071E+01  0.11644226184E+03 -0.60930914431E+02  0.13173695611E+03  0.00000000000E+00 0. -1.
         22    1    3    3    0    0  0.12429498748E+02 -0.14952452551E+02  0.27927823625E+02  0.34029863486E+02  0.00000000000E+00 0. -1.
</event>
<event>
 7    1  0.5779468E-006  0.8744588E+02  0.7818608E-02  0.1344338E+00
          2   -1    0    0  502    0  0.00000000000E+00  0.00000000000E+00  0.84502335766E+02  0.84502335766E+02  0.00000000000E+00 0. -1.
          1   -1    0    0  501    0 -0.00000000000E+00 -0.00000000000E+00 -0.32715231889E+03  0.32715231889E+03  0.00000000000E+00 0. -1.
         25    2    1    2    0    0 -0.85373353214E+02  0.62081253482E+02 -0.76961154940E+02  0.18080165058E+03  0.12499410390E+03 0.  0.
          2    1    1    2  501    0  0.87116277692E+02  0.19625288778E+01 -0.13280186088E+03  0.15883775248E+03  0.00000000000E+00 0. -1.
          1    1    1    2  502    0 -0.17429244782E+01 -0.64043782360E+02 -0.32886967302E+02  0.72015251600E+02  0.00000000000E+00 0. -1.
         22    1    3    3    0    0 -0.96399779007E+02  0.78170254126E+02 -0.93371453516E+02  0.15531173283E+03  0.00000000000E+00 0.  1.
         22    1    3    3    0    0  0.11026425793E+02 -0.16089000644E+02  0.16410298576E+02  0.25489917749E+02  0.00000000000E+00 0.  1.
</event>
<event>
 7    1  0.5779468E-006  0.4122723E+02  0.7818608E-02  0.1566968E+00
          2   -1    0    0  502    0  0.00000000000E+00  0.00000000000E+00  0.16581306196E+04  0.16581306196E+04  0.00000000000E+00 0. -1.
          1   -1    0    0  501    0 -0.00000000000E+00 -0.00000000000E+00 -0.20167527463E+03  0.20167527463E+03  0.00000000000E+00 0. -1.
         25    2    1    2    0    0  0.26739887767E+01  0.18604800065E+02  0.93703505896E+02  0.15734927335E+03  0.12500063201E+03 0.  0.
          2    1    1    2  501    0 -0.24144528827E+02 -0.34032750623E+02 -0.16717365933E+03  0.17230269516E+03  0.00000000000E+00 0. -1.
          1    1    1    2  502    0  0.21470540050E+02  0.15427950558E+02  0.15299254984E+04  0.15301539257E+04  0.00000000000E+00 0. -1.
         22    1    3    3    0    0 -0.27640839710E+01 -0.29137609069E+02 -0.18955749211E+02  0.34870630201E+02  0.00000000000E+00 0. -1.
         22    1    3    3    0    0  0.54380727477E+01  0.47742409135E+02  0.11265925511E+03  0.12247864314E+03  0.00000000000E+00 0. -1.
</event>
<event>
 7    1  0.5779468E-006  0.6028737E+02  0.7818608E-02  0.1486156E+00
          2   -1    0    0  502    0  0.00000000000E+00  0.00000000000E+00  0.22123619071E+03  0.22123619071E+03  0.00000000000E+00 0. -1.
          1   -1    0    0  501    0 -0.00000000000E+00 -0.00000000000E+00 -0.28099596383E+03  0.28099596383E+03  0.00000000000E+00 0. -1.
         25    2    1    2    0    0 -0.52542047289E+02 -0.20611972274E+01  0.56811761791E+02  0.14703392497E+03  0.12500593405E+03 0.  0.
          2    1    1    2  501    0  0.53604149461E+02 -0.28821352793E+02 -0.22985498095E+03  0.23777591864E+03  0.00000000000E+00 0. -1.
          1    1    1    2  502    0 -0.10621021721E+01  0.30882550021E+02  0.11328344604E+03  0.11742231093E+03  0.00000000000E+00 0. -1.
         22    1    3    3    0    0 -0.73699302140E+02  0.43359613651E+02  0.35752510362E+02  0.92681633721E+02  0.00000000000E+00 0.  1.
         22    1    3    3    0    0  0.21157254851E+02 -0.45420810878E+02  0.21059251429E+02  0.54352291253E+02  0.00000000000E+00 0.  1.
</event>
<event>
 7    1  0.5779468E-006  0.7861286E+02  0.7818608E-02  0.1338954E+00
          2   -1    0    0  502    0  0.00000000000E+00  0.00000000000E+00  0.18556663069E+04  0.18556663069E+04  0.00000000000E+00 0. -1.
          1   -1    0    0  501    0 -0.00000000000E+00 -0.00000000000E+00 -0.70142629637E+02  0.70142629637E+02  0.00000000000E+00 0. -1.
         25    2    1    2    0    0  0.22025568202E+02 -0.16513050750E+02  0.37356134439E+03  0.39488098011E+03  0.12500041572E+03 0.  0.
          2    1    1    2  501    0 -0.50475687770E+02 -0.60267631340E+02 -0.31832371385E+02  0.84813220144E+02  0.00000000000E+00 0. -1.
          1    1    1    2  502    0  0.28450119568E+02  0.76780682091E+02  0.14437947042E+04  0.14461147363E+04  0.00000000000E+00 0. -1.
         22    1    3    3    0    0 -0.63876146720E+01 -0.61435110323E+02  0.28480489735E+03  0.29142564053E+03  0.00000000000E+00 0.  1.
         22    1    3    3    0    0  0.28413182874E+02  0.44922059573E+02  0.88756447035E+02  0.10345533958E+03  0.00000000000E+00 0.  1.
</event>
<event>
 7    1  0.5779468E-006  0.5447373E+02  0.7818608E-02  0.1507352E+00
          2   -1    0    0  502    0  0.00000000000E+00  0.00000000000E+00  0.13123606678E+04  0.13123606678E+04  0.00000000000E+00 0. -1.
          1   -1    0    0  501    0 -0.00000000000E+00 -0.00000000000E+00 -0.13312004879E+02  0.13312004879E+02  0.00000000000E+00 0. -1.
         25    2    1    2    0    0 -0.20551748777E+02  0.60164261580E+02  0.66643526960E+03  0.68103112065E+03  0.12500122389E+03 0.  0.
          2    1    1    2  501    0  0.28745127793E+02 -0.68243028725E+01  0.40804093362E+02  0.50376854970E+02  0.00000000000E+00 0. -1.
          1    1    1    2  502    0 -0.81933790157E+01 -0.53339958708E+02  0.59180929996E+03  0.59426469706E+03  0.00000000000E+00 0. -1.
         22    1    3    3    0    0  0.84058439932E+01  0.43252715210E+02  0.64216955658E+02  0.77879862482E+02  0.00000000000E+00 0.  1.
         22    1    3    3    0    0 -0.28957592770E+02  0.16911546370E+02  0.60221831395E+03  0.60315125817E+03  0.00000000000E+00 0.  1.
</event>
<event>
 7    1  0.5779468E-006  0.4830158E+02  0.7818608E-02  0.1459467E+00
          2   -1    0    0  502    0  0.00000000000E+00  0.00000000000E+00  0.16172631373E+04  0.16172631373E+04  0.00000000000E+00 0. -1.
          1   -1    0    0  501    0 -0.00000000000E+00 -0.00000000000E+00 -0.75471801735E+03  0.75471801735E+03  0.00000000000E+00 0. -1.
         25    2    1    2    0    0 -0.17136672375E+02  0.50167635374E+02  0.88136679578E+03  0.89176374662E+03  0.12499877557E+03 0.  0.
          2    1    1    2  501    0  0.46316633869E+02 -0.13758801766E+02 -0.74799443288E+03  0.74955333821E+03  0.00000000000E+00 0. -1.
          1    1    1    2  502    0 -0.29179961494E+02 -0.36408833609E+02  0.72917275700E+03  0.73066406978E+03  0.00000000000E+00 0. -1.
         22    1    3    3    0    0 -0.85138839194E+01 -0.28520218570E+02  0.56003272654E+03  0.56082309500E+03  0.00000000000E+00 0. -1.
         22    1    3    3    0    0 -0.86227884555E+01  0.78687853945E+02  0.32133406925E+03  0.33094065162E+03  0.00000000000E+00 0. -1.
</event>
<event>
 7    1  0.5779468E-006  0.5163556E+02  0.7818608E-02  0.1458037E+00
          2   -1    0    0  502    0  0.00000000000E+00  0.00000000000E+00  0.32344638433E+03  0.32344638433E+03  0.00000000000E+00 0. -1.
          1   -1    0    0  501    0 -0.00000000000E+00 -0.00000000000E+00 -0.26516070698E+03  0.26516070698E+03  0.00000000000E+00 0. -1.
         25    2    1    2    0    0  0.86192665453E+02 -0.10658486642E+02  0.60658997083E+02  0.16385124202E+03  0.12499974667E+03 0.  0.
          2    1    1    2  501    0 -0.44405291558E+02  0.24760860482E+02 -0.20816884736E+03  0.21428765513E+03  0.00000000000E+00 0. -1.
          1    1    1    2  502    0 -0.41787373895E+02 -0.14102373840E+02  0.20579552762E+03  0.21046819416E+03  0.00000000000E+00 0. -1.
         22    1    3    3    0    0 -0.24442743745E+01 -0.52066183258E+02  0.34754580497E+02  0.62647767572E+02  0.00000000000E+00 0.  1.
         22    1    3    3    0    0  0.88636939828E+02  0.41407696616E+02  0.25904416586E+02  0.10120347444E+03  0.00000000000E+00 0.  1.
</event>
<event>
 7    1  0.7249956E-006  0.7976406E+02  0.7818608E-02  0.1433607E+00
          2   -1    0    0  502    0  0.00000000000E+00  0.00000000000E+00  0.98016554514E+03  0.98016554514E+03  0.00000000000E+00 0. -1.
          1   -1    0    0  501    0 -0.00000000000E+00 -0.00000000000E+00 -0.11664700987E+04  0.11664700987E+04  0.00000000000E+00 0. -1.
         25    2    1    2    0    0  0.61839439478E+02  0.76016044565E+02 -0.14063462253E+03  0.21214602491E+03  0.12500113409E+03 0.  0.
          2    1    1    2  501    0 -0.34191412576E+02 -0.13294836235E+01 -0.98810415069E+03  0.98869643108E+03  0.00000000000E+00 0. -1.
          1    1    1    2  502    0 -0.27648026902E+02 -0.74686560941E+02  0.94243421967E+03  0.94579318785E+03  0.00000000000E+00 0. -1.
         22    1    3    3    0    0  0.24519735657E+02  0.10580482565E+03 -0.11406324394E+03  0.15750016567E+03  0.00000000000E+00 0. -1.
         22    1    3    3    0    0  0.37319703821E+02 -0.29788781085E+02 -0.26571378594E+02  0.54645859241E+02  0.00000000000E+00 0. -1.
</event>
<event>
 7    1  0.5779468E-006  0.5675557E+02  0.7818608E-02  0.1448834E+00
          2   -1    0    0  502    0  0.00000000000E+00  0.00000000000E+00  0.86806558120E+03  0.86806558120E+03  0.00000000000E+00 0. -1.
          1   -1    0    0  501    0 -0.00000000000E+00 -0.00000000000E+00 -0.10233174937E+03  0.10233174937E+03  0.00000000000E+00 0. -1.
         25    2    1    2    0    0  0.32701021987E+02  0.74244435868E+02  0.14675545894E+03  0.20914828103E+03  0.12499698249E+03 0.  0.
          2    1    1    2  501    0 -0.44983497767E+02 -0.33114022011E+02 -0.59386191064E+02  0.81527745058E+02  0.00000000000E+00 0. -1.
          1    1    1    2  502    0  0.12282475780E+02 -0.41130413856E+02  0.67836456394E+03  0.67972130448E+03  0.00000000000E+00 0. -1.
         22    1    3    3    0    0 -0.45656554407E+02  0.22969301574E+02  0.76837053756E+02  0.92282406801E+02  0.00000000000E+00 0. -1.
         22    1    3    3    0    0  0.78357576394E+02  0.51275134294E+02  0.69918405189E+02  0.11686587423E+03  0.00000000000E+00 0. -1.
</event>
<event>
 7    1  0.5779468E-006  0.7687660E+02  0.7818608E-02  0.1353980E+00
          2   -1    0    0  502    0  0.00000000000E+00  0.00000000000E+00  0.30903897384E+02  0.30903897384E+02  0.00000000000E+00 0. -1.
          1   -1    0    0  501    0 -0.00000000000E+00 -0.00000000000E+00 -0.19823781279E+04  0.19823781279E+04  0.00000000000E+00 0. -1.
         25    2    1    2    0    0  0.12931824053E+03  0.31906819163E+02 -0.72367373434E+03  0.74637075606E+03  0.12499751711E+03 0.  0.
          2    1    1    2  501    0 -0.71842696742E+02  0.27454521875E+01 -0.11852873207E+04  0.11874657651E+04  0.00000000000E+00 0. -1.
          1    1    1    2  502    0 -0.57475543788E+02 -0.34652271350E+02 -0.42513175490E+02  0.79445504175E+02  0.00000000000E+00 0. -1.
         22    1    3    3    0    0 -0.23024390964E+02 -0.22130981587E+01 -0.15256971551E+03  0.15431311828E+03  0.00000000000E+00 0. -1.
         22    1    3    3    0    0  0.15234263149E+03  0.34119917321E+02 -0.57110401883E+03  0.59205763778E+03  0.00000000000E+00 0. -1.
</event>
<event>
 7    1  0.5779468E-006  0.1294011E+03  0.7818608E-02  0.1249705E+00
          2   -1    0    0  502    0  0.00000000000E+00  0.00000000000E+00  0.14094066603E+04  0.14094066603E+04  0.00000000000E+00 0. -1.
          1   -1    0    0  501    0 -0.00000000000E+00 -0.00000000000E+00 -0.32911483715E+03  0.32911483715E+03  0.00000000000E+00 0. -1.
         25    2    1    2    0    0 -0.12719718533E+03  0.16999664770E+03  0.46396832912E+02  0.25070738274E+03  0.12499416575E+03 0.  0.
          2    1    1    2  501    0  0.38865255687E+02 -0.11485100985E+03 -0.20843063920E+03  0.24113190150E+03  0.00000000000E+00 0. -1.
          1    1    1    2  502    0  0.88331929647E+02 -0.55145637850E+02  0.12423256294E+04  0.12466822132E+04  0.00000000000E+00 0. -1.
         22    1    3    3    0    0 -0.12734311806E+03  0.12138777471E+03  0.78296555619E+02  0.19256586455E+03  0.00000000000E+00 0.  1.
         22    1    3    3    0    0  0.14593272381E+00  0.48608872982E+02 -0.31899722707E+02  0.58141518193E+02  0.00000000000E+00 0.  1.
</event>
<event>
 7    1  0.5779468E-006  0.7399833E+02  0.7818608E-02  0.1509740E+00
          2   -1    0    0  502    0  0.00000000000E+00  0.00000000000E+00  0.96621210394E+03  0.96621210394E+03  0.00000000000E+00 0. -1.
          1   -1    0    0  501    0 -0.00000000000E+00 -0.00000000000E+00 -0.17671589579E+03  0.17671589579E+03  0.00000000000E+00 0. -1.
         25    2    1    2    0    0  0.88454515918E+02  0.10791415361E+02  0.21019232737E+03  0.26028437145E+03  0.12500593387E+03 0.  0.
          2    1    1    2  501    0 -0.73348854374E+02  0.43656475185E+01 -0.14260256760E+03  0.16042009102E+03  0.00000000000E+00 0. -1.
          1    1    1    2  502    0 -0.15105661544E+02 -0.15157062880E+02  0.72190644838E+03  0.72222353726E+03  0.00000000000E+00 0. -1.
         22    1    3    3    0    0  0.10911090699E+03  0.26329763004E+02  0.11130090798E+03  0.15807067584E+03  0.00000000000E+00 0.  1.
         22    1    3    3    0    0 -0.20656391073E+02 -0.15538347643E+02  0.98891419395E+02  0.10221369561E+03  0.00000000000E+00 0.  1.
</event>
<event>
 7    1  0.5779468E-006  0.1790351E+03  0.7818608E-02  0.1200967E+00
          2   -1    0    0  502    0  0.00000000000E+00  0.00000000000E+00  0.18585940829E+04  0.18585940829E+04  0.00000000000E+00 0. -1.
          1   -1    0    0  501    0 -0.00000000000E+00 -0.00000000000E+00 -0.12836515179E+03  0.12836515179E+03  0.00000000000E+00 0. -1.
         25    2    1    2    0    0  0.49928755337E+02 -0.42362255547E+02  0.75973508960E+03  0.77272600329E+03  0.12498251269E+03 0.  0.
          2    1    1    2  501    0 -0.14088273651E+03  0.12811156102E+03 -0.41215067621E+02  0.19483120723E+03  0.00000000000E+00 0. -1.
          1    1    1    2  502    0  0.90953981173E+02 -0.85749305471E+02  0.10117089092E+04  0.10194020242E+04  0.00000000000E+00 0. -1.
         22    1    3    3    0    0 -0.90876469127E+01  0.22769313360E+02  0.45256965509E+03  0.45323318465E+03  0.00000000000E+00 0. -1.
         22    1    3    3    0    0  0.59016402249E+02 -0.65131568907E+02  0.30716543451E+03  0.31949281864E+03  0.00000000000E+00 0. -1.
</event>
<event>
 7    1  0.5779468E-006  0.9728875E+02  0.7818608E-02  0.1310309E+00
          2   -1    0    0  502    0  0.00000000000E+00  0.00000000000E+00  0.18433676403E+04  0.18433676403E+04  0.00000000000E+00 0. -1.
          1   -1    0    0  501    0 -0.00000000000E+00 -0.00000000000E+00 -0.80124342951E+03  0.80124342951E+03  0.00000000000E+00 0. -1.
         25    2    1    2    0    0  0.15496364070E+03  0.71642096913E+02  0.23569148174E+01  0.21162721553E+03  0.12503680784E+03 0.  0.
          2    1    1    2  501    0 -0.79749143516E+02 -0.51823224811E+02 -0.69248521409E+03  0.69898593995E+03  0.00000000000E+00 0. -1.
          1    1    1    2  502    0 -0.75214497187E+02 -0.19818872102E+02  0.17322525100E+04  0.17339979143E+04  0.00000000000E+00 0. -1.
         22    1    3    3    0    0  0.34671309265E+02  0.80963289107E+02  0.18209153283E+02  0.89937351153E+02  0.00000000000E+00 0.  1.
         22    1    3    3    0    0  0.12029233144E+03 -0.93211921937E+01 -0.15852238465E+02  0.12168986437E+03  0.00000000000E+00 0.  1.
</event>
<event>
 7    1  0.5779468E-006  0.8191645E+02  0.7818608E-02  0.1361200E+00
          2   -1    0    0  502    0  0.00000000000E+00  0.00000000000E+00  0.10736456833E+04  0.10736456833E+04  0.00000000000E+00 0. -1.
          1   -1    0    0  501    0 -0.00000000000E+00 -0.00000000000E+00 -0.13523131938E+03  0.13523131938E+03  0.00000000000E+00 0. -1.
         25    2    1    2    0    0  0.11221165587E+03  0.28173824747E+01  0.61968792579E+02  0.17906471254E+03  0.12499858666E+03 0.  0.
          2    1    1    2  501    0 -0.41152631341E+02 -0.42645666469E+02 -0.63201572737E+02  0.86640814465E+02  0.00000000000E+00 0. -1.
          1    1    1    2  502    0 -0.71059024527E+02  0.39828283994E+02  0.93964714407E+03  0.94317147568E+03  0.00000000000E+00 0. -1.
         22    1    3    3    0    0 -0.47294621424E+01  0.40098393183E+02  0.34914263953E+02  0.53378411136E+02  0.00000000000E+00 0.  1.
         22    1    3    3    0    0  0.11694111801E+03 -0.37281010708E+02  0.27054528626E+02  0.12568630140E+03  0.00000000000E+00 0.  1.
</event>
<event>
 7    1  0.5779468E-006  0.1158066E+03  0.7818608E-02  0.1252469E+00
          2   -1    0    0  502    0  0.00000000000E+00  0.00000000000E+00  0.10039673486E+04  0.10039673486E+04  0.00000000000E+00 0. -1.
          1   -1    0    0  501    0 -0.00000000000E+00 -0.00000000000E+00 -0.36496423452E+03  0.36496423452E+03  0.00000000000E+00 0. -1.
         25    2    1    2    0    0  0.52984631789E+02  0.47422280218E+02  0.23594721434E+03  0.27631777615E+03  0.12499672634E+03 0.  0.
          2    1    1    2  501    0  0.46223704685E+02 -0.10716225342E+03 -0.33022673861E+03  0.35024288476E+03  0.00000000000E+00 0. -1.
          1    1    1    2  502    0 -0.99208336474E+02  0.59739973205E+02  0.73328263832E+03  0.74237092217E+03  0.00000000000E+00 0. -1.
         22    1    3    3    0    0  0.34535730117E+02  0.83653437944E+02  0.10212525154E+03  0.13645578528E+03  0.00000000000E+00 0. -1.
         22    1    3    3    0    0  0.18448901672E+02 -0.36231157726E+02  0.13382196280E+03  0.13986199087E+03  0.00000000000E+00 0. -1.
</event>
<event>
 7    1  0.5779468E-006  0.9665625E+02  0.7818608E-02  0.1294202E+00
          2   -1    0    0  502    0  0.00000000000E+00  0.00000000000E+00  0.94140233146E+03  0.94140233146E+03  0.00000000000E+00 0. -1.
          1   -1    0    0  501    0 -0.00000000000E+00 -0.00000000000E+00 -0.33452088902E+03  0.33452088902E+03  0.00000000000E+00 0. -1.
         25    2    1    2    0    0  0.12594296904E+03 -0.22410603032E+02  0.16390847353E+03  0.24260070478E+03  0.12500099073E+03 0.  0.
          2    1    1    2  501    0 -0.79359663391E+02 -0.55499671156E+02 -0.28433379536E+03  0.30037289634E+03  0.00000000000E+00 0. -1.
          1    1    1    2  502    0 -0.46583305649E+02  0.77910274189E+02  0.72730676426E+03  0.73294961937E+03  0.00000000000E+00 0. -1.
         22    1    3    3    0    0  0.59213930591E+02  0.15653389416E+02 -0.36802633560E+00  0.61249111174E+02  0.00000000000E+00 0. -1.
         22    1    3    3    0    0  0.66729038449E+02 -0.38063992448E+02  0.16427649987E+03  0.18135159360E+03  0.00000000000E+00 0. -1.
</event>
<event>
 7    1  0.5779468E-006  0.1071224E+03  0.7818608E-02  0.1305237E+00
          2   -1    0    0  502    0  0.00000000000E+00  0.00000000000E+00  0.94076225006E+03  0.94076225006E+03  0.00000000000E+00 0. -1.
          1   -1    0    0  501    0 -0.00000000000E+00 -0.00000000000E+00 -0.41195149638E+03  0.41195149638E+03  0.00000000000E+00 0. -1.
         25    2    1    2    0    0 -0.21799006909E+02  0.61004407281E+02  0.33202649676E+02  0.14465298170E+03  0.12500133903E+03 0.  0.
          2    1    1    2  501    0  0.95763808845E+02 -0.59488469115E+02 -0.34564255586E+03  0.36356342151E+03  0.00000000000E+00 0. -1.
          1    1    1    2  502    0 -0.73964801936E+02 -0.15159381659E+01  0.84125065987E+03  0.84449734323E+03  0.00000000000E+00 0. -1.
         22    1    3    3    0    0 -0.71884578202E+02  0.21357905184E+02  0.29767992720E+02  0.80682625687E+02  0.00000000000E+00 0.  1.
         22    1    3    3    0    0  0.50085571293E+02  0.39646502097E+02  0.34346569555E+01  0.63970356015E+02  0.00000000000E+00 0.  1.
</event>
<event>
 7    1  0.5779468E-006  0.5366241E+02  0.7818608E-02  0.1459355E+00
          2   -1    0    0  502    0  0.00000000000E+00  0.00000000000E+00  0.14520440442E+03  0.14520440442E+03  0.00000000000E+00 0. -1.
          1   -1    0    0  501    0 -0.00000000000E+00 -0.00000000000E+00 -0.42380531319E+03  0.42380531319E+03  0.00000000000E+00 0. -1.
         25    2    1    2    0    0  0.14423091145E+02  0.17650968185E+02 -0.84141382926E+01  0.12733526393E+03  0.12499555784E+03 0.  0.
          2    1    1    2  501    0  0.42023624818E+02 -0.84244184659E+00 -0.34438613835E+03  0.34694164789E+03  0.00000000000E+00 0. -1.
          1    1    1    2  502    0 -0.56446715963E+02 -0.16808526338E+02  0.74199367868E+02  0.94732805789E+02  0.00000000000E+00 0. -1.
         22    1    3    3    0    0 -0.27166285991E+02  0.12533055713E+02 -0.56268519361E+02  0.63727787119E+02  0.00000000000E+00 0. -1.
         22    1    3    3    0    0  0.41589377136E+02  0.51179124717E+01  0.47854381068E+02  0.63607476809E+02  0.00000000000E+00 0. -1.
</event>
<event>
 7    1  0.5779468E-006  0.4135359E+02  0.7818608E-02  0.1596044E+00
          2   -1    0    0  502    0  0.00000000000E+00  0.00000000000E+00  0.40261945126E+03  0.40261945126E+03  0.00000000000E+00 0. -1.
          1   -1    0    0  501    0 -0.00000000000E+00 -0.00000000000E+00 -0.30190926482E+03  0.30190926482E+03  0.00000000000E+00 0. -1.
         25    2    1    2    0    0  0.27245582937E+02 -0.22120723381E+01  0.26192563819E+03  0.29151270993E+03  0.12500961986E+03 0.  0.
          2    1    1    2  501    0  0.14325084478E+02 -0.16741807929E+02 -0.28252772203E+03  0.28338562048E+03  0.00000000000E+00 0. -1.
          1    1    1    2  502    0 -0.41570667415E+02  0.18953880267E+02  0.12131227028E+03  0.12963038567E+03  0.00000000000E+00 0. -1.
         22    1    3    3    0    0 -0.32139956247E+02 -0.29623526298E+02  0.36990524375E+02  0.57261059992E+02  0.00000000000E+00 0. -1.
         22    1    3    3    0    0  0.59385539184E+02  0.27411453960E+02  0.22493511381E+03  0.23425164994E+03  0.00000000000E+00 0. -1.
</event>
<event>
 7    1  0.5779468E-006  0.4998099E+02  0.7818608E-02  0.1454482E+00
          2   -1    0    0  502    0  0.00000000000E+00  0.00000000000E+00  0.28008962833E+04  0.28008962833E+04  0.00000000000E+00 0. -1.
          1   -1    0    0  501    0 -0.00000000000E+00 -0.00000000000E+00 -0.60461655952E+03  0.60461655952E+03  0.00000000000E+00 0. -1.
         25    2    1    2    0    0 -0.44997589380E+02  0.68278435852E+02  0.25210057404E+03  0.29303284489E+03  0.12500728340E+03 0.  0.
          2    1    1    2  501    0  0.42909514456E+02 -0.18584442418E+02 -0.58296952104E+03  0.58484191915E+03  0.00000000000E+00 0. -1.
          1    1    1    2  502    0  0.20880749240E+01 -0.49693993434E+02  0.25271486708E+04  0.25276380788E+04  0.00000000000E+00 0. -1.
         22    1    3    3    0    0 -0.10255630796E+02 -0.28268516952E+02  0.13052862324E+03  0.13394778273E+03  0.00000000000E+00 0. -1.
         22    1    3    3    0    0 -0.34741958584E+02  0.96546952804E+02  0.12157195080E+03  0.15908506216E+03  0.00000000000E+00 0. -1.
</event>
<event>
 7    1  0.5779468E-006  0.9198916E+02  0.7818608E-02  0.1425366E+00
          2   -1    0    0  502    0  0.00000000000E+00  0.00000000000E+00  0.15164881346E+04  0.15164881346E+04  0.00000000000E+00 0. -1.
          1   -1    0    0  501    0 -0.00000000000E+00 -0.00000000000E+00 -0.59394032857E+03  0.59394032857E+03  0.00000000000E+00 0. -1.
         25    2    1    2    0    0 -0.12526882731E+02 -0.62753723734E+02 -0.11534200654E+03  0.18170987220E+03  0.12497898443E+03 0.  0.
          2    1    1    2  501    0 -0.21728589626E+02 -0.22921962620E+02 -0.44341720485E+03  0.44454062304E+03  0.00000000000E+00 0. -1.
          1    1    1    2  502    0  0.34255472357E+02  0.85675686353E+02  0.14813070175E+04  0.14841779680E+04  0.00000000000E+00 0. -1.
         22    1    3    3    0    0 -0.26152516718E+02 -0.31700605076E+02  0.17456617319E+02  0.44649927000E+02  0.00000000000E+00 0.  1.
         22    1    3    3    0    0  0.13625633987E+02 -0.31053118658E+02 -0.13279862386E+03  0.13705994521E+03  0.00000000000E+00 0.  1.
</event>
<event>
 7    1  0.5779468E-006  0.6909978E+02  0.7818608E-02  0.1404435E+00
          2   -1    0    0  502    0  0.00000000000E+00  0.00000000000E+00  0.35089190929E+02  0.35089190929E+02  0.00000000000E+00 0. -1.
          1   -1    0    0  501    0 -0.00000000000E+00 -0.00000000000E+00 -0.16020379682E+04  0.16020379682E+04  0.00000000000E+00 0. -1.
         25    2    1    2    0    0  0.84839932350E+02 -0.19218767576E+02 -0.56128112025E+03  0.58157405699E+03  0.12499885067E+03 0.  0.
          2    1    1    2  501    0 -0.20995960949E+02  0.44770351028E+02 -0.98137669998E+03  0.98262171865E+03  0.00000000000E+00 0. -1.
          1    1    1    2  502    0 -0.63843971400E+02 -0.25551583452E+02 -0.24290957021E+02  0.72931383465E+02  0.00000000000E+00 0. -1.
         22    1    3    3    0    0  0.23856530058E+02 -0.69345231829E+02 -0.26637319577E+03  0.27628350408E+03  0.00000000000E+00 0. -1.
         22    1    3    3    0    0  0.60983402292E+02  0.50126464253E+02 -0.29490792448E+03  0.30529055291E+03  0.00000000000E+00 0. -1.
</event>
<event>
 7    1  0.5779468E-006  0.8016644E+02  0.7818608E-02  0.1434177E+00
          2   -1    0    0  502    0  0.00000000000E+00  0.00000000000E+00  0.73187638521E+03  0.73187638521E+03  0.00000000000E+00 0. -1.
          1   -1    0    0  501    0 -0.00000000000E+00 -0.00000000000E+00 -0.79184251976E+03  0.79184251976E+03  0.00000000000E+00 0. -1.
         25    2    1    2    0    0  0.24719933611E+02 -0.74564087631E+02 -0.17523708337E+03  0.22913351461E+03  0.12499301520E+03 0.  0.
          2    1    1    2  501    0 -0.33495381387E+02 -0.52193204923E+01 -0.58688174123E+03  0.58785998339E+03  0.00000000000E+00 0. -1.
          1    1    1    2  502    0  0.87754477759E+01  0.79783408124E+02  0.70215269005E+03  0.70672540696E+03  0.00000000000E+00 0. -1.
         22    1    3    3    0    0 -0.40334435392E+02 -0.13208349009E+02 -0.11154351680E+03  0.11934522739E+03  0.00000000000E+00 0.  1.
         22    1    3    3    0    0  0.65054369002E+02 -0.61355738622E+02 -0.63693566571E+02  0.10978828722E+03  0.00000000000E+00 0.  1.
</event>
<event>
 7    1  0.5779468E-006  0.7966182E+02  0.7818608E-02  0.1494721E+00
          2   -1    0    0  502    0  0.00000000000E+00  0.00000000000E+00  0.11920437723E+04  0.11920437723E+04  0.00000000000E+00 0. -1.
          1   -1    0    0  501    0 -0.00000000000E+00 -0.00000000000E+00 -0.17321752271E+03  0.17321752271E+03  0.00000000000E+00 0. -1.
         25    2    1    2    0    0  0.31639610260E+02  0.62213395262E+02  0.14913814730E+03  0.20672739409E+03  0.12498982758E+03 0.  0.
          2    1    1    2  501    0 -0.53558939701E+02 -0.59992086785E+02 -0.13309690451E+03  0.15550690174E+03  0.00000000000E+00 0. -1.
          1    1    1    2  502    0  0.21919329440E+02 -0.22213084770E+01  0.10027850068E+04  0.10030269992E+04  0.00000000000E+00 0. -1.
         22    1    3    3    0    0  0.56824206784E+01 -0.38606011521E+02  0.38849690210E+02  0.55063712731E+02  0.00000000000E+00 0. -1.
         22    1    3    3    0    0  0.25957189582E+02  0.10081940678E+03  0.11028845709E+03  0.15166368136E+03  0.00000000000E+00 0. -1.
</event>
<event>
 7    1  0.5779468E-006  0.8394708E+02  0.7818608E-02  0.1358705E+00
          2   -1    0    0  502    0  0.00000000000E+00  0.00000000000E+00  0.54489856557E+03  0.54489856557E+03  0.00000000000E+00 0. -1.
          1   -1    0    0  501    0 -0.00000000000E+00 -0.00000000000E+00 -0.14946830292E+04  0.14946830292E+04  0.00000000000E+00 0. -1.
         25    2    1    2    0    0  0.40951372570E+02 -0.11959356724E+03 -0.10078946796E+03  0.20435455799E+03  0.12499052875E+03 0.  0.
          2    1    1    2  501    0 -0.46359844524E+02  0.36583412444E+02 -0.13379467561E+04  0.13392494552E+04  0.00000000000E+00 0. -1.
          1    1    1    2  502    0  0.54084719539E+01  0.83010154800E+02  0.48895176042E+03  0.49597758154E+03  0.00000000000E+00 0. -1.
         22    1    3    3    0    0 -0.38505791368E+02 -0.74425294797E+02 -0.65586062115E+02  0.10641124009E+03  0.00000000000E+00 0.  1.
         22    1    3    3    0    0  0.79457163938E+02 -0.45168272446E+02 -0.35203405847E+02  0.97943317894E+02  0.00000000000E+00 0.  1.
</event>
<event>
 7    1  0.5779468E-006  0.8420463E+02  0.7818608E-02  0.1386622E+00
          2   -1    0    0  502    0  0.00000000000E+00  0.00000000000E+00  0.95304229163E+03  0.95304229163E+03  0.00000000000E+00 0. -1.
          1   -1    0    0  501    0 -0.00000000000E+00 -0.00000000000E+00 -0.30203437363E+03  0.30203437363E+03  0.00000000000E+00 0. -1.
         25    2    1    2    0    0 -0.22295323613E+01  0.98296907121E+02  0.19000691830E+03  0.24777647329E+03  0.12499319562E+03 0.  0.
          2    1    1    2  501    0 -0.38274232141E+02 -0.74913781983E+02 -0.26590301687E+03  0.27889318019E+03  0.00000000000E+00 0. -1.
          1    1    1    2  502    0  0.40503764502E+02 -0.23383125138E+02  0.72690401657E+03  0.72840701177E+03  0.00000000000E+00 0. -1.
         22    1    3    3    0    0  0.44592623875E+02  0.26272290603E+02  0.16763801651E+02  0.54403680054E+02  0.00000000000E+00 0. -1.
         22    1    3    3    0    0 -0.46822156236E+02  0.72024616518E+02  0.17324311665E+03  0.19337279324E+03  0.00000000000E+00 0. -1.
</event>
<event>
 7    1  0.5779468E-006  0.1331189E+03  0.7818608E-02  0.1292042E+00
          2   -1    0    0  502    0  0.00000000000E+00  0.00000000000E+00  0.13271830384E+04  0.13271830384E+04  0.00000000000E+00 0. -1.
          1   -1    0    0  501    0 -0.00000000000E+00 -0.00000000000E+00 -0.63470929140E+03  0.63470929140E+03  0.00000000000E+00 0. -1.
         25    2    1    2    0    0  0.73695252634E+02  0.70970340260E+02 -0.30181517908E+03  0.34232531079E+03  0.12500574638E+03 0.  0.
          2    1    1    2  501    0 -0.10720600854E+03 -0.12927651919E+03 -0.28914060254E+03  0.33437678555E+03  0.00000000000E+00 0. -1.
          1    1    1    2  502    0  0.33510755908E+02  0.58306178930E+02  0.12834295286E+04  0.12851902335E+04  0.00000000000E+00 0. -1.
         22    1    3    3    0    0  0.17389675308E+02  0.21668737515E+02  0.34709658734E+01  0.27999689228E+02  0.00000000000E+00 0. -1.
         22    1    3    3    0    0  0.56305577326E+02  0.49301602745E+02 -0.30528614495E+03  0.31432562156E+03  0.00000000000E+00 0. -1.
</event>
<event>
 7    1  0.5779468E-006  0.6216773E+02  0.7818608E-02  0.1412150E+00
          2   -1    0    0  502    0  0.00000000000E+00  0.00000000000E+00  0.37955368321E+04  0.37955368321E+04  0.00000000000E+00 0. -1.
          1   -1    0    0  501    0 -0.00000000000E+00 -0.00000000000E+00 -0.19245951970E+04  0.19245951970E+04  0.00000000000E+00 0. -1.
         25    2    1    2    0    0  0.29779992335E+02 -0.66133112716E+02  0.21208921182E+04  0.21258102027E+04  0.12500081769E+03 0.  0.
          2    1    1    2  501    0  0.29354918983E+02  0.42611276682E+02 -0.19211821552E+04  0.19218788478E+04  0.00000000000E+00 0. -1.
          1    1    1    2  502    0 -0.59134911319E+02  0.23521836035E+02  0.16712316722E+04  0.16724429786E+04  0.00000000000E+00 0. -1.
         22    1    3    3    0    0 -0.37223954432E+02 -0.67259228673E+02  0.12315749369E+04  0.12339717387E+04  0.00000000000E+00 0. -1.
         22    1    3    3    0    0  0.67003946767E+02  0.11261159571E+01  0.88931718126E+03  0.89183846402E+03  0.00000000000E+00 0. -1.
</event>
<event>
 7    1  0.5779468E-006  0.8534031E+02  0.7818608E-02  0.1341088E+00
          2   -1    0    0  502    0  0.00000000000E+00  0.00000000000E+00  0.58789872506E+03  0.58789872506E+03  0.00000000000E+00 0. -1.
          1   -1    0    0  501    0 -0.00000000000E+00 -0.00000000000E+00 -0.15427804610E+03  0.15427804610E+03  0.00000000000E+00 0. -1.
         25    2    1    2    0    0 -0.11278098699E+02 -0.89122203775E+02  0.16227455492E+03  0.22367452884E+03  0.12500920351E+03 0.  0.
          2    1    1    2  501    0  0.68595415785E+02  0.53443490407E+02 -0.10489494332E+03  0.13625155730E+03  0.00000000000E+00 0. -1.
          1    1    1    2  502    0 -0.57317317086E+02  0.35678713367E+02  0.37624106736E+03  0.38225068501E+03  0.00000000000E+00 0. -1.
         22    1    3    3    0    0  0.51605785860E+02 -0.62448305844E+02  0.11473304707E+03  0.14045148674E+03  0.00000000000E+00 0. -1.
         22    1    3    3    0    0 -0.62883884558E+02 -0.26673897931E+02  0.47541507851E+02  0.83223042102E+02  0.00000000000E+00 0. -1.
</event>
<event>
 7    1  0.5779468E-006  0.5177365E+02  0.7818608E-02  0.1493195E+00
          2   -1    0    0  502    0  0.00000000000E+00  0.00000000000E+00  0.55686589253E+03  0.55686589253E+03  0.00000000000E+00 0. -1.
          1   -1    0    0  501    0 -0.00000000000E+00 -0.00000000000E+00 -0.10571777039E+04  0.10571777039E+04  0.00000000000E+00 0. -1.
         25    2    1    2    0    0  0.12272960895E+02  0.43221956600E+02 -0.74211060855E+03  0.75390363585E+03  0.12499509477E+03 0.  0.
          2    1    1    2  501    0  0.30955838733E+02 -0.14677753953E+02 -0.30699801443E+03  0.30890367637E+03  0.00000000000E+00 0. -1.
          1    1    1    2  502    0 -0.43228799628E+02 -0.28544202648E+02  0.54879681160E+03  0.55123628422E+03  0.00000000000E+00 0. -1.
         22    1    3    3    0    0  0.46509788026E+01 -0.44302949060E+02 -0.27885684228E+03  0.28239249527E+03  0.00000000000E+00 0.  1.
         22    1    3    3    0    0  0.76219820922E+01  0.87524905661E+02 -0.46325376627E+03  0.47151114057E+03  0.00000000000E+00 0.  1.
</event>
<event>
 7    1  0.5779468E-006  0.9446173E+02  0.7818608E-02  0.1295572E+00
          2   -1    0    0  502    0  0.00000000000E+00  0.00000000000E+00  0.48974607386E+03  0.48974607386E+03  0.00000000000E+00 0. -1.
          1   -1    0    0  501    0 -0.00000000000E+00 -0.00000000000E+00 -0.13517255914E+04  0.13517255914E+04  0.00000000000E+00 0. -1.
         25    2    1    2    0    0  0.26181267705E-01  0.86708241288E+01 -0.39683560956E+02  0.13143664217E+03  0.12500248805E+03 0.  0.
          2    1    1    2  501    0 -0.21052229250E+02  0.89259399649E+02 -0.12588255433E+04  0.12621617112E+04  0.00000000000E+00 0. -1.
          1    1    1    2  502    0  0.21026047982E+02 -0.97930223778E+02  0.43652958671E+03  0.44787331189E+03  0.00000000000E+00 0. -1.
         22    1    3    3    0    0  0.29172253218E+02 -0.15576979853E+02 -0.73522731317E+02  0.80617955069E+02  0.00000000000E+00 0. -1.
         22    1    3    3    0    0 -0.29146071951E+02  0.24247803982E+02  0.33839170362E+02  0.50818687103E+02  0.00000000000E+00 0. -1.
</event>
<event>
 7    1  0.5779468E-006  0.8688188E+02  0.7818608E-02  0.1321134E+00
          2   -1    0    0  502    0  0.00000000000E+00  0.00000000000E+00  0.70866010869E+02  0.70866010869E+02  0.00000000000E+00 0. -1.
          1   -1    0    0  501    0 -0.00000000000E+00 -0.00000000000E+00 -0.15881053453E+04  0.15881053453E+04  0.00000000000E+00 0. -1.
         25    2    1    2    0    0  0.11890422967E+03 -0.56465395506E+02 -0.53045072982E+03  0.56065070660E+03  0.12499872531E+03 0.  0.
          2    1    1    2  501    0 -0.41639496703E+02  0.73021735668E+02 -0.10119172241E+04  0.10154026246E+04  0.00000000000E+00 0. -1.
          1    1    1    2  502    0 -0.77264732964E+02 -0.16556340162E+02  0.25128619445E+02  0.82918025030E+02  0.00000000000E+00 0. -1.
         22    1    3    3    0    0  0.64878650685E+02 -0.57816270138E+02 -0.12876594190E+03  0.15534679978E+03  0.00000000000E+00 0.  1.
         22    1    3    3    0    0  0.54025578983E+02  0.13508746313E+01 -0.40168478791E+03  0.40530390682E+03  0.00000000000E+00 0.  1.
</event>
<event>
 7    1  0.5779468E-006  0.3214551E+03  0.7818608E-02  0.1199219E+00
          2   -1    0    0  502    0  0.00000000000E+00  0.00000000000E+00  0.11156520931E+04  0.11156520931E+04  0.00000000000E+00 0. -1.
          1   -1    0    0  501    0 -0.00000000000E+00 -0.00000000000E+00 -0.11204453779E+04  0.11204453779E+04  0.00000000000E+00 0. -1.
         25    2    1    2    0    0  0.37612135931E+03 -0.16621021518E+00 -0.10389529108E+03  0.40973914536E+03  0.12499852471E+03 0.  0.
          2    1    1    2  501    0 -0.31043162324E+03  0.26987893365E+02 -0.83413047616E+03  0.89043236147E+03  0.00000000000E+00 0. -1.
          1    1    1    2  502    0 -0.65689736064E+02 -0.26821683150E+02  0.93323248245E+03  0.93592596417E+03  0.00000000000E+00 0. -1.
         22    1    3    3    0    0  0.86131201189E+02 -0.19875040995E+02 -0.78070973597E+02  0.11793505836E+03  0.00000000000E+00 0. -1.
         22    1    3    3    0    0  0.28999015812E+03  0.19708830780E+02 -0.25824317486E+02  0.29180408700E+03  0.00000000000E+00 0. -1.
</event>
<event>
 7    1  0.5779468E-006  0.5036414E+02  0.7818608E-02  0.1496904E+00
          2   -1    0    0  502    0  0.00000000000E+00  0.00000000000E+00  0.18564473506E+04  0.18564473506E+04  0.00000000000E+00 0. -1.
          1   -1    0    0  501    0 -0.00000000000E+00 -0.00000000000E+00 -0.80054317233E+03  0.80054317233E+03  0.00000000000E+00 0. -1.
         25    2    1    2    0    0 -0.25921737139E+02 -0.14206074206E+02  0.56492286681E+03  0.57934172623E+03  0.12500096524E+03 0.  0.
          2    1    1    2  501    0  0.49179747671E+02 -0.11039623972E+02 -0.79230342428E+03  0.79390505541E+03  0.00000000000E+00 0. -1.
          1    1    1    2  502    0 -0.23258010533E+02  0.25245698178E+02  0.12832847357E+04  0.12837437413E+04  0.00000000000E+00 0. -1.
         22    1    3    3    0    0 -0.30401992657E+01  0.36838815761E+01 -0.60064586267E+01  0.76740693427E+01  0.00000000000E+00 0. -1.
         22    1    3    3    0    0 -0.22881537873E+02 -0.17889955782E+02  0.57092932543E+03  0.57166765689E+03  0.00000000000E+00 0. -1.
</event>
<event>
 7    1  0.5779468E-006  0.2063223E+03  0.7818608E-02  0.1350710E+00
          2   -1    0    0  502    0  0.00000000000E+00  0.00000000000E+00  0.27493069623E+03  0.27493069623E+03  0.00000000000E+00 0. -1.
          1   -1    0    0  501    0 -0.00000000000E+00 -0.00000000000E+00 -0.15148228181E+04  0.15148228181E+04  0.00000000000E+00 0. -1.
         25    2    1    2    0    0  0.12817540829E+03 -0.14912578960E+03  0.10064353203E+03  0.25381230504E+03  0.12499651690E+03 0.  0.
          2    1    1    2  501    0  0.17503596865E+02 -0.18833977700E+02 -0.13114612281E+04  0.13117132489E+04  0.00000000000E+00 0. -1.
          1    1    1    2  502    0 -0.14567900515E+03  0.16795976730E+03 -0.29074425812E+02  0.22422796037E+03  0.00000000000E+00 0. -1.
         22    1    3    3    0    0  0.57426187376E+02 -0.10021003337E+03 -0.73732492406E+01  0.11573323891E+03  0.00000000000E+00 0.  1.
         22    1    3    3    0    0  0.70749220912E+02 -0.48915756233E+02  0.10801678127E+03  0.13807906613E+03  0.00000000000E+00 0.  1.
</event>
<event>
 7    1  0.5779468E-006  0.1272293E+03  0.7818608E-02  0.1399094E+00
          2   -1    0    0  502    0  0.00000000000E+00  0.00000000000E+00  0.44501133314E+03  0.44501133314E+03  0.00000000000E+00 0. -1.
          1   -1    0    0  501    0 -0.00000000000E+00 -0.00000000000E+00 -0.71922040008E+03  0.71922040008E+03  0.00000000000E+00 0. -1.
         25    2    1    2    0    0 -0.11473681562E+03 -0.80513705421E+02 -0.10716399508E+03  0.21623136411E+03  0.12499954945E+03 0.  0.
          2    1    1    2  501    0  0.11432613683E+03  0.52503468831E+02 -0.54990741047E+03  0.56411456274E+03  0.00000000000E+00 0. -1.
          1    1    1    2  502    0  0.41067879730E+00  0.28010236589E+02  0.38286233861E+03  0.38388580638E+03  0.00000000000E+00 0. -1.
         22    1    3    3    0    0 -0.75411021090E+02 -0.32887026994E+01 -0.10528742854E+03  0.12954952828E+03  0.00000000000E+00 0.  1.
         22    1    3    3    0    0 -0.39325794533E+02 -0.77225002721E+02 -0.18765665380E+01  0.86681835830E+02  0.00000000000E+00 0.  1.
</event>
<event>
 7    1  0.9187794E-006  0.1020389E+03  0.7818608E-02  0.1315005E+00
          2   -1    0    0  502    0  0.00000000000E+00  0.00000000000E+00  0.21810415888E+04  0.21810415888E+04  0.00000000000E+00 0. -1.
          1   -1    0    0  501    0 -0.00000000000E+00 -0.00000000000E+00 -0.24493031355E+04  0.24493031355E+04  0.00000000000E+00 0. -1.
         25    2    1    2    0    0  0.11488772180E+03  0.10927641277E+03 -0.12469503957E+04  0.12631905631E+04  0.12499834504E+03 0.  0.
          2    1    1    2  501    0 -0.54027488875E+02 -0.72557724626E+02 -0.11919369419E+04  0.11953649094E+04  0.00000000000E+00 0. -1.
          1    1    1    2  502    0 -0.60860232923E+02 -0.36718688146E+02  0.21706257909E+04  0.21717892518E+04  0.00000000000E+00 0. -1.
         22    1    3    3    0    0 -0.12640263648E+02  0.28267226033E+01 -0.39409559322E+03  0.39430838593E+03  0.00000000000E+00 0. -1.
         22    1    3    3    0    0  0.12752798545E+03  0.10644969017E+03 -0.85285480249E+03  0.86888217713E+03  0.00000000000E+00 0. -1.
</event>
<event>
 7    1  0.5779468E-006  0.1302516E+03  0.7818608E-02  0.1238739E+00
          2   -1    0    0  502    0  0.00000000000E+00  0.00000000000E+00  0.14491118235E+04  0.14491118235E+04  0.00000000000E+00 0. -1.
          1   -1    0    0  501    0 -0.00000000000E+00 -0.00000000000E+00 -0.56385879465E+03  0.56385879465E+03  0.00000000000E+00 0. -1.
         25    2    1    2    0    0 -0.43913771924E+01 -0.23314610257E+03  0.23470469744E+02  0.26561733216E+03  0.12500125941E+03 0.  0.
          2    1    1    2  501    0  0.30388996884E+02  0.12055853370E+03 -0.43143066573E+03  0.44898805163E+03  0.00000000000E+00 0. -1.
          1    1    1    2  502    0 -0.25997619692E+02  0.11258756887E+03  0.12932132248E+04  0.12983652344E+04  0.00000000000E+00 0. -1.
         22    1    3    3    0    0 -0.39005973191E+02 -0.42690938380E+02  0.41539774351E+02  0.71200667254E+02  0.00000000000E+00 0. -1.
         22    1    3    3    0    0  0.34614595998E+02 -0.19045516419E+03 -0.18069304608E+02  0.19441666491E+03  0.00000000000E+00 0. -1.
</event>
<event>
 7    1  0.5779468E-006  0.7772489E+02  0.7818608E-02  0.1376518E+00
          2   -1    0    0  502    0  0.00000000000E+00  0.00000000000E+00  0.78075899121E+03  0.78075899121E+03  0.00000000000E+00 0. -1.
          1   -1    0    0  501    0 -0.00000000000E+00 -0.00000000000E+00 -0.69510467181E+03  0.69510467181E+03  0.00000000000E+00 0. -1.
         25    2    1    2    0    0  0.28952647918E+02 -0.12789190656E+03  0.11315876749E+02  0.18151618823E+03  0.12500192773E+03 0.  0.
          2    1    1    2  501    0 -0.80576736997E+01  0.54415798509E+02 -0.60662438816E+03  0.60911341599E+03  0.00000000000E+00 0. -1.
          1    1    1    2  502    0 -0.20894974218E+02  0.73476108054E+02  0.68096283081E+03  0.68523405880E+03  0.00000000000E+00 0. -1.
         22    1    3    3    0    0  0.24177607602E+02 -0.98907302821E+02 -0.50069366123E+02  0.11346432340E+03  0.00000000000E+00 0. -1.
         22    1    3    3    0    0  0.47750403154E+01 -0.28984603742E+02  0.61385242872E+02  0.68051864828E+02  0.00000000000E+00 0. -1.
</event>
<event>
 7    1  0.5779468E-006  0.1237749E+03  0.7818608E-02  0.1440916E+00
          2   -1    0    0  502    0  0.00000000000E+00  0.00000000000E+00  0.42484721451E+03  0.42484721451E+03  0.00000000000E+00 0. -1.
          1   -1    0    0  501    0 -0.00000000000E+00 -0.00000000000E+00 -0.98641684464E+03  0.98641684464E+03  0.00000000000E+00 0. -1.
         25    2    1    2    0    0  0.10206614431E+03  0.15872429426E+02  0.20522845799E+03  0.26156008979E+03  0.12500211508E+03 0.  0.
          2    1    1    2  501    0 -0.12286052126E+03 -0.17693291065E+02 -0.95364765146E+03  0.96169205226E+03  0.00000000000E+00 0. -1.
          1    1    1    2  502    0  0.20794376951E+02  0.18208616384E+01  0.18684956334E+03  0.18801191710E+03  0.00000000000E+00 0. -1.
         22    1    3    3    0    0  0.88738563711E+01 -0.48232122197E+02  0.61213749352E+02  0.78435999695E+02  0.00000000000E+00 0.  1.
         22    1    3    3    0    0  0.93192287938E+02  0.64104551623E+02  0.14401470864E+03  0.18312409010E+03  0.00000000000E+00 0.  1.
</event>
<event>
 7    1  0.5779468E-006  0.5365258E+02  0.7818608E-02  0.1431167E+00
          2   -1    0    0  502    0  0.00000000000E+00  0.00000000000E+00  0.30722002563E+03  0.30722002563E+03  0.00000000000E+00 0. -1.
          1   -1    0    0  501    0 -0.00000000000E+00 -0.00000000000E+00 -0.12070732409E+04  0.12070732409E+04  0.00000000000E+00 0. -1.
         25    2    1    2    0    0 -0.91374606061E+01 -0.81988560900E+02 -0.41552468682E+03  0.44169001793E+03  0.12499475700E+03 0.  0.
          2    1    1    2  501    0 -0.28149527604E+02  0.43503507783E+02 -0.77515317106E+03  0.77688312486E+03  0.00000000000E+00 0. -1.
          1    1    1    2  502    0  0.37286988210E+02  0.38485053117E+02  0.29082464264E+03  0.29572012371E+03  0.00000000000E+00 0. -1.
         22    1    3    3    0    0 -0.61265557387E+02 -0.13933108690E+02 -0.14858503969E+03  0.16132301157E+03  0.00000000000E+00 0.  1.
         22    1    3    3    0    0  0.52128096781E+02 -0.68055452210E+02 -0.26693964713E+03  0.28036700637E+03  0.00000000000E+00 0.  1.
</event>
<event>
 7    1  0.5779468E-006  0.8626043E+02  0.7818608E-02  0.1398264E+00
          2   -1    0    0  502    0  0.00000000000E+00  0.00000000000E+00  0.32801534155E+03  0.32801534155E+03  0.00000000000E+00 0. -1.
          1   -1    0    0  501    0 -0.00000000000E+00 -0.00000000000E+00 -0.26288138971E+03  0.26288138971E+03  0.00000000000E+00 0. -1.
         25    2    1    2    0    0 -0.44180362802E+02  0.84594920381E+02 -0.10043195594E+03  0.18660612665E+03  0.12500825460E+03 0.  0.
          2    1    1    2  501    0 -0.25078133865E+02 -0.33180061923E+02 -0.10890940065E+03  0.11658081685E+03  0.00000000000E+00 0. -1.
          1    1    1    2  502    0  0.69258496667E+02 -0.51414858458E+02  0.27447530843E+03  0.28770978775E+03  0.00000000000E+00 0. -1.
         22    1    3    3    0    0 -0.13735705960E+02  0.58497203597E+02 -0.12562041460E+03  0.13925186179E+03  0.00000000000E+00 0. -1.
         22    1    3    3    0    0 -0.30444656842E+02  0.26097716784E+02  0.25188458656E+02  0.47354264867E+02  0.00000000000E+00 0. -1.
</event>
<event>
 7    1  0.5779468E-006  0.6207180E+02  0.7818608E-02  0.1511558E+00
          2   -1    0    0  502    0  0.00000000000E+00  0.00000000000E+00  0.12582345270E+03  0.12582345270E+03  0.00000000000E+00 0. -1.
          1   -1    0    0  501    0 -0.00000000000E+00 -0.00000000000E+00 -0.15569068846E+04  0.15569068846E+04  0.00000000000E+00 0. -1.
         25    2    1    2    0    0 -0.55901172455E+02  0.58091802698E+02 -0.18408657304E+03  0.23666906648E+03  0.12499912812E+03 0.  0.
          2    1    1    2  501    0  0.24626892081E+02 -0.53362128468E+01 -0.13369517847E+04  0.13371892288E+04  0.00000000000E+00 0. -1.
          1    1    1    2  502    0  0.31274280373E+02 -0.52755589851E+02  0.89954925790E+02  0.10887204208E+03  0.00000000000E+00 0. -1.
         22    1    3    3    0    0 -0.49773454235E+01 -0.26477716637E+02 -0.10997706474E+03  0.11322896368E+03  0.00000000000E+00 0.  1.
         22    1    3    3    0    0 -0.50923827031E+02  0.84569519335E+02 -0.74109508302E+02  0.12344010281E+03  0.00000000000E+00 0.  1.
</event>
<event>
 7    1  0.5779468E-006  0.9788010E+02  0.7818608E-02  0.1313482E+00
          2   -1    0    0  502    0  0.00000000000E+00  0.00000000000E+00  0.77464378242E+03  0.77464378242E+03  0.00000000000E+00 0. -1.
          1   -1    0    0  501    0 -0.00000000000E+00 -0.00000000000E+00 -0.71151824361E+02  0.71151824361E+02  0.00000000000E+00 0. -1.
         25    2    1    2    0    0  0.36994285243E+02 -0.69657252911E+02  0.44363647840E+03  0.46760961294E+03  0.12499886051E+03 0.  0.
          2    1    1    2  501    0  0.33008951394E+02  0.96916693256E+02 -0.53720982340E+01  0.10252461043E+03  0.00000000000E+00 0. -1.
          1    1    1    2  502    0 -0.70003236637E+02 -0.27259440345E+02  0.26522757789E+03  0.27566138341E+03  0.00000000000E+00 0. -1.
         22    1    3    3    0    0  0.70401785295E+02 -0.38412256340E+02  0.14688315810E+03  0.16735165055E+03  0.00000000000E+00 0. -1.
         22    1    3    3    0    0 -0.33407500052E+02 -0.31244996571E+02  0.29675332030E+03  0.30025796239E+03  0.00000000000E+00 0. -1.
</event>
<event>
 7    1  0.5779468E-006  0.9382802E+02  0.7818608E-02  0.1340495E+00
          2   -1    0    0  502    0  0.00000000000E+00  0.00000000000E+00  0.21988164467E+04  0.21988164467E+04  0.00000000000E+00 0. -1.
          1   -1    0    0  501    0 -0.00000000000E+00 -0.00000000000E+00 -0.15080588821E+04  0.15080588821E+04  0.00000000000E+00 0. -1.
         25    2    1    2    0    0  0.21540211964E+02 -0.44287032238E+02  0.38619970633E+03  0.40890154975E+03  0.12499976905E+03 0.  0.
          2    1    1    2  501    0 -0.26874781384E+02 -0.55565420467E+02 -0.14946827505E+04  0.14959566486E+04  0.00000000000E+00 0. -1.
          1    1    1    2  502    0  0.53345694197E+01  0.99852452705E+02  0.17992406088E+04  0.18020171304E+04  0.00000000000E+00 0. -1.
         22    1    3    3    0    0  0.31226530319E+02 -0.60772522090E+02  0.38356181775E+03  0.38959987638E+03  0.00000000000E+00 0. -1.
         22    1    3    3    0    0 -0.96863183550E+01  0.16485489851E+02  0.26378885811E+01  0.19301673375E+02  0.00000000000E+00 0. -1.
</event>
<event>
 7    1  0.5779468E-006  0.6492963E+02  0.7818608E-02  0.1409208E+00
          2   -1    0    0  502    0  0.00000000000E+00  0.00000000000E+00  0.19056521922E+04  0.19056521922E+04  0.00000000000E+00 0. -1.
          1   -1    0    0  501    0 -0.00000000000E+00 -0.00000000000E+00 -0.33645080053E+03  0.33645080053E+03  0.00000000000E+00 0. -1.
         25    2    1    2    0    0  0.92144085581E+02  0.58286337871E+02  0.10565665256E+03  0.19666513010E+03  0.12500406184E+03 0.  0.
          2    1    1    2  501    0 -0.30167301003E+02 -0.40738376755E+02 -0.28814207365E+03  0.29256714784E+03  0.00000000000E+00 0. -1.
          1    1    1    2  502    0 -0.61976784578E+02 -0.17547961115E+02  0.17516868127E+04  0.17528707148E+04  0.00000000000E+00 0. -1.
         22    1    3    3    0    0  0.20293749071E+02 -0.14782188790E+02 -0.21709773831E+02  0.33191318693E+02  0.00000000000E+00 0.  1.
         22    1    3    3    0    0  0.71850336510E+02  0.73068526661E+02  0.12736642639E+03  0.16347381141E+03  0.00000000000E+00 0.  1.
</event>
<event>
 7    1  0.5779468E-006  0.3298704E+02  0.7818608E-02  0.1588909E+00
          2   -1    0    0  502    0  0.00000000000E+00  0.00000000000E+00  0.11234457631E+04  0.11234457631E+04  0.00000000000E+00 0. -1.
          1   -1    0    0  501    0 -0.00000000000E+00 -0.00000000000E+00 -0.21591720752E+04  0.21591720752E+04  0.00000000000E+00 0. -1.
         25    2    1    2    0    0 -0.20632641837E+02  0.40899743191E+02 -0.17263834669E+03  0.21800808364E+03  0.12500012354E+03 0.  0.
          2    1    1    2  501    0  0.27520712641E+02 -0.86433905409E+01 -0.19634958128E+04  0.19637076933E+04  0.00000000000E+00 0. -1.
          1    1    1    2  502    0 -0.68880708036E+01 -0.32256352651E+02  0.11004078474E+04  0.11009020613E+04  0.00000000000E+00 0. -1.
         22    1    3    3    0    0 -0.25334658247E+02  0.77230301571E+02 -0.64282898435E+02  0.10362748390E+03  0.00000000000E+00 0. -1.
         22    1    3    3    0    0  0.47020164096E+01 -0.36330558379E+02 -0.10835544825E+03  0.11438059974E+03  0.00000000000E+00 0. -1.
</event>
<event>
 7    1  0.5779468E-006  0.5506935E+02  0.7818608E-02  0.1420321E+00
          2   -1    0    0  502    0  0.00000000000E+00  0.00000000000E+00  0.60344288580E+03  0.60344288580E+03  0.00000000000E+00 0. -1.
          1   -1    0    0  501    0 -0.00000000000E+00 -0.00000000000E+00 -0.12437940540E+04  0.12437940540E+04  0.00000000000E+00 0. -1.
         25    2    1    2    0    0 -0.80311873330E+02 -0.11256603831E+02 -0.69525462129E+03  0.71103837553E+03  0.12497949801E+03 0.  0.
          2    1    1    2  501    0  0.45153400196E+02 -0.31117097333E+02 -0.53797814822E+03  0.54076574527E+03  0.00000000000E+00 0. -1.
          1    1    1    2  502    0  0.35158473134E+02  0.42373701164E+02  0.59288160131E+03  0.59543281901E+03  0.00000000000E+00 0. -1.
         22    1    3    3    0    0  0.18029916004E+01 -0.55554258329E+02 -0.24705721521E+03  0.25323268743E+03  0.00000000000E+00 0.  1.
         22    1    3    3    0    0 -0.82114864930E+02  0.44297654498E+02 -0.44819740608E+03  0.45780568810E+03  0.00000000000E+00 0.  1.
</event>
<event>
 7    1  0.5779468E-006  0.3406695E+02  0.7818608E-02  0.1563061E+00
          2   -1    0    0  502    0  0.00000000000E+00  0.00000000000E+00  0.69602873409E+03  0.69602873409E+03  0.00000000000E+00 0. -1.
          1   -1    0    0  501    0 -0.00000000000E+00 -0.00000000000E+00 -0.23298422495E+03  0.23298422495E+03  0.00000000000E+00 0. -1.
         25    2    1    2    0    0 -0.48909949062E+02  0.30871086740E+02  0.22029667208E+03  0.25980868729E+03  0.12499889259E+03 0.  0.
          2    1    1    2  501    0  0.16131647903E+02 -0.29900199691E+02 -0.21127979571E+03  0.21399393468E+03  0.00000000000E+00 0. -1.
          1    1    1    2  502    0  0.32778301159E+02 -0.97088704891E+00  0.45402763278E+03  0.45521033707E+03  0.00000000000E+00 0. -1.
         22    1    3    3    0    0  0.13687743851E+02  0.33962231094E+02  0.67228539843E+01  0.37228809252E+02  0.00000000000E+00 0.  1.
         22    1    3    3    0    0 -0.62597692914E+02 -0.30911443535E+01  0.21357381809E+03  0.22257987804E+03  0.00000000000E+00 0.  1.
</event>
<event>
 7    1  0.5779468E-006  0.5125725E+02  0.7818608E-02  0.1512659E+00
          2   -1    0    0  502    0  0.00000000000E+00  0.00000000000E+00  0.21938498525E+03  0.21938498525E+03  0.00000000000E+00 0. -1.
          1   -1    0    0  501    0 -0.00000000000E+00 -0.00000000000E+00 -0.24815453324E+03  0.24815453324E+03  0.00000000000E+00 0. -1.
         25    2    1    2    0    0  0.45302956227E+02  0.18288812091E+02 -0.10346170465E+03  0.16945901421E+03  0.12500077871E+03 0.  0.
          2    1    1    2  501    0 -0.17204051070E+02  0.24928360925E+02 -0.10596706117E+03  0.11021080077E+03  0.00000000000E+00 0. -1.
          1    1    1    2  502    0 -0.28098905157E+02 -0.43217173016E+02  0.18065921783E+03  0.18786970352E+03  0.00000000000E+00 0. -1.
         22    1    3    3    0    0  0.75551223910E+02  0.35477322634E+02 -0.30926301354E+02  0.89011594588E+02  0.00000000000E+00 0.  1.
         22    1    3    3    0    0 -0.30248267684E+02 -0.17188510543E+02 -0.72535403292E+02  0.80447419619E+02  0.00000000000E+00 0.  1.
</event>
<event>
 7    1  0.5779468E-006  0.4963619E+02  0.7818608E-02  0.1459832E+00
          2   -1    0    0  502    0  0.00000000000E+00  0.00000000000E+00  0.42802483874E+03  0.42802483874E+03  0.00000000000E+00 0. -1.
          1   -1    0    0  501    0 -0.00000000000E+00 -0.00000000000E+00 -0.32779303609E+03  0.32779303609E+03  0.00000000000E+00 0. -1.
         25    2    1    2    0    0 -0.84658004842E+02 -0.78011233172E+01 -0.50739023889E+02  0.15945938072E+03  0.12500004098E+03 0.  0.
          2    1    1    2  501    0  0.45740618237E+02 -0.15352807494E+02 -0.21868244092E+03  0.22394178445E+03  0.00000000000E+00 0. -1.
          1    1    1    2  502    0  0.38917386605E+02  0.23153930811E+02  0.36965326745E+03  0.37241670966E+03  0.00000000000E+00 0. -1.
         22    1    3    3    0    0  0.72296336630E+01  0.30594871012E+02  0.20040575776E+02  0.37281877804E+02  0.00000000000E+00 0.  1.
         22    1    3    3    0    0 -0.91887638505E+02 -0.38395994329E+02 -0.70779599665E+02  0.12217750292E+03  0.00000000000E+00 0.  1.
</event>
<event>
 7    1  0.5779468E-006  0.6355644E+02  0.7818608E-02  0.1388608E+00
          2   -1    0    0  502    0  0.00000000000E+00  0.00000000000E+00  0.18976428831E+04  0.18976428831E+04  0.00000000000E+00 0. -1.
          1   -1    0    0  501    0 -0.00000000000E+00 -0.00000000000E+00 -0.19145735234E+04  0.19145735234E+04  0.00000000000E+00 0. -1.
         25    2    1    2    0    0 -0.33456350675E+02 -0.38119529407E+02  0.14614245537E+03  0.19888519223E+03  0.12500110601E+03 0.  0.
          2    1    1    2  501    0 -0.23812687787E+02  0.59063406413E+02 -0.18871260207E+04  0.18882002404E+04  0.00000000000E+00 0. -1.
          1    1    1    2  502    0  0.57269038461E+02 -0.20943877007E+02  0.17240529250E+04  0.17251309738E+04  0.00000000000E+00 0. -1.
         22    1    3    3    0    0 -0.42837451887E+02 -0.53384557764E+02  0.16142425684E+03  0.17533610292E+03  0.00000000000E+00 0. -1.
         22    1    3    3    0    0  0.93811012128E+01  0.15265028358E+02 -0.15281801473E+02  0.23549089302E+02  0.00000000000E+00 0. -1.
</event>
<event>
 7    1  0.5779468E-006  0.1158417E+03  0.7818608E-02  0.1318916E+00
          2   -1    0    0  502    0  0.00000000000E+00  0.00000000000E+00  0.94720753153E+03  0.94720753153E+03  0.00000000000E+00 0. -1.
          1   -1    0    0  501    0 -0.00000000000E+00 -0.00000000000E+00 -0.13599746859E+04  0.13599746859E+04  0.00000000000E+00 0. -1.
         25    2    1    2    0    0  0.49174848014E+02 -0.48169283478E+02  0.13122612272E+03  0.19386828760E+03  0.12500468833E+03 0.  0.
          2    1    1    2  501    0 -0.43318129410E+02  0.10833505621E+03 -0.13249218475E+04  0.13300491896E+04  0.00000000000E+00 0. -1.
          1    1    1    2  502    0 -0.58567186043E+01 -0.60165772728E+02  0.78092857037E+03  0.78326474029E+03  0.00000000000E+00 0. -1.
         22    1    3    3    0    0 -0.11192425681E+01 -0.37695480002E+02 -0.13686563210E+02  0.40118872480E+02  0.00000000000E+00 0. -1.
         22    1    3    3    0    0  0.50294090582E+02 -0.10473803476E+02  0.14491268593E+03  0.15374941512E+03  0.00000000000E+00 0. -1.
</event>
<event>
 7    1  0.5779468E-006  0.5883691E+02  0.7818608E-02  0.1483196E+00
          2   -1    0    0  502    0  0.00000000000E+00  0.00000000000E+00  0.80481907240E+03  0.80481907240E+03  0.00000000000E+00 0. -1.
          1   -1    0    0  501    0 -0.00000000000E+00 -0.00000000000E+00 -0.46713082366E+02  0.46713082366E+02  0.00000000000E+00 0. -1.
         25    2    1    2    0    0  0.23031709963E+02 -0.18654441135E+02  0.10283060926E+03  0.16455169312E+03  0.12499871067E+03 0.  0.
          2    1    1    2  501    0  0.12873911105E+02 -0.29652951058E+02  0.35948836306E+01  0.32526270643E+02  0.00000000000E+00 0. -1.
          1    1    1    2  502    0 -0.35905621068E+02  0.48307392193E+02  0.65168049714E+03  0.65445419100E+03  0.00000000000E+00 0. -1.
         22    1    3    3    0    0  0.36196517385E+02 -0.70280101483E+01 -0.18987335392E+02  0.41474084713E+02  0.00000000000E+00 0.  1.
         22    1    3    3    0    0 -0.13164807422E+02 -0.11626430986E+02  0.12181794465E+03  0.12307760840E+03  0.00000000000E+00 0.  1.
</event>
<event>
 7    1  0.5779468E-006  0.2807847E+02  0.7818608E-02  0.1656549E+00
          2   -1    0    0  502    0  0.00000000000E+00  0.00000000000E+00  0.60259113019E+03  0.60259113019E+03  0.00000000000E+00 0. -1.
          1   -1    0    0  501    0 -0.00000000000E+00 -0.00000000000E+00 -0.61399541747E+03  0.61399541747E+03  0.00000000000E+00 0. -1.
         25    2    1    2    0    0  0.49906701059E+01  0.12765311977E+02  0.12038005112E+03  0.17408245748E+03  0.12500194126E+03 0.  0.
          2    1    1    2  501    0 -0.19685596726E+02  0.11541579237E+02 -0.58647918145E+03  0.58692296006E+03  0.00000000000E+00 0. -1.
          1    1    1    2  502    0  0.14694926620E+02 -0.24306891214E+02  0.45469484305E+03  0.45558113013E+03  0.00000000000E+00 0. -1.
         22    1    3    3    0    0  0.57546269492E+02 -0.17320342752E+02  0.84508044756E+02  0.10369752665E+03  0.00000000000E+00 0. -1.
         22    1    3    3    0    0 -0.52555599386E+02  0.30085654729E+02  0.35872006362E+02  0.70384930829E+02  0.00000000000E+00 0. -1.
</event>
<event>
 7    1  0.6079742E-006  0.7063603E+02  0.7818608E-02  0.1446422E+00
          2   -1    0    0  502    0  0.00000000000E+00  0.00000000000E+00  0.20269167042E+04  0.20269167042E+04  0.00000000000E+00 0. -1.
          1   -1    0    0  501    0 -0.00000000000E+00 -0.00000000000E+00 -0.57831697337E+03  0.57831697337E+03  0.00000000000E+00 0. -1.
         25    2    1    2    0    0  0.22075874810E+01  0.10259583472E+03 -0.34472800696E+03  0.38078043008E+03  0.12500223361E+03 0.  0.
          2    1    1    2  501    0  0.11160415830E+02 -0.33289470788E+02 -0.21350850094E+03  0.21637611633E+03  0.00000000000E+00 0. -1.
          1    1    1    2  502    0 -0.13368003311E+02 -0.69306363932E+02  0.20068362387E+04  0.20080771311E+04  0.00000000000E+00 0. -1.
         22    1    3    3    0    0  0.10037887680E+02  0.11759987535E+03 -0.34417158022E+03  0.36384689982E+03  0.00000000000E+00 0. -1.
         22    1    3    3    0    0 -0.78303001988E+01 -0.15004040634E+02 -0.55642673680E+00  0.16933530266E+02  0.00000000000E+00 0. -1.
</event>
<event>
 7    1  0.5779468E-006  0.6099297E+02  0.7818608E-02  0.1513023E+00
          2   -1    0    0  502    0  0.00000000000E+00  0.00000000000E+00  0.34511499194E+03  0.34511499194E+03  0.00000000000E+00 0. -1.
          1   -1    0    0  501    0 -0.00000000000E+00 -0.00000000000E+00 -0.34289849270E+03  0.34289849270E+03  0.00000000000E+00 0. -1.
         25    2    1    2    0    0 -0.24064533988E+02  0.28314557921E+02 -0.19434564804E+02  0.13184474071E+03  0.12499806942E+03 0.  0.
          2    1    1    2  501    0  0.40144488350E+02 -0.47965565401E+02 -0.26302638531E+03  0.27036115620E+03  0.00000000000E+00 0. -1.
          1    1    1    2  502    0 -0.16079954363E+02  0.19651007480E+02  0.28467744936E+03  0.28580758773E+03  0.00000000000E+00 0. -1.
         22    1    3    3    0    0 -0.41298553804E+02  0.68151195095E+02 -0.33174158090E+02  0.86317325632E+02  0.00000000000E+00 0. -1.
         22    1    3    3    0    0  0.17234019816E+02 -0.39836637174E+02  0.13739593286E+02  0.45527415082E+02  0.00000000000E+00 0. -1.
</event>
<event>
 7    1  0.5779468E-006  0.1125074E+03  0.7818608E-02  0.1418322E+00
          2   -1    0    0  502    0  0.00000000000E+00  0.00000000000E+00  0.28247202426E+03  0.28247202426E+03  0.00000000000E+00 0. -1.
          1   -1    0    0  501    0 -0.00000000000E+00 -0.00000000000E+00 -0.47186749680E+03  0.47186749680E+03  0.00000000000E+00 0. -1.
         25    2    1    2    0    0 -0.93866254121E+02 -0.40486134586E+01  0.21536849379E+02  0.15784806390E+03  0.12499964185E+03 0.  0.
          2    1    1    2  501    0 -0.23265752022E+02  0.14201406615E+02 -0.38525958145E+03  0.38622263044E+03  0.00000000000E+00 0. -1.
          1    1    1    2  502    0  0.11713200614E+03 -0.10152793157E+02  0.17432725954E+03  0.21026882672E+03  0.00000000000E+00 0. -1.
         22    1    3    3    0    0  0.23043432279E+02 -0.28523048889E+02  0.89343351546E+01  0.37741044418E+02  0.00000000000E+00 0. -1.
         22    1    3    3    0    0 -0.11690968640E+03  0.24474435431E+02  0.12602514224E+02  0.12010701948E+03  0.00000000000E+00 0. -1.
</event>
<event>
 7    1  0.5779468E-006  0.4741123E+02  0.7818608E-02  0.1566266E+00
          2   -1    0    0  502    0  0.00000000000E+00  0.00000000000E+00  0.54381224625E+03  0.54381224625E+03  0.00000000000E+00 0. -1.
          1   -1    0    0  501    0 -0.00000000000E+00 -0.00000000000E+00 -0.16774690007E+04  0.16774690007E+04  0.00000000000E+00 0. -1.
         25    2    1    2    0    0 -0.66997633192E+02  0.11611124837E+02  0.34062069006E+02  0.14631957798E+03  0.12500277310E+03 0.  0.
          2    1    1    2  501    0  0.20012247194E+02 -0.11521516477E+02 -0.16200410700E+04  0.16202056363E+04  0.00000000000E+00 0. -1.
          1    1    1    2  502    0  0.46985385998E+02 -0.89608359763E-01  0.45232224655E+03  0.45475603267E+03  0.00000000000E+00 0. -1.
         22    1    3    3    0    0  0.26269359390E+02 -0.21794135361E+02 -0.13147018040E+02  0.36577420114E+02  0.00000000000E+00 0. -1.
         22    1    3    3    0    0 -0.93266992582E+02  0.33405260197E+02  0.47209087045E+02  0.10974215787E+03  0.00000000000E+00 0. -1.
</event>
<event>
 7    1  0.5779468E-006  0.7826716E+02  0.7818608E-02  0.1361557E+00
          2   -1    0    0  502    0  0.00000000000E+00  0.00000000000E+00  0.11037611328E+04  0.11037611328E+04  0.00000000000E+00 0. -1.
          1   -1    0    0  501    0 -0.00000000000E+00 -0.00000000000E+00 -0.20160730130E+03  0.20160730130E+03  0.00000000000E+00 0. -1.
         25    2    1    2    0    0 -0.99823588087E+02  0.94738195945E+02 -0.36072803435E+02  0.18938789282E+03  0.12500580902E+03 0.  0.
          2    1    1    2  501    0  0.51633722849E+02 -0.34034193123E+02 -0.76459645058E+02  0.98338420565E+02  0.00000000000E+00 0. -1.
          1    1    1    2  502    0  0.48189865238E+02 -0.60704002822E+02  0.10146862800E+04  0.10176421208E+04  0.00000000000E+00 0. -1.
         22    1    3    3    0    0 -0.54404904053E+02  0.47746425313E+02 -0.82099778552E+02  0.10945313314E+03  0.00000000000E+00 0. -1.
         22    1    3    3    0    0 -0.45418684033E+02  0.46991770632E+02  0.46026975117E+02  0.79934759678E+02  0.00000000000E+00 0. -1.
</event>
<event>
 7    1  0.5779468E-006  0.1160510E+03  0.7818608E-02  0.1277594E+00
          2   -1    0    0  502    0  0.00000000000E+00  0.00000000000E+00  0.19120052381E+04  0.19120052381E+04  0.00000000000E+00 0. -1.
          1   -1    0    0  501    0 -0.00000000000E+00 -0.00000000000E+00 -0.10424947126E+04  0.10424947126E+04  0.00000000000E+00 0. -1.
         25    2    1    2    0    0  0.15678028935E+03 -0.12212848611E+03  0.11277603907E+04  0.11519392795E+04  0.12500071417E+03 0.  0.
          2    1    1    2  501    0 -0.10383974719E+03  0.51312310924E+02 -0.10246004264E+04  0.10311264133E+04  0.00000000000E+00 0. -1.
          1    1    1    2  502    0 -0.52940542157E+02  0.70816175181E+02  0.76635056118E+03  0.77143425792E+03  0.00000000000E+00 0. -1.
         22    1    3    3    0    0  0.13307367642E+03 -0.37454142504E+02  0.83119579535E+03  0.84261371124E+03  0.00000000000E+00 0.  1.
         22    1    3    3    0    0  0.23706612928E+02 -0.84674343602E+02  0.29656459535E+03  0.30932556825E+03  0.00000000000E+00 0.  1.
</event>
<event>
 7    1  0.5779468E-006  0.1150218E+03  0.7818608E-02  0.1341220E+00
          2   -1    0    0  502    0  0.00000000000E+00  0.00000000000E+00  0.36442327933E+04  0.36442327933E+04  0.00000000000E+00 0. -1.
          1   -1    0    0  501    0 -0.00000000000E+00 -0.00000000000E+00 -0.11367235054E+03  0.11367235054E+03  0.00000000000E+00 0. -1.
         25    2    1    2    0    0  0.47993077217E+02  0.83668085036E+02  0.17281448760E+03  0.23408152645E+03  0.12500251992E+03 0.  0.
          2    1    1    2  501    0  0.46974921543E+02 -0.17230592190E+02 -0.74433568891E+02  0.89687751332E+02  0.00000000000E+00 0. -1.
          1    1    1    2  502    0 -0.94967998759E+02 -0.66437492847E+02  0.34321795241E+04  0.34341358661E+04  0.00000000000E+00 0. -1.
         22    1    3    3    0    0  0.66953924843E+02  0.54543685610E+02  0.17903676657E+03  0.19877626990E+03  0.00000000000E+00 0. -1.
         22    1    3    3    0    0 -0.18960847626E+02  0.29124399426E+02 -0.62222789674E+01  0.35305256551E+02  0.00000000000E+00 0. -1.
</event>
<event>
 7    1  0.5779468E-006  0.7474611E+02  0.7818608E-02  0.1394504E+00
          2   -1    0    0  502    0  0.00000000000E+00  0.00000000000E+00  0.95986494755E+03  0.95986494755E+03  0.00000000000E+00 0. -1.
          1   -1    0    0  501    0 -0.00000000000E+00 -0.00000000000E+00 -0.38165614144E+03  0.38165614144E+03  0.00000000000E+00 0. -1.
         25    2    1    2    0    0 -0.59562655705E+02 -0.99422668763E+02  0.37665598389E+03  0.41343325430E+03  0.12499899415E+03 0.  0.
          2    1    1    2  501    0  0.54918174583E+02  0.50184966023E+02 -0.35835720253E+03  0.36599784332E+03  0.00000000000E+00 0. -1.
          1    1    1    2  502    0  0.46444811212E+01  0.49237702740E+02  0.55991002475E+03  0.56208999137E+03  0.00000000000E+00 0. -1.
         22    1    3    3    0    0 -0.86294902021E+02 -0.26700143748E+02  0.16609461995E+03  0.18906911585E+03  0.00000000000E+00 0.  1.
         22    1    3    3    0    0  0.26732246317E+02 -0.72722525015E+02  0.21056136394E+03  0.22436413845E+03  0.00000000000E+00 0.  1.
</event>
<event>
 7    1  0.5779468E-006  0.4411428E+02  0.7818608E-02  0.1555820E+00
          2   -1    0    0  502    0  0.00000000000E+00  0.00000000000E+00  0.14317248611E+02  0.14317248611E+02  0.00000000000E+00 0. -1.
          1   -1    0    0  501    0 -0.00000000000E+00 -0.00000000000E+00 -0.27047335779E+04  0.27047335779E+04  0.00000000000E+00 0. -1.
         25    2    1    2    0    0  0.19292882023E+02  0.17287803318E+02 -0.73439250720E+03  0.74540495101E+03  0.12500041167E+03 0.  0.
          2    1    1    2  501    0 -0.45210450998E+01  0.26125857053E+02 -0.19044428182E+04  0.19046273777E+04  0.00000000000E+00 0. -1.
          1    1    1    2  502    0 -0.14771836923E+02 -0.43413660371E+02 -0.51581003950E+02  0.69018497820E+02  0.00000000000E+00 0. -1.
         22    1    3    3    0    0 -0.18498747225E+02  0.50188369463E+02 -0.15738795764E+03  0.16622889427E+03  0.00000000000E+00 0.  1.
         22    1    3    3    0    0  0.37791629248E+02 -0.32900566146E+02 -0.57700454956E+03  0.57917605674E+03  0.00000000000E+00 0.  1.
</event>
<event>
 7    1  0.5779468E-006  0.1497425E+03  0.7818608E-02  0.1407390E+00
          2   -1    0    0  502    0  0.00000000000E+00  0.00000000000E+00  0.36630195192E+03  0.36630195192E+03  0.00000000000E+00 0. -1.
          1   -1    0    0  501    0 -0.00000000000E+00 -0.00000000000E+00 -0.98595011662E+02  0.98595011662E+02  0.00000000000E+00 0. -1.
         25    2    1    2    0    0  0.68253933424E+02  0.13053372798E+03  0.19075927991E+03  0.27149965070E+03  0.12500121554E+03 0.  0.
          2    1    1    2  501    0 -0.17201208752E+02  0.14184540816E+02  0.13719116925E+01  0.22337522745E+02  0.00000000000E+00 0. -1.
          1    1    1    2  502    0 -0.51052724671E+02 -0.14471826879E+03  0.75575748657E+02  0.17105979014E+03  0.00000000000E+00 0. -1.
         22    1    3    3    0    0  0.87033101109E+02  0.32428064097E+02  0.82916782333E+02  0.12450515179E+03  0.00000000000E+00 0. -1.
         22    1    3    3    0    0 -0.18779167685E+02  0.98105663881E+02  0.10784249758E+03  0.14699449891E+03  0.00000000000E+00 0. -1.
</event>
<event>
 7    1  0.5779468E-006  0.1392663E+03  0.7818608E-02  0.1255466E+00
          2   -1    0    0  502    0  0.00000000000E+00  0.00000000000E+00  0.10709059332E+04  0.10709059332E+04  0.00000000000E+00 0. -1.
          1   -1    0    0  501    0 -0.00000000000E+00 -0.00000000000E+00 -0.23611391684E+03  0.23611391684E+03  0.00000000000E+00 0. -1.
         25    2    1    2    0    0 -0.58033387047E+01 -0.16333939000E+03  0.40878176448E+03  0.45764787493E+03  0.12500244552E+03 0.  0.
          2    1    1    2  501    0 -0.75439636846E+02  0.51545087997E+02 -0.19384465906E+03  0.21429835919E+03  0.00000000000E+00 0. -1.
          1    1    1    2  502    0  0.81242975551E+02  0.11179430201E+03  0.61985491096E+03  0.63507361595E+03  0.00000000000E+00 0. -1.
         22    1    3    3    0    0 -0.26454517368E+01 -0.16552090309E+03  0.25626898559E+03  0.30508680855E+03  0.00000000000E+00 0.  1.
         22    1    3    3    0    0 -0.31578869679E+01  0.21815130856E+01  0.15251277889E+03  0.15256106638E+03  0.00000000000E+00 0.  1.
</event>
<event>
 7    1  0.5779468E-006  0.6852908E+02  0.7818608E-02  0.1496090E+00
          2   -1    0    0  502    0  0.00000000000E+00  0.00000000000E+00  0.49899572018E+03  0.49899572018E+03  0.00000000000E+00 0. -1.
          1   -1    0    0  501    0 -0.00000000000E+00 -0.00000000000E+00 -0.72581173240E+03  0.72581173240E+03  0.00000000000E+00 0. -1.
         25    2    1    2    0    0 -0.33871469538E+02  0.39212329840E+02  0.13692789908E+03  0.19250949576E+03  0.12500309256E+03 0.  0.
          2    1    1    2  501    0  0.36946172562E+01  0.25098997025E+02 -0.69401229228E+03  0.69447582513E+03  0.00000000000E+00 0. -1.
          1    1    1    2  502    0  0.30176852282E+02 -0.64311326865E+02  0.33026838099E+03  0.33782213169E+03  0.00000000000E+00 0. -1.
         22    1    3    3    0    0  0.19484507835E+01  0.79726292370E+02  0.67330259611E+02  0.10437165331E+03  0.00000000000E+00 0. -1.
         22    1    3    3    0    0 -0.35819920321E+02 -0.40513962530E+02  0.69597639468E+02  0.88137842447E+02  0.00000000000E+00 0. -1.
</event>
<event>
 7    1  0.5779468E-006  0.8827686E+02  0.7818608E-02  0.1314692E+00
          2   -1    0    0  502    0  0.00000000000E+00  0.00000000000E+00  0.31745953544E+03  0.31745953544E+03  0.00000000000E+00 0. -1.
          1   -1    0    0  501    0 -0.00000000000E+00 -0.00000000000E+00 -0.24698963234E+03  0.24698963234E+03  0.00000000000E+00 0. -1.
         25    2    1    2    0    0 -0.53771390694E+02 -0.22815055522E+02  0.37045720323E+02  0.14285650121E+03  0.12499482120E+03 0.  0.
          2    1    1    2  501    0 -0.30099994678E+02  0.76697369579E+02 -0.17341006358E+03  0.19198840155E+03  0.00000000000E+00 0. -1.
          1    1    1    2  502    0  0.83871385372E+02 -0.53882314058E+02  0.20683424635E+03  0.22960426502E+03  0.00000000000E+00 0. -1.
         22    1    3    3    0    0 -0.69863122685E+02  0.37312943893E+01  0.69029857423E+02  0.98284788676E+02  0.00000000000E+00 0.  1.
         22    1    3    3    0    0  0.16091731991E+02 -0.26546349911E+02 -0.31984137101E+02  0.44571712533E+02  0.00000000000E+00 0.  1.
</event>
<event>
 7    1  0.5779468E-006  0.6479214E+02  0.7818608E-02  0.1422748E+00
          2   -1    0    0  502    0  0.00000000000E+00  0.00000000000E+00  0.13518291976E+04  0.13518291976E+04  0.00000000000E+00 0. -1.
          1   -1    0    0  501    0 -0.00000000000E+00 -0.00000000000E+00 -0.40150798619E+03  0.40150798619E+03  0.00000000000E+00 0. -1.
         25    2    1    2    0    0 -0.25411360885E+02  0.13383598057E+02  0.15128323735E+03  0.19833461207E+03  0.12500056993E+03 0.  0.
          2    1    1    2  501    0 -0.54977921117E+01  0.45416702309E+02 -0.37565619471E+03  0.37843160437E+03  0.00000000000E+00 0. -1.
          1    1    1    2  502    0  0.30909152997E+02 -0.58800300366E+02  0.11746941688E+04  0.11765709674E+04  0.00000000000E+00 0. -1.
         22    1    3    3    0    0  0.38783306152E+02  0.16617435404E+02  0.11929856544E+03  0.12654023752E+03  0.00000000000E+00 0.  1.
         22    1    3    3    0    0 -0.64194667037E+02 -0.32338373471E+01  0.31984671911E+02  0.71794374552E+02  0.00000000000E+00 0.  1.
</event>
<event>
 7    1  0.5779468E-006  0.5731596E+02  0.7818608E-02  0.1468847E+00
          2   -1    0    0  502    0  0.00000000000E+00  0.00000000000E+00  0.42088291863E+02  0.42088291863E+02  0.00000000000E+00 0. -1.
          1   -1    0    0  501    0 -0.00000000000E+00 -0.00000000000E+00 -0.83044636383E+03  0.83044636383E+03  0.00000000000E+00 0. -1.
         25    2    1    2    0    0 -0.21588349798E+02  0.14831115736E+02 -0.67808141743E+03  0.69000071328E+03  0.12498222599E+03 0.  0.
          2    1    1    2  501    0 -0.36289332489E+02 -0.57720920406E+01 -0.11786692562E+03  0.12346191662E+03  0.00000000000E+00 0. -1.
          1    1    1    2  502    0  0.57877682287E+02 -0.90590236958E+01  0.75902710845E+01  0.59072025802E+02  0.00000000000E+00 0. -1.
         22    1    3    3    0    0 -0.37137812588E+02 -0.49195394939E+02 -0.30997614980E+03  0.31604527754E+03  0.00000000000E+00 0. -1.
         22    1    3    3    0    0  0.15549462790E+02  0.64026510676E+02 -0.36810526763E+03  0.37395543574E+03  0.00000000000E+00 0. -1.
</event>
<event>
 7    1  0.5779468E-006  0.1464463E+03  0.7818608E-02  0.1242662E+00
          2   -1    0    0  502    0  0.00000000000E+00  0.00000000000E+00  0.16508940160E+04  0.16508940160E+04  0.00000000000E+00 0. -1.
          1   -1    0    0  501    0 -0.00000000000E+00 -0.00000000000E+00 -0.60899872857E+02  0.60899872857E+02  0.00000000000E+00 0. -1.
         25    2    1    2    0    0 -0.74762619139E+02 -0.14201601353E+02  0.51012261952E+03  0.53069862091E+03  0.12499921833E+03 0.  0.
          2    1    1    2  501    0  0.14432615387E+03  0.84308687384E+02  0.96958494352E+02  0.19323287268E+03  0.00000000000E+00 0. -1.
          1    1    1    2  502    0 -0.69563534728E+02 -0.70107086031E+02  0.98291302928E+03  0.98786239528E+03  0.00000000000E+00 0. -1.
         22    1    3    3    0    0 -0.26372064087E+02 -0.68349617582E+02  0.23512844325E+03  0.24627736561E+03  0.00000000000E+00 0.  1.
         22    1    3    3    0    0 -0.48390555052E+02  0.54148016228E+02  0.27499417627E+03  0.28442125529E+03  0.00000000000E+00 0.  1.
</event>
<event>
 7    1  0.5779468E-006  0.3341569E+02  0.7818608E-02  0.1593785E+00
          2   -1    0    0  502    0  0.00000000000E+00  0.00000000000E+00  0.67750825887E+03  0.67750825887E+03  0.00000000000E+00 0. -1.
          1   -1    0    0  501    0 -0.00000000000E+00 -0.00000000000E+00 -0.97133213288E+03  0.97133213288E+03  0.00000000000E+00 0. -1.
         25    2    1    2    0    0  0.10233496758E+02  0.46516069061E+01 -0.23602328482E+03  0.26731693044E+03  0.12499995368E+03 0.  0.
          2    1    1    2  501    0 -0.31496021720E+02  0.13014136074E+02 -0.71896959975E+03  0.71977680741E+03  0.00000000000E+00 0. -1.
          1    1    1    2  502    0  0.21262524962E+02 -0.17665742980E+02  0.66116901055E+03  0.66174665391E+03  0.00000000000E+00 0. -1.
         22    1    3    3    0    0  0.35860882685E+02 -0.37538874817E+02 -0.19886773707E+03  0.20553234995E+03  0.00000000000E+00 0.  1.
         22    1    3    3    0    0 -0.25627385927E+02  0.42190481723E+02 -0.37155547750E+02  0.61784580488E+02  0.00000000000E+00 0.  1.
</event>
<event>
 7    1  0.5779468E-006  0.6466666E+02  0.7818608E-02  0.1479231E+00
          2   -1    0    0  502    0  0.00000000000E+00  0.00000000000E+00  0.22356664883E+04  0.22356664883E+04  0.00000000000E+00 0. -1.
          1   -1    0    0  501    0 -0.00000000000E+00 -0.00000000000E+00 -0.28190417809E+03  0.28190417809E+03  0.00000000000E+00 0. -1.
         25    2    1    2    0    0 -0.33505434496E+02  0.69791416752E+02 -0.50196282085E+02  0.15536015622E+03  0.12499462154E+03 0.  0.
          2    1    1    2  501    0 -0.14519358618E+02 -0.26534055018E+02 -0.17736700362E+03  0.17992754604E+03  0.00000000000E+00 0. -1.
          1    1    1    2  502    0  0.48024793114E+02 -0.43257361735E+02  0.21813255959E+04  0.21822829641E+04  0.00000000000E+00 0. -1.
         22    1    3    3    0    0 -0.79119545983E+01  0.98976274704E+02 -0.59079856581E+02  0.11553930688E+03  0.00000000000E+00 0.  1.
         22    1    3    3    0    0 -0.25593479898E+02 -0.29184857952E+02  0.88835744959E+01  0.39820849348E+02  0.00000000000E+00 0.  1.
</event>
<event>
 7    1  0.5779468E-006  0.9024132E+02  0.7818608E-02  0.1309518E+00
          2   -1    0    0  502    0  0.00000000000E+00  0.00000000000E+00  0.10742516571E+04  0.10742516571E+04  0.00000000000E+00 0. -1.
          1   -1    0    0  501    0 -0.00000000000E+00 -0.00000000000E+00 -0.28020910338E+03  0.28020910338E+03  0.00000000000E+00 0. -1.
         25    2    1    2    0    0 -0.41402167946E+02 -0.63907556643E+02  0.58330161491E+03  0.60138484477E+03  0.12499856901E+03 0.  0.
          2    1    1    2  501    0  0.90800872503E+02 -0.46000049281E+01 -0.25967862136E+03  0.27513441239E+03  0.00000000000E+00 0. -1.
          1    1    1    2  502    0 -0.49398704556E+02  0.68507561571E+02  0.47041956013E+03  0.47794150328E+03  0.00000000000E+00 0. -1.
         22    1    3    3    0    0  0.11769066983E+02 -0.21655005957E+00 -0.43729631344E+00  0.11779179074E+02  0.00000000000E+00 0.  1.
         22    1    3    3    0    0 -0.53171234930E+02 -0.63691006584E+02  0.58373891123E+03  0.58960566570E+03  0.00000000000E+00 0.  1.
</event>
<event>
 7    1  0.5779468E-006  0.1693350E+03  0.7818608E-02  0.1403970E+00
          2   -1    0    0  502    0  0.00000000000E+00  0.00000000000E+00  0.24162751765E+04  0.24162751765E+04  0.00000000000E+00 0. -1.
          1   -1    0    0  501    0 -0.00000000000E+00 -0.00000000000E+00 -0.16323966558E+03  0.16323966558E+03  0.00000000000E+00 0. -1.
         25    2    1    2    0    0  0.30610325195E+02 -0.16014330132E+03 -0.28013832935E+02  0.20734449364E+03  0.12499638090E+03 0.  0.
          2    1    1    2  501    0  0.20189446478E+02 -0.15947036147E+01 -0.40054690641E+02  0.44883572396E+02  0.00000000000E+00 0. -1.
          1    1    1    2  502    0 -0.50799771673E+02  0.16173800494E+03  0.23211040345E+04  0.23272867761E+04  0.00000000000E+00 0. -1.
         22    1    3    3    0    0 -0.45310766483E+02 -0.55838096334E+02 -0.30983490088E+02  0.78300288758E+02  0.00000000000E+00 0.  1.
         22    1    3    3    0    0  0.75921091678E+02 -0.10430520499E+03  0.29696571525E+01  0.12904420488E+03  0.00000000000E+00 0.  1.
</event>
<event>
 7    1  0.5779468E-006  0.1576621E+03  0.7818608E-02  0.1306071E+00
          2   -1    0    0  502    0  0.00000000000E+00  0.00000000000E+00  0.46677230838E+03  0.46677230838E+03  0.00000000000E+00 0. -1.
          1   -1    0    0  501    0 -0.00000000000E+00 -0.00000000000E+00 -0.52981869359E+03  0.52981869359E+03  0.00000000000E+00 0. -1.
         25    2    1    2    0    0  0.15648469399E+02  0.16903297111E+03  0.14509343211E+03  0.25591762623E+03  0.12499882983E+03 0.  0.
          2    1    1    2  501    0  0.42766286541E+02 -0.25679505538E+02 -0.45041410200E+03  0.45316802132E+03  0.00000000000E+00 0. -1.
          1    1    1    2  502    0 -0.58414755941E+02 -0.14335346557E+03  0.24227428468E+03  0.28750535442E+03  0.00000000000E+00 0. -1.
         22    1    3    3    0    0  0.54260017322E+01  0.18484565287E+03  0.14801046081E+03  0.23686378657E+03  0.00000000000E+00 0.  1.
         22    1    3    3    0    0  0.10222467667E+02 -0.15812681760E+02 -0.29170286929E+01  0.19053839667E+02  0.00000000000E+00 0.  1.
</event>
<event>
 7    1  0.5779468E-006  0.7563486E+02  0.7818608E-02  0.1350163E+00
          2   -1    0    0  502    0  0.00000000000E+00  0.00000000000E+00  0.23200949585E+04  0.23200949585E+04  0.00000000000E+00 0. -1.
          1   -1    0    0  501    0 -0.00000000000E+00 -0.00000000000E+00 -0.12472053677E+03  0.12472053677E+03  0.00000000000E+00 0. -1.
         25    2    1    2    0    0  0.34185422758E+02 -0.33340236083E+02  0.44449815241E+03  0.46420256238E+03  0.12500078781E+03 0.  0.
          2    1    1    2  501    0 -0.54990391806E+02 -0.44063111438E+02 -0.10311345963E+03  0.12489149906E+03  0.00000000000E+00 0. -1.
          1    1    1    2  502    0  0.20804969048E+02  0.77403347521E+02  0.18539897290E+04  0.18557214339E+04  0.00000000000E+00 0. -1.
         22    1    3    3    0    0 -0.44132210454E+02 -0.29930774991E+02  0.14108225811E+03  0.15082342936E+03  0.00000000000E+00 0.  1.
         22    1    3    3    0    0  0.78317633212E+02 -0.34094610927E+01  0.30341589430E+03  0.31337913302E+03  0.00000000000E+00 0.  1.
</event>
<event>
 7    1  0.5779468E-006  0.4963925E+02  0.7818608E-02  0.1579366E+00
          2   -1    0    0  502    0  0.00000000000E+00  0.00000000000E+00  0.14101649845E+04  0.14101649845E+04  0.00000000000E+00 0. -1.
          1   -1    0    0  501    0 -0.00000000000E+00 -0.00000000000E+00 -0.47216594485E+02  0.47216594485E+02  0.00000000000E+00 0. -1.
         25    2    1    2    0    0 -0.25309837484E+02 -0.56773291494E+02  0.38341567069E+03  0.40803932047E+03  0.12499886407E+03 0.  0.
          2    1    1    2  501    0  0.18650788380E+02  0.80809315658E+01 -0.31297129267E+02  0.37318409164E+02  0.00000000000E+00 0. -1.
          1    1    1    2  502    0  0.66590491045E+01  0.48692359928E+02  0.10108298486E+04  0.10120238493E+04  0.00000000000E+00 0. -1.
         22    1    3    3    0    0  0.35434059386E+02 -0.67961008732E+02  0.23841646473E+03  0.25043298889E+03  0.00000000000E+00 0.  1.
         22    1    3    3    0    0 -0.60743896870E+02  0.11187717238E+02  0.14499920597E+03  0.15760633158E+03  0.00000000000E+00 0.  1.
</event>
<event>
 7    1  0.5779468E-006  0.1922382E+03  0.7818608E-02  0.1353802E+00
          2   -1    0    0  502    0  0.00000000000E+00  0.00000000000E+00  0.17307315350E+04  0.17307315350E+04  0.00000000000E+00 0. -1.
          1   -1    0    0  501    0 -0.00000000000E+00 -0.00000000000E+00 -0.76515195977E+03  0.76515195977E+03  0.00000000000E+00 0. -1.
         25    2    1    2    0    0 -0.24093130538E+02  0.18994618737E+03  0.39620668785E+02  0.23206540404E+03  0.12499808529E+03 0.  0.
          2    1    1    2  501    0  0.50636874973E+02 -0.18571054068E+03 -0.65496529806E+03  0.68266539365E+03  0.00000000000E+00 0. -1.
          1    1    1    2  502    0 -0.26543744436E+02 -0.42356466844E+01  0.15809242045E+04  0.15811526971E+04  0.00000000000E+00 0. -1.
         22    1    3    3    0    0  0.23797632034E+02  0.17761902379E+03  0.31169199370E+02  0.18189657471E+03  0.00000000000E+00 0.  1.
         22    1    3    3    0    0 -0.47890762572E+02  0.12327163577E+02  0.84514694153E+01  0.50168829335E+02  0.00000000000E+00 0.  1.
</event>
<event>
 7    1  0.5779468E-006  0.8883322E+02  0.7818608E-02  0.1425533E+00
          2   -1    0    0  502    0  0.00000000000E+00  0.00000000000E+00  0.10419790004E+03  0.10419790004E+03  0.00000000000E+00 0. -1.
          1   -1    0    0  501    0 -0.00000000000E+00 -0.00000000000E+00 -0.72534995697E+03  0.72534995697E+03  0.00000000000E+00 0. -1.
         25    2    1    2    0    0 -0.60542800823E+02 -0.21651804262E+01  0.23332822811E+02  0.14085258098E+03  0.12499964084E+03 0.  0.
          2    1    1    2  501    0  0.88814398280E+02 -0.14195705196E+02 -0.64945639428E+03  0.65565472885E+03  0.00000000000E+00 0. -1.
          1    1    1    2  502    0 -0.28271597456E+02  0.16360885622E+02  0.49715145505E+01  0.33040547181E+02  0.00000000000E+00 0. -1.
         22    1    3    3    0    0  0.21825164692E+02 -0.35796347409E+02 -0.14236349013E+02  0.44276290889E+02  0.00000000000E+00 0.  1.
         22    1    3    3    0    0 -0.82367965515E+02  0.33631166983E+02  0.37569171824E+02  0.96576290089E+02  0.00000000000E+00 0.  1.
</event>
<event>
 7    1  0.5779468E-006  0.1416231E+03  0.7818608E-02  0.1293598E+00
          2   -1    0    0  502    0  0.00000000000E+00  0.00000000000E+00  0.11229397823E+04  0.11229397823E+04  0.00000000000E+00 0. -1.
          1   -1    0    0  501    0 -0.00000000000E+00 -0.00000000000E+00 -0.33099273358E+03  0.33099273358E+03  0.00000000000E+00 0. -1.
         25    2    1    2    0    0 -0.10983498018E+03 -0.46566494846E+02  0.50913939656E+02  0.18013613887E+03  0.12499855185E+03 0.  0.
          2    1    1    2  501    0  0.14716710221E+03 -0.33114823983E+01 -0.24498660636E+03  0.28581035528E+03  0.00000000000E+00 0. -1.
          1    1    1    2  502    0 -0.37332122036E+02  0.49877977244E+02  0.98601971540E+03  0.98798602172E+03  0.00000000000E+00 0. -1.
         22    1    3    3    0    0 -0.22573570261E+01  0.71311995881E+01 -0.32791387111E+02  0.33633684559E+02  0.00000000000E+00 0.  1.
         22    1    3    3    0    0 -0.10757762315E+03 -0.53697694434E+02  0.83705326767E+02  0.14650245431E+03  0.00000000000E+00 0.  1.
</event>
<event>
 7    1  0.5779468E-006  0.4517720E+02  0.7818608E-02  0.1480755E+00
          2   -1    0    0  502    0  0.00000000000E+00  0.00000000000E+00  0.86430590850E+03  0.86430590850E+03  0.00000000000E+00 0. -1.
          1   -1    0    0  501    0 -0.00000000000E+00 -0.00000000000E+00 -0.77987276474E+02  0.77987276474E+02  0.00000000000E+00 0. -1.
         25    2    1    2    0    0 -0.62170516516E+02  0.21728796817E+02  0.19447492157E+03  0.24036847258E+03  0.12497677285E+03 0.  0.
          2    1    1    2  501    0  0.41962832963E+02  0.16036318266E+02 -0.45033625719E+02  0.63608728168E+02  0.00000000000E+00 0. -1.
          1    1    1    2  502    0  0.20207683553E+02 -0.37765115083E+02  0.63687733618E+03  0.63831598423E+03  0.00000000000E+00 0. -1.
         22    1    3    3    0    0 -0.37770534000E+02 -0.15322302675E+02  0.19162634567E+03  0.19591335470E+03  0.00000000000E+00 0. -1.
         22    1    3    3    0    0 -0.24399982516E+02  0.37051099492E+02  0.28485759061E+01  0.44455117872E+02  0.00000000000E+00 0. -1.
</event>
<event>
 7    1  0.5779468E-006  0.8936451E+02  0.7818608E-02  0.1304940E+00
          2   -1    0    0  502    0  0.00000000000E+00  0.00000000000E+00  0.15849192096E+03  0.15849192096E+03  0.00000000000E+00 0. -1.
          1   -1    0    0  501    0 -0.00000000000E+00 -0.00000000000E+00 -0.12500379593E+04  0.12500379593E+04  0.00000000000E+00 0. -1.
         25    2    1    2    0    0  0.79375809351E+01 -0.29239478673E+02 -0.47209218315E+03  0.48930036285E+03  0.12500345354E+03 0.  0.
          2    1    1    2  501    0 -0.88207838684E+02 -0.14331507828E+02 -0.75253481099E+03  0.75782231207E+03  0.00000000000E+00 0. -1.
          1    1    1    2  502    0  0.80270257749E+02  0.43570986501E+02  0.13308095578E+03  0.16140720534E+03  0.00000000000E+00 0. -1.
         22    1    3    3    0    0  0.11461216583E+02 -0.24725158528E+02 -0.13038304351E+02  0.30210765137E+02  0.00000000000E+00 0. -1.
         22    1    3    3    0    0 -0.35236356477E+01 -0.45143201451E+01 -0.45905387880E+03  0.45908959772E+03  0.00000000000E+00 0. -1.
</event>
<event>
 7    1  0.5779468E-006  0.6989363E+02  0.7818608E-02  0.1453233E+00
          2   -1    0    0  502    0  0.00000000000E+00  0.00000000000E+00  0.17864802007E+04  0.17864802007E+04  0.00000000000E+00 0. -1.
          1   -1    0    0  501    0 -0.00000000000E+00 -0.00000000000E+00 -0.56620783004E+03  0.56620783004E+03  0.00000000000E+00 0. -1.
         25    2    1    2    0    0 -0.56305867989E+02 -0.37380169094E+02  0.61020742119E+03  0.62653719406E+03  0.12501252277E+03 0.  0.
          2    1    1    2  501    0  0.22457095089E+02 -0.25189329648E+02 -0.55644819678E+03  0.55747055451E+03  0.00000000000E+00 0. -1.
          1    1    1    2  502    0  0.33848772900E+02  0.62569498742E+02  0.11665131463E+04  0.11686802822E+04  0.00000000000E+00 0. -1.
         22    1    3    3    0    0 -0.60387389831E+02  0.30299322823E+02  0.20923438971E+03  0.21987204382E+03  0.00000000000E+00 0.  1.
         22    1    3    3    0    0  0.40815218416E+01 -0.67679491917E+02  0.40097303148E+03  0.40666515024E+03  0.00000000000E+00 0.  1.
</event>
<event>
 7    1  0.5779468E-006  0.2076754E+03  0.7818608E-02  0.1230562E+00
          2   -1    0    0  502    0  0.00000000000E+00  0.00000000000E+00  0.30472624652E+04  0.30472624652E+04  0.00000000000E+00 0. -1.
          1   -1    0    0  501    0 -0.00000000000E+00 -0.00000000000E+00 -0.75629996443E+03  0.75629996443E+03  0.00000000000E+00 0. -1.
         25    2    1    2    0    0  0.10318054086E+02 -0.23251328582E+03 -0.72645469574E+01  0.26428447132E+03  0.12499847126E+03 0.  0.
          2    1    1    2  501    0  0.67667224251E+02  0.40388840702E+02 -0.61432284649E+03  0.61935665929E+03  0.00000000000E+00 0. -1.
          1    1    1    2  502    0 -0.77985278338E+02  0.19212444512E+03  0.29125498942E+04  0.29199212990E+04  0.00000000000E+00 0. -1.
         22    1    3    3    0    0  0.62626118616E+02 -0.16145723791E+03  0.13296516485E+02  0.17368726999E+03  0.00000000000E+00 0.  1.
         22    1    3    3    0    0 -0.52308064530E+02 -0.71056047910E+02 -0.20561063443E+02  0.90597201333E+02  0.00000000000E+00 0.  1.
</event>
<event>
 7    1  0.5779468E-006  0.1493706E+03  0.7818608E-02  0.1373698E+00
          2   -1    0    0  502    0  0.00000000000E+00  0.00000000000E+00  0.59530714197E+03  0.59530714197E+03  0.00000000000E+00 0. -1.
          1   -1    0    0  501    0 -0.00000000000E+00 -0.00000000000E+00 -0.23275611831E+04  0.23275611831E+04  0.00000000000E+00 0. -1.
         25    2    1    2    0    0 -0.45196820100E+02  0.13296797423E+03 -0.99648819395E+03  0.10140693537E+04  0.12499879524E+03 0.  0.
          2    1    1    2  501    0  0.23714235794E+02 -0.15288497656E+03 -0.13173869606E+04  0.13264405697E+04  0.00000000000E+00 0. -1.
          1    1    1    2  502    0  0.21482584306E+02  0.19917002322E+02  0.58162111339E+03  0.58235840163E+03  0.00000000000E+00 0. -1.
         22    1    3    3    0    0  0.44399325152E+01  0.12902421852E+03 -0.83964199362E+03  0.84950905787E+03  0.00000000000E+00 0. -1.
         22    1    3    3    0    0 -0.49636752616E+02  0.39437557136E+01 -0.15684620034E+03  0.16456029588E+03  0.00000000000E+00 0. -1.
</event>
<event>
 7    1  0.5779468E-006  0.7716817E+02  0.7818608E-02  0.1479490E+00
          2   -1    0    0  502    0  0.00000000000E+00  0.00000000000E+00  0.12290926174E+04  0.12290926174E+04  0.00000000000E+00 0. -1.
          1   -1    0    0  501    0 -0.00000000000E+00 -0.00000000000E+00 -0.11295331084E+03  0.11295331084E+03  0.00000000000E+00 0. -1.
         25    2    1    2    0    0  0.32889744767E+02 -0.62481178223E+02  0.17221089695E+03  0.22420427747E+03  0.12500132825E+03 0.  0.
          2    1    1    2  501    0  0.23613439344E+02  0.90837309387E+01 -0.83616328214E+02  0.87360168438E+02  0.00000000000E+00 0. -1.
          1    1    1    2  502    0 -0.56503184111E+02  0.53397447284E+02  0.10275447378E+04  0.10304814823E+04  0.00000000000E+00 0. -1.
         22    1    3    3    0    0 -0.47678486884E+02 -0.18726160109E+02  0.51662727526E+02  0.72752626066E+02  0.00000000000E+00 0. -1.
         22    1    3    3    0    0  0.80568231651E+02 -0.43755018114E+02  0.12054816943E+03  0.15145165141E+03  0.00000000000E+00 0. -1.
</event>
<event>
 7    1  0.5779468E-006  0.8539087E+02  0.7818608E-02  0.1392411E+00
          2   -1    0    0  502    0  0.00000000000E+00  0.00000000000E+00  0.27381496354E+04  0.27381496354E+04  0.00000000000E+00 0. -1.
          1   -1    0    0  501    0 -0.00000000000E+00 -0.00000000000E+00 -0.40674212486E+02  0.40674212486E+02  0.00000000000E+00 0. -1.
         25    2    1    2    0    0 -0.64851643028E+02  0.50305106848E+02  0.42766525710E+03  0.45305257760E+03  0.12499090591E+03 0.  0.
          2    1    1    2  501    0 -0.20667943196E+02 -0.38868328940E+02 -0.93291517849E+01  0.44999377147E+02  0.00000000000E+00 0. -1.
          1    1    1    2  502    0  0.85519586224E+02 -0.11436777908E+02  0.22791393176E+04  0.22807718931E+04  0.00000000000E+00 0. -1.
         22    1    3    3    0    0  0.10653811022E+02  0.24617380019E+01  0.28156289505E+03  0.28177513679E+03  0.00000000000E+00 0. -1.
         22    1    3    3    0    0 -0.75505454050E+02  0.47843368846E+02  0.14610236205E+03  0.17127744081E+03  0.00000000000E+00 0. -1.
</event>
<event>
 7    1  0.5779468E-006  0.1441030E+03  0.7818608E-02  0.1326960E+00
          2   -1    0    0  502    0  0.00000000000E+00  0.00000000000E+00  0.83339785420E+03  0.83339785420E+03  0.00000000000E+00 0. -1.
          1   -1    0    0  501    0 -0.00000000000E+00 -0.00000000000E+00 -0.95473832859E+03  0.95473832859E+03  0.00000000000E+00 0. -1.
         25    2    1    2    0    0 -0.59804382185E+02  0.13729844416E+03 -0.12254948817E+03  0.23036966036E+03  0.12499750586E+03 0.  0.
          2    1    1    2  501    0  0.94796046962E+02 -0.10862376276E+03 -0.77093425888E+03  0.78429907808E+03  0.00000000000E+00 0. -1.
          1    1    1    2  502    0 -0.34991664777E+02 -0.28674681393E+02  0.77214327265E+03  0.77346744435E+03  0.00000000000E+00 0. -1.
         22    1    3    3    0    0  0.20924055825E+02  0.86723810663E+02 -0.22052323263E+02  0.91897445065E+02  0.00000000000E+00 0. -1.
         22    1    3    3    0    0 -0.80728438010E+02  0.50574633492E+02 -0.10049716490E+03  0.13847221530E+03  0.00000000000E+00 0. -1.
</event>
<event>
 7    1  0.5779468E-006  0.1376614E+03  0.7818608E-02  0.1360325E+00
          2   -1    0    0  502    0  0.00000000000E+00  0.00000000000E+00  0.93613111967E+03  0.93613111967E+03  0.00000000000E+00 0. -1.
          1   -1    0    0  501    0 -0.00000000000E+00 -0.00000000000E+00 -0.15302906882E+03  0.15302906882E+03  0.00000000000E+00 0. -1.
         25    2    1    2    0    0  0.78613226207E+01 -0.13202326179E+03  0.30926076389E+03  0.35883141049E+03  0.12500327606E+03 0.  0.
          2    1    1    2  501    0 -0.43385683262E+02  0.13176036750E+03 -0.90007727926E+02  0.16536173392E+03  0.00000000000E+00 0. -1.
          1    1    1    2  502    0  0.35524360641E+02  0.26289428269E+00  0.56384901489E+03  0.56496704409E+03  0.00000000000E+00 0. -1.
         22    1    3    3    0    0  0.35338968207E+02  0.13648058432E+01  0.24033922807E+02  0.42759031963E+02  0.00000000000E+00 0. -1.
         22    1    3    3    0    0 -0.27477645586E+02 -0.13338806763E+03  0.28522684108E+03  0.31607237853E+03  0.00000000000E+00 0. -1.
</event>
<event>
 7    1  0.5779468E-006  0.6337281E+02  0.7818608E-02  0.1480038E+00
          2   -1    0    0  502    0  0.00000000000E+00  0.00000000000E+00  0.13067020503E+04  0.13067020503E+04  0.00000000000E+00 0. -1.
          1   -1    0    0  501    0 -0.00000000000E+00 -0.00000000000E+00 -0.34900597015E+03  0.34900597015E+03  0.00000000000E+00 0. -1.
         25    2    1    2    0    0  0.45760828183E+02  0.26168314171E+02  0.13335209470E+03  0.19019656344E+03  0.12495246105E+03 0.  0.
          2    1    1    2  501    0 -0.33391029578E+02 -0.54253626392E+02 -0.31721061794E+03  0.32354442194E+03  0.00000000000E+00 0. -1.
          1    1    1    2  502    0 -0.12369798606E+02  0.28085312221E+02  0.11415546034E+04  0.11419670351E+04  0.00000000000E+00 0. -1.
         22    1    3    3    0    0  0.58574566499E+02  0.27051309001E+02  0.89547100835E+01  0.65137853755E+02  0.00000000000E+00 0.  1.
         22    1    3    3    0    0 -0.12813738315E+02 -0.88299482995E+00  0.12439738462E+03  0.12505870969E+03  0.00000000000E+00 0.  1.
</event>
<event>
 7    1  0.5919613E-006  0.8786958E+02  0.7818608E-02  0.1443594E+00
          2   -1    0    0  502    0  0.00000000000E+00  0.00000000000E+00  0.10519696984E+04  0.10519696984E+04  0.00000000000E+00 0. -1.
          1   -1    0    0  501    0 -0.00000000000E+00 -0.00000000000E+00 -0.58627195618E+03  0.58627195618E+03  0.00000000000E+00 0. -1.
         25    2    1    2    0    0  0.59540162630E+02 -0.47295010001E+02 -0.15094281099E+03  0.21021872986E+03  0.12500533291E+03 0.  0.
          2    1    1    2  501    0  0.23169933973E+02  0.17143758006E+02 -0.40328069864E+03  0.40430938176E+03  0.00000000000E+00 0. -1.
          1    1    1    2  502    0 -0.82710096603E+02  0.30151251995E+02  0.10199212519E+04  0.10237135430E+04  0.00000000000E+00 0. -1.
         22    1    3    3    0    0  0.94831723848E+02 -0.51226649766E+02 -0.93501692049E+02  0.14268774268E+03  0.00000000000E+00 0. -1.
         22    1    3    3    0    0 -0.35291561218E+02  0.39316397652E+01 -0.57441118942E+02  0.67530987182E+02  0.00000000000E+00 0. -1.
</event>
<event>
 7    1  0.5779468E-006  0.1166726E+03  0.7818608E-02  0.1295175E+00
          2   -1    0    0  502    0  0.00000000000E+00  0.00000000000E+00  0.13507618724E+04  0.13507618724E+04  0.00000000000E+00 0. -1.
          1   -1    0    0  501    0 -0.00000000000E+00 -0.00000000000E+00 -0.95803164561E+02  0.95803164561E+02  0.00000000000E+00 0. -1.
         25    2    1    2    0    0 -0.24584061763E+02  0.12887113552E+03  0.95665830336E+03  0.97366898354E+03  0.12499613776E+03 0.  0.
          2    1    1    2  501    0 -0.55715092884E+02 -0.49493730306E+02 -0.60978869115E+02  0.96292384918E+02  0.00000000000E+00 0. -1.
          1    1    1    2  502    0  0.80299154647E+02 -0.79377405211E+02  0.35927927358E+03  0.37660366849E+03  0.00000000000E+00 0. -1.
         22    1    3    3    0    0  0.45215443813E+02  0.82998143820E+02  0.59730329057E+03  0.60473494124E+03  0.00000000000E+00 0. -1.
         22    1    3    3    0    0 -0.69799505576E+02  0.45872991697E+02  0.35935501279E+03  0.36893404230E+03  0.00000000000E+00 0. -1.
</event>
<event>
 7    1  0.5779468E-006  0.5958195E+02  0.7818608E-02  0.1426435E+00
          2   -1    0    0  502    0  0.00000000000E+00  0.00000000000E+00  0.27099287592E+03  0.27099287592E+03  0.00000000000E+00 0. -1.
          1   -1    0    0  501    0 -0.00000000000E+00 -0.00000000000E+00 -0.13594535564E+04  0.13594535564E+04  0.00000000000E+00 0. -1.
         25    2    1    2    0    0 -0.38579321177E+01 -0.35782359249E+02 -0.22100420615E+03  0.25644409869E+03  0.12500182296E+03 0.  0.
          2    1    1    2  501    0 -0.44006338062E+02  0.42737567901E+02 -0.11175714163E+04  0.11192537371E+04  0.00000000000E+00 0. -1.
          1    1    1    2  502    0  0.47864270179E+02 -0.69552086516E+01  0.25011494191E+03  0.25474859657E+03  0.00000000000E+00 0. -1.
         22    1    3    3    0    0  0.27619233188E+02 -0.33656787739E+02 -0.22063843140E+03  0.22489312753E+03  0.00000000000E+00 0. -1.
         22    1    3    3    0    0 -0.31477165306E+02 -0.21255715109E+01 -0.36577475595E+00  0.31550971159E+02  0.00000000000E+00 0. -1.
</event>
<event>
 7    1  0.5779468E-006  0.1942383E+03  0.7818608E-02  0.1385188E+00
          2   -1    0    0  502    0  0.00000000000E+00  0.00000000000E+00  0.47381063701E+03  0.47381063701E+03  0.00000000000E+00 0. -1.
          1   -1    0    0  501    0 -0.00000000000E+00 -0.00000000000E+00 -0.26484818638E+03  0.26484818638E+03  0.00000000000E+00 0. -1.
         25    2    1    2    0    0 -0.13161671611E+03 -0.12733007781E+03  0.25718062474E+03  0.33956309232E+03  0.12500124501E+03 0.  0.
          2    1    1    2  501    0  0.12879191346E+03  0.14764583744E+03 -0.17980150230E+03  0.26592335458E+03  0.00000000000E+00 0. -1.
          1    1    1    2  502    0  0.28248026420E+01 -0.20315759630E+02  0.13158332819E+03  0.13317237648E+03  0.00000000000E+00 0. -1.
         22    1    3    3    0    0 -0.11009364649E+03 -0.44506085642E+02  0.81134192598E+02  0.14381988689E+03  0.00000000000E+00 0.  1.
         22    1    3    3    0    0 -0.21523069619E+02 -0.82823992163E+02  0.17604643214E+03  0.19574320544E+03  0.00000000000E+00 0.  1.
</event>
<event>
 7    1  0.5779468E-006  0.7293019E+02  0.7818608E-02  0.1427866E+00
          2   -1    0    0  502    0  0.00000000000E+00  0.00000000000E+00  0.14490536517E+04  0.14490536517E+04  0.00000000000E+00 0. -1.
          1   -1    0    0  501    0 -0.00000000000E+00 -0.00000000000E+00 -0.50268209639E+02  0.50268209639E+02  0.00000000000E+00 0. -1.
         25    2    1    2    0    0 -0.71633444929E+02  0.48170203730E+02  0.84487312366E+03  0.85842122177E+03  0.12499871980E+03 0.  0.
          2    1    1    2  501    0  0.36709152643E+02  0.13423096455E+02 -0.32129527334E+02  0.50596916239E+02  0.00000000000E+00 0. -1.
          1    1    1    2  502    0  0.34924292285E+02 -0.61593300185E+02  0.58604184575E+03  0.59030372335E+03  0.00000000000E+00 0. -1.
         22    1    3    3    0    0 -0.28303035419E+01  0.18983270665E+02  0.64089170410E+03  0.64117903238E+03  0.00000000000E+00 0. -1.
         22    1    3    3    0    0 -0.68803141387E+02  0.29186933065E+02  0.20398141956E+03  0.21724218939E+03  0.00000000000E+00 0. -1.
</event>
<event>
 7    1  0.5779468E-006  0.1232813E+03  0.7818608E-02  0.1276977E+00
          2   -1    0    0  502    0  0.00000000000E+00  0.00000000000E+00  0.51783291745E+02  0.51783291745E+02  0.00000000000E+00 0. -1.
          1   -1    0    0  501    0 -0.00000000000E+00 -0.00000000000E+00 -0.14512857580E+04  0.14512857580E+04  0.00000000000E+00 0. -1.
         25    2    1    2    0    0  0.13721515312E+03 -0.92098963982E+02 -0.53650258741E+03  0.57512352286E+03  0.12498729071E+03 0.  0.
          2    1    1    2  501    0 -0.19829903907E+02  0.81341763672E+02 -0.77830810710E+03  0.78279832472E+03  0.00000000000E+00 0. -1.
          1    1    1    2  502    0 -0.11738524922E+03  0.10757200311E+02 -0.84691771728E+02  0.14514720215E+03  0.00000000000E+00 0. -1.
         22    1    3    3    0    0  0.20618801779E+02 -0.20379963452E+02 -0.93103248148E+01  0.30449302870E+02  0.00000000000E+00 0. -1.
         22    1    3    3    0    0  0.11659635135E+03 -0.71719000530E+02 -0.52719226259E+03  0.54467421999E+03  0.00000000000E+00 0. -1.
</event>
<event>
 7    1  0.5779468E-006  0.1475518E+03  0.7818608E-02  0.1332595E+00
          2   -1    0    0  502    0  0.00000000000E+00  0.00000000000E+00  0.14764828648E+04  0.14764828648E+04  0.00000000000E+00 0. -1.
          1   -1    0    0  501    0 -0.00000000000E+00 -0.00000000000E+00 -0.14760734746E+04  0.14760734746E+04  0.00000000000E+00 0. -1.
         25    2    1    2    0    0  0.16356004961E+02  0.10732184430E+03  0.73893150969E+02  0.18130381520E+03  0.12500151392E+03 0.  0.
          2    1    1    2  501    0  0.67426780487E+01  0.41500761729E+02 -0.14178517478E+04  0.14184750106E+04  0.00000000000E+00 0. -1.
          1    1    1    2  502    0 -0.23098683010E+02 -0.14882260603E+03  0.13443679870E+04  0.13527775137E+04  0.00000000000E+00 0. -1.
         22    1    3    3    0    0  0.23196113027E+02 -0.16374204655E+02  0.46410723406E+02  0.54407072011E+02  0.00000000000E+00 0.  1.
         22    1    3    3    0    0 -0.68401080662E+01  0.12369604896E+03  0.27482427563E+02  0.12689674319E+03  0.00000000000E+00 0.  1.
</event>
<event>
 7    1  0.5779468E-006  0.5342513E+02  0.7818608E-02  0.1480804E+00
          2   -1    0    0  502    0  0.00000000000E+00  0.00000000000E+00  0.95626905122E+03  0.95626905122E+03  0.00000000000E+00 0. -1.
          1   -1    0    0  501    0 -0.00000000000E+00 -0.00000000000E+00 -0.30534964635E+02  0.30534964635E+02  0.00000000000E+00 0. -1.
         25    2    1    2    0    0 -0.92546795867E+01 -0.18381558166E+02  0.19692664337E+03  0.23415382507E+03  0.12499752058E+03 0.  0.
          2    1    1    2  501    0 -0.29037508800E+02 -0.21627430273E+02  0.19385111380E+02  0.41069516685E+02  0.00000000000E+00 0. -1.
          1    1    1    2  502    0  0.38292188387E+02  0.40008988439E+02  0.70942233184E+03  0.71158067411E+03  0.00000000000E+00 0. -1.
         22    1    3    3    0    0 -0.14316645686E+02  0.44244603812E+02  0.28869552077E+02  0.54735750176E+02  0.00000000000E+00 0. -1.
         22    1    3    3    0    0  0.50619660992E+01 -0.62626161978E+02  0.16805709129E+03  0.17941807489E+03  0.00000000000E+00 0. -1.
</event>
<event>
 7    1  0.5779468E-006  0.8904034E+02  0.7818608E-02  0.1359745E+00
          2   -1    0    0  502    0  0.00000000000E+00  0.00000000000E+00  0.21184230388E+04  0.21184230388E+04  0.00000000000E+00 0. -1.
          1   -1    0    0  501    0 -0.00000000000E+00 -0.00000000000E+00 -0.15498580378E+02  0.15498580378E+02  0.00000000000E+00 0. -1.
         25    2    1    2    0    0  0.43443100770E+02 -0.49866944631E+02  0.56684385396E+03  0.58421688696E+03  0.12499360410E+03 0.  0.
          2    1    1    2  501    0 -0.98515811424E+02  0.53499300815E+02  0.51160361340E+03  0.52374210976E+03  0.00000000000E+00 0. -1.
          1    1    1    2  502    0  0.55072710654E+02 -0.36323561842E+01  0.10244769910E+04  0.10259626224E+04  0.00000000000E+00 0. -1.
         22    1    3    3    0    0 -0.11992545683E+02  0.34460956108E+02  0.96489694020E+02  0.10315832346E+03  0.00000000000E+00 0.  1.
         22    1    3    3    0    0  0.55435646454E+02 -0.84327900740E+02  0.47035415994E+03  0.48105856350E+03  0.00000000000E+00 0.  1.
</event>
<event>
 7    1  0.5779468E-006  0.1760503E+03  0.7818608E-02  0.1183429E+00
          2   -1    0    0  502    0  0.00000000000E+00  0.00000000000E+00  0.99416631485E+03  0.99416631485E+03  0.00000000000E+00 0. -1.
          1   -1    0    0  501    0 -0.00000000000E+00 -0.00000000000E+00 -0.13416295451E+04  0.13416295451E+04  0.00000000000E+00 0. -1.
         25    2    1    2    0    0 -0.27120570249E+03  0.15068256429E+03 -0.41260215528E+02  0.33702256765E+03  0.12499614983E+03 0.  0.
          2    1    1    2  501    0  0.10499652475E+03 -0.11291240167E+03 -0.11386569778E+04  0.11490488213E+04  0.00000000000E+00 0. -1.
          1    1    1    2  502    0  0.16620917774E+03 -0.37770162620E+02  0.83245396308E+03  0.84972447099E+03  0.00000000000E+00 0. -1.
         22    1    3    3    0    0 -0.20349498668E+03  0.16713223152E+03 -0.19628502893E+02  0.26406186878E+03  0.00000000000E+00 0. -1.
         22    1    3    3    0    0 -0.67710715812E+02 -0.16449667230E+02 -0.21631712635E+02  0.72960698868E+02  0.00000000000E+00 0. -1.
</event>
<event>
 7    1  0.5779468E-006  0.3018804E+02  0.7818608E-02  0.1598174E+00
          2   -1    0    0  502    0  0.00000000000E+00  0.00000000000E+00  0.98883622184E+03  0.98883622184E+03  0.00000000000E+00 0. -1.
          1   -1    0    0  501    0 -0.00000000000E+00 -0.00000000000E+00 -0.13368011524E+04  0.13368011524E+04  0.00000000000E+00 0. -1.
         25    2    1    2    0    0 -0.93368391879E-01 -0.31468848478E+01  0.14936820612E+03  0.19479941399E+03  0.12500415628E+03 0.  0.
          2    1    1    2  501    0  0.29850935076E+02  0.46952271042E+01 -0.13136399555E+04  0.13139874643E+04  0.00000000000E+00 0. -1.
          1    1    1    2  502    0 -0.29757566684E+02 -0.15483422564E+01  0.81630681890E+03  0.81685049595E+03  0.00000000000E+00 0. -1.
         22    1    3    3    0    0 -0.15311450844E+02 -0.49807386519E+02  0.13335462696E+03  0.14317357581E+03  0.00000000000E+00 0. -1.
         22    1    3    3    0    0  0.15218082452E+02  0.46660501671E+02  0.16013579160E+02  0.51625838175E+02  0.00000000000E+00 0. -1.
</event>
<event>
 7    1  0.5779468E-006  0.1202844E+03  0.7818608E-02  0.1319506E+00
          2   -1    0    0  502    0  0.00000000000E+00  0.00000000000E+00  0.27856574431E+04  0.27856574431E+04  0.00000000000E+00 0. -1.
          1   -1    0    0  501    0 -0.00000000000E+00 -0.00000000000E+00 -0.45239433141E+03  0.45239433141E+03  0.00000000000E+00 0. -1.
         25    2    1    2    0    0 -0.11661175406E+03 -0.13038401964E+03  0.17144644555E+04  0.17278916479E+04  0.12499153607E+03 0.  0.
          2    1    1    2  501    0  0.67994872678E+02  0.98918486007E+02 -0.43679053228E+03  0.45298359647E+03  0.00000000000E+00 0. -1.
          1    1    1    2  502    0  0.48616881386E+02  0.31465533634E+02  0.10555891885E+04  0.10571765301E+04  0.00000000000E+00 0. -1.
         22    1    3    3    0    0 -0.13579708193E+02  0.18008119479E+02  0.45255086426E+03  0.45311255289E+03  0.00000000000E+00 0.  1.
         22    1    3    3    0    0 -0.10303204587E+03 -0.14839213912E+03  0.12619135912E+04  0.12747790950E+04  0.00000000000E+00 0.  1.
</event>
<event>
 7    1  0.5779468E-006  0.3442416E+03  0.7818608E-02  0.1200882E+00
          2   -1    0    0  502    0  0.00000000000E+00  0.00000000000E+00  0.10803811412E+04  0.10803811412E+04  0.00000000000E+00 0. -1.
          1   -1    0    0  501    0 -0.00000000000E+00 -0.00000000000E+00 -0.19932349745E+03  0.19932349745E+03  0.00000000000E+00 0. -1.
         25    2    1    2    0    0 -0.20131043037E+03  0.25142946305E+03  0.18873508869E+03  0.39368466370E+03  0.12499606578E+03 0.  0.
          2    1    1    2  501    0  0.26532340562E+03 -0.26312111765E+03  0.27576078941E+03  0.46440633620E+03  0.00000000000E+00 0. -1.
          1    1    1    2  502    0 -0.64012975252E+02  0.11691654599E+02  0.41656176568E+03  0.42161363879E+03  0.00000000000E+00 0. -1.
         22    1    3    3    0    0 -0.18259911820E+03  0.24018704776E+03  0.20643742043E+03  0.36557990157E+03  0.00000000000E+00 0.  1.
         22    1    3    3    0    0 -0.18711312174E+02  0.11242415289E+02 -0.17702331745E+02  0.28104762124E+02  0.00000000000E+00 0.  1.
</event>
<event>
 7    1  0.5779468E-006  0.5491144E+02  0.7818608E-02  0.1443997E+00
          2   -1    0    0  502    0  0.00000000000E+00  0.00000000000E+00  0.15717181964E+04  0.15717181964E+04  0.00000000000E+00 0. -1.
          1   -1    0    0  501    0 -0.00000000000E+00 -0.00000000000E+00 -0.63222842139E+03  0.63222842139E+03  0.00000000000E+00 0. -1.
         25    2    1    2    0    0 -0.66177499549E+02 -0.75513278474E+02  0.25086216116E+03  0.29772361299E+03  0.12500323658E+03 0.  0.
          2    1    1    2  501    0  0.33134726655E+02  0.43532861838E+02 -0.60715995942E+03  0.60961974746E+03  0.00000000000E+00 0. -1.
          1    1    1    2  502    0  0.33042772894E+02  0.31980416636E+02  0.12957875733E+04  0.12966032573E+04  0.00000000000E+00 0. -1.
         22    1    3    3    0    0 -0.79557982629E+02 -0.79024763140E+02  0.11309446417E+03  0.15926312698E+03  0.00000000000E+00 0. -1.
         22    1    3    3    0    0  0.13380483081E+02  0.35114846655E+01  0.13776769699E+03  0.13846048601E+03  0.00000000000E+00 0. -1.
</event>
<event>
 7    1  0.5779468E-006  0.9315148E+02  0.7818608E-02  0.1363738E+00
          2   -1    0    0  502    0  0.00000000000E+00  0.00000000000E+00  0.15951970251E+04  0.15951970251E+04  0.00000000000E+00 0. -1.
          1   -1    0    0  501    0 -0.00000000000E+00 -0.00000000000E+00 -0.13345422849E+04  0.13345422849E+04  0.00000000000E+00 0. -1.
         25    2    1    2    0    0 -0.63767395649E+02  0.50804163479E+02 -0.46266584259E+02  0.15624516861E+03  0.12499844848E+03 0.  0.
          2    1    1    2  501    0  0.29978055389E+02 -0.89031566115E+02 -0.12310738055E+04  0.12346529951E+04  0.00000000000E+00 0. -1.
          1    1    1    2  502    0  0.33789340260E+02  0.38227402636E+02  0.15379951300E+04  0.15388411463E+04  0.00000000000E+00 0. -1.
         22    1    3    3    0    0 -0.34501423000E+02 -0.35794630275E+02 -0.41416105578E+02  0.64706240401E+02  0.00000000000E+00 0. -1.
         22    1    3    3    0    0 -0.29265972649E+02  0.86598793754E+02 -0.48504786807E+01  0.91538928212E+02  0.00000000000E+00 0. -1.
</event>
<event>
 7    1  0.5779468E-006  0.2568663E+02  0.7818608E-02  0.1675055E+00
          2   -1    0    0  502    0  0.00000000000E+00  0.00000000000E+00  0.12664558439E+04  0.12664558439E+04  0.00000000000E+00 0. -1.
          1   -1    0    0  501    0 -0.00000000000E+00 -0.00000000000E+00 -0.14878006184E+04  0.14878006184E+04  0.00000000000E+00 0. -1.
         25    2    1    2    0    0  0.76820011771E+01  0.10678798536E+02 -0.79782637087E+02  0.14887594454E+03  0.12500291117E+03 0.  0.
          2    1    1    2  501    0  0.10958834721E+02 -0.23306080304E+02 -0.13732477051E+04  0.13734891805E+04  0.00000000000E+00 0. -1.
          1    1    1    2  502    0 -0.18640835898E+02  0.12627281768E+02  0.12316855677E+04  0.12318913372E+04  0.00000000000E+00 0. -1.
         22    1    3    3    0    0 -0.63933745066E+00  0.23050155144E+02 -0.11148386910E+03  0.11384362729E+03  0.00000000000E+00 0.  1.
         22    1    3    3    0    0  0.83213386278E+01 -0.12371356608E+02  0.31701232013E+02  0.35032317252E+02  0.00000000000E+00 0.  1.
</event>
<event>
 7    1  0.5779468E-006  0.9347505E+02  0.7818608E-02  0.1310856E+00
          2   -1    0    0  502    0  0.00000000000E+00  0.00000000000E+00  0.34098756714E+03  0.34098756714E+03  0.00000000000E+00 0. -1.
          1   -1    0    0  501    0 -0.00000000000E+00 -0.00000000000E+00 -0.30911806182E+03  0.30911806182E+03  0.00000000000E+00 0. -1.
         25    2    1    2    0    0  0.16406451739E+03 -0.36843063922E+02 -0.17120423808E+02  0.21021572721E+03  0.12499186306E+03 0.  0.
          2    1    1    2  501    0 -0.76918314372E+02  0.23929935877E+02 -0.17855550914E+03  0.19588552463E+03  0.00000000000E+00 0. -1.
          1    1    1    2  502    0 -0.87146203015E+02  0.12913128045E+02  0.22754543827E+03  0.24400437712E+03  0.00000000000E+00 0. -1.
         22    1    3    3    0    0  0.10687118032E+03 -0.73221154471E+02  0.22817483666E+02  0.13154248062E+03  0.00000000000E+00 0.  1.
         22    1    3    3    0    0  0.57193337064E+02  0.36378090549E+02 -0.39937907474E+02  0.78673246596E+02  0.00000000000E+00 0.  1.
</event>
<event>
 7    1  0.5779468E-006  0.7298291E+02  0.7818608E-02  0.1453636E+00
          2   -1    0    0  502    0  0.00000000000E+00  0.00000000000E+00  0.19951816451E+04  0.19951816451E+04  0.00000000000E+00 0. -1.
          1   -1    0    0  501    0 -0.00000000000E+00 -0.00000000000E+00 -0.24707233624E+03  0.24707233624E+03  0.00000000000E+00 0. -1.
         25    2    1    2    0    0  0.72350352780E+02 -0.64850171417E+02  0.25066841189E+03  0.29647725691E+03  0.12499597140E+03 0.  0.
          2    1    1    2  501    0 -0.40466831838E+02  0.60187079424E+02 -0.21814646793E+03  0.22988677752E+03  0.00000000000E+00 0. -1.
          1    1    1    2  502    0 -0.31883520942E+02  0.46630919933E+01  0.17155873649E+04  0.17158899469E+04  0.00000000000E+00 0. -1.
         22    1    3    3    0    0  0.15240216722E+02  0.13439568297E+02  0.16763788640E+03  0.16886487840E+03  0.00000000000E+00 0. -1.
         22    1    3    3    0    0  0.57110136058E+02 -0.78289739714E+02  0.83030525489E+02  0.12761237851E+03  0.00000000000E+00 0. -1.
</event>
<event>
 7    1  0.5779468E-006  0.7855611E+02  0.7818608E-02  0.1411875E+00
          2   -1    0    0  502    0  0.00000000000E+00  0.00000000000E+00  0.11283395127E+04  0.11283395127E+04  0.00000000000E+00 0. -1.
          1   -1    0    0  501    0 -0.00000000000E+00 -0.00000000000E+00 -0.34964941702E+03  0.34964941702E+03  0.00000000000E+00 0. -1.
         25    2    1    2    0    0  0.10896095361E+03 -0.48119432151E+02  0.37536975115E+03  0.41317599795E+03  0.12499594411E+03 0.  0.
          2    1    1    2  501    0 -0.71220756652E+02  0.32004512979E+02 -0.32555280754E+03  0.33478547687E+03  0.00000000000E+00 0. -1.
          1    1    1    2  502    0 -0.37740196961E+02  0.16114919172E+02  0.72887315207E+03  0.73002745490E+03  0.00000000000E+00 0. -1.
         22    1    3    3    0    0  0.11908133141E+03 -0.51094560186E+02  0.20526299596E+03  0.24274248718E+03  0.00000000000E+00 0.  1.
         22    1    3    3    0    0 -0.10120377801E+02  0.29751280354E+01  0.17010675518E+03  0.17043351077E+03  0.00000000000E+00 0.  1.
</event>
<event>
 7    1  0.5779468E-006  0.4280658E+02  0.7818608E-02  0.1534917E+00
          2   -1    0    0  502    0  0.00000000000E+00  0.00000000000E+00  0.12903008555E+04  0.12903008555E+04  0.00000000000E+00 0. -1.
          1   -1    0    0  501    0 -0.00000000000E+00 -0.00000000000E+00 -0.19946151815E+03  0.19946151815E+03  0.00000000000E+00 0. -1.
         25    2    1    2    0    0 -0.14383535768E+02 -0.84098876578E+01  0.20692910416E+03  0.24232676053E+03  0.12499996964E+03 0.  0.
          2    1    1    2  501    0 -0.29035052945E+02  0.11626496344E+02 -0.17996869671E+03  0.18266620244E+03  0.00000000000E+00 0. -1.
          1    1    1    2  502    0  0.43418588713E+02 -0.32166086858E+01  0.10638789299E+04  0.10647694106E+04  0.00000000000E+00 0. -1.
         22    1    3    3    0    0  0.18993514189E+02 -0.10937401445E+02 -0.90913960047E+01  0.23728333547E+02  0.00000000000E+00 0.  1.
         22    1    3    3    0    0 -0.33377049957E+02  0.25275137868E+01  0.21602050016E+03  0.21859842698E+03  0.00000000000E+00 0.  1.
</event>
<event>
 7    1  0.5779468E-006  0.4441783E+02  0.7818608E-02  0.1530336E+00
          2   -1    0    0  502    0  0.00000000000E+00  0.00000000000E+00  0.91608811546E+02  0.91608811546E+02  0.00000000000E+00 0. -1.
          1   -1    0    0  501    0 -0.00000000000E+00 -0.00000000000E+00 -0.14722278754E+04  0.14722278754E+04  0.00000000000E+00 0. -1.
         25    2    1    2    0    0 -0.66516913004E+01 -0.71257930923E+02 -0.10144547907E+03  0.17617584855E+03  0.12499922669E+03 0.  0.
          2    1    1    2  501    0 -0.73937596633E+01  0.43551418786E+02 -0.13285726303E+04  0.13293068222E+04  0.00000000000E+00 0. -1.
          1    1    1    2  502    0  0.14045450964E+02  0.27706512137E+02  0.49399045478E+02  0.58354016157E+02  0.00000000000E+00 0. -1.
         22    1    3    3    0    0 -0.45000518631E+02  0.11088915350E+02 -0.10267098490E+02  0.47470243649E+02  0.00000000000E+00 0. -1.
         22    1    3    3    0    0  0.38348827331E+02 -0.82346846273E+02 -0.91178380581E+02  0.12870560491E+03  0.00000000000E+00 0. -1.
</event>
<event>
 7    1  0.5779468E-006  0.7884961E+02  0.7818608E-02  0.1409289E+00
          2   -1    0    0  502    0  0.00000000000E+00  0.00000000000E+00  0.27092493049E+03  0.27092493049E+03  0.00000000000E+00 0. -1.
          1   -1    0    0  501    0 -0.00000000000E+00 -0.00000000000E+00 -0.18134597389E+03  0.18134597389E+03  0.00000000000E+00 0. -1.
         25    2    1    2    0    0 -0.47181842295E+02 -0.13136234231E+01  0.25679375992E+02  0.13605781321E+03  0.12499778532E+03 0.  0.
          2    1    1    2  501    0  0.80749521469E+02  0.26082138312E+02 -0.10912225828E+03  0.13823324640E+03  0.00000000000E+00 0. -1.
          1    1    1    2  502    0 -0.33567679174E+02 -0.24768514888E+02  0.17302183889E+03  0.17797984478E+03  0.00000000000E+00 0. -1.
         22    1    3    3    0    0 -0.73183874556E+02  0.10054454421E+02  0.57359492544E+02  0.93525840994E+02  0.00000000000E+00 0.  1.
         22    1    3    3    0    0  0.26002032260E+02 -0.11368077844E+02 -0.31680116553E+02  0.42531972213E+02  0.00000000000E+00 0.  1.
</event>
<event>
 7    1  0.5779468E-006  0.1149815E+03  0.7818608E-02  0.1289803E+00
          2   -1    0    0  502    0  0.00000000000E+00  0.00000000000E+00  0.33261938087E+03  0.33261938087E+03  0.00000000000E+00 0. -1.
          1   -1    0    0  501    0 -0.00000000000E+00 -0.00000000000E+00 -0.15439399812E+04  0.15439399812E+04  0.00000000000E+00 0. -1.
         25    2    1    2    0    0 -0.10609773225E+03 -0.13910034130E+03  0.14526318721E+03  0.25948349522E+03  0.12499862798E+03 0.  0.
          2    1    1    2  501    0  0.97417590387E+02  0.60069877717E+02 -0.14722653692E+04  0.14767071119E+04  0.00000000000E+00 0. -1.
          1    1    1    2  502    0  0.86801418604E+01  0.79030463585E+02  0.11568158162E+03  0.14036875494E+03  0.00000000000E+00 0. -1.
         22    1    3    3    0    0 -0.35538693229E+02 -0.13897629250E+03  0.85351635348E+02  0.16692007144E+03  0.00000000000E+00 0.  1.
         22    1    3    3    0    0 -0.70559039019E+02 -0.12404879895E+00  0.59911551864E+02  0.92563423781E+02  0.00000000000E+00 0.  1.
</event>
<event>
 7    1  0.5779468E-006  0.4708226E+03  0.7818608E-02  0.1180993E+00
          2   -1    0    0  502    0  0.00000000000E+00  0.00000000000E+00  0.85102099608E+03  0.85102099608E+03  0.00000000000E+00 0. -1.
          1   -1    0    0  501    0 -0.00000000000E+00 -0.00000000000E+00 -0.99116764926E+03  0.99116764926E+03  0.00000000000E+00 0. -1.
         25    2    1    2    0    0 -0.38427779057E+03  0.33213690909E+03 -0.28712637819E+03  0.59670009421E+03  0.12500039469E+03 0.  0.
          2    1    1    2  501    0  0.34188030228E+03 -0.29075166524E+03 -0.45588097894E+03  0.63972348627E+03  0.00000000000E+00 0. -1.
          1    1    1    2  502    0  0.42397488287E+02 -0.41385243857E+02  0.60286070395E+03  0.60576506485E+03  0.00000000000E+00 0. -1.
         22    1    3    3    0    0 -0.14159515113E+03  0.16394577708E+03 -0.61779346627E+02  0.22526449413E+03  0.00000000000E+00 0. -1.
         22    1    3    3    0    0 -0.24268263944E+03  0.16819113201E+03 -0.22534703156E+03  0.37143560008E+03  0.00000000000E+00 0. -1.
</event>
<event>
 7    1  0.5779468E-006  0.4957282E+03  0.7818608E-02  0.1168128E+00
          2   -1    0    0  502    0  0.00000000000E+00  0.00000000000E+00  0.11070913738E+04  0.11070913738E+04  0.00000000000E+00 0. -1.
          1   -1    0    0  501    0 -0.00000000000E+00 -0.00000000000E+00 -0.13119140575E+04  0.13119140575E+04  0.00000000000E+00 0. -1.
         25    2    1    2    0    0  0.15727794253E+03  0.45515684294E+03 -0.59013758668E+03  0.77187505446E+03  0.12499850241E+03 0.  0.
          2    1    1    2  501    0  0.64351072542E+02 -0.99440091260E+01 -0.56809000659E+03  0.57180958320E+03  0.00000000000E+00 0. -1.
          1    1    1    2  502    0 -0.22162901507E+03 -0.44521283382E+03  0.95340490954E+03  0.10753207936E+04  0.00000000000E+00 0. -1.
         22    1    3    3    0    0  0.12801391536E+03  0.42483819184E+03 -0.47856163586E+03  0.65260730236E+03  0.00000000000E+00 0.  1.
         22    1    3    3    0    0  0.29264027164E+02  0.30318651099E+02 -0.11157595081E+03  0.11926775210E+03  0.00000000000E+00 0.  1.
</event>
<event>
 7    1  0.5779468E-006  0.6906274E+02  0.7818608E-02  0.1431114E+00
          2   -1    0    0  502    0  0.00000000000E+00  0.00000000000E+00  0.18563197875E+04  0.18563197875E+04  0.00000000000E+00 0. -1.
          1   -1    0    0  501    0 -0.00000000000E+00 -0.00000000000E+00 -0.17270691115E+03  0.17270691115E+03  0.00000000000E+00 0. -1.
         25    2    1    2    0    0  0.10106239927E+02 -0.93391391349E+02  0.16457738168E+03  0.22701316735E+03  0.12500070210E+03 0.  0.
          2    1    1    2  501    0  0.22846921154E+02  0.33162377910E+02 -0.13789822313E+03  0.14365808386E+03  0.00000000000E+00 0. -1.
          1    1    1    2  502    0 -0.32953161081E+02  0.60229013439E+02  0.16569337178E+04  0.16583554475E+04  0.00000000000E+00 0. -1.
         22    1    3    3    0    0  0.60147854988E+02 -0.61639254059E+02  0.54278075162E+02  0.10180015493E+03  0.00000000000E+00 0. -1.
         22    1    3    3    0    0 -0.50041615061E+02 -0.31752137290E+02  0.11029930652E+03  0.12521301242E+03  0.00000000000E+00 0. -1.
</event>
<event>
 7    1  0.5779468E-006  0.2926786E+03  0.7818608E-02  0.1131275E+00
          2   -1    0    0  502    0  0.00000000000E+00  0.00000000000E+00  0.17891387439E+04  0.17891387439E+04  0.00000000000E+00 0. -1.
          1   -1    0    0  501    0 -0.00000000000E+00 -0.00000000000E+00 -0.88603513876E+03  0.88603513876E+03  0.00000000000E+00 0. -1.
         25    2    1    2    0    0 -0.76367423908E+02 -0.26225167798E+03  0.51296333330E+03  0.59444559494E+03  0.12500503190E+03 0.  0.
          2    1    1    2  501    0 -0.93361920313E+02  0.28066850049E+03 -0.81320697607E+03  0.86533048095E+03  0.00000000000E+00 0. -1.
          1    1    1    2  502    0  0.16972934422E+03 -0.18416822502E+02  0.12033472479E+04  0.12153978067E+04  0.00000000000E+00 0. -1.
         22    1    3    3    0    0  0.29235385716E+02 -0.10783130466E+03  0.16292580679E+03  0.19755281967E+03  0.00000000000E+00 0. -1.
         22    1    3    3    0    0 -0.10560280962E+03 -0.15442037332E+03  0.35003752651E+03  0.39689277527E+03  0.00000000000E+00 0. -1.
</event>
<event>
 7    1  0.5779468E-006  0.6352493E+02  0.7818608E-02  0.1407195E+00
          2   -1    0    0  502    0  0.00000000000E+00  0.00000000000E+00  0.11297879728E+04  0.11297879728E+04  0.00000000000E+00 0. -1.
          1   -1    0    0  501    0 -0.00000000000E+00 -0.00000000000E+00 -0.98019164645E+02  0.98019164645E+02  0.00000000000E+00 0. -1.
         25    2    1    2    0    0 -0.68775080584E+02 -0.40064426270E+02  0.19531909900E+03  0.24517120947E+03  0.12499680619E+03 0.  0.
          2    1    1    2  501    0  0.62498733045E+02 -0.12195723845E+02 -0.58302650130E+02  0.86336703229E+02  0.00000000000E+00 0. -1.
          1    1    1    2  502    0  0.62763475388E+01  0.52260150115E+02  0.89475235929E+03  0.89629922475E+03  0.00000000000E+00 0. -1.
         22    1    3    3    0    0  0.10195283533E+02 -0.56243173901E+02  0.12787062803E+03  0.14006475620E+03  0.00000000000E+00 0.  1.
         22    1    3    3    0    0 -0.78970364116E+02  0.16178747631E+02  0.67448470972E+02  0.10510645328E+03  0.00000000000E+00 0.  1.
</event>
<event>
 7    1  0.5779468E-006  0.6129845E+02  0.7818608E-02  0.1408824E+00
          2   -1    0    0  502    0  0.00000000000E+00  0.00000000000E+00  0.14641696988E+04  0.14641696988E+04  0.00000000000E+00 0. -1.
          1   -1    0    0  501    0 -0.00000000000E+00 -0.00000000000E+00 -0.18103572354E+03  0.18103572354E+03  0.00000000000E+00 0. -1.
         25    2    1    2    0    0  0.13999863576E+02  0.10341957539E+03  0.59160899500E+03  0.61361085312E+03  0.12500188534E+03 0.  0.
          2    1    1    2  501    0 -0.31211829686E+02 -0.52387771257E+02 -0.16369288381E+03  0.17468261819E+03  0.00000000000E+00 0. -1.
          1    1    1    2  502    0  0.17211966110E+02 -0.51031804133E+02  0.85521786409E+03  0.85691195106E+03  0.00000000000E+00 0. -1.
         22    1    3    3    0    0  0.23456960725E+01  0.11114803117E+03  0.58898204305E+03  0.59938237725E+03  0.00000000000E+00 0. -1.
         22    1    3    3    0    0  0.11654167504E+02 -0.77284557798E+01  0.26269519547E+01  0.14228475868E+02  0.00000000000E+00 0. -1.
</event>
<event>
 7    1  0.5779468E-006  0.8046481E+02  0.7818608E-02  0.1338060E+00
          2   -1    0    0  502    0  0.00000000000E+00  0.00000000000E+00  0.16662867267E+04  0.16662867267E+04  0.00000000000E+00 0. -1.
          1   -1    0    0  501    0 -0.00000000000E+00 -0.00000000000E+00 -0.20986507536E+03  0.20986507536E+03  0.00000000000E+00 0. -1.
         25    2    1    2    0    0 -0.21275431234E+01 -0.93890412083E+01  0.35209989889E+03  0.37375456865E+03  0.12500183301E+03 0.  0.
          2    1    1    2  501    0  0.76080240604E+02 -0.26198911853E+02 -0.18955179492E+03  0.20592345410E+03  0.00000000000E+00 0. -1.
          1    1    1    2  502    0 -0.73952697480E+02  0.35587953062E+02  0.12938735473E+04  0.12964737793E+04  0.00000000000E+00 0. -1.
         22    1    3    3    0    0 -0.20200147116E+02 -0.64078150003E+02  0.17143604118E+03  0.18413139729E+03  0.00000000000E+00 0. -1.
         22    1    3    3    0    0  0.18072603992E+02  0.54689108795E+02  0.18066385770E+03  0.18962317136E+03  0.00000000000E+00 0. -1.
</event>
<event>
 7    1  0.5779468E-006  0.6867842E+02  0.7818608E-02  0.1491036E+00
          2   -1    0    0  502    0  0.00000000000E+00  0.00000000000E+00  0.11470328469E+03  0.11470328469E+03  0.00000000000E+00 0. -1.
          1   -1    0    0  501    0 -0.00000000000E+00 -0.00000000000E+00 -0.30373775399E+03  0.30373775399E+03  0.00000000000E+00 0. -1.
         25    2    1    2    0    0 -0.68949094814E+02 -0.37076613015E+02 -0.11840942432E+03  0.18914181579E+03  0.12500072721E+03 0.  0.
          2    1    1    2  501    0  0.17055138746E+01  0.26161430066E+02 -0.13382817957E+03  0.13637195770E+03  0.00000000000E+00 0. -1.
          1    1    1    2  502    0  0.67243580939E+02  0.10915182949E+02  0.63203134585E+02  0.92927265201E+02  0.00000000000E+00 0. -1.
         22    1    3    3    0    0 -0.97924386908E+02 -0.87878749909E+01 -0.51645702421E+02  0.11105715140E+03  0.00000000000E+00 0.  1.
         22    1    3    3    0    0  0.28975292095E+02 -0.28288738025E+02 -0.66763721896E+02  0.78084664387E+02  0.00000000000E+00 0.  1.
</event>
<event>
 7    1  0.5779468E-006  0.6642483E+02  0.7818608E-02  0.1377781E+00
          2   -1    0    0  502    0  0.00000000000E+00  0.00000000000E+00  0.23578308827E+03  0.23578308827E+03  0.00000000000E+00 0. -1.
          1   -1    0    0  501    0 -0.00000000000E+00 -0.00000000000E+00 -0.13592628219E+04  0.13592628219E+04  0.00000000000E+00 0. -1.
         25    2    1    2    0    0 -0.44563323899E+02 -0.24544288643E+02  0.11252382703E+03  0.17571287744E+03  0.12500036683E+03 0.  0.
          2    1    1    2  501    0  0.26882747556E+02 -0.57755042109E+02 -0.13074025546E+04  0.13089536916E+04  0.00000000000E+00 0. -1.
          1    1    1    2  502    0  0.17680576343E+02  0.82299330752E+02  0.71398993908E+02  0.11037934115E+03  0.00000000000E+00 0. -1.
         22    1    3    3    0    0 -0.79970954912E+02 -0.20704344539E+02  0.11314506523E+03  0.14009221712E+03  0.00000000000E+00 0. -1.
         22    1    3    3    0    0  0.35407631013E+02 -0.38399441044E+01 -0.62123819972E+00  0.35620660319E+02  0.00000000000E+00 0. -1.
</event>
<event>
 7    1  0.5779468E-006  0.1011111E+03  0.7818608E-02  0.1390203E+00
          2   -1    0    0  502    0  0.00000000000E+00  0.00000000000E+00  0.15621081760E+04  0.15621081760E+04  0.00000000000E+00 0. -1.
          1   -1    0    0  501    0 -0.00000000000E+00 -0.00000000000E+00 -0.77824669494E+02  0.77824669494E+02  0.00000000000E+00 0. -1.
         25    2    1    2    0    0 -0.23259705578E+02  0.82343219950E+02  0.15015462882E+03  0.21328989674E+03  0.12499899088E+03 0.  0.
          2    1    1    2  501    0 -0.37841013079E+02 -0.20101561936E+00 -0.36275266106E+02  0.52420202300E+02  0.00000000000E+00 0. -1.
          1    1    1    2  502    0  0.61100718657E+02 -0.82142204330E+02  0.13704041438E+04  0.13742227465E+04  0.00000000000E+00 0. -1.
         22    1    3    3    0    0  0.28123880404E+02 -0.14522401841E+02  0.71960994535E+02  0.78614486824E+02  0.00000000000E+00 0.  1.
         22    1    3    3    0    0 -0.51383585982E+02  0.96865621791E+02  0.78193634289E+02  0.13467540992E+03  0.00000000000E+00 0.  1.
</event>
<event>
 7    1  0.5779468E-006  0.3598660E+03  0.7818608E-02  0.1100479E+00
          2   -1    0    0  502    0  0.00000000000E+00  0.00000000000E+00  0.88893412791E+02  0.88893412791E+02  0.00000000000E+00 0. -1.
          1   -1    0    0  501    0 -0.00000000000E+00 -0.00000000000E+00 -0.34425811679E+04  0.34425811679E+04  0.00000000000E+00 0. -1.
         25    2    1    2    0    0  0.31124258255E+03  0.28153331039E+01 -0.16733786047E+04  0.17066637744E+04  0.12500165168E+03 0.  0.
          2    1    1    2  501    0  0.19624597761E+02  0.20374453586E+03 -0.11411043881E+04  0.11593171202E+04  0.00000000000E+00 0. -1.
          1    1    1    2  502    0 -0.33086718031E+03 -0.20655986897E+03 -0.53920476234E+03  0.66549368607E+03  0.00000000000E+00 0. -1.
         22    1    3    3    0    0  0.10045611145E+03  0.48473402037E+02 -0.76158561413E+03  0.76971017188E+03  0.00000000000E+00 0. -1.
         22    1    3    3    0    0  0.21078647110E+03 -0.45658068934E+02 -0.91179299058E+03  0.93695360255E+03  0.00000000000E+00 0. -1.
</event>
<event>
 7    1  0.5779468E-006  0.6728386E+02  0.7818608E-02  0.1429390E+00
          2   -1    0    0  502    0  0.00000000000E+00  0.00000000000E+00  0.20083945059E+03  0.20083945059E+03  0.00000000000E+00 0. -1.
          1   -1    0    0  501    0 -0.00000000000E+00 -0.00000000000E+00 -0.29171528346E+03  0.29171528346E+03  0.00000000000E+00 0. -1.
         25    2    1    2    0    0  0.54315754260E+02 -0.77664952587E+02  0.44605538012E+02  0.16308436133E+03  0.12499923547E+03 0.  0.
          2    1    1    2  501    0 -0.55815251496E+02  0.35812944295E+02 -0.22289037465E+03  0.23254683054E+03  0.00000000000E+00 0. -1.
          1    1    1    2  502    0  0.14994972359E+01  0.41852008291E+02  0.87409003769E+02  0.96923542186E+02  0.00000000000E+00 0. -1.
         22    1    3    3    0    0  0.38076407221E+02 -0.10287511863E+02 -0.38332574340E+02  0.55000290388E+02  0.00000000000E+00 0.  1.
         22    1    3    3    0    0  0.16239347039E+02 -0.67377440724E+02  0.82938112352E+02  0.10808407094E+03  0.00000000000E+00 0.  1.
</event>
<event>
 7    1  0.5779468E-006  0.9911324E+02  0.7818608E-02  0.1387172E+00
          2   -1    0    0  502    0  0.00000000000E+00  0.00000000000E+00  0.56513197300E+03  0.56513197300E+03  0.00000000000E+00 0. -1.
          1   -1    0    0  501    0 -0.00000000000E+00 -0.00000000000E+00 -0.14367825978E+03  0.14367825978E+03  0.00000000000E+00 0. -1.
         25    2    1    2    0    0 -0.10393359708E+03  0.66867629530E+02  0.86993540140E+02  0.19612766375E+03  0.12499884791E+03 0.  0.
          2    1    1    2  501    0  0.11365203992E+02 -0.37890170238E+02 -0.78810591169E+02  0.88181302683E+02  0.00000000000E+00 0. -1.
          1    1    1    2  502    0  0.92568393086E+02 -0.28977459291E+02  0.41327076425E+03  0.42450126635E+03  0.00000000000E+00 0. -1.
         22    1    3    3    0    0  0.15077043790E+02  0.35590244829E+02 -0.94430346048E+01  0.39788863756E+02  0.00000000000E+00 0.  1.
         22    1    3    3    0    0 -0.11901064087E+03  0.31277384700E+02  0.96436574745E+02  0.15633879999E+03  0.00000000000E+00 0.  1.
</event>
<event>
 7    1  0.5779468E-006  0.4700401E+02  0.7818608E-02  0.1505211E+00
          2   -1    0    0  502    0  0.00000000000E+00  0.00000000000E+00  0.32897878486E+03  0.32897878486E+03  0.00000000000E+00 0. -1.
          1   -1    0    0  501    0 -0.00000000000E+00 -0.00000000000E+00 -0.91811877155E+02  0.91811877155E+02  0.00000000000E+00 0. -1.
         25    2    1    2    0    0  0.73640035817E+02  0.87872487302E+01  0.11835557446E+03  0.18743019327E+03  0.12498785833E+03 0.  0.
          2    1    1    2  501    0 -0.29647312937E+02 -0.18112439213E+02 -0.48753611939E+02  0.59866002837E+02  0.00000000000E+00 0. -1.
          1    1    1    2  502    0 -0.43992722880E+02  0.93251904831E+01  0.16756494519E+03  0.17349446590E+03  0.00000000000E+00 0. -1.
         22    1    3    3    0    0  0.69129035678E+02 -0.50430412213E+02  0.76436891132E+02  0.11473730159E+03  0.00000000000E+00 0. -1.
         22    1    3    3    0    0  0.45110001390E+01  0.59217660943E+02  0.41918683328E+02  0.72692891687E+02  0.00000000000E+00 0. -1.
</event>
<event>
 7    1  0.5779468E-006  0.2286315E+02  0.7818608E-02  0.1712424E+00
          2   -1    0    0  502    0  0.00000000000E+00  0.00000000000E+00  0.96717943928E+03  0.96717943928E+03  0.00000000000E+00 0. -1.
          1   -1    0    0  501    0 -0.00000000000E+00 -0.00000000000E+00 -0.72189639013E+02  0.72189639013E+02  0.00000000000E+00 0. -1.
         25    2    1    2    0    0 -0.25478959251E+02 -0.20883176035E+02  0.67409617655E+02  0.14578932917E+03  0.12500075016E+03 0.  0.
          2    1    1    2  501    0  0.26298310983E+01  0.20543703438E+02 -0.29582724340E+02  0.36112287963E+02  0.00000000000E+00 0. -1.
          1    1    1    2  502    0  0.22849128152E+02  0.33947259694E+00  0.85716290695E+03  0.85746746116E+03  0.00000000000E+00 0. -1.
         22    1    3    3    0    0  0.30380919872E+02  0.15327609107E+02  0.71405974939E+02  0.79099615360E+02  0.00000000000E+00 0.  1.
         22    1    3    3    0    0 -0.55859879122E+02 -0.36210785141E+02 -0.39963572835E+01  0.66689713807E+02  0.00000000000E+00 0.  1.
</event>
<event>
 7    1  0.5779468E-006  0.8694548E+02  0.7818608E-02  0.1364331E+00
          2   -1    0    0  502    0  0.00000000000E+00  0.00000000000E+00  0.29490157370E+04  0.29490157370E+04  0.00000000000E+00 0. -1.
          1   -1    0    0  501    0 -0.00000000000E+00 -0.00000000000E+00 -0.15239938785E+04  0.15239938785E+04  0.00000000000E+00 0. -1.
         25    2    1    2    0    0 -0.77640066623E+02 -0.52483025162E+02  0.45907265386E+02  0.16282940143E+03  0.12499395617E+03 0.  0.
          2    1    1    2  501    0  0.31441181026E+02  0.81191304729E+02 -0.14639793133E+04  0.14665660591E+04  0.00000000000E+00 0. -1.
          1    1    1    2  502    0  0.46198885597E+02 -0.28708279567E+02  0.28430939064E+04  0.28436141551E+04  0.00000000000E+00 0. -1.
         22    1    3    3    0    0  0.32376046195E+02 -0.27536930707E+02  0.20529543353E+02  0.47201197763E+02  0.00000000000E+00 0. -1.
         22    1    3    3    0    0 -0.11001611282E+03 -0.24946094456E+02  0.25377722033E+02  0.11562820367E+03  0.00000000000E+00 0. -1.
</event>
<event>
 7    1  0.5779468E-006  0.6522122E+02  0.7818608E-02  0.1529977E+00
          2   -1    0    0  502    0  0.00000000000E+00  0.00000000000E+00  0.20246653632E+03  0.20246653632E+03  0.00000000000E+00 0. -1.
          1   -1    0    0  501    0 -0.00000000000E+00 -0.00000000000E+00 -0.60365139024E+03  0.60365139024E+03  0.00000000000E+00 0. -1.
         25    2    1    2    0    0  0.28233958066E+02  0.80469317538E+02 -0.26007234302E+01  0.15134309074E+03  0.12500199958E+03 0.  0.
          2    1    1    2  501    0 -0.17198781500E+02 -0.62361558821E+02 -0.52379827851E+03  0.52777779290E+03  0.00000000000E+00 0. -1.
          1    1    1    2  502    0 -0.11035176566E+02 -0.18107758717E+02  0.12521414802E+03  0.12699704293E+03  0.00000000000E+00 0. -1.
         22    1    3    3    0    0  0.62164318124E+02  0.36808249140E+02  0.39044028083E+02  0.82119947526E+02  0.00000000000E+00 0. -1.
         22    1    3    3    0    0 -0.33930360058E+02  0.43661068397E+02 -0.41644751513E+02  0.69223143210E+02  0.00000000000E+00 0. -1.
</event>
<event>
 7    1  0.5779468E-006  0.9409777E+02  0.7818608E-02  0.1390325E+00
          2   -1    0    0  502    0  0.00000000000E+00  0.00000000000E+00  0.15853767575E+04  0.15853767575E+04  0.00000000000E+00 0. -1.
          1   -1    0    0  501    0 -0.00000000000E+00 -0.00000000000E+00 -0.26447481706E+04  0.26447481706E+04  0.00000000000E+00 0. -1.
         25    2    1    2    0    0 -0.49476453809E+02 -0.36147820454E+02  0.29245208619E+03  0.32389438859E+03  0.12499907136E+03 0.  0.
          2    1    1    2  501    0 -0.40495094050E+02 -0.32075076182E+01 -0.26269820956E+04  0.26272961522E+04  0.00000000000E+00 0. -1.
          1    1    1    2  502    0  0.89971547858E+02  0.39355328072E+02  0.12751585964E+04  0.12789343873E+04  0.00000000000E+00 0. -1.
         22    1    3    3    0    0 -0.36026399829E+02 -0.13208517440E+02  0.92815361132E+01  0.39478010717E+02  0.00000000000E+00 0.  1.
         22    1    3    3    0    0 -0.13450053980E+02 -0.22939303013E+02  0.28317055007E+03  0.28441637788E+03  0.00000000000E+00 0.  1.
</event>
<event>
 7    1  0.5779468E-006  0.1749888E+03  0.7818608E-02  0.1219154E+00
          2   -1    0    0  502    0  0.00000000000E+00  0.00000000000E+00  0.36567440417E+03  0.36567440417E+03  0.00000000000E+00 0. -1.
          1   -1    0    0  501    0 -0.00000000000E+00 -0.00000000000E+00 -0.35763528129E+03  0.35763528129E+03  0.00000000000E+00 0. -1.
         25    2    1    2    0    0  0.23183519776E+03  0.55286912619E+02 -0.48855249696E+02  0.27352476605E+03  0.12499904236E+03 0.  0.
          2    1    1    2  501    0 -0.96821252998E+02  0.41452200434E+02 -0.15074158884E+03  0.18389036560E+03  0.00000000000E+00 0. -1.
          1    1    1    2  502    0 -0.13501394476E+03 -0.96739113053E+02  0.20763596142E+03  0.26589455382E+03  0.00000000000E+00 0. -1.
         22    1    3    3    0    0  0.12248031234E+02 -0.28898139329E+02 -0.18418697131E+02  0.36391827789E+02  0.00000000000E+00 0.  1.
         22    1    3    3    0    0  0.21958716653E+03  0.84185051948E+02 -0.30436552564E+02  0.23713293826E+03  0.00000000000E+00 0.  1.
</event>
<event>
 7    1  0.5779468E-006  0.8462283E+02  0.7818608E-02  0.1393496E+00
          2   -1    0    0  502    0  0.00000000000E+00  0.00000000000E+00  0.14557152933E+03  0.14557152933E+03  0.00000000000E+00 0. -1.
          1   -1    0    0  501    0 -0.00000000000E+00 -0.00000000000E+00 -0.33503223958E+04  0.33503223958E+04  0.00000000000E+00 0. -1.
         25    2    1    2    0    0 -0.44786428112E+02  0.11424410703E+03 -0.13580955660E+03  0.22164689748E+03  0.12500228544E+03 0.  0.
          2    1    1    2  501    0  0.13717225558E+02 -0.83035671361E+02 -0.31662862791E+04  0.31674045978E+04  0.00000000000E+00 0. -1.
          1    1    1    2  502    0  0.31069202554E+02 -0.31208435673E+02  0.97344969170E+02  0.10684242990E+03  0.00000000000E+00 0. -1.
         22    1    3    3    0    0  0.36542241055E+02  0.62805865772E+02 -0.88220636443E+02  0.11429257566E+03  0.00000000000E+00 0. -1.
         22    1    3    3    0    0 -0.81328669167E+02  0.51438241262E+02 -0.47588920154E+02  0.10735432182E+03  0.00000000000E+00 0. -1.
</event>
<event>
 7    1  0.5779468E-006  0.8410867E+02  0.7818608E-02  0.1462804E+00
          2   -1    0    0  502    0  0.00000000000E+00  0.00000000000E+00  0.71389315284E+03  0.71389315284E+03  0.00000000000E+00 0. -1.
          1   -1    0    0  501    0 -0.00000000000E+00 -0.00000000000E+00 -0.40845287857E+03  0.40845287857E+03  0.00000000000E+00 0. -1.
         25    2    1    2    0    0 -0.60910086761E+02  0.90905237211E+02 -0.18034107355E+03  0.24519745521E+03  0.12500035364E+03 0.  0.
          2    1    1    2  501    0  0.10512675998E+02 -0.23948845664E+02 -0.19221818938E+03  0.19398942212E+03  0.00000000000E+00 0. -1.
          1    1    1    2  502    0  0.50397410762E+02 -0.66956391547E+02  0.67799953719E+03  0.68315915409E+03  0.00000000000E+00 0. -1.
         22    1    3    3    0    0 -0.27770561588E+02  0.90194185950E+02 -0.42631991444E+02  0.10355521216E+03  0.00000000000E+00 0. -1.
         22    1    3    3    0    0 -0.33139525173E+02  0.71105126057E+00 -0.13770908210E+03  0.14164224305E+03  0.00000000000E+00 0. -1.
</event>
<event>
 7    1  0.5779468E-006  0.3521409E+03  0.7818608E-02  0.1261073E+00
          2   -1    0    0  502    0  0.00000000000E+00  0.00000000000E+00  0.58102857643E+03  0.58102857643E+03  0.00000000000E+00 0. -1.
          1   -1    0    0  501    0 -0.00000000000E+00 -0.00000000000E+00 -0.38603019156E+03  0.38603019156E+03  0.00000000000E+00 0. -1.
         25    2    1    2    0    0  0.34173891654E+03 -0.13438699438E+03  0.11202990925E+02  0.38806299884E+03  0.12498813034E+03 0.  0.
          2    1    1    2  501    0 -0.30910257975E+03  0.14458363648E+03 -0.48076882330E+02  0.34461604629E+03  0.00000000000E+00 0. -1.
          1    1    1    2  502    0 -0.32636336791E+02 -0.10196642094E+02  0.23187227627E+03  0.23437972287E+03  0.00000000000E+00 0. -1.
         22    1    3    3    0    0  0.35116556859E+03 -0.12193700302E+03  0.14836963998E+02  0.37202960201E+03  0.00000000000E+00 0. -1.
         22    1    3    3    0    0 -0.94266520491E+01 -0.12449991357E+02 -0.36339730730E+01  0.16033396831E+02  0.00000000000E+00 0. -1.
</event>
<event>
 7    1  0.5779468E-006  0.4519198E+02  0.7818608E-02  0.1576446E+00
          2   -1    0    0  502    0  0.00000000000E+00  0.00000000000E+00  0.69650126847E+03  0.69650126847E+03  0.00000000000E+00 0. -1.
          1   -1    0    0  501    0 -0.00000000000E+00 -0.00000000000E+00 -0.73617633375E+02  0.73617633375E+02  0.00000000000E+00 0. -1.
         25    2    1    2    0    0  0.41137970059E+02 -0.67947265337E+01  0.86288556378E+02  0.15749527028E+03  0.12498217597E+03 0.  0.
          2    1    1    2  501    0 -0.43364299265E+02 -0.15829846400E+02 -0.23683478284E+02  0.51884040238E+02  0.00000000000E+00 0. -1.
          1    1    1    2  502    0  0.22263292057E+01  0.22624572933E+02  0.56027855700E+03  0.56073959133E+03  0.00000000000E+00 0. -1.
         22    1    3    3    0    0  0.62316844593E+02 -0.52432364356E+02  0.53054828944E+02  0.97197514507E+02  0.00000000000E+00 0.  1.
         22    1    3    3    0    0 -0.21178874534E+02  0.45637637822E+02  0.33233727434E+02  0.60297755777E+02  0.00000000000E+00 0.  1.
</event>
<event>
 7    1  0.5779468E-006  0.1034868E+03  0.7818608E-02  0.1338103E+00
          2   -1    0    0  502    0  0.00000000000E+00  0.00000000000E+00  0.25271053867E+04  0.25271053867E+04  0.00000000000E+00 0. -1.
          1   -1    0    0  501    0 -0.00000000000E+00 -0.00000000000E+00 -0.13446946766E+02  0.13446946766E+02  0.00000000000E+00 0. -1.
         25    2    1    2    0    0  0.76194713731E+02  0.45870730232E+02  0.11653171107E+04  0.11753716302E+04  0.12499896942E+03 0.  0.
          2    1    1    2  501    0 -0.53675105052E+02 -0.98380848441E+02  0.40820247020E+03  0.42330729373E+03  0.00000000000E+00 0. -1.
          1    1    1    2  502    0 -0.22519608679E+02  0.52510118208E+02  0.94013885907E+03  0.94187340955E+03  0.00000000000E+00 0. -1.
         22    1    3    3    0    0  0.28930882597E+02  0.68872527809E+02  0.32769345128E+03  0.33610031102E+03  0.00000000000E+00 0. -1.
         22    1    3    3    0    0  0.47263831134E+02 -0.23001797577E+02  0.83762365937E+03  0.83927131916E+03  0.00000000000E+00 0. -1.
</event>
<event>
 7    1  0.5779468E-006  0.9584946E+02  0.7818608E-02  0.1367880E+00
          2   -1    0    0  502    0  0.00000000000E+00  0.00000000000E+00  0.19386693292E+04  0.19386693292E+04  0.00000000000E+00 0. -1.
          1   -1    0    0  501    0 -0.00000000000E+00 -0.00000000000E+00 -0.92212919503E+03  0.92212919503E+03  0.00000000000E+00 0. -1.
         25    2    1    2    0    0 -0.46938101972E+02 -0.10708130818E+03  0.14310345654E+02  0.17172847188E+03  0.12496515548E+03 0.  0.
          2    1    1    2  501    0  0.69925073501E+02  0.65054605940E+02 -0.84040410100E+03  0.84581361459E+03  0.00000000000E+00 0. -1.
          1    1    1    2  502    0 -0.22986971529E+02  0.42026702243E+02  0.18426338895E+04  0.18432564377E+04  0.00000000000E+00 0. -1.
         22    1    3    3    0    0  0.11743563524E+02 -0.76677247906E+02  0.54110418928E+02  0.94579326849E+02  0.00000000000E+00 0. -1.
         22    1    3    3    0    0 -0.58681665496E+02 -0.30404060278E+02 -0.39800073274E+02  0.77149145033E+02  0.00000000000E+00 0. -1.
</event>
<event>
 7    1  0.5779468E-006  0.1253214E+03  0.7818608E-02  0.1340908E+00
          2   -1    0    0  502    0  0.00000000000E+00  0.00000000000E+00  0.86150978026E+03  0.86150978026E+03  0.00000000000E+00 0. -1.
          1   -1    0    0  501    0 -0.00000000000E+00 -0.00000000000E+00 -0.14791899474E+03  0.14791899474E+03  0.00000000000E+00 0. -1.
         25    2    1    2    0    0 -0.77548924495E+02  0.13248073840E+03  0.47275370522E+03  0.51252944584E+03  0.12500154128E+03 0.  0.
          2    1    1    2  501    0  0.33436023396E+02 -0.11927499631E+03 -0.96131899680E+02  0.15679870708E+03  0.00000000000E+00 0. -1.
          1    1    1    2  502    0  0.44112901099E+02 -0.13205742086E+02  0.33696897999E+03  0.34010062208E+03  0.00000000000E+00 0. -1.
         22    1    3    3    0    0 -0.73583732328E+02  0.10098299121E+03  0.18629289829E+03  0.22431489948E+03  0.00000000000E+00 0.  1.
         22    1    3    3    0    0 -0.39651921670E+01  0.31497747186E+02  0.28646080693E+03  0.28821454636E+03  0.00000000000E+00 0.  1.
</event>
<event>
 7    1  0.5779468E-006  0.5348647E+02  0.7818608E-02  0.1528313E+00
          2   -1    0    0  502    0  0.00000000000E+00  0.00000000000E+00  0.25380531115E+04  0.25380531115E+04  0.00000000000E+00 0. -1.
          1   -1    0    0  501    0 -0.00000000000E+00 -0.00000000000E+00 -0.63731482051E+03  0.63731482051E+03  0.00000000000E+00 0. -1.
         25    2    1    2    0    0 -0.46765108212E+02 -0.56120853667E+02 -0.50708271255E+02  0.15340444820E+03  0.12500028157E+03 0.  0.
          2    1    1    2  501    0  0.25113955394E+02  0.72640987111E+01 -0.53465192229E+03  0.53529072091E+03  0.00000000000E+00 0. -1.
          1    1    1    2  502    0  0.21651152818E+02  0.48856754956E+02  0.24860984845E+04  0.24866727629E+04  0.00000000000E+00 0. -1.
         22    1    3    3    0    0 -0.24232007502E+02 -0.12755719094E+02  0.41107081393E+02  0.49393225222E+02  0.00000000000E+00 0.  1.
         22    1    3    3    0    0 -0.22533100710E+02 -0.43365134573E+02 -0.91815352648E+02  0.10401122298E+03  0.00000000000E+00 0.  1.
</event>
<event>
 7    1  0.5779468E-006  0.8215572E+02  0.7818608E-02  0.1393362E+00
          2   -1    0    0  502    0  0.00000000000E+00  0.00000000000E+00  0.54009453490E+03  0.54009453490E+03  0.00000000000E+00 0. -1.
          1   -1    0    0  501    0 -0.00000000000E+00 -0.00000000000E+00 -0.47593674272E+03  0.47593674272E+03  0.00000000000E+00 0. -1.
         25    2    1    2    0    0 -0.42810510563E+02  0.11513033381E+03  0.13103626691E+03  0.21881926814E+03  0.12499454103E+03 0.  0.
          2    1    1    2  501    0  0.90154163125E+01 -0.44504342878E+02 -0.42662968626E+03  0.42903939617E+03  0.00000000000E+00 0. -1.
          1    1    1    2  502    0  0.33795094250E+02 -0.70625990928E+02  0.35975121153E+03  0.36817261331E+03  0.00000000000E+00 0. -1.
         22    1    3    3    0    0 -0.85456939715E+02  0.57834853705E+02  0.68206824044E+02  0.12369288458E+03  0.00000000000E+00 0. -1.
         22    1    3    3    0    0  0.42646429152E+02  0.57295480102E+02  0.62829442867E+02  0.95126383567E+02  0.00000000000E+00 0. -1.
</event>
<event>
 7    1  0.5779468E-006  0.6009321E+02  0.7818608E-02  0.1448985E+00
          2   -1    0    0  502    0  0.00000000000E+00  0.00000000000E+00  0.86485531208E+03  0.86485531208E+03  0.00000000000E+00 0. -1.
          1   -1    0    0  501    0 -0.00000000000E+00 -0.00000000000E+00 -0.11303383541E+04  0.11303383541E+04  0.00000000000E+00 0. -1.
         25    2    1    2    0    0 -0.19963274823E+02 -0.26403536208E+01  0.23083322724E+03  0.26327733381E+03  0.12500188755E+03 0.  0.
          2    1    1    2  501    0  0.57603474731E+02  0.17578084228E+02 -0.11126374190E+04  0.11142662049E+04  0.00000000000E+00 0. -1.
          1    1    1    2  502    0 -0.37640199908E+02 -0.14937730607E+02  0.61632114968E+03  0.61765012749E+03  0.00000000000E+00 0. -1.
         22    1    3    3    0    0  0.27027264335E+02 -0.14686869995E+02  0.20691919399E+03  0.20919304484E+03  0.00000000000E+00 0.  1.
         22    1    3    3    0    0 -0.46990539158E+02  0.12046516375E+02  0.23914033250E+02  0.54084288970E+02  0.00000000000E+00 0.  1.
</event>
<event>
 7    1  0.5779468E-006  0.4731548E+02  0.7818608E-02  0.1468256E+00
          2   -1    0    0  502    0  0.00000000000E+00  0.00000000000E+00  0.12986081465E+04  0.12986081465E+04  0.00000000000E+00 0. -1.
          1   -1    0    0  501    0 -0.00000000000E+00 -0.00000000000E+00 -0.12439599992E+04  0.12439599992E+04  0.00000000000E+00 0. -1.
         25    2    1    2    0    0 -0.87851987487E+02  0.84404209851E+01  0.22079170260E+03  0.26862993656E+03  0.12499541778E+03 0.  0.
          2    1    1    2  501    0  0.41906209004E+02 -0.15557794437E+02 -0.12191182818E+04  0.12199375231E+04  0.00000000000E+00 0. -1.
          1    1    1    2  502    0  0.45945778482E+02  0.71173734521E+01  0.10529747265E+04  0.10540006861E+04  0.00000000000E+00 0. -1.
         22    1    3    3    0    0 -0.11105864992E+03 -0.22752074263E+02  0.17561993331E+03  0.20903119763E+03  0.00000000000E+00 0. -1.
         22    1    3    3    0    0  0.23206662435E+02  0.31192495249E+02  0.45171769292E+02  0.59598738931E+02  0.00000000000E+00 0. -1.
</event>
<event>
 7    1  0.5779468E-006  0.6834266E+02  0.7818608E-02  0.1422874E+00
          2   -1    0    0  502    0  0.00000000000E+00  0.00000000000E+00  0.25870939662E+04  0.25870939662E+04  0.00000000000E+00 0. -1.
          1   -1    0    0  501    0 -0.00000000000E+00 -0.00000000000E+00 -0.77981491136E+02  0.77981491136E+02  0.00000000000E+00 0. -1.
         25    2    1    2    0    0 -0.10487945559E+03 -0.32838064802E+02  0.40841784031E+03  0.44103100477E+03  0.12500070472E+03 0.  0.
          2    1    1    2  501    0  0.63341649808E+02  0.20506897533E+02 -0.43424035618E+02  0.79488013664E+02  0.00000000000E+00 0. -1.
          1    1    1    2  502    0  0.41537805785E+02  0.12331167269E+02  0.21441186704E+04  0.21445564389E+04  0.00000000000E+00 0. -1.
         22    1    3    3    0    0 -0.84113473638E+02  0.35926570101E+02  0.27021735137E+03  0.28527742965E+03  0.00000000000E+00 0. -1.
         22    1    3    3    0    0 -0.20765981955E+02 -0.68764634903E+02  0.13820048895E+03  0.15575357513E+03  0.00000000000E+00 0. -1.
</event>
<event>
 7    1  0.5779468E-006  0.4704169E+02  0.7818608E-02  0.1471659E+00
          2   -1    0    0  502    0  0.00000000000E+00  0.00000000000E+00  0.14084903895E+03  0.14084903895E+03  0.00000000000E+00 0. -1.
          1   -1    0    0  501    0 -0.00000000000E+00 -0.00000000000E+00 -0.30106659995E+04  0.30106659995E+04  0.00000000000E+00 0. -1.
         25    2    1    2    0    0  0.53793346622E+02 -0.35780112528E+02 -0.10215387733E+03  0.17387702333E+03  0.12499545590E+03 0.  0.
          2    1    1    2  501    0 -0.73925098194E+01  0.43251246129E+02 -0.28672144543E+04  0.28675501820E+04  0.00000000000E+00 0. -1.
          1    1    1    2  502    0 -0.46400836803E+02 -0.74711336008E+01  0.99551371119E+02  0.11008783305E+03  0.00000000000E+00 0. -1.
         22    1    3    3    0    0  0.58952688153E+02 -0.62336365833E+02 -0.20996410446E+02  0.88329446943E+02  0.00000000000E+00 0.  1.
         22    1    3    3    0    0 -0.51593415307E+01  0.26556253305E+02 -0.81157466880E+02  0.85547576383E+02  0.00000000000E+00 0.  1.
</event>
<event>
 7    1  0.5779468E-006  0.1842241E+03  0.7818608E-02  0.1271295E+00
          2   -1    0    0  502    0  0.00000000000E+00  0.00000000000E+00  0.44923125128E+03  0.44923125128E+03  0.00000000000E+00 0. -1.
          1   -1    0    0  501    0 -0.00000000000E+00 -0.00000000000E+00 -0.10865184079E+04  0.10865184079E+04  0.00000000000E+00 0. -1.
         25    2    1    2    0    0  0.19131889750E+03 -0.11180956053E+03 -0.61176835800E+01  0.25449719961E+03  0.12500840048E+03 0.  0.
          2    1    1    2  501    0 -0.13337079299E+03  0.12377146409E+03 -0.94476335638E+03  0.96212522226E+03  0.00000000000E+00 0. -1.
          1    1    1    2  502    0 -0.57948104505E+02 -0.11961903563E+02  0.31359388332E+03  0.31912723733E+03  0.00000000000E+00 0. -1.
         22    1    3    3    0    0  0.40443294317E+02 -0.89224482659E+02  0.19277414310E+02  0.99841309404E+02  0.00000000000E+00 0.  1.
         22    1    3    3    0    0  0.15087560318E+03 -0.22585077866E+02 -0.25395097890E+02  0.15465589020E+03  0.00000000000E+00 0.  1.
</event>
<event>
 7    1  0.5779468E-006  0.1109372E+03  0.7818608E-02  0.1328517E+00
          2   -1    0    0  502    0  0.00000000000E+00  0.00000000000E+00  0.82209569759E+03  0.82209569759E+03  0.00000000000E+00 0. -1.
          1   -1    0    0  501    0 -0.00000000000E+00 -0.00000000000E+00 -0.42992824883E+03  0.42992824883E+03  0.00000000000E+00 0. -1.
         25    2    1    2    0    0  0.14961872525E+03  0.46188001261E+02  0.93418649917E+02  0.22106663816E+03  0.12499727977E+03 0.  0.
          2    1    1    2  501    0 -0.57138252989E+02  0.97415343475E+01 -0.35937446446E+03  0.36401879505E+03  0.00000000000E+00 0. -1.
          1    1    1    2  502    0 -0.92480472265E+02 -0.55929535608E+02  0.65812326330E+03  0.66693851321E+03  0.00000000000E+00 0. -1.
         22    1    3    3    0    0  0.11914363806E+03 -0.16178018622E+02  0.23439764364E+02  0.12250043808E+03  0.00000000000E+00 0.  1.
         22    1    3    3    0    0  0.30475087194E+02  0.62366019883E+02  0.69978885553E+02  0.98566200083E+02  0.00000000000E+00 0.  1.
</event>
<event>
 7    1  0.5779468E-006  0.1042876E+03  0.7818608E-02  0.1290677E+00
          2   -1    0    0  502    0  0.00000000000E+00  0.00000000000E+00  0.44819401287E+03  0.44819401287E+03  0.00000000000E+00 0. -1.
          1   -1    0    0  501    0 -0.00000000000E+00 -0.00000000000E+00 -0.97659868888E+03  0.97659868888E+03  0.00000000000E+00 0. -1.
         25    2    1    2    0    0 -0.76358206310E+02 -0.60565394061E+02  0.29090649193E+03  0.33128562448E+03  0.12499934126E+03 0.  0.
          2    1    1    2  501    0  0.10225212794E+03 -0.22433767309E+02 -0.93941850336E+03  0.94523324954E+03  0.00000000000E+00 0. -1.
          1    1    1    2  502    0 -0.25893921630E+02  0.82999161370E+02  0.12010733543E+03  0.14827382773E+03  0.00000000000E+00 0. -1.
         22    1    3    3    0    0 -0.31040784215E+02 -0.36171049738E+02  0.27248449650E+03  0.27662190072E+03  0.00000000000E+00 0. -1.
         22    1    3    3    0    0 -0.45317422095E+02 -0.24394344323E+02  0.18421995427E+02  0.54663723765E+02  0.00000000000E+00 0. -1.
</event>
<event>
 7    1  0.5779468E-006  0.5575054E+02  0.7818608E-02  0.1481437E+00
          2   -1    0    0  502    0  0.00000000000E+00  0.00000000000E+00  0.17483577261E+04  0.17483577261E+04  0.00000000000E+00 0. -1.
          1   -1    0    0  501    0 -0.00000000000E+00 -0.00000000000E+00 -0.16997596484E+03  0.16997596484E+03  0.00000000000E+00 0. -1.
         25    2    1    2    0    0  0.55091834611E+02 -0.71041337611E+02 -0.41282857339E+02  0.15941291743E+03  0.12500488808E+03 0.  0.
          2    1    1    2  501    0 -0.18567778121E+02  0.29126972651E+02 -0.64857104824E+02  0.73481881891E+02  0.00000000000E+00 0. -1.
          1    1    1    2  502    0 -0.36524056491E+02  0.41914364960E+02  0.16845217234E+04  0.16854388916E+04  0.00000000000E+00 0. -1.
         22    1    3    3    0    0 -0.25259674445E+02 -0.26669252368E+02 -0.55474049155E+02  0.66533227072E+02  0.00000000000E+00 0. -1.
         22    1    3    3    0    0  0.80351509056E+02 -0.44372085243E+02  0.14191191816E+02  0.92879690361E+02  0.00000000000E+00 0. -1.
</event>
<event>
 7    1  0.5779468E-006  0.5900787E+02  0.7818608E-02  0.1527857E+00
          2   -1    0    0  502    0  0.00000000000E+00  0.00000000000E+00  0.37246141820E+03  0.37246141820E+03  0.00000000000E+00 0. -1.
          1   -1    0    0  501    0 -0.00000000000E+00 -0.00000000000E+00 -0.56494791004E+03  0.56494791004E+03  0.00000000000E+00 0. -1.
         25    2    1    2    0    0  0.98634358835E+01 -0.45496997433E+02 -0.97526806645E+02  0.16524024666E+03  0.12500238781E+03 0.  0.
          2    1    1    2  501    0 -0.19921734197E+02 -0.12964513442E+02 -0.43063603758E+03  0.43129149187E+03  0.00000000000E+00 0. -1.
          1    1    1    2  502    0  0.10058298314E+02  0.58461510875E+02  0.33567635238E+03  0.34087758971E+03  0.00000000000E+00 0. -1.
         22    1    3    3    0    0  0.35909482710E+02  0.20883887191E+02 -0.82497174722E+02  0.92365640418E+02  0.00000000000E+00 0. -1.
         22    1    3    3    0    0 -0.26046046827E+02 -0.66380884624E+02 -0.15029631923E+02  0.72874606239E+02  0.00000000000E+00 0. -1.
</event>
<event>
 7    1  0.5779468E-006  0.7780676E+02  0.7818608E-02  0.1368191E+00
          2   -1    0    0  502    0  0.00000000000E+00  0.00000000000E+00  0.89520004670E+02  0.89520004670E+02  0.00000000000E+00 0. -1.
          1   -1    0    0  501    0 -0.00000000000E+00 -0.00000000000E+00 -0.69518766917E+03  0.69518766917E+03  0.00000000000E+00 0. -1.
         25    2    1    2    0    0 -0.82036085516E+02 -0.22682168191E+02 -0.59598203776E+03  0.61486918971E+03  0.12500052416E+03 0.  0.
          2    1    1    2  501    0  0.39852525083E+02 -0.43313964332E+02 -0.53973248916E+02  0.79858843344E+02  0.00000000000E+00 0. -1.
          1    1    1    2  502    0  0.42183560432E+02  0.65996132523E+02  0.44287622174E+02  0.89979640789E+02  0.00000000000E+00 0. -1.
         22    1    3    3    0    0 -0.86805985739E+02  0.27435293709E+02 -0.47804429783E+03  0.48663572124E+03  0.00000000000E+00 0. -1.
         22    1    3    3    0    0  0.47699002236E+01 -0.50117461900E+02 -0.11793773993E+03  0.12823346847E+03  0.00000000000E+00 0. -1.
</event>
<event>
 7    1  0.5779468E-006  0.3329912E+02  0.7818608E-02  0.1629196E+00
          2   -1    0    0  502    0  0.00000000000E+00  0.00000000000E+00  0.17522709288E+04  0.17522709288E+04  0.00000000000E+00 0. -1.
          1   -1    0    0  501    0 -0.00000000000E+00 -0.00000000000E+00 -0.43242412626E+02  0.43242412626E+02  0.00000000000E+00 0. -1.
         25    2    1    2    0    0  0.44323741330E+02 -0.27226837508E+02  0.22042634980E+03  0.25868536817E+03  0.12499779716E+03 0.  0.
          2    1    1    2  501    0 -0.22088662838E+02  0.23869810287E+02 -0.13024423120E+02  0.35033019663E+02  0.00000000000E+00 0. -1.
          1    1    1    2  502    0 -0.22235078492E+02  0.33570272211E+01  0.15016265895E+04  0.15017949536E+04  0.00000000000E+00 0. -1.
         22    1    3    3    0    0 -0.29432886488E+01 -0.58383024906E+02  0.43341854799E+02  0.72771951483E+02  0.00000000000E+00 0. -1.
         22    1    3    3    0    0  0.47267029979E+02  0.31156187398E+02  0.17708449500E+03  0.18591341669E+03  0.00000000000E+00 0. -1.
</event>
<event>
 7    1  0.5779468E-006  0.3055430E+03  0.7818608E-02  0.1125120E+00
          2   -1    0    0  502    0  0.00000000000E+00  0.00000000000E+00  0.11364189399E+04  0.11364189399E+04  0.00000000000E+00 0. -1.
          1   -1    0    0  501    0 -0.00000000000E+00 -0.00000000000E+00 -0.50088910063E+03  0.50088910063E+03  0.00000000000E+00 0. -1.
         25    2    1    2    0    0 -0.23927736073E+03  0.12369512300E+03 -0.21455297905E+03  0.36635001933E+03  0.12500086812E+03 0.  0.
          2    1    1    2  501    0  0.30768983436E+03 -0.28631116481E+03  0.18322079327E+02  0.42069325625E+03  0.00000000000E+00 0. -1.
          1    1    1    2  502    0 -0.68412473627E+02  0.16261604181E+03  0.83176073898E+03  0.85026476495E+03  0.00000000000E+00 0. -1.
         22    1    3    3    0    0 -0.22211392145E+03  0.11002010554E+03 -0.23108122317E+03  0.33887689420E+03  0.00000000000E+00 0. -1.
         22    1    3    3    0    0 -0.17163439278E+02  0.13675017460E+02  0.16528244118E+02  0.27473125123E+02  0.00000000000E+00 0. -1.
</event>
<event>
 7    1  0.5779468E-006  0.2898313E+03  0.7818608E-02  0.1132089E+00
          2   -1    0    0  502    0  0.00000000000E+00  0.00000000000E+00  0.13957823144E+04  0.13957823144E+04  0.00000000000E+00 0. -1.
          1   -1    0    0  501    0 -0.00000000000E+00 -0.00000000000E+00 -0.33570755107E+03  0.33570755107E+03  0.00000000000E+00 0. -1.
         25    2    1    2    0    0  0.23826146920E+03  0.93632228759E+02  0.14799717030E+03  0.32103432720E+03  0.12499741939E+03 0.  0.
          2    1    1    2  501    0 -0.63464696132E+02  0.15845520584E+03 -0.19646128544E+03  0.26025536803E+03  0.00000000000E+00 0. -1.
          1    1    1    2  502    0 -0.17479677307E+03 -0.25208743460E+03  0.11085388785E+04  0.11502001702E+04  0.00000000000E+00 0. -1.
         22    1    3    3    0    0  0.16586486754E+03  0.27124482826E+01  0.10878522482E+03  0.19837524240E+03  0.00000000000E+00 0. -1.
         22    1    3    3    0    0  0.72396601663E+02  0.90919780477E+02  0.39211945481E+02  0.12265908479E+03  0.00000000000E+00 0. -1.
</event>
<event>
 7    1  0.5779468E-006  0.1491847E+03  0.7818608E-02  0.1338197E+00
          2   -1    0    0  502    0  0.00000000000E+00  0.00000000000E+00  0.20611751242E+04  0.20611751242E+04  0.00000000000E+00 0. -1.
          1   -1    0    0  501    0 -0.00000000000E+00 -0.00000000000E+00 -0.16089853378E+03  0.16089853378E+03  0.00000000000E+00 0. -1.
         25    2    1    2    0    0 -0.83437075039E+02 -0.11897335044E+03  0.14581357508E+03  0.24083837363E+03  0.12500047971E+03 0.  0.
          2    1    1    2  501    0 -0.31894377756E+02  0.23473674433E+02 -0.10682744832E+03  0.11393141989E+03  0.00000000000E+00 0. -1.
          1    1    1    2  502    0  0.11533145279E+03  0.95499676007E+02  0.18612904637E+04  0.18673038645E+04  0.00000000000E+00 0. -1.
         22    1    3    3    0    0 -0.18142491687E+02 -0.48016702141E+02 -0.14871364640E+02  0.53440725812E+02  0.00000000000E+00 0. -1.
         22    1    3    3    0    0 -0.65294583351E+02 -0.70956648299E+02  0.16068493972E+03  0.18739764782E+03  0.00000000000E+00 0. -1.
</event>
<event>
 7    1  0.5779468E-006  0.1350809E+03  0.7818608E-02  0.1316136E+00
          2   -1    0    0  502    0  0.00000000000E+00  0.00000000000E+00  0.87621783859E+03  0.87621783859E+03  0.00000000000E+00 0. -1.
          1   -1    0    0  501    0 -0.00000000000E+00 -0.00000000000E+00 -0.14512937384E+04  0.14512937384E+04  0.00000000000E+00 0. -1.
         25    2    1    2    0    0 -0.77051442841E+02  0.16538833489E+03 -0.13857887849E+03  0.26099781067E+03  0.12500210177E+03 0.  0.
          2    1    1    2  501    0  0.41709322509E+02 -0.12569238298E+03 -0.12471292785E+04  0.12541410128E+04  0.00000000000E+00 0. -1.
          1    1    1    2  502    0  0.35342120332E+02 -0.39695951915E+02  0.81063225724E+03  0.81237275345E+03  0.00000000000E+00 0. -1.
         22    1    3    3    0    0  0.32837574383E+02  0.52159499730E+02 -0.54150457161E+02  0.82043840197E+02  0.00000000000E+00 0.  1.
         22    1    3    3    0    0 -0.10988901722E+03  0.11322883516E+03 -0.84428421331E+02  0.17895397047E+03  0.00000000000E+00 0.  1.
</event>
<event>
 7    1  0.5779468E-006  0.4784266E+02  0.7818608E-02  0.1528349E+00
          2   -1    0    0  502    0  0.00000000000E+00  0.00000000000E+00  0.25521014965E+03  0.25521014965E+03  0.00000000000E+00 0. -1.
          1   -1    0    0  501    0 -0.00000000000E+00 -0.00000000000E+00 -0.11269195629E+03  0.11269195629E+03  0.00000000000E+00 0. -1.
         25    2    1    2    0    0  0.24239632910E+02 -0.14535518912E+02  0.99634289252E+01  0.12853841819E+03  0.12499605562E+03 0.  0.
          2    1    1    2  501    0 -0.51765394199E+02  0.47290039832E+01 -0.39222695651E+02  0.65118656077E+02  0.00000000000E+00 0. -1.
          1    1    1    2  502    0  0.27525761288E+02  0.98065149289E+01  0.17177746009E+03  0.17424503167E+03  0.00000000000E+00 0. -1.
         22    1    3    3    0    0 -0.35376262262E+02  0.32631103287E+02 -0.11630169242E+02  0.49512924272E+02  0.00000000000E+00 0. -1.
         22    1    3    3    0    0  0.59615895172E+02 -0.47166622199E+02  0.21593598167E+02  0.79025493916E+02  0.00000000000E+00 0. -1.
</event>
<event>
 7    1  0.5779468E-006  0.1557744E+03  0.7818608E-02  0.1239636E+00
          2   -1    0    0  502    0  0.00000000000E+00  0.00000000000E+00  0.17416010778E+03  0.17416010778E+03  0.00000000000E+00 0. -1.
          1   -1    0    0  501    0 -0.00000000000E+00 -0.00000000000E+00 -0.67524959087E+03  0.67524959087E+03  0.00000000000E+00 0. -1.
         25    2    1    2    0    0 -0.19374456268E+03 -0.95734730578E+02 -0.35659369064E+03  0.43530056062E+03  0.12500169463E+03 0.  0.
          2    1    1    2  501    0  0.12976805705E+03  0.24508474857E+02 -0.24311062083E+03  0.27666439585E+03  0.00000000000E+00 0. -1.
          1    1    1    2  502    0  0.63976505633E+02  0.71226255721E+02  0.98614828381E+02  0.13744474218E+03  0.00000000000E+00 0. -1.
         22    1    3    3    0    0 -0.16624762650E+03 -0.19053626194E+02 -0.25633205402E+03  0.30611670309E+03  0.00000000000E+00 0.  1.
         22    1    3    3    0    0 -0.27496936174E+02 -0.76681104384E+02 -0.10026163662E+03  0.12918385753E+03  0.00000000000E+00 0.  1.
</event>
<event>
 7    1  0.5779468E-006  0.7911479E+02  0.7818608E-02  0.1422815E+00
          2   -1    0    0  502    0  0.00000000000E+00  0.00000000000E+00  0.50835298214E+02  0.50835298214E+02  0.00000000000E+00 0. -1.
          1   -1    0    0  501    0 -0.00000000000E+00 -0.00000000000E+00 -0.48129590591E+03  0.48129590591E+03  0.00000000000E+00 0. -1.
         25    2    1    2    0    0 -0.85172990637E+02 -0.33311571776E+01 -0.18892783659E+03  0.24203409096E+03  0.12498495430E+03 0.  0.
          2    1    1    2  501    0  0.69871671626E+02  0.37509024992E+02 -0.23984152148E+03  0.25261221839E+03  0.00000000000E+00 0. -1.
          1    1    1    2  502    0  0.15301319011E+02 -0.34177867815E+02 -0.16912496253E+01  0.37484894786E+02  0.00000000000E+00 0. -1.
         22    1    3    3    0    0 -0.55406591001E+02  0.32057201478E+02 -0.18484107727E+03  0.19561129400E+03  0.00000000000E+00 0.  1.
         22    1    3    3    0    0 -0.29766399636E+02 -0.35388358656E+02 -0.40867593236E+01  0.46422796958E+02  0.00000000000E+00 0.  1.
</event>
<event>
 7    1  0.5779468E-006  0.8879130E+02  0.7818608E-02  0.1393565E+00
          2   -1    0    0  502    0  0.00000000000E+00  0.00000000000E+00  0.11591249712E+03  0.11591249712E+03  0.00000000000E+00 0. -1.
          1   -1    0    0  501    0 -0.00000000000E+00 -0.00000000000E+00 -0.27681446469E+03  0.27681446469E+03  0.00000000000E+00 0. -1.
         25    2    1    2    0    0 -0.56971733877E+02  0.10755740611E+03 -0.65820933605E+02  0.18645860281E+03  0.12498016319E+03 0.  0.
          2    1    1    2  501    0  0.13054033047E+02 -0.39863552144E+02 -0.11562792898E+03  0.12300133547E+03  0.00000000000E+00 0. -1.
          1    1    1    2  502    0  0.43917700830E+02 -0.67693853968E+02  0.20546895010E+02  0.83267023520E+02  0.00000000000E+00 0. -1.
         22    1    3    3    0    0 -0.55663350739E+02  0.25755158512E+02 -0.82661750079E+02  0.10293056753E+03  0.00000000000E+00 0.  1.
         22    1    3    3    0    0 -0.13083831378E+01  0.81802247601E+02  0.16840816474E+02  0.83528035285E+02  0.00000000000E+00 0.  1.
</event>
<event>
 7    1  0.5779468E-006  0.1304941E+03  0.7818608E-02  0.1254545E+00
          2   -1    0    0  502    0  0.00000000000E+00  0.00000000000E+00  0.10916502150E+04  0.10916502150E+04  0.00000000000E+00 0. -1.
          1   -1    0    0  501    0 -0.00000000000E+00 -0.00000000000E+00 -0.15683247090E+03  0.15683247090E+03  0.00000000000E+00 0. -1.
         25    2    1    2    0    0 -0.49371294407E+02 -0.32846672590E+02  0.21208580045E+03  0.25322644107E+03  0.12500726015E+03 0.  0.
          2    1    1    2  501    0 -0.60989426562E+02 -0.77224244415E+02 -0.11027226571E+03  0.14779467738E+03  0.00000000000E+00 0. -1.
          1    1    1    2  502    0  0.11036072097E+03  0.11007091700E+03  0.83300420933E+03  0.84746156742E+03  0.00000000000E+00 0. -1.
         22    1    3    3    0    0 -0.42385050980E+02 -0.69846898464E+02  0.74455525997E+02  0.11053826090E+03  0.00000000000E+00 0.  1.
         22    1    3    3    0    0 -0.69862434266E+01  0.37000225874E+02  0.13763027446E+03  0.14268818016E+03  0.00000000000E+00 0.  1.
</event>
<event>
 7    1  0.5779468E-006  0.4046870E+02  0.7818608E-02  0.1520204E+00
          2   -1    0    0  502    0  0.00000000000E+00  0.00000000000E+00  0.18083581090E+03  0.18083581090E+03  0.00000000000E+00 0. -1.
          1   -1    0    0  501    0 -0.00000000000E+00 -0.00000000000E+00 -0.23485749255E+04  0.23485749255E+04  0.00000000000E+00 0. -1.
         25    2    1    2    0    0 -0.28063542460E+02  0.27358026309E+01 -0.35368836733E+03  0.37618505176E+03  0.12499873979E+03 0.  0.
          2    1    1    2  501    0  0.16725098116E+02 -0.37395366010E+02 -0.19814636455E+04  0.19818870605E+04  0.00000000000E+00 0. -1.
          1    1    1    2  502    0  0.11338444344E+02  0.34659563379E+02  0.16741289817E+03  0.17133862416E+03  0.00000000000E+00 0. -1.
         22    1    3    3    0    0 -0.59801020423E+02 -0.12292899288E+02 -0.81972521327E+02  0.10220945000E+03  0.00000000000E+00 0. -1.
         22    1    3    3    0    0  0.31737477963E+02  0.15028701919E+02 -0.27171584601E+03  0.27397560176E+03  0.00000000000E+00 0. -1.
</event>
<event>
 7    1  0.5779468E-006  0.1000645E+03  0.7818608E-02  0.1287070E+00
          2   -1    0    0  502    0  0.00000000000E+00  0.00000000000E+00  0.14431678460E+04  0.14431678460E+04  0.00000000000E+00 0. -1.
          1   -1    0    0  501    0 -0.00000000000E+00 -0.00000000000E+00 -0.19822397289E+03  0.19822397289E+03  0.00000000000E+00 0. -1.
         25    2    1    2    0    0  0.46193077052E+02 -0.17828541117E+02  0.23368872347E+03  0.26960512710E+03  0.12499939134E+03 0.  0.
          2    1    1    2  501    0  0.18969671016E+02  0.98249988815E+02 -0.16392721229E+03  0.19205478294E+03  0.00000000000E+00 0. -1.
          1    1    1    2  502    0 -0.65162748068E+02 -0.80421447699E+02  0.11751823619E+04  0.11797319088E+04  0.00000000000E+00 0. -1.
         22    1    3    3    0    0  0.36923686666E+02  0.10163277822E+02  0.23687129575E+03  0.23994720586E+03  0.00000000000E+00 0. -1.
         22    1    3    3    0    0  0.92693903869E+01 -0.27991818938E+02 -0.31825722767E+01  0.29657921234E+02  0.00000000000E+00 0. -1.
</event>
<event>
 7    1  0.5779468E-006  0.1094005E+03  0.7818608E-02  0.1306981E+00
          2   -1    0    0  502    0  0.00000000000E+00  0.00000000000E+00  0.10273689252E+04  0.10273689252E+04  0.00000000000E+00 0. -1.
          1   -1    0    0  501    0 -0.00000000000E+00 -0.00000000000E+00 -0.78155624645E+03  0.78155624645E+03  0.00000000000E+00 0. -1.
         25    2    1    2    0    0 -0.67797970903E+02 -0.66166093784E+02  0.26624223109E+03  0.30900683235E+03  0.12500311995E+03 0.  0.
          2    1    1    2  501    0 -0.47665957465E+02  0.53018633152E+02 -0.75391776245E+03  0.75728132916E+03  0.00000000000E+00 0. -1.
          1    1    1    2  502    0  0.11546392837E+03  0.13147460631E+02  0.73348821009E+03  0.74263701013E+03  0.00000000000E+00 0. -1.
         22    1    3    3    0    0 -0.66795875508E+02  0.20507330196E+02  0.10950519895E+03  0.12989853030E+03  0.00000000000E+00 0. -1.
         22    1    3    3    0    0 -0.10020953953E+01 -0.86673423980E+02  0.15673703215E+03  0.17910830206E+03  0.00000000000E+00 0. -1.
</event>
<event>
 7    1  0.5779468E-006  0.7318710E+02  0.7818608E-02  0.1454974E+00
          2   -1    0    0  502    0  0.00000000000E+00  0.00000000000E+00  0.17019655422E+04  0.17019655422E+04  0.00000000000E+00 0. -1.
          1   -1    0    0  501    0 -0.00000000000E+00 -0.00000000000E+00 -0.23590313643E+03  0.23590313643E+03  0.00000000000E+00 0. -1.
         25    2    1    2    0    0  0.71232387040E+02 -0.21945595291E+02 -0.61519326678E+02  0.15800895748E+03  0.12500616374E+03 0.  0.
          2    1    1    2  501    0 -0.73499054951E+02 -0.97929340891E+01 -0.11507485703E+03  0.13689497930E+03  0.00000000000E+00 0. -1.
          1    1    1    2  502    0  0.22666679109E+01  0.31738529380E+02  0.16426565895E+04  0.16429647419E+04  0.00000000000E+00 0. -1.
         22    1    3    3    0    0 -0.24619154767E+02  0.25680445256E+02 -0.22109056399E+01  0.35643739334E+02  0.00000000000E+00 0. -1.
         22    1    3    3    0    0  0.95851541807E+02 -0.47626040547E+02 -0.59308421039E+02  0.12236521814E+03  0.00000000000E+00 0. -1.
</event>
<event>
 7    1  0.5779468E-006  0.9483431E+02  0.7818608E-02  0.1401350E+00
          2   -1    0    0  502    0  0.00000000000E+00  0.00000000000E+00  0.18919585277E+04  0.18919585277E+04  0.00000000000E+00 0. -1.
          1   -1    0    0  501    0 -0.00000000000E+00 -0.00000000000E+00 -0.63051092528E+02  0.63051092528E+02  0.00000000000E+00 0. -1.
         25    2    1    2    0    0 -0.11576922856E+03  0.10880537953E+02  0.12341961455E+03  0.21066506195E+03  0.12500586660E+03 0.  0.
          2    1    1    2  501    0  0.83411725329E+02  0.68927426899E+01  0.71897385510E+02  0.11033702854E+03  0.00000000000E+00 0. -1.
          1    1    1    2  502    0  0.32357503234E+02 -0.17773280643E+02  0.16335904351E+04  0.16340075297E+04  0.00000000000E+00 0. -1.
         22    1    3    3    0    0 -0.96875844987E+02  0.53049342436E+02  0.44223429483E+02  0.11897425684E+03  0.00000000000E+00 0. -1.
         22    1    3    3    0    0 -0.18893383576E+02 -0.42168804482E+02  0.79196185063E+02  0.91690805116E+02  0.00000000000E+00 0. -1.
</event>
<event>
 7    1  0.5779468E-006  0.1743700E+03  0.7818608E-02  0.1235969E+00
          2   -1    0    0  502    0  0.00000000000E+00  0.00000000000E+00  0.16174349952E+04  0.16174349952E+04  0.00000000000E+00 0. -1.
          1   -1    0    0  501    0 -0.00000000000E+00 -0.00000000000E+00 -0.33904664265E+03  0.33904664265E+03  0.00000000000E+00 0. -1.
         25    2    1    2    0    0 -0.11782906815E+03  0.15504535045E+03 -0.28711534860E+02  0.23319181451E+03  0.12502527794E+03 0.  0.
          2    1    1    2  501    0 -0.39373446177E+02 -0.79579607613E+02 -0.19333931584E+03  0.21275167040E+03  0.00000000000E+00 0. -1.
          1    1    1    2  502    0  0.15720251433E+03 -0.75465742838E+02  0.15004392032E+04  0.15105381529E+04  0.00000000000E+00 0. -1.
         22    1    3    3    0    0 -0.12668277614E+03  0.91749505866E+02 -0.52504521181E+02  0.16499461307E+03  0.00000000000E+00 0.  1.
         22    1    3    3    0    0  0.88537079899E+01  0.63295844585E+02  0.23792986322E+02  0.68197201446E+02  0.00000000000E+00 0.  1.
</event>
<event>
 7    1  0.5779468E-006  0.1171462E+03  0.7818608E-02  0.1330726E+00
          2   -1    0    0  502    0  0.00000000000E+00  0.00000000000E+00  0.19474741626E+03  0.19474741626E+03  0.00000000000E+00 0. -1.
          1   -1    0    0  501    0 -0.00000000000E+00 -0.00000000000E+00 -0.11659566431E+04  0.11659566431E+04  0.00000000000E+00 0. -1.
         25    2    1    2    0    0  0.76437826473E+02 -0.19391996523E+02 -0.23854336937E+03  0.28061751985E+03  0.12499785011E+03 0.  0.
          2    1    1    2  501    0  0.23208041222E+02 -0.48573925182E+02 -0.88452064058E+03  0.88615732407E+03  0.00000000000E+00 0. -1.
          1    1    1    2  502    0 -0.99645867696E+02  0.67965921705E+02  0.15185478309E+03  0.19392921546E+03  0.00000000000E+00 0. -1.
         22    1    3    3    0    0 -0.33662156781E+02  0.11549728454E+01 -0.77013881935E+02  0.84057199407E+02  0.00000000000E+00 0. -1.
         22    1    3    3    0    0  0.11009998325E+03 -0.20546969368E+02 -0.16152948743E+03  0.19656032045E+03  0.00000000000E+00 0. -1.
</event>
<event>
 7    1  0.5779468E-006  0.5511104E+02  0.7818608E-02  0.1510206E+00
          2   -1    0    0  502    0  0.00000000000E+00  0.00000000000E+00  0.95680180268E+03  0.95680180268E+03  0.00000000000E+00 0. -1.
          1   -1    0    0  501    0 -0.00000000000E+00 -0.00000000000E+00 -0.69457869841E+02  0.69457869841E+02  0.00000000000E+00 0. -1.
         25    2    1    2    0    0 -0.81664576411E+01 -0.30724818372E+02  0.18017168780E+03  0.22158016443E+03  0.12500090675E+03 0.  0.
          2    1    1    2  501    0  0.30931957842E+02  0.48105891894E+02 -0.31607188978E+02  0.65345062904E+02  0.00000000000E+00 0. -1.
          1    1    1    2  502    0 -0.22765500201E+02 -0.17381073522E+02  0.73877943402E+03  0.73933444519E+03  0.00000000000E+00 0. -1.
         22    1    3    3    0    0 -0.39816570575E+02 -0.64677113480E+02  0.14374635506E+03  0.16257768264E+03  0.00000000000E+00 0. -1.
         22    1    3    3    0    0  0.31650112934E+02  0.33952295108E+02  0.36425332743E+02  0.59002481789E+02  0.00000000000E+00 0. -1.
</event>
<event>
 7    1  0.5779468E-006  0.3369356E+02  0.7818608E-02  0.1578153E+00
          2   -1    0    0  502    0  0.00000000000E+00  0.00000000000E+00  0.22163626705E+03  0.22163626705E+03  0.00000000000E+00 0. -1.
          1   -1    0    0  501    0 -0.00000000000E+00 -0.00000000000E+00 -0.43097163767E+03  0.43097163767E+03  0.00000000000E+00 0. -1.
         25    2    1    2    0    0 -0.44416382653E+01  0.52437550576E+02  0.76791432156E+02  0.15585565790E+03  0.12499854874E+03 0.  0.
          2    1    1    2  501    0 -0.15531521532E+02 -0.29824047933E+02 -0.38853740114E+03  0.38998976150E+03  0.00000000000E+00 0. -1.
          1    1    1    2  502    0  0.19973159797E+02 -0.22613502643E+02  0.10241059836E+03  0.10676248531E+03  0.00000000000E+00 0. -1.
         22    1    3    3    0    0 -0.38702870929E+02  0.75813122454E+02  0.76398719429E+02  0.11437790908E+03  0.00000000000E+00 0.  1.
         22    1    3    3    0    0  0.34261232663E+02 -0.23375571879E+02  0.39271272750E+00  0.41477748824E+02  0.00000000000E+00 0.  1.
</event>
<event>
 7    1  0.5779468E-006  0.1225238E+03  0.7818608E-02  0.1283666E+00
          2   -1    0    0  502    0  0.00000000000E+00  0.00000000000E+00  0.21503376415E+03  0.21503376415E+03  0.00000000000E+00 0. -1.
          1   -1    0    0  501    0 -0.00000000000E+00 -0.00000000000E+00 -0.63543774047E+03  0.63543774047E+03  0.00000000000E+00 0. -1.
         25    2    1    2    0    0  0.10341523657E+03 -0.69470858652E+01 -0.12038123833E+02  0.16283109812E+03  0.12500430765E+03 0.  0.
          2    1    1    2  501    0  0.12021899866E+02  0.78129240484E+02 -0.51130442782E+03  0.51737889618E+03  0.00000000000E+00 0. -1.
          1    1    1    2  502    0 -0.11543713644E+03 -0.71182154619E+02  0.10293857533E+03  0.17026151032E+03  0.00000000000E+00 0. -1.
         22    1    3    3    0    0  0.18263650500E+02 -0.54901448101E+02 -0.27202787045E+02  0.63935291946E+02  0.00000000000E+00 0.  1.
         22    1    3    3    0    0  0.85151586072E+02  0.47954362235E+02  0.15164663213E+02  0.98895806172E+02  0.00000000000E+00 0.  1.
</event>
<event>
 7    1  0.5779468E-006  0.9191189E+02  0.7818608E-02  0.1351518E+00
          2   -1    0    0  502    0  0.00000000000E+00  0.00000000000E+00  0.78786992386E+03  0.78786992386E+03  0.00000000000E+00 0. -1.
          1   -1    0    0  501    0 -0.00000000000E+00 -0.00000000000E+00 -0.20297855931E+03  0.20297855931E+03  0.00000000000E+00 0. -1.
         25    2    1    2    0    0  0.46512171048E+02  0.10402471181E+02  0.29685699266E+03  0.32560759902E+03  0.12499856395E+03 0.  0.
          2    1    1    2  501    0 -0.89790561665E+02  0.27183618986E+02 -0.17505945279E+03  0.19861295556E+03  0.00000000000E+00 0. -1.
          1    1    1    2  502    0  0.43278390617E+02 -0.37586090168E+02  0.46309382468E+03  0.46662792858E+03  0.00000000000E+00 0. -1.
         22    1    3    3    0    0  0.10465261643E+02  0.62069786325E+02  0.93485863648E+02  0.11270220396E+03  0.00000000000E+00 0.  1.
         22    1    3    3    0    0  0.36046909405E+02 -0.51667315144E+02  0.20337112901E+03  0.21290539506E+03  0.00000000000E+00 0.  1.
</event>
<event>
 7    1  0.5779468E-006  0.1665795E+03  0.7818608E-02  0.1289114E+00
          2   -1    0    0  502    0  0.00000000000E+00  0.00000000000E+00  0.18179423122E+04  0.18179423122E+04  0.00000000000E+00 0. -1.
          1   -1    0    0  501    0 -0.00000000000E+00 -0.00000000000E+00 -0.80568578748E+03  0.80568578748E+03  0.00000000000E+00 0. -1.
         25    2    1    2    0    0  0.17149661364E+03  0.10631618749E+03 -0.31897585239E+02  0.23948842348E+03  0.12499211505E+03 0.  0.
          2    1    1    2  501    0 -0.54188885920E+02  0.10697844827E+02 -0.66484091437E+03  0.66713141183E+03  0.00000000000E+00 0. -1.
          1    1    1    2  502    0 -0.11730772772E+03 -0.11701403231E+03  0.17089950243E+04  0.17170082644E+04  0.00000000000E+00 0. -1.
         22    1    3    3    0    0  0.16310449393E+03  0.36886404189E+02 -0.18041537567E+02  0.16819387573E+03  0.00000000000E+00 0. -1.
         22    1    3    3    0    0  0.83921197069E+01  0.69429783298E+02 -0.13856047672E+02  0.71294547751E+02  0.00000000000E+00 0. -1.
</event>
<event>
 7    1  0.5779468E-006  0.7417865E+02  0.7818608E-02  0.1397626E+00
          2   -1    0    0  502    0  0.00000000000E+00  0.00000000000E+00  0.16098280166E+04  0.16098280166E+04  0.00000000000E+00 0. -1.
          1   -1    0    0  501    0 -0.00000000000E+00 -0.00000000000E+00 -0.38971982419E+02  0.38971982419E+02  0.00000000000E+00 0. -1.
         25    2    1    2    0    0 -0.35119712663E+02  0.26978563510E+02  0.48380369076E+03  0.50164936212E+03  0.12499933685E+03 0.  0.
          2    1    1    2  501    0  0.24021281326E+02 -0.74305494298E+02  0.22195438266E+02  0.81184764083E+02  0.00000000000E+00 0. -1.
          1    1    1    2  502    0  0.11098431337E+02  0.47326930788E+02  0.10648569052E+04  0.10659658728E+04  0.00000000000E+00 0. -1.
         22    1    3    3    0    0  0.92540862977E+01 -0.12499361392E+02  0.14132033238E+01  0.15616314932E+02  0.00000000000E+00 0.  1.
         22    1    3    3    0    0 -0.44373798961E+02  0.39477924901E+02  0.48239048743E+03  0.48603304718E+03  0.00000000000E+00 0.  1.
</event>
<event>
 7    1  0.5779468E-006  0.5884786E+02  0.7818608E-02  0.1420408E+00
          2   -1    0    0  502    0  0.00000000000E+00  0.00000000000E+00  0.26386676121E+03  0.26386676121E+03  0.00000000000E+00 0. -1.
          1   -1    0    0  501    0 -0.00000000000E+00 -0.00000000000E+00 -0.58357723984E+03  0.58357723984E+03  0.00000000000E+00 0. -1.
         25    2    1    2    0    0 -0.16803824875E+00 -0.97580160779E+01 -0.18284143005E+03  0.22169562135E+03  0.12499085114E+03 0.  0.
          2    1    1    2  501    0  0.26639686561E+02 -0.43819496927E+02 -0.37588897327E+03  0.37937098128E+03  0.00000000000E+00 0. -1.
          1    1    1    2  502    0 -0.26471648312E+02  0.53577513005E+02  0.23901992468E+03  0.24637739843E+03  0.00000000000E+00 0. -1.
         22    1    3    3    0    0  0.62178240599E+02 -0.93111226237E+01 -0.97256419437E+02  0.11580864273E+03  0.00000000000E+00 0.  1.
         22    1    3    3    0    0 -0.62346278848E+02 -0.44689345420E+00 -0.85585010610E+02  0.10588697862E+03  0.00000000000E+00 0.  1.
</event>
<event>
 7    1  0.5779468E-006  0.9212226E+02  0.7818608E-02  0.1359641E+00
          2   -1    0    0  502    0  0.00000000000E+00  0.00000000000E+00  0.41912027611E+03  0.41912027611E+03  0.00000000000E+00 0. -1.
          1   -1    0    0  501    0 -0.00000000000E+00 -0.00000000000E+00 -0.80532687349E+02  0.80532687349E+02  0.00000000000E+00 0. -1.
         25    2    1    2    0    0 -0.24304258003E+02  0.55882101090E+02  0.10635703464E+03  0.17507334495E+03  0.12500140446E+03 0.  0.
          2    1    1    2  501    0  0.70845994246E+02 -0.82047933015E+02  0.25900749432E+02  0.11145342989E+03  0.00000000000E+00 0. -1.
          1    1    1    2  502    0 -0.46541736243E+02  0.26165831925E+02  0.20632980469E+03  0.21312618862E+03  0.00000000000E+00 0. -1.
         22    1    3    3    0    0  0.25006126723E+00  0.91460701560E+02  0.50612361782E+02  0.10453101753E+03  0.00000000000E+00 0.  1.
         22    1    3    3    0    0 -0.24554319270E+02 -0.35578600469E+02  0.55744672861E+02  0.70542327425E+02  0.00000000000E+00 0.  1.
</event>
<event>
 7    1  0.5779468E-006  0.5961876E+02  0.7818608E-02  0.1417047E+00
          2   -1    0    0  502    0  0.00000000000E+00  0.00000000000E+00  0.24343195765E+04  0.24343195765E+04  0.00000000000E+00 0. -1.
          1   -1    0    0  501    0 -0.00000000000E+00 -0.00000000000E+00 -0.12101743387E+03  0.12101743387E+03  0.00000000000E+00 0. -1.
         25    2    1    2    0    0  0.93606645098E+02 -0.49815387519E+02  0.53347425575E+03  0.55808894037E+03  0.12499882789E+03 0.  0.
          2    1    1    2  501    0 -0.42412517215E+02  0.41006896150E+02 -0.10032102810E+03  0.11638168167E+03  0.00000000000E+00 0. -1.
          1    1    1    2  502    0 -0.51194127883E+02  0.88084913682E+01  0.18801489150E+04  0.18808663883E+04  0.00000000000E+00 0. -1.
         22    1    3    3    0    0  0.11993188452E+03 -0.31988733964E+02  0.33851242595E+03  0.36055179731E+03  0.00000000000E+00 0.  1.
         22    1    3    3    0    0 -0.26325239417E+02 -0.17826653555E+02  0.19496182980E+03  0.19753714306E+03  0.00000000000E+00 0.  1.
</event>
<event>
 7    1  0.5779468E-006  0.3260590E+03  0.7818608E-02  0.1152393E+00
          2   -1    0    0  502    0  0.00000000000E+00  0.00000000000E+00  0.31644690700E+03  0.31644690700E+03  0.00000000000E+00 0. -1.
          1   -1    0    0  501    0 -0.00000000000E+00 -0.00000000000E+00 -0.99988092677E+03  0.99988092677E+03  0.00000000000E+00 0. -1.
         25    2    1    2    0    0 -0.26307196355E+03 -0.32714952422E+02 -0.11632382457E+03  0.31532892783E+03  0.12499589773E+03 0.  0.
          2    1    1    2  501    0  0.32841124920E+03  0.13203641189E+03 -0.72297291516E+03  0.80497043344E+03  0.00000000000E+00 0. -1.
          1    1    1    2  502    0 -0.65339285650E+02 -0.99321459464E+02  0.15586271996E+03  0.19602847250E+03  0.00000000000E+00 0. -1.
         22    1    3    3    0    0 -0.63279847501E+02  0.34105290434E+02  0.52842392943E+01  0.72079352940E+02  0.00000000000E+00 0. -1.
         22    1    3    3    0    0 -0.19979211604E+03 -0.66820242856E+02 -0.12160806387E+03  0.24324957489E+03  0.00000000000E+00 0. -1.
</event>
<event>
 7    1  0.5779468E-006  0.7071842E+02  0.7818608E-02  0.1375258E+00
          2   -1    0    0  502    0  0.00000000000E+00  0.00000000000E+00  0.26364988616E+03  0.26364988616E+03  0.00000000000E+00 0. -1.
          1   -1    0    0  501    0 -0.00000000000E+00 -0.00000000000E+00 -0.57437467858E+03  0.57437467858E+03  0.00000000000E+00 0. -1.
         25    2    1    2    0    0  0.25757479987E+02  0.73384378383E+01 -0.18070842759E+03  0.22135266030E+03  0.12499665585E+03 0.  0.
          2    1    1    2  501    0 -0.25328275387E+01  0.61035028159E+02 -0.36539483056E+03  0.37046602014E+03  0.00000000000E+00 0. -1.
          1    1    1    2  502    0 -0.23224652448E+02 -0.68373465997E+02  0.23537846573E+03  0.24620588430E+03  0.00000000000E+00 0. -1.
         22    1    3    3    0    0 -0.11480693105E+02 -0.40932135866E+02 -0.15491176844E+02  0.45246244272E+02  0.00000000000E+00 0. -1.
         22    1    3    3    0    0  0.37238173092E+02  0.48270573704E+02 -0.16521725074E+03  0.17610641602E+03  0.00000000000E+00 0. -1.
</event>
<event>
 7    1  0.5779468E-006  0.1114513E+03  0.7818608E-02  0.1387829E+00
          2   -1    0    0  502    0  0.00000000000E+00  0.00000000000E+00  0.14225870271E+04  0.14225870271E+04  0.00000000000E+00 0. -1.
          1   -1    0    0  501    0 -0.00000000000E+00 -0.00000000000E+00 -0.17169330768E+04  0.17169330768E+04  0.00000000000E+00 0. -1.
         25    2    1    2    0    0  0.11119473899E+03 -0.92459142562E+02 -0.18187252216E+03  0.26383246116E+03  0.12496795679E+03 0.  0.
          2    1    1    2  501    0 -0.82320975445E+02  0.72690479812E+02 -0.14918403186E+04  0.14958770621E+04  0.00000000000E+00 0. -1.
          1    1    1    2  502    0 -0.28873763547E+02  0.19768662749E+02  0.13793667910E+04  0.13798105806E+04  0.00000000000E+00 0. -1.
         22    1    3    3    0    0  0.28562994659E+02 -0.14254581594E+01  0.14564904685E+02  0.32093816279E+02  0.00000000000E+00 0. -1.
         22    1    3    3    0    0  0.82631744333E+02 -0.91033684402E+02 -0.19643742684E+03  0.23173864488E+03  0.00000000000E+00 0. -1.
</event>
<event>
 7    1  0.5779468E-006  0.7552050E+02  0.7818608E-02  0.1381698E+00
          2   -1    0    0  502    0  0.00000000000E+00  0.00000000000E+00  0.35701938116E+04  0.35701938116E+04  0.00000000000E+00 0. -1.
          1   -1    0    0  501    0 -0.00000000000E+00 -0.00000000000E+00 -0.29611776221E+02  0.29611776221E+02  0.00000000000E+00 0. -1.
         25    2    1    2    0    0  0.48661014965E+02  0.20359813600E+02  0.51369630150E+03  0.53131213967E+03  0.12500513269E+03 0.  0.
          2    1    1    2  501    0 -0.18295326007E+02  0.51093287712E+02  0.15961821684E+02  0.56568743617E+02  0.00000000000E+00 0. -1.
          1    1    1    2  502    0 -0.30365688958E+02 -0.71453101312E+02  0.30109239122E+04  0.30119247046E+04  0.00000000000E+00 0. -1.
         22    1    3    3    0    0  0.81073144934E+02 -0.16994849982E+02  0.26128319760E+03  0.27409959705E+03  0.00000000000E+00 0. -1.
         22    1    3    3    0    0 -0.32412129969E+02  0.37354663582E+02  0.25241310391E+03  0.25721254263E+03  0.00000000000E+00 0. -1.
</event>
<event>
 7    1  0.5779468E-006  0.2080420E+03  0.7818608E-02  0.1242596E+00
          2   -1    0    0  502    0  0.00000000000E+00  0.00000000000E+00  0.17069524364E+04  0.17069524364E+04  0.00000000000E+00 0. -1.
          1   -1    0    0  501    0 -0.00000000000E+00 -0.00000000000E+00 -0.52497826336E+03  0.52497826336E+03  0.00000000000E+00 0. -1.
         25    2    1    2    0    0 -0.67336033897E+02  0.25987735805E+03 -0.16035679190E+03  0.33676408466E+03  0.12500146127E+03 0.  0.
          2    1    1    2  501    0 -0.10786932045E+02 -0.68726477952E+02 -0.26532962893E+03  0.27429819297E+03  0.00000000000E+00 0. -1.
          1    1    1    2  502    0  0.78122965942E+02 -0.19115088010E+03  0.16076605939E+04  0.16208684221E+04  0.00000000000E+00 0. -1.
         22    1    3    3    0    0  0.22256174055E+02  0.16158039730E+03 -0.86005498287E+02  0.18439226614E+03  0.00000000000E+00 0.  1.
         22    1    3    3    0    0 -0.89592207952E+02  0.98296960749E+02 -0.74351293617E+02  0.15237181853E+03  0.00000000000E+00 0.  1.
</event>
<event>
 7    1  0.5779468E-006  0.1283969E+03  0.7818608E-02  0.1329691E+00
          2   -1    0    0  502    0  0.00000000000E+00  0.00000000000E+00  0.75805340051E+03  0.75805340051E+03  0.00000000000E+00 0. -1.
          1   -1    0    0  501    0 -0.00000000000E+00 -0.00000000000E+00 -0.13647160433E+03  0.13647160433E+03  0.00000000000E+00 0. -1.
         25    2    1    2    0    0 -0.68401153951E+02 -0.12647342749E+03  0.23974039374E+03  0.30622291241E+03  0.12499107957E+03 0.  0.
          2    1    1    2  501    0  0.94992201053E+02  0.84644693387E+02 -0.62116175854E+02  0.14158623408E+03  0.00000000000E+00 0. -1.
          1    1    1    2  502    0 -0.26591047102E+02  0.41828734100E+02  0.44395757830E+03  0.44671585836E+03  0.00000000000E+00 0. -1.
         22    1    3    3    0    0  0.20627117233E+02 -0.65084434175E+02  0.15317208438E+03  0.16769957951E+03  0.00000000000E+00 0.  1.
         22    1    3    3    0    0 -0.89028271184E+02 -0.61388993313E+02  0.86568309362E+02  0.13852333289E+03  0.00000000000E+00 0.  1.
</event>
<event>
 7    1  0.5779468E-006  0.4422079E+02  0.7818608E-02  0.1548758E+00
          2   -1    0    0  502    0  0.00000000000E+00  0.00000000000E+00  0.80043168368E+03  0.80043168368E+03  0.00000000000E+00 0. -1.
          1   -1    0    0  501    0 -0.00000000000E+00 -0.00000000000E+00 -0.47825585166E+03  0.47825585166E+03  0.00000000000E+00 0. -1.
         25    2    1    2    0    0  0.25949984244E+02  0.65192936687E+02  0.29901253398E+03  0.33159762308E+03  0.12499986993E+03 0.  0.
          2    1    1    2  501    0 -0.91928500816E+01 -0.43169340603E+02 -0.46051263277E+03  0.46262294086E+03  0.00000000000E+00 0. -1.
          1    1    1    2  502    0 -0.16757134163E+02 -0.22023596085E+02  0.48367593082E+03  0.48446697140E+03  0.00000000000E+00 0. -1.
         22    1    3    3    0    0  0.15990453389E+02  0.24832779750E+02  0.28673426551E+03  0.28825145371E+03  0.00000000000E+00 0. -1.
         22    1    3    3    0    0  0.99595308549E+01  0.40360156938E+02  0.12278268471E+02  0.43346169375E+02  0.00000000000E+00 0. -1.
</event>
<event>
 7    1  0.5779468E-006  0.1258093E+03  0.7818608E-02  0.1294446E+00
          2   -1    0    0  502    0  0.00000000000E+00  0.00000000000E+00  0.53983790436E+03  0.53983790436E+03  0.00000000000E+00 0. -1.
          1   -1    0    0  501    0 -0.00000000000E+00 -0.00000000000E+00 -0.15534829389E+03  0.15534829389E+03  0.00000000000E+00 0. -1.
         25    2    1    2    0    0 -0.42222727193E+02 -0.98095212974E+02 -0.95626604433E+01  0.16468381711E+03  0.12499554249E+03 0.  0.
          2    1    1    2  501    0  0.11136096533E+03  0.10593964388E+03  0.25945591394E+02  0.15587702351E+03  0.00000000000E+00 0. -1.
          1    1    1    2  502    0 -0.69138238141E+02 -0.78444309094E+01  0.36810667953E+03  0.37462535763E+03  0.00000000000E+00 0. -1.
         22    1    3    3    0    0 -0.52350205432E+02 -0.25489891773E+02 -0.53620845572E+02  0.79154745096E+02  0.00000000000E+00 0.  1.
         22    1    3    3    0    0  0.10127478239E+02 -0.72605321201E+02  0.44058185129E+02  0.85529072011E+02  0.00000000000E+00 0.  1.
</event>
<event>
 7    1  0.5779468E-006  0.6790698E+02  0.7818608E-02  0.1382258E+00
          2   -1    0    0  502    0  0.00000000000E+00  0.00000000000E+00  0.65560916397E+03  0.65560916397E+03  0.00000000000E+00 0. -1.
          1   -1    0    0  501    0 -0.00000000000E+00 -0.00000000000E+00 -0.13304342538E+04  0.13304342538E+04  0.00000000000E+00 0. -1.
         25    2    1    2    0    0 -0.96647132970E+02 -0.41918054390E+02  0.42576294404E+02  0.16892473960E+03  0.12500014084E+03 0.  0.
          2    1    1    2  501    0  0.38218452722E+02  0.55908856429E+02 -0.12647101776E+04  0.12665221212E+04  0.00000000000E+00 0. -1.
          1    1    1    2  502    0  0.58428680248E+02 -0.13990802039E+02  0.54730879335E+03  0.55059655692E+03  0.00000000000E+00 0. -1.
         22    1    3    3    0    0 -0.10579364277E+03 -0.74344399736E+02  0.28478252424E+02  0.13240239984E+03  0.00000000000E+00 0. -1.
         22    1    3    3    0    0  0.91465097999E+01  0.32426345345E+02  0.14098041979E+02  0.36522339761E+02  0.00000000000E+00 0. -1.
</event>
<event>
 7    1  0.5779468E-006  0.2234479E+03  0.7818608E-02  0.1245514E+00
          2   -1    0    0  502    0  0.00000000000E+00  0.00000000000E+00  0.22948227769E+04  0.22948227769E+04  0.00000000000E+00 0. -1.
          1   -1    0    0  501    0 -0.00000000000E+00 -0.00000000000E+00 -0.53425760768E+03  0.53425760768E+03  0.00000000000E+00 0. -1.
         25    2    1    2    0    0  0.53822620461E+02 -0.23145031867E+03 -0.12884628330E+02  0.26880748646E+03  0.12500130657E+03 0.  0.
          2    1    1    2  501    0 -0.62327271323E+02  0.84148851186E+01 -0.38510626138E+03  0.39020806193E+03  0.00000000000E+00 0. -1.
          1    1    1    2  502    0  0.85046508620E+01  0.22303543355E+03  0.21585560589E+04  0.21700648362E+04  0.00000000000E+00 0. -1.
         22    1    3    3    0    0  0.23000474214E+01 -0.14210363361E+02 -0.41303259990E+02  0.43739958057E+02  0.00000000000E+00 0. -1.
         22    1    3    3    0    0  0.51522573040E+02 -0.21723995531E+03  0.28418631660E+02  0.22506752840E+03  0.00000000000E+00 0. -1.
</event>
<event>
 7    1  0.5779468E-006  0.9324619E+02  0.7818608E-02  0.1332367E+00
          2   -1    0    0  502    0  0.00000000000E+00  0.00000000000E+00  0.65065910009E+03  0.65065910009E+03  0.00000000000E+00 0. -1.
          1   -1    0    0  501    0 -0.00000000000E+00 -0.00000000000E+00 -0.92075220824E+03  0.92075220824E+03  0.00000000000E+00 0. -1.
         25    2    1    2    0    0 -0.50503811923E+02 -0.87689994278E+02 -0.58499135125E+02  0.17113536169E+03  0.12499997238E+03 0.  0.
          2    1    1    2  501    0  0.66501677695E+02 -0.46568692299E+01 -0.80084659735E+03  0.80361647074E+03  0.00000000000E+00 0. -1.
          1    1    1    2  502    0 -0.15997865772E+02  0.92346863508E+02  0.58925262432E+03  0.59665947590E+03  0.00000000000E+00 0. -1.
         22    1    3    3    0    0 -0.37290705503E+02 -0.10193933363E+03  0.99234429158E+00  0.10855049150E+03  0.00000000000E+00 0.  1.
         22    1    3    3    0    0 -0.13213106420E+02  0.14249339350E+02 -0.59491479417E+02  0.62584870187E+02  0.00000000000E+00 0.  1.
</event>
<event>
 7    1  0.5779468E-006  0.1759199E+03  0.7818608E-02  0.1255602E+00
          2   -1    0    0  502    0  0.00000000000E+00  0.00000000000E+00  0.62669350460E+03  0.62669350460E+03  0.00000000000E+00 0. -1.
          1   -1    0    0  501    0 -0.00000000000E+00 -0.00000000000E+00 -0.97004691223E+03  0.97004691223E+03  0.00000000000E+00 0. -1.
         25    2    1    2    0    0 -0.21387094329E+03  0.91282381474E+02  0.88277194520E+02  0.27837252333E+03  0.12500058048E+03 0.  0.
          2    1    1    2  501    0  0.72166739677E+02 -0.31051355982E+01 -0.85772054209E+03  0.86075676500E+03  0.00000000000E+00 0. -1.
          1    1    1    2  502    0  0.14170420361E+03 -0.88177245876E+02  0.42608993994E+03  0.45761112850E+03  0.00000000000E+00 0. -1.
         22    1    3    3    0    0 -0.77215606939E+02  0.41423522106E+01 -0.24278301159E+02  0.81048411113E+02  0.00000000000E+00 0. -1.
         22    1    3    3    0    0 -0.13665533635E+03  0.87140029264E+02  0.11255549568E+03  0.19732411221E+03  0.00000000000E+00 0. -1.
</event>
<event>
 7    1  0.5779468E-006  0.8793553E+02  0.7818608E-02  0.1447989E+00
          2   -1    0    0  502    0  0.00000000000E+00  0.00000000000E+00  0.49780879180E+03  0.49780879180E+03  0.00000000000E+00 0. -1.
          1   -1    0    0  501    0 -0.00000000000E+00 -0.00000000000E+00 -0.32088201514E+03  0.32088201514E+03  0.00000000000E+00 0. -1.
         25    2    1    2    0    0  0.58316150018E+02  0.19516698223E+02 -0.12728566931E+03  0.18869779432E+03  0.12499416429E+03 0.  0.
          2    1    1    2  501    0  0.23032875997E+02  0.15706224959E+02 -0.15744881861E+03  0.15989787165E+03  0.00000000000E+00 0. -1.
          1    1    1    2  502    0 -0.81349026015E+02 -0.35222923181E+02  0.46166126457E+03  0.47009514097E+03  0.00000000000E+00 0. -1.
         22    1    3    3    0    0  0.76954342545E+01  0.66158356134E+02 -0.84723117836E+02  0.10776898668E+03  0.00000000000E+00 0. -1.
         22    1    3    3    0    0  0.50620715764E+02 -0.46641657912E+02 -0.42562551476E+02  0.80928807636E+02  0.00000000000E+00 0. -1.
</event>
<event>
 7    1  0.5779468E-006  0.6975416E+02  0.7818608E-02  0.1373918E+00
          2   -1    0    0  502    0  0.00000000000E+00  0.00000000000E+00  0.68385390061E+03  0.68385390061E+03  0.00000000000E+00 0. -1.
          1   -1    0    0  501    0 -0.00000000000E+00 -0.00000000000E+00 -0.23575597151E+04  0.23575597151E+04  0.00000000000E+00 0. -1.
         25    2    1    2    0    0 -0.66778385296E+02 -0.16935951953E+02  0.19984328163E+03  0.24557781371E+03  0.12499978465E+03 0.  0.
          2    1    1    2  501    0  0.53928154697E+02 -0.44349232942E+02 -0.23320418374E+04  0.23330868461E+04  0.00000000000E+00 0. -1.
          1    1    1    2  502    0  0.12850230599E+02  0.61285184895E+02  0.45849274129E+03  0.46274895584E+03  0.00000000000E+00 0. -1.
         22    1    3    3    0    0  0.31222216314E+02 -0.14218685194E+02  0.17413638437E+02  0.38473791129E+02  0.00000000000E+00 0. -1.
         22    1    3    3    0    0 -0.98000601610E+02 -0.27172667593E+01  0.18242964319E+03  0.20710402258E+03  0.00000000000E+00 0. -1.
</event>
<event>
 7    1  0.8278673E-006  0.5892457E+02  0.7818608E-02  0.1511090E+00
          2   -1    0    0  502    0  0.00000000000E+00  0.00000000000E+00  0.11520344074E+04  0.11520344074E+04  0.00000000000E+00 0. -1.
          1   -1    0    0  501    0 -0.00000000000E+00 -0.00000000000E+00 -0.17187940650E+04  0.17187940650E+04  0.00000000000E+00 0. -1.
         25    2    1    2    0    0  0.30408749108E+02 -0.13962057895E+02 -0.32637686041E+03  0.35109284211E+03  0.12499879076E+03 0.  0.
          2    1    1    2  501    0  0.26603217381E+02 -0.11586533262E+01 -0.13791674515E+04  0.13794244934E+04  0.00000000000E+00 0. -1.
          1    1    1    2  502    0 -0.57011966489E+02  0.15120711221E+02  0.11387846543E+04  0.11403111370E+04  0.00000000000E+00 0. -1.
         22    1    3    3    0    0  0.73415796360E+02  0.17719016893E+02 -0.20553825545E+03  0.21897446693E+03  0.00000000000E+00 0.  1.
         22    1    3    3    0    0 -0.43007047252E+02 -0.31681074788E+02 -0.12083860495E+03  0.13211837518E+03  0.00000000000E+00 0.  1.
</event>
<event>
 7    1  0.5779468E-006  0.4762660E+02  0.7818608E-02  0.1584018E+00
          2   -1    0    0  502    0  0.00000000000E+00  0.00000000000E+00  0.99305745056E+03  0.99305745056E+03  0.00000000000E+00 0. -1.
          1   -1    0    0  501    0 -0.00000000000E+00 -0.00000000000E+00 -0.82878104597E+02  0.82878104597E+02  0.00000000000E+00 0. -1.
         25    2    1    2    0    0  0.58638467724E+02  0.33213187963E+02  0.22023017726E+03  0.26204520022E+03  0.12499908092E+03 0.  0.
          2    1    1    2  501    0 -0.39972851670E+02 -0.24529467255E+02 -0.52934276093E+02  0.70721716750E+02  0.00000000000E+00 0. -1.
          1    1    1    2  502    0 -0.18665616054E+02 -0.86837207079E+01  0.74288344480E+03  0.74316863818E+03  0.00000000000E+00 0. -1.
         22    1    3    3    0    0 -0.14601492834E+02  0.18217610151E+02  0.17087688378E+03  0.17246447264E+03  0.00000000000E+00 0. -1.
         22    1    3    3    0    0  0.73239960558E+02  0.14995577812E+02  0.49353293474E+02  0.89580727577E+02  0.00000000000E+00 0. -1.
</event>
<event>
 7    1  0.5779468E-006  0.5818033E+02  0.7818608E-02  0.1410749E+00
          2   -1    0    0  502    0  0.00000000000E+00  0.00000000000E+00  0.13655774020E+04  0.13655774020E+04  0.00000000000E+00 0. -1.
          1   -1    0    0  501    0 -0.00000000000E+00 -0.00000000000E+00 -0.56533651086E+03  0.56533651086E+03  0.00000000000E+00 0. -1.
         25    2    1    2    0    0  0.20859848890E+02 -0.43238738629E+00  0.14472905183E+03  0.19236853164E+03  0.12499533299E+03 0.  0.
          2    1    1    2  501    0 -0.19195810191E+02 -0.55439431682E+02 -0.53927238465E+03  0.54245434329E+03  0.00000000000E+00 0. -1.
          1    1    1    2  502    0 -0.16640386996E+01  0.55871819068E+02  0.11947842239E+04  0.11960910379E+04  0.00000000000E+00 0. -1.
         22    1    3    3    0    0  0.54968420317E+02 -0.87560400212E+01  0.14700042514E+03  0.15718562422E+03  0.00000000000E+00 0.  1.
         22    1    3    3    0    0 -0.34108571427E+02  0.83236526349E+01 -0.22713733131E+01  0.35182907423E+02  0.00000000000E+00 0.  1.
</event>
<event>
 7    1  0.5779468E-006  0.9084322E+02  0.7818608E-02  0.1325898E+00
          2   -1    0    0  502    0  0.00000000000E+00  0.00000000000E+00  0.19303135783E+03  0.19303135783E+03  0.00000000000E+00 0. -1.
          1   -1    0    0  501    0 -0.00000000000E+00 -0.00000000000E+00 -0.96634605197E+03  0.96634605197E+03  0.00000000000E+00 0. -1.
         25    2    1    2    0    0 -0.11103015338E+03  0.81458420856E+02 -0.38560992226E+03  0.42811580695E+03  0.12499985092E+03 0.  0.
          2    1    1    2  501    0  0.84217394732E+02 -0.14162878013E+02 -0.54839130771E+03  0.55500106582E+03  0.00000000000E+00 0. -1.
          1    1    1    2  502    0  0.26812758652E+02 -0.67295542843E+02  0.16068653583E+03  0.17626053702E+03  0.00000000000E+00 0. -1.
         22    1    3    3    0    0 -0.62098827952E+02 -0.18790399510E+02 -0.21243477066E+03  0.22212130770E+03  0.00000000000E+00 0. -1.
         22    1    3    3    0    0 -0.48931325432E+02  0.10024882037E+03 -0.17317515159E+03  0.20599449925E+03  0.00000000000E+00 0. -1.
</event>
<event>
 7    1  0.5779468E-006  0.1419125E+03  0.7818608E-02  0.1275945E+00
          2   -1    0    0  502    0  0.00000000000E+00  0.00000000000E+00  0.31376329772E+03  0.31376329772E+03  0.00000000000E+00 0. -1.
          1   -1    0    0  501    0 -0.00000000000E+00 -0.00000000000E+00 -0.13931701752E+04  0.13931701752E+04  0.00000000000E+00 0. -1.
         25    2    1    2    0    0  0.83182034154E+02  0.12837707881E+03 -0.44167098844E+02  0.20242541555E+03  0.12500156427E+03 0.  0.
          2    1    1    2  501    0 -0.72121220834E+02  0.13928841101E+02 -0.12469851612E+04  0.12491466989E+04  0.00000000000E+00 0. -1.
          1    1    1    2  502    0 -0.11060813320E+02 -0.14230591991E+03  0.21174538249E+03  0.25536135854E+03  0.00000000000E+00 0. -1.
         22    1    3    3    0    0 -0.69269088595E+01 -0.18841461695E+02 -0.19642167963E+02  0.28085539116E+02  0.00000000000E+00 0.  1.
         22    1    3    3    0    0  0.90108943014E+02  0.14721854051E+03 -0.24524930882E+02  0.17433987643E+03  0.00000000000E+00 0.  1.
</event>
<event>
 7    1  0.5779468E-006  0.1107723E+03  0.7818608E-02  0.1386847E+00
          2   -1    0    0  502    0  0.00000000000E+00  0.00000000000E+00  0.14195329825E+04  0.14195329825E+04  0.00000000000E+00 0. -1.
          1   -1    0    0  501    0 -0.00000000000E+00 -0.00000000000E+00 -0.55362566841E+02  0.55362566841E+02  0.00000000000E+00 0. -1.
         25    2    1    2    0    0  0.86955872339E+02 -0.86475663728E+02  0.67233391504E+03  0.69476521896E+03  0.12500580791E+03 0.  0.
          2    1    1    2  501    0 -0.96762822096E+02  0.52370500364E+02  0.25620124905E+02  0.11296948193E+03  0.00000000000E+00 0. -1.
          1    1    1    2  502    0  0.98069497574E+01  0.34105163364E+02  0.66621637572E+03  0.66716084845E+03  0.00000000000E+00 0. -1.
         22    1    3    3    0    0 -0.32176955164E+02 -0.15372152911E+02  0.16450341020E+03  0.16832418571E+03  0.00000000000E+00 0.  1.
         22    1    3    3    0    0  0.11913282750E+03 -0.71103510817E+02  0.50783050485E+03  0.52644103325E+03  0.00000000000E+00 0.  1.
</event>
<event>
 7    1  0.5779468E-006  0.1315257E+03  0.7818608E-02  0.1278783E+00
          2   -1    0    0  502    0  0.00000000000E+00  0.00000000000E+00  0.45147330854E+03  0.45147330854E+03  0.00000000000E+00 0. -1.
          1   -1    0    0  501    0 -0.00000000000E+00 -0.00000000000E+00 -0.34483208156E+04  0.34483208156E+04  0.00000000000E+00 0. -1.
         25    2    1    2    0    0  0.73863545110E+02  0.70703941088E+01 -0.82016074084E+03  0.83294357013E+03  0.12500214570E+03 0.  0.
          2    1    1    2  501    0 -0.14940228498E+03 -0.22676793153E+02 -0.26162300561E+04  0.26205905797E+04  0.00000000000E+00 0. -1.
          1    1    1    2  502    0  0.75538739869E+02  0.15606399044E+02  0.43954328996E+03  0.44625997430E+03  0.00000000000E+00 0. -1.
         22    1    3    3    0    0  0.25591212296E+01 -0.39402424334E+02 -0.96071434826E+02  0.10386924826E+03  0.00000000000E+00 0. -1.
         22    1    3    3    0    0  0.71304423880E+02  0.46472818442E+02 -0.72408930601E+03  0.72907432186E+03  0.00000000000E+00 0. -1.
</event>
<event>
 7    1  0.5779468E-006  0.6143885E+02  0.7818608E-02  0.1527254E+00
          2   -1    0    0  502    0  0.00000000000E+00  0.00000000000E+00  0.16185164539E+03  0.16185164539E+03  0.00000000000E+00 0. -1.
          1   -1    0    0  501    0 -0.00000000000E+00 -0.00000000000E+00 -0.42560101828E+03  0.42560101828E+03  0.00000000000E+00 0. -1.
         25    2    1    2    0    0 -0.27568786752E+02 -0.34360503314E+02 -0.60918201755E+02  0.14586830668E+03  0.12500341354E+03 0.  0.
          2    1    1    2  501    0  0.13889389999E+01 -0.22877408882E+02 -0.31346383483E+03  0.31430062160E+03  0.00000000000E+00 0. -1.
          1    1    1    2  502    0  0.26179847752E+02  0.57237912196E+02  0.11063266370E+03  0.12728373540E+03  0.00000000000E+00 0. -1.
         22    1    3    3    0    0 -0.11602295904E+02 -0.81171456659E+02 -0.46896801078E+02  0.94460195838E+02  0.00000000000E+00 0.  1.
         22    1    3    3    0    0 -0.15966490849E+02  0.46810953346E+02 -0.14021400676E+02  0.51408110839E+02  0.00000000000E+00 0.  1.
</event>
<event>
 7    1  0.5779468E-006  0.8161178E+02  0.7818608E-02  0.1368883E+00
          2   -1    0    0  502    0  0.00000000000E+00  0.00000000000E+00  0.73777687453E+03  0.73777687453E+03  0.00000000000E+00 0. -1.
          1   -1    0    0  501    0 -0.00000000000E+00 -0.00000000000E+00 -0.15834418243E+04  0.15834418243E+04  0.00000000000E+00 0. -1.
         25    2    1    2    0    0  0.37689490333E+02 -0.28022529239E+02 -0.12359752091E+02  0.13410210822E+03  0.12499940853E+03 0.  0.
          2    1    1    2  501    0  0.45386205157E+02  0.32449194938E+02 -0.15071365890E+04  0.15081689414E+04  0.00000000000E+00 0. -1.
          1    1    1    2  502    0 -0.83075695489E+02 -0.44266656992E+01  0.67383139128E+03  0.67894764925E+03  0.00000000000E+00 0. -1.
         22    1    3    3    0    0 -0.22653973690E+02 -0.57235937334E+02  0.12104693051E+02  0.62734987370E+02  0.00000000000E+00 0.  1.
         22    1    3    3    0    0  0.60343464023E+02  0.29213408095E+02 -0.24464445142E+02  0.71367120853E+02  0.00000000000E+00 0.  1.
</event>
<event>
 7    1  0.5779468E-006  0.6507112E+02  0.7818608E-02  0.1418358E+00
          2   -1    0    0  502    0  0.00000000000E+00  0.00000000000E+00  0.59992920577E+03  0.59992920577E+03  0.00000000000E+00 0. -1.
          1   -1    0    0  501    0 -0.00000000000E+00 -0.00000000000E+00 -0.12625477391E+03  0.12625477391E+03  0.00000000000E+00 0. -1.
         25    2    1    2    0    0  0.41321029731E+02  0.66231418271E+02  0.15840237515E+03  0.21635659406E+03  0.12499934031E+03 0.  0.
          2    1    1    2  501    0 -0.60850323981E+02 -0.23354781252E+02 -0.84820275789E+02  0.10697049556E+03  0.00000000000E+00 0. -1.
          1    1    1    2  502    0  0.19529294250E+02 -0.42876637018E+02  0.40009233251E+03  0.40285689006E+03  0.00000000000E+00 0. -1.
         22    1    3    3    0    0 -0.10171753036E+02  0.42359475823E+02 -0.45519886480E+01  0.43800803103E+02  0.00000000000E+00 0.  1.
         22    1    3    3    0    0  0.51492782767E+02  0.23871942448E+02  0.16295436380E+03  0.17255579096E+03  0.00000000000E+00 0.  1.
</event>
<event>
 7    1  0.5779468E-006  0.3817381E+02  0.7818608E-02  0.1574396E+00
          2   -1    0    0  502    0  0.00000000000E+00  0.00000000000E+00  0.70399345630E+03  0.70399345630E+03  0.00000000000E+00 0. -1.
          1   -1    0    0  501    0 -0.00000000000E+00 -0.00000000000E+00 -0.33399763369E+03  0.33399763369E+03  0.00000000000E+00 0. -1.
         25    2    1    2    0    0  0.32549044748E+02 -0.79828532945E+01 -0.12502370872E+03  0.17994072003E+03  0.12499827487E+03 0.  0.
          2    1    1    2  501    0 -0.34154581059E+02 -0.19228099968E+02 -0.17912090093E+03  0.18335908045E+03  0.00000000000E+00 0. -1.
          1    1    1    2  502    0  0.16055363108E+01  0.27210953263E+02  0.67414043226E+03  0.67469128950E+03  0.00000000000E+00 0. -1.
         22    1    3    3    0    0  0.32957206261E+02 -0.47397547224E+02 -0.12799546075E+03  0.14041204685E+03  0.00000000000E+00 0.  1.
         22    1    3    3    0    0 -0.40816151314E+00  0.39414693929E+02  0.29717520291E+01  0.39528673181E+02  0.00000000000E+00 0.  1.
</event>
<event>
 7    1  0.5779468E-006  0.6098311E+02  0.7818608E-02  0.1429852E+00
          2   -1    0    0  502    0  0.00000000000E+00  0.00000000000E+00  0.16959354222E+04  0.16959354222E+04  0.00000000000E+00 0. -1.
          1   -1    0    0  501    0 -0.00000000000E+00 -0.00000000000E+00 -0.53626686304E+03  0.53626686304E+03  0.00000000000E+00 0. -1.
         25    2    1    2    0    0  0.59112025260E+02  0.74946103393E+02 -0.87265957613E+02  0.17988830998E+03  0.12503322265E+03 0.  0.
          2    1    1    2  501    0 -0.51857782061E+02 -0.29477063829E+02 -0.40015726240E+03  0.40457874574E+03  0.00000000000E+00 0. -1.
          1    1    1    2  502    0 -0.72542431992E+01 -0.45469039563E+02  0.16470917791E+04  0.16477352295E+04  0.00000000000E+00 0. -1.
         22    1    3    3    0    0 -0.32038555853E+02  0.13831010857E+02 -0.55642708067E+02  0.65680110258E+02  0.00000000000E+00 0. -1.
         22    1    3    3    0    0  0.91150581114E+02  0.61115092535E+02 -0.31623249546E+02  0.11420819973E+03  0.00000000000E+00 0. -1.
</event>
<event>
 7    1  0.5779468E-006  0.1711689E+03  0.7818608E-02  0.1283380E+00
          2   -1    0    0  502    0  0.00000000000E+00  0.00000000000E+00  0.22854590792E+04  0.22854590792E+04  0.00000000000E+00 0. -1.
          1   -1    0    0  501    0 -0.00000000000E+00 -0.00000000000E+00 -0.51092370523E+03  0.51092370523E+03  0.00000000000E+00 0. -1.
         25    2    1    2    0    0 -0.69997247432E+02 -0.10402042978E+03  0.24352171473E+02  0.17871193132E+03  0.12500024673E+03 0.  0.
          2    1    1    2  501    0  0.83445153898E+02  0.15914086825E+03 -0.41474560693E+03  0.45199870368E+03  0.00000000000E+00 0. -1.
          1    1    1    2  502    0 -0.13447906465E+02 -0.55120438470E+02  0.21649288094E+04  0.21656721494E+04  0.00000000000E+00 0. -1.
         22    1    3    3    0    0 -0.36827100666E+02  0.21630030007E+02  0.23513462303E+02  0.48754245467E+02  0.00000000000E+00 0. -1.
         22    1    3    3    0    0 -0.33170146766E+02 -0.12565045978E+03  0.83870917006E+00  0.12995768586E+03  0.00000000000E+00 0. -1.
</event>
<event>
 7    1  0.5779468E-006  0.5514262E+02  0.7818608E-02  0.1458596E+00
          2   -1    0    0  502    0  0.00000000000E+00  0.00000000000E+00  0.26786479393E+03  0.26786479393E+03  0.00000000000E+00 0. -1.
          1   -1    0    0  501    0 -0.00000000000E+00 -0.00000000000E+00 -0.43005601774E+03  0.43005601774E+03  0.00000000000E+00 0. -1.
         25    2    1    2    0    0  0.10151608538E+01 -0.66885156423E+02  0.10767861966E+03  0.17802988245E+03  0.12500119684E+03 0.  0.
          2    1    1    2  501    0  0.33202304869E+02  0.44062610485E+02 -0.38949979770E+03  0.39338784818E+03  0.00000000000E+00 0. -1.
          1    1    1    2  502    0 -0.34217465723E+02  0.22822545938E+02  0.11962995423E+03  0.12650308104E+03  0.00000000000E+00 0. -1.
         22    1    3    3    0    0 -0.15763897160E+02 -0.82973076180E+02  0.12371126076E+03  0.14979154804E+03  0.00000000000E+00 0.  1.
         22    1    3    3    0    0  0.16779058013E+02  0.16087919757E+02 -0.16032641098E+02  0.28238334415E+02  0.00000000000E+00 0.  1.
</event>
<event>
 7    1  0.5779468E-006  0.5657574E+02  0.7818608E-02  0.1464861E+00
          2   -1    0    0  502    0  0.00000000000E+00  0.00000000000E+00  0.24006442576E+04  0.24006442576E+04  0.00000000000E+00 0. -1.
          1   -1    0    0  501    0 -0.00000000000E+00 -0.00000000000E+00 -0.13858108222E+03  0.13858108222E+03  0.00000000000E+00 0. -1.
         25    2    1    2    0    0  0.34963341629E+02  0.84134162153E+02  0.45099294859E+03  0.47678152972E+03  0.12499997961E+03 0.  0.
          2    1    1    2  501    0 -0.38264538871E+01 -0.38117693779E+02 -0.12235924984E+03  0.12821617039E+03  0.00000000000E+00 0. -1.
          1    1    1    2  502    0 -0.31136887742E+02 -0.46016468374E+02  0.19334294767E+04  0.19342276398E+04  0.00000000000E+00 0. -1.
         22    1    3    3    0    0  0.77719583662E+02  0.35759374845E+02  0.19822361250E+03  0.21589735321E+03  0.00000000000E+00 0.  1.
         22    1    3    3    0    0 -0.42756242033E+02  0.48374787308E+02  0.25276933609E+03  0.26088417650E+03  0.00000000000E+00 0.  1.
</event>
<event>
 7    1  0.5779468E-006  0.3713167E+02  0.7818608E-02  0.1536136E+00
          2   -1    0    0  502    0  0.00000000000E+00  0.00000000000E+00  0.56838968248E+03  0.56838968248E+03  0.00000000000E+00 0. -1.
          1   -1    0    0  501    0 -0.00000000000E+00 -0.00000000000E+00 -0.84177360378E+03  0.84177360378E+03  0.00000000000E+00 0. -1.
         25    2    1    2    0    0  0.11785729845E+02  0.60742684670E+00 -0.44034187452E+03  0.45789249066E+03  0.12500117663E+03 0.  0.
          2    1    1    2  501    0 -0.24055739976E+02  0.32992033537E+02 -0.39102073655E+03  0.39314675290E+03  0.00000000000E+00 0. -1.
          1    1    1    2  502    0  0.12270010131E+02 -0.33599460384E+02  0.55797868977E+03  0.55912404269E+03  0.00000000000E+00 0. -1.
         22    1    3    3    0    0 -0.53641145460E+02 -0.62665460760E+01 -0.26873079504E+03  0.27410378015E+03  0.00000000000E+00 0. -1.
         22    1    3    3    0    0  0.65426875305E+02  0.68739729227E+01 -0.17161107947E+03  0.18378871052E+03  0.00000000000E+00 0. -1.
</event>
<event>
 7    1  0.5779468E-006  0.8399766E+02  0.7818608E-02  0.1440179E+00
          2   -1    0    0  502    0  0.00000000000E+00  0.00000000000E+00  0.11969582282E+03  0.11969582282E+03  0.00000000000E+00 0. -1.
          1   -1    0    0  501    0 -0.00000000000E+00 -0.00000000000E+00 -0.91267082500E+03  0.91267082500E+03  0.00000000000E+00 0. -1.
         25    2    1    2    0    0 -0.66899342772E+02  0.11048607125E+02 -0.48064203687E+03  0.50123671357E+03  0.12499552651E+03 0.  0.
          2    1    1    2  501    0 -0.16400699009E+02 -0.26222063939E+02 -0.40466942916E+03  0.40584963529E+03  0.00000000000E+00 0. -1.
          1    1    1    2  502    0  0.83300041781E+02  0.15173456814E+02  0.92336463846E+02  0.12528029896E+03  0.00000000000E+00 0. -1.
         22    1    3    3    0    0 -0.35199437364E+01  0.59478875453E+02 -0.15744180342E+03  0.16833908665E+03  0.00000000000E+00 0.  1.
         22    1    3    3    0    0 -0.63379399035E+02 -0.48430268328E+02 -0.32320023345E+03  0.33289762693E+03  0.00000000000E+00 0.  1.
</event>
<event>
 7    1  0.5779468E-006  0.1512685E+03  0.7818608E-02  0.1382947E+00
          2   -1    0    0  502    0  0.00000000000E+00  0.00000000000E+00  0.16040124051E+04  0.16040124051E+04  0.00000000000E+00 0. -1.
          1   -1    0    0  501    0 -0.00000000000E+00 -0.00000000000E+00 -0.13300436007E+03  0.13300436007E+03  0.00000000000E+00 0. -1.
         25    2    1    2    0    0 -0.13635705233E+03  0.45504637590E+02  0.18181831024E+03  0.26333549649E+03  0.12499507193E+03 0.  0.
          2    1    1    2  501    0  0.23355324400E+01  0.26718806829E+02 -0.86002445686E+02  0.90087568588E+02  0.00000000000E+00 0. -1.
          1    1    1    2  502    0  0.13402151989E+03 -0.72223444418E+02  0.13751921805E+04  0.13835937001E+04  0.00000000000E+00 0. -1.
         22    1    3    3    0    0 -0.24269209713E+02 -0.36339449409E+02  0.80166377492E+02  0.91302783110E+02  0.00000000000E+00 0. -1.
         22    1    3    3    0    0 -0.11208784262E+03  0.81844086999E+02  0.10165193275E+03  0.17203271338E+03  0.00000000000E+00 0. -1.
</event>
<event>
 7    1  0.5779468E-006  0.8990778E+02  0.7818608E-02  0.1369602E+00
          2   -1    0    0  502    0  0.00000000000E+00  0.00000000000E+00  0.12397571617E+04  0.12397571617E+04  0.00000000000E+00 0. -1.
          1   -1    0    0  501    0 -0.00000000000E+00 -0.00000000000E+00 -0.24831762644E+03  0.24831762644E+03  0.00000000000E+00 0. -1.
         25    2    1    2    0    0 -0.10468155371E+03  0.53799817325E+02  0.46220045969E+03  0.49305850911E+03  0.12499912175E+03 0.  0.
          2    1    1    2  501    0  0.48788325844E+02  0.12419502874E+02 -0.22766653469E+03  0.23316645516E+03  0.00000000000E+00 0. -1.
          1    1    1    2  502    0  0.55893227868E+02 -0.66219320200E+02  0.75690561023E+03  0.76184982384E+03  0.00000000000E+00 0. -1.
         22    1    3    3    0    0 -0.56424946043E+02 -0.37029297340E+02  0.21403648179E+03  0.22442495168E+03  0.00000000000E+00 0.  1.
         22    1    3    3    0    0 -0.48256607669E+02  0.90829114665E+02  0.24816397790E+03  0.26863355744E+03  0.00000000000E+00 0.  1.
</event>
<event>
 7    1  0.5779468E-006  0.4949649E+02  0.7818608E-02  0.1470349E+00
          2   -1    0    0  502    0  0.00000000000E+00  0.00000000000E+00  0.23265721887E+03  0.23265721887E+03  0.00000000000E+00 0. -1.
          1   -1    0    0  501    0 -0.00000000000E+00 -0.00000000000E+00 -0.96239025399E+03  0.96239025399E+03  0.00000000000E+00 0. -1.
         25    2    1    2    0    0 -0.79760036002E+02 -0.36913040862E+02 -0.52631557899E+01  0.15289845646E+03  0.12500400494E+03 0.  0.
          2    1    1    2  501    0  0.48356065079E+02  0.88814025172E+01 -0.87982209101E+03  0.88119470048E+03  0.00000000000E+00 0. -1.
          1    1    1    2  502    0  0.31403970923E+02  0.28031638345E+02  0.15535221168E+03  0.16095431591E+03  0.00000000000E+00 0. -1.
         22    1    3    3    0    0  0.21410408473E+02  0.15923710593E+02 -0.25584670838E+02  0.36966816633E+02  0.00000000000E+00 0. -1.
         22    1    3    3    0    0 -0.10117044448E+03 -0.52836751456E+02  0.20321515048E+02  0.11593163983E+03  0.00000000000E+00 0. -1.
</event>
<event>
 7    1  0.5779468E-006  0.3956263E+02  0.7818608E-02  0.1517724E+00
          2   -1    0    0  502    0  0.00000000000E+00  0.00000000000E+00  0.16822950684E+03  0.16822950684E+03  0.00000000000E+00 0. -1.
          1   -1    0    0  501    0 -0.00000000000E+00 -0.00000000000E+00 -0.30962736042E+03  0.30962736042E+03  0.00000000000E+00 0. -1.
         25    2    1    2    0    0 -0.63976770640E+02 -0.42097426874E+02 -0.20135816994E+03  0.24908202009E+03  0.12502607569E+03 0.  0.
          2    1    1    2  501    0  0.29175599114E+02  0.24232878534E+02 -0.77270940935E+02  0.86076978913E+02  0.00000000000E+00 0. -1.
          1    1    1    2  502    0  0.34801171526E+02  0.17864548339E+02  0.13723125729E+03  0.14269786826E+03  0.00000000000E+00 0. -1.
         22    1    3    3    0    0 -0.31919125716E+02 -0.74723061836E+02 -0.18218997028E+03  0.19948822479E+03  0.00000000000E+00 0. -1.
         22    1    3    3    0    0 -0.32057644924E+02  0.32625634962E+02 -0.19168199654E+02  0.49593795305E+02  0.00000000000E+00 0. -1.
</event>
<event>
 7    1  0.5779468E-006  0.9401752E+02  0.7818608E-02  0.1306588E+00
          2   -1    0    0  502    0  0.00000000000E+00  0.00000000000E+00  0.19839392864E+04  0.19839392864E+04  0.00000000000E+00 0. -1.
          1   -1    0    0  501    0 -0.00000000000E+00 -0.00000000000E+00 -0.34705190468E+03  0.34705190468E+03  0.00000000000E+00 0. -1.
         25    2    1    2    0    0 -0.19238175656E+02  0.59455338717E+02 -0.58598637471E+01  0.13986619409E+03  0.12499267795E+03 0.  0.
          2    1    1    2  501    0  0.97312611321E+02 -0.30535157210E+02 -0.26376432121E+03  0.28279631767E+03  0.00000000000E+00 0. -1.
          1    1    1    2  502    0 -0.78074435665E+02 -0.28920181506E+02  0.19065115667E+04  0.19083286793E+04  0.00000000000E+00 0. -1.
         22    1    3    3    0    0 -0.28182271406E+02 -0.16242548155E+01 -0.54432330000E+02  0.61316858812E+02  0.00000000000E+00 0.  1.
         22    1    3    3    0    0  0.89440957494E+01  0.61079593532E+02  0.48572466253E+02  0.78549335279E+02  0.00000000000E+00 0.  1.
</event>
<event>
 7    1  0.5779468E-006  0.4970854E+02  0.7818608E-02  0.1555774E+00
          2   -1    0    0  502    0  0.00000000000E+00  0.00000000000E+00  0.68514760251E+03  0.68514760251E+03  0.00000000000E+00 0. -1.
          1   -1    0    0  501    0 -0.00000000000E+00 -0.00000000000E+00 -0.10655080305E+03  0.10655080305E+03  0.00000000000E+00 0. -1.
         25    2    1    2    0    0  0.60841575775E+01 -0.72350914275E+02  0.29952050636E+03  0.33257991967E+03  0.12500078987E+03 0.  0.
          2    1    1    2  501    0 -0.19342394709E+01  0.49182489615E+02 -0.82882141478E+02  0.96395580516E+02  0.00000000000E+00 0. -1.
          1    1    1    2  502    0 -0.41499181066E+01  0.23168424660E+02  0.36195843458E+03  0.36272290537E+03  0.00000000000E+00 0. -1.
         22    1    3    3    0    0 -0.28240000588E+02 -0.97662912918E+02  0.21964324017E+03  0.24203035996E+03  0.00000000000E+00 0. -1.
         22    1    3    3    0    0  0.34324158165E+02  0.25311998642E+02  0.79877266192E+02  0.90549559708E+02  0.00000000000E+00 0. -1.
</event>
<event>
 7    1  0.5779468E-006  0.6868735E+02  0.7818608E-02  0.1419969E+00
          2   -1    0    0  502    0  0.00000000000E+00  0.00000000000E+00  0.24772748663E+04  0.24772748663E+04  0.00000000000E+00 0. -1.
          1   -1    0    0  501    0 -0.00000000000E+00 -0.00000000000E+00 -0.10299813607E+04  0.10299813607E+04  0.00000000000E+00 0. -1.
         25    2    1    2    0    0  0.50671066123E+02  0.45473352833E+02  0.88026050873E+02  0.16735779754E+03  0.12499865602E+03 0.  0.
          2    1    1    2  501    0 -0.38065477976E+02  0.22235759314E+02 -0.98931981882E+03  0.99030152656E+03  0.00000000000E+00 0. -1.
          1    1    1    2  502    0 -0.12605588146E+02 -0.67709112147E+02  0.23485872735E+04  0.23495969029E+04  0.00000000000E+00 0. -1.
         22    1    3    3    0    0  0.38215244600E+02  0.78305611926E+02  0.97723615756E+02  0.13092776197E+03  0.00000000000E+00 0. -1.
         22    1    3    3    0    0  0.12455821522E+02 -0.32832259093E+02 -0.96975648832E+01  0.36430035570E+02  0.00000000000E+00 0. -1.
</event>
<event>
 7    1  0.5779468E-006  0.6171274E+02  0.7818608E-02  0.1482021E+00
          2   -1    0    0  502    0  0.00000000000E+00  0.00000000000E+00  0.25592164916E+04  0.25592164916E+04  0.00000000000E+00 0. -1.
          1   -1    0    0  501    0 -0.00000000000E+00 -0.00000000000E+00 -0.57633931864E+02  0.57633931864E+02  0.00000000000E+00 0. -1.
         25    2    1    2    0    0  0.10078809056E+02 -0.82085043625E+02  0.81281191798E+03  0.82651600253E+03  0.12500380654E+03 0.  0.
          2    1    1    2  501    0  0.11940060994E+02  0.60155026997E+02 -0.32073896857E+02  0.69209299874E+02  0.00000000000E+00 0. -1.
          1    1    1    2  502    0 -0.22018870050E+02  0.21930016629E+02  0.17208445387E+04  0.17211251211E+04  0.00000000000E+00 0. -1.
         22    1    3    3    0    0  0.21191537649E+02  0.11524740213E+02  0.48015145452E+03  0.48075702822E+03  0.00000000000E+00 0. -1.
         22    1    3    3    0    0 -0.11112728593E+02 -0.93609783838E+02  0.33266046345E+03  0.34575897431E+03  0.00000000000E+00 0. -1.
</event>
<event>
 7    1  0.5779468E-006  0.3471362E+02  0.7818608E-02  0.1574803E+00
          2   -1    0    0  502    0  0.00000000000E+00  0.00000000000E+00  0.16907237757E+04  0.16907237757E+04  0.00000000000E+00 0. -1.
          1   -1    0    0  501    0 -0.00000000000E+00 -0.00000000000E+00 -0.10424595065E+03  0.10424595065E+03  0.00000000000E+00 0. -1.
         25    2    1    2    0    0  0.45081829764E+01  0.62122064612E+02  0.99194541582E+03  0.10017279384E+04  0.12499471968E+03 0.  0.
          2    1    1    2  501    0 -0.45066476244E+01 -0.29557994661E+02 -0.96713194195E+02  0.10122957499E+03  0.00000000000E+00 0. -1.
          1    1    1    2  502    0 -0.15353519982E-02 -0.32564069951E+02  0.69124560347E+03  0.69201221302E+03  0.00000000000E+00 0. -1.
         22    1    3    3    0    0 -0.18657860807E+02  0.96206614703E+02  0.66060625440E+03  0.66783564732E+03  0.00000000000E+00 0.  1.
         22    1    3    3    0    0  0.23166043784E+02 -0.34084550091E+02  0.33133916142E+03  0.33389229106E+03  0.00000000000E+00 0.  1.
</event>
<event>
 7    1  0.5779468E-006  0.7153169E+02  0.7818608E-02  0.1412329E+00
          2   -1    0    0  502    0  0.00000000000E+00  0.00000000000E+00  0.31260029009E+04  0.31260029009E+04  0.00000000000E+00 0. -1.
          1   -1    0    0  501    0 -0.00000000000E+00 -0.00000000000E+00 -0.25848578860E+02  0.25848578860E+02  0.00000000000E+00 0. -1.
         25    2    1    2    0    0 -0.39712591545E+02 -0.20740036894E+01  0.10002471011E+04  0.10088108331E+04  0.12499456911E+03 0.  0.
          2    1    1    2  501    0 -0.31836040587E+02  0.31672633487E+02  0.33264594608E+01  0.45030595430E+02  0.00000000000E+00 0. -1.
          1    1    1    2  502    0  0.71548632132E+02 -0.29598629798E+02  0.20965807615E+04  0.20980100512E+04  0.00000000000E+00 0. -1.
         22    1    3    3    0    0 -0.31718337144E+02  0.60301435077E+02  0.49619674439E+03  0.50085279787E+03  0.00000000000E+00 0.  1.
         22    1    3    3    0    0 -0.79942544004E+01 -0.62375438766E+02  0.50405035673E+03  0.50795803526E+03  0.00000000000E+00 0.  1.
</event>
<event>
 7    1  0.5779468E-006  0.1052416E+03  0.7818608E-02  0.1306005E+00
          2   -1    0    0  502    0  0.00000000000E+00  0.00000000000E+00  0.42534963498E+03  0.42534963498E+03  0.00000000000E+00 0. -1.
          1   -1    0    0  501    0 -0.00000000000E+00 -0.00000000000E+00 -0.50984541564E+03  0.50984541564E+03  0.00000000000E+00 0. -1.
         25    2    1    2    0    0  0.43454382992E+02  0.62307630408E+02  0.63407705893E+02  0.15942367081E+03  0.12499938176E+03 0.  0.
          2    1    1    2  501    0  0.16645015188E+02 -0.10679904179E+03 -0.45090514940E+03  0.46367935647E+03  0.00000000000E+00 0. -1.
          1    1    1    2  502    0 -0.60099398180E+02  0.44491411383E+02  0.30300166285E+03  0.31209202335E+03  0.00000000000E+00 0. -1.
         22    1    3    3    0    0  0.43006622050E+02  0.33539594188E+02 -0.29609755331E+02  0.62058130242E+02  0.00000000000E+00 0. -1.
         22    1    3    3    0    0  0.44776094235E+00  0.28768036220E+02  0.93017461224E+02  0.97365540569E+02  0.00000000000E+00 0. -1.
</event>
<event>
 7    1  0.5779468E-006  0.1430340E+03  0.7818608E-02  0.1328042E+00
          2   -1    0    0  502    0  0.00000000000E+00  0.00000000000E+00  0.14585398951E+03  0.14585398951E+03  0.00000000000E+00 0. -1.
          1   -1    0    0  501    0 -0.00000000000E+00 -0.00000000000E+00 -0.25898660036E+03  0.25898660036E+03  0.00000000000E+00 0. -1.
         25    2    1    2    0    0  0.99927867356E+02 -0.91536398573E+02 -0.25616621357E+02  0.18613059854E+03  0.12499558986E+03 0.  0.
          2    1    1    2  501    0 -0.20473497934E+02 -0.40235071155E+02 -0.31106020954E+02  0.54823440316E+02  0.00000000000E+00 0. -1.
          1    1    1    2  502    0 -0.79454369422E+02  0.13177146973E+03 -0.56409968533E+02  0.16388655102E+03  0.00000000000E+00 0. -1.
         22    1    3    3    0    0  0.10739697351E+03 -0.97550027960E+02 -0.55046372011E+02  0.15517802984E+03  0.00000000000E+00 0. -1.
         22    1    3    3    0    0 -0.74691061570E+01  0.60136293872E+01  0.29429750653E+02  0.30952568693E+02  0.00000000000E+00 0. -1.
</event>
<event>
 7    1  0.5779468E-006  0.6423132E+02  0.7818608E-02  0.1476103E+00
          2   -1    0    0  502    0  0.00000000000E+00  0.00000000000E+00  0.11743226651E+04  0.11743226651E+04  0.00000000000E+00 0. -1.
          1   -1    0    0  501    0 -0.00000000000E+00 -0.00000000000E+00 -0.13736031600E+03  0.13736031600E+03  0.00000000000E+00 0. -1.
         25    2    1    2    0    0 -0.63799856016E+02 -0.67272588036E+02  0.14547218034E+03  0.21303089262E+03  0.12499593285E+03 0.  0.
          2    1    1    2  501    0  0.26861720783E+02  0.15741365170E+02 -0.10020593612E+03  0.10493127396E+03  0.00000000000E+00 0. -1.
          1    1    1    2  502    0  0.36938135233E+02  0.51531222865E+02  0.99169610489E+03  0.99372081452E+03  0.00000000000E+00 0. -1.
         22    1    3    3    0    0 -0.93211485553E+02 -0.17020880580E+02  0.10853909349E+03  0.14407923594E+03  0.00000000000E+00 0. -1.
         22    1    3    3    0    0  0.29411629537E+02 -0.50251707456E+02  0.36933086851E+02  0.68951656677E+02  0.00000000000E+00 0. -1.
</event>
<event>
 7    1  0.5779468E-006  0.4111339E+02  0.7818608E-02  0.1545194E+00
          2   -1    0    0  502    0  0.00000000000E+00  0.00000000000E+00  0.23765305151E+04  0.23765305151E+04  0.00000000000E+00 0. -1.
          1   -1    0    0  501    0 -0.00000000000E+00 -0.00000000000E+00 -0.10566794734E+03  0.10566794734E+03  0.00000000000E+00 0. -1.
         25    2    1    2    0    0  0.26596650518E+02 -0.21208413733E+02  0.95544632040E+03  0.96418844653E+03  0.12499804248E+03 0.  0.
          2    1    1    2  501    0 -0.22167907786E+02 -0.20886554425E+02 -0.98683567967E+02  0.10327686516E+03  0.00000000000E+00 0. -1.
          1    1    1    2  502    0 -0.44287427321E+01  0.42094968158E+02  0.14140998153E+04  0.14147331507E+04  0.00000000000E+00 0. -1.
         22    1    3    3    0    0  0.51193254229E+02  0.38533320226E+02  0.53130925262E+03  0.53515893711E+03  0.00000000000E+00 0.  1.
         22    1    3    3    0    0 -0.24596603711E+02 -0.59741733959E+02  0.42413706778E+03  0.42902950942E+03  0.00000000000E+00 0.  1.
</event>
<event>
 7    1  0.5779468E-006  0.9961526E+02  0.7818608E-02  0.1417691E+00
          2   -1    0    0  502    0  0.00000000000E+00  0.00000000000E+00  0.16822785019E+04  0.16822785019E+04  0.00000000000E+00 0. -1.
          1   -1    0    0  501    0 -0.00000000000E+00 -0.00000000000E+00 -0.80404346632E+02  0.80404346632E+02  0.00000000000E+00 0. -1.
         25    2    1    2    0    0 -0.79444951120E+02  0.19669760758E+02  0.22751655612E+03  0.27218917455E+03  0.12499905474E+03 0.  0.
          2    1    1    2  501    0  0.91324850409E+02 -0.48232944268E+02 -0.11835532973E+02  0.10395539936E+03  0.00000000000E+00 0. -1.
          1    1    1    2  502    0 -0.11879899289E+02  0.28563183510E+02  0.13861931321E+04  0.13865382746E+04  0.00000000000E+00 0. -1.
         22    1    3    3    0    0 -0.83945674473E+02  0.59911591222E+02  0.12555822314E+03  0.16248428362E+03  0.00000000000E+00 0. -1.
         22    1    3    3    0    0  0.45007233527E+01 -0.40241830463E+02  0.10195833298E+03  0.10970489092E+03  0.00000000000E+00 0. -1.
</event>
<event>
 7    1  0.5779468E-006  0.2121466E+03  0.7818608E-02  0.1314125E+00
          2   -1    0    0  502    0  0.00000000000E+00  0.00000000000E+00  0.23225053227E+03  0.23225053227E+03  0.00000000000E+00 0. -1.
          1   -1    0    0  501    0 -0.00000000000E+00 -0.00000000000E+00 -0.92430639781E+03  0.92430639781E+03  0.00000000000E+00 0. -1.
         25    2    1    2    0    0 -0.28242215315E+02  0.21781156406E+03 -0.37153434738E+03  0.44933566703E+03  0.12500108088E+03 0.  0.
          2    1    1    2  501    0 -0.50395917290E+01 -0.20887749562E+03 -0.49083582820E+03  0.53345573003E+03  0.00000000000E+00 0. -1.
          1    1    1    2  502    0  0.33281807044E+02 -0.89340684381E+01  0.17031431004E+03  0.17376553301E+03  0.00000000000E+00 0. -1.
         22    1    3    3    0    0  0.36254787548E+01  0.17901737809E+02  0.74091008510E+01  0.19710684620E+02  0.00000000000E+00 0.  1.
         22    1    3    3    0    0 -0.31867694070E+02  0.19990982625E+03 -0.37894344823E+03  0.42962498241E+03  0.00000000000E+00 0.  1.
</event>
<event>
 7    1  0.5779468E-006  0.1055316E+03  0.7818608E-02  0.1329425E+00
          2   -1    0    0  502    0  0.00000000000E+00  0.00000000000E+00  0.10783447924E+04  0.10783447924E+04  0.00000000000E+00 0. -1.
          1   -1    0    0  501    0 -0.00000000000E+00 -0.00000000000E+00 -0.12214441879E+04  0.12214441879E+04  0.00000000000E+00 0. -1.
         25    2    1    2    0    0  0.87342504920E+02 -0.37203762363E+02  0.67929929965E+02  0.17103171639E+03  0.12499815809E+03 0.  0.
          2    1    1    2  501    0 -0.10399457300E+03 -0.20903666272E+02 -0.11665318475E+04  0.11713446912E+04  0.00000000000E+00 0. -1.
          1    1    1    2  502    0  0.16652068079E+02  0.58107428635E+02  0.95550252203E+03  0.95741257263E+03  0.00000000000E+00 0. -1.
         22    1    3    3    0    0  0.53665810818E+02  0.52296058423E+01 -0.28079450610E+02  0.60793285605E+02  0.00000000000E+00 0.  1.
         22    1    3    3    0    0  0.33676694101E+02 -0.42433368205E+02  0.96009380576E+02  0.11023843078E+03  0.00000000000E+00 0.  1.
</event>
<event>
 7    1  0.5779468E-006  0.8109887E+02  0.7818608E-02  0.1350663E+00
          2   -1    0    0  502    0  0.00000000000E+00  0.00000000000E+00  0.22930287792E+04  0.22930287792E+04  0.00000000000E+00 0. -1.
          1   -1    0    0  501    0 -0.00000000000E+00 -0.00000000000E+00 -0.10097201335E+04  0.10097201335E+04  0.00000000000E+00 0. -1.
         25    2    1    2    0    0  0.99098221506E+02 -0.26819027840E+02  0.24966359177E+03  0.29748253899E+03  0.12499693672E+03 0.  0.
          2    1    1    2  501    0 -0.73845388883E+02 -0.33551108477E+02 -0.98361081978E+03  0.98694937212E+03  0.00000000000E+00 0. -1.
          1    1    1    2  502    0 -0.25252832624E+02  0.60370136317E+02  0.20172558737E+04  0.20183170016E+04  0.00000000000E+00 0. -1.
         22    1    3    3    0    0  0.22564556097E+02 -0.69844938359E+02  0.12601411608E+03  0.14583220515E+03  0.00000000000E+00 0.  1.
         22    1    3    3    0    0  0.76533665409E+02  0.43025910519E+02  0.12364947569E+03  0.15165033384E+03  0.00000000000E+00 0.  1.
</event>
<event>
 7    1  0.1215220E-005  0.8621275E+02  0.7818608E-02  0.1449086E+00
          2   -1    0    0  502    0  0.00000000000E+00  0.00000000000E+00  0.19304972286E+04  0.19304972286E+04  0.00000000000E+00 0. -1.
          1   -1    0    0  501    0 -0.00000000000E+00 -0.00000000000E+00 -0.27744245093E+04  0.27744245093E+04  0.00000000000E+00 0. -1.
         25    2    1    2    0    0 -0.58083937256E+02 -0.36048808636E+02 -0.12370182779E+04  0.12451956110E+04  0.12499851845E+03 0.  0.
          2    1    1    2  501    0  0.57317836351E+00 -0.28200041418E+02 -0.15322227736E+04  0.15324823650E+04  0.00000000000E+00 0. -1.
          1    1    1    2  502    0  0.57510758893E+02  0.64248850054E+02  0.19253137707E+04  0.19272437619E+04  0.00000000000E+00 0. -1.
         22    1    3    3    0    0 -0.40507706493E+02 -0.76053287205E+02 -0.54216560433E+03  0.54897041751E+03  0.00000000000E+00 0.  1.
         22    1    3    3    0    0 -0.17576230763E+02  0.40004478568E+02 -0.69485267353E+03  0.69622519353E+03  0.00000000000E+00 0.  1.
</event>
<event>
 7    1  0.5779468E-006  0.1194833E+03  0.7818608E-02  0.1307979E+00
          2   -1    0    0  502    0  0.00000000000E+00  0.00000000000E+00  0.79626913412E+03  0.79626913412E+03  0.00000000000E+00 0. -1.
          1   -1    0    0  501    0 -0.00000000000E+00 -0.00000000000E+00 -0.44528025629E+03  0.44528025629E+03  0.00000000000E+00 0. -1.
         25    2    1    2    0    0  0.13398351804E+03  0.82725526730E+02  0.29146395122E+02  0.20315336539E+03  0.12500672638E+03 0.  0.
          2    1    1    2  501    0 -0.63602546065E+02  0.11803505720E+02 -0.35018664922E+03  0.35611135324E+03  0.00000000000E+00 0. -1.
          1    1    1    2  502    0 -0.70380971980E+02 -0.94529032450E+02  0.67202913193E+03  0.68228467178E+03  0.00000000000E+00 0. -1.
         22    1    3    3    0    0  0.14895304779E+03  0.88420061705E+02  0.39102986855E+01  0.17326398412E+03  0.00000000000E+00 0. -1.
         22    1    3    3    0    0 -0.14969529744E+02 -0.56945349748E+01  0.25236096437E+02  0.29889381270E+02  0.00000000000E+00 0. -1.
</event>
<event>
 7    1  0.5779468E-006  0.4501626E+02  0.7818608E-02  0.1501276E+00
          2   -1    0    0  502    0  0.00000000000E+00  0.00000000000E+00  0.43599219360E+03  0.43599219360E+03  0.00000000000E+00 0. -1.
          1   -1    0    0  501    0 -0.00000000000E+00 -0.00000000000E+00 -0.84656859007E+02  0.84656859007E+02  0.00000000000E+00 0. -1.
         25    2    1    2    0    0  0.44177168785E+00  0.27999911956E+02  0.28549069564E+02  0.13124049345E+03  0.12499931007E+03 0.  0.
          2    1    1    2  501    0  0.35811452423E+02 -0.36628976853E+02 -0.11952066289E+02  0.52602223893E+02  0.00000000000E+00 0. -1.
          1    1    1    2  502    0 -0.36253224111E+02  0.86290648974E+01  0.33473833132E+03  0.33680633527E+03  0.00000000000E+00 0. -1.
         22    1    3    3    0    0 -0.11607650945E+02 -0.38609827090E+02 -0.22763316497E+02  0.46299296823E+02  0.00000000000E+00 0.  1.
         22    1    3    3    0    0  0.12049422633E+02  0.66609739046E+02  0.51312386061E+02  0.84941196629E+02  0.00000000000E+00 0.  1.
</event>
<event>
 7    1  0.5779468E-006  0.9591411E+02  0.7818608E-02  0.1435076E+00
          2   -1    0    0  502    0  0.00000000000E+00  0.00000000000E+00  0.65411694261E+03  0.65411694261E+03  0.00000000000E+00 0. -1.
          1   -1    0    0  501    0 -0.00000000000E+00 -0.00000000000E+00 -0.16877743775E+04  0.16877743775E+04  0.00000000000E+00 0. -1.
         25    2    1    2    0    0  0.74892895223E+02  0.55741825333E+02  0.13922728459E+03  0.20910567909E+03  0.12499940563E+03 0.  0.
          2    1    1    2  501    0 -0.90386490802E+02 -0.32248286729E+02 -0.16510280779E+04  0.16538147973E+04  0.00000000000E+00 0. -1.
          1    1    1    2  502    0  0.15493595578E+02 -0.23493538603E+02  0.47814335846E+03  0.47897084369E+03  0.00000000000E+00 0. -1.
         22    1    3    3    0    0  0.35516317638E+02 -0.10324144798E+02 -0.12464563670E+02  0.39030271993E+02  0.00000000000E+00 0.  1.
         22    1    3    3    0    0  0.39376577585E+02  0.66065970131E+02  0.15169184826E+03  0.17007540710E+03  0.00000000000E+00 0.  1.
</event>
<event>
 7    1  0.5779468E-006  0.6945116E+02  0.7818608E-02  0.1383372E+00
          2   -1    0    0  502    0  0.00000000000E+00  0.00000000000E+00  0.54647302695E+03  0.54647302695E+03  0.00000000000E+00 0. -1.
          1   -1    0    0  501    0 -0.00000000000E+00 -0.00000000000E+00 -0.10661559261E+04  0.10661559261E+04  0.00000000000E+00 0. -1.
         25    2    1    2    0    0 -0.60200407332E+02  0.55188777308E+02 -0.38230223296E+03  0.41042665949E+03  0.12500062122E+03 0.  0.
          2    1    1    2  501    0  0.70503742304E+02  0.21075850866E+01 -0.66633309401E+03  0.67005597660E+03  0.00000000000E+00 0. -1.
          1    1    1    2  502    0 -0.10303334973E+02 -0.57296362394E+02  0.52895242778E+03  0.53214631701E+03  0.00000000000E+00 0. -1.
         22    1    3    3    0    0 -0.77735062769E+02  0.53991286591E+02 -0.14936132916E+03  0.17682365696E+03  0.00000000000E+00 0. -1.
         22    1    3    3    0    0  0.17534655437E+02  0.11974907169E+01 -0.23294090381E+03  0.23360300253E+03  0.00000000000E+00 0. -1.
</event>
<event>
 7    1  0.5779468E-006  0.1008106E+03  0.7818608E-02  0.1306903E+00
          2   -1    0    0  502    0  0.00000000000E+00  0.00000000000E+00  0.20065741456E+03  0.20065741456E+03  0.00000000000E+00 0. -1.
          1   -1    0    0  501    0 -0.00000000000E+00 -0.00000000000E+00 -0.38181020021E+03  0.38181020021E+03  0.00000000000E+00 0. -1.
         25    2    1    2    0    0 -0.32733888412E+02 -0.67550414207E+02 -0.92910860694E+02  0.17289178709E+03  0.12499830438E+03 0.  0.
          2    1    1    2  501    0  0.69931974135E+02 -0.33230159981E+02 -0.22368290583E+03  0.23670396469E+03  0.00000000000E+00 0. -1.
          1    1    1    2  502    0 -0.37198085723E+02  0.10078057419E+03  0.13544098087E+03  0.17287186299E+03  0.00000000000E+00 0. -1.
         22    1    3    3    0    0 -0.51244095543E+02 -0.82742417868E+01  0.98410475680E+01  0.52832439111E+02  0.00000000000E+00 0. -1.
         22    1    3    3    0    0  0.18510207130E+02 -0.59276172421E+02 -0.10275190826E+03  0.12005934798E+03  0.00000000000E+00 0. -1.
</event>
<event>
 7    1  0.5779468E-006  0.6634059E+02  0.7818608E-02  0.1392937E+00
          2   -1    0    0  502    0  0.00000000000E+00  0.00000000000E+00  0.32195855030E+02  0.32195855030E+02  0.00000000000E+00 0. -1.
          1   -1    0    0  501    0 -0.00000000000E+00 -0.00000000000E+00 -0.98627028566E+03  0.98627028566E+03  0.00000000000E+00 0. -1.
         25    2    1    2    0    0  0.23006362175E+02  0.16011535911E+02 -0.65032974474E+03  0.66282686733E+03  0.12500006869E+03 0.  0.
          2    1    1    2  501    0 -0.73143961031E+02 -0.59454551968E+02 -0.25900112252E+03  0.27562014486E+03  0.00000000000E+00 0. -1.
          1    1    1    2  502    0  0.50137598856E+02  0.43443016057E+02 -0.44743563361E+02  0.80019128497E+02  0.00000000000E+00 0. -1.
         22    1    3    3    0    0 -0.17372838939E+02  0.61579679119E+02 -0.40683194381E+03  0.41183261517E+03  0.00000000000E+00 0.  1.
         22    1    3    3    0    0  0.40379201113E+02 -0.45568143208E+02 -0.24349780093E+03  0.25099425216E+03  0.00000000000E+00 0.  1.
</event>
<event>
 7    1  0.5779468E-006  0.1116815E+03  0.7818608E-02  0.1265401E+00
          2   -1    0    0  502    0  0.00000000000E+00  0.00000000000E+00  0.28249771549E+04  0.28249771549E+04  0.00000000000E+00 0. -1.
          1   -1    0    0  501    0 -0.00000000000E+00 -0.00000000000E+00 -0.11925673258E+03  0.11925673258E+03  0.00000000000E+00 0. -1.
         25    2    1    2    0    0  0.22638993630E+02 -0.80548518459E+01  0.73018560577E+02  0.14674158886E+03  0.12499591609E+03 0.  0.
          2    1    1    2  501    0  0.70224486223E+02  0.75819063060E+02 -0.48266813899E+02  0.11406004608E+03  0.00000000000E+00 0. -1.
          1    1    1    2  502    0 -0.92863479853E+02 -0.67764211214E+02  0.26809686757E+04  0.26834322526E+04  0.00000000000E+00 0. -1.
         22    1    3    3    0    0  0.28682214633E+02  0.45818946033E+02  0.75051247732E+02  0.92491810653E+02  0.00000000000E+00 0.  1.
         22    1    3    3    0    0 -0.60432210029E+01 -0.53873797878E+02 -0.20326871545E+01  0.54249778202E+02  0.00000000000E+00 0.  1.
</event>
<event>
 7    1  0.5779468E-006  0.1314501E+03  0.7818608E-02  0.1317648E+00
          2   -1    0    0  502    0  0.00000000000E+00  0.00000000000E+00  0.31090500011E+03  0.31090500011E+03  0.00000000000E+00 0. -1.
          1   -1    0    0  501    0 -0.00000000000E+00 -0.00000000000E+00 -0.40579789924E+04  0.40579789924E+04  0.00000000000E+00 0. -1.
         25    2    1    2    0    0 -0.11789390772E+03  0.13988637753E+03 -0.31330871829E+04  0.31409119161E+04  0.12500078824E+03 0.  0.
          2    1    1    2  501    0  0.23953398794E+02 -0.48263746289E+02 -0.90611976228E+03  0.90772031933E+03  0.00000000000E+00 0. -1.
          1    1    1    2  502    0  0.93940508924E+02 -0.91622631236E+02  0.29213295287E+03  0.32025175710E+03  0.00000000000E+00 0. -1.
         22    1    3    3    0    0 -0.76151477104E+02  0.28558414095E+02 -0.66378113086E+03  0.66874510852E+03  0.00000000000E+00 0.  1.
         22    1    3    3    0    0 -0.41742430614E+02  0.11132796343E+03 -0.24693060521E+04  0.24721668076E+04  0.00000000000E+00 0.  1.
</event>
<event>
 7    1  0.5779468E-006  0.8413892E+02  0.7818608E-02  0.1467901E+00
          2   -1    0    0  502    0  0.00000000000E+00  0.00000000000E+00  0.21641772238E+04  0.21641772238E+04  0.00000000000E+00 0. -1.
          1   -1    0    0  501    0 -0.00000000000E+00 -0.00000000000E+00 -0.46747104473E+02  0.46747104473E+02  0.00000000000E+00 0. -1.
         25    2    1    2    0    0  0.63463086859E+02 -0.72483568015E+02  0.10384901819E+04  0.10504133065E+04  0.12499930238E+03 0.  0.
          2    1    1    2  501    0 -0.68738093141E+02  0.47839948440E+02  0.25086131708E+01  0.83784719702E+02  0.00000000000E+00 0. -1.
          1    1    1    2  502    0  0.52750062824E+01  0.24643619575E+02  0.10764313243E+04  0.10767263021E+04  0.00000000000E+00 0. -1.
         22    1    3    3    0    0  0.38075371573E+01 -0.66047031761E+02  0.22012725398E+03  0.22985368322E+03  0.00000000000E+00 0.  1.
         22    1    3    3    0    0  0.59655549702E+02 -0.64365362541E+01  0.81836292788E+03  0.82055962327E+03  0.00000000000E+00 0.  1.
</event>
<event>
 7    1  0.5779468E-006  0.4844943E+02  0.7818608E-02  0.1488131E+00
          2   -1    0    0  502    0  0.00000000000E+00  0.00000000000E+00  0.40298656706E+02  0.40298656706E+02  0.00000000000E+00 0. -1.
          1   -1    0    0  501    0 -0.00000000000E+00 -0.00000000000E+00 -0.24762341517E+04  0.24762341517E+04  0.00000000000E+00 0. -1.
         25    2    1    2    0    0  0.16167708687E+02  0.24899209879E+02 -0.14496000956E+04  0.14552820711E+04  0.12499641553E+03 0.  0.
          2    1    1    2  501    0 -0.31247953711E+02  0.21488471667E+02 -0.10074041224E+04  0.10081176790E+04  0.00000000000E+00 0. -1.
          1    1    1    2  502    0  0.15080245024E+02 -0.46387681546E+02  0.21068722988E+02  0.53133058236E+02  0.00000000000E+00 0. -1.
         22    1    3    3    0    0  0.45072431611E+02 -0.37687456424E+02 -0.58776835224E+03  0.59069747279E+03  0.00000000000E+00 0. -1.
         22    1    3    3    0    0 -0.28904722923E+02  0.62586666303E+02 -0.86183174337E+03  0.86458459834E+03  0.00000000000E+00 0. -1.
</event>
<event>
 7    1  0.5779468E-006  0.1021136E+03  0.7818608E-02  0.1304303E+00
          2   -1    0    0  502    0  0.00000000000E+00  0.00000000000E+00  0.11492992966E+04  0.11492992966E+04  0.00000000000E+00 0. -1.
          1   -1    0    0  501    0 -0.00000000000E+00 -0.00000000000E+00 -0.24545191638E+04  0.24545191638E+04  0.00000000000E+00 0. -1.
         25    2    1    2    0    0 -0.11462232947E+03  0.12026778181E+03 -0.98056295656E+02  0.22987589135E+03  0.12500108220E+03 0.  0.
          2    1    1    2  501    0  0.24267476821E+02 -0.74418033702E+02 -0.22875131929E+04  0.22888520184E+04  0.00000000000E+00 0. -1.
          1    1    1    2  502    0  0.90354852644E+02 -0.45849748106E+02  0.10803496214E+04  0.10850905507E+04  0.00000000000E+00 0. -1.
         22    1    3    3    0    0  0.41867122884E+01  0.59097243586E+02 -0.72829887255E+02  0.93883998833E+02  0.00000000000E+00 0.  1.
         22    1    3    3    0    0 -0.11880904175E+03  0.61170538222E+02 -0.25226408402E+02  0.13599189251E+03  0.00000000000E+00 0.  1.
</event>
<event>
 7    1  0.5779468E-006  0.9552933E+02  0.7818608E-02  0.1290929E+00
          2   -1    0    0  502    0  0.00000000000E+00  0.00000000000E+00  0.15976426797E+04  0.15976426797E+04  0.00000000000E+00 0. -1.
          1   -1    0    0  501    0 -0.00000000000E+00 -0.00000000000E+00 -0.12070469096E+03  0.12070469096E+03  0.00000000000E+00 0. -1.
         25    2    1    2    0    0 -0.12668431531E+03 -0.20586088303E+02  0.25309996881E+03  0.31009302582E+03  0.12500155069E+03 0.  0.
          2    1    1    2  501    0  0.75563144594E+02 -0.59120829679E+02 -0.65034857366E+02  0.11590769601E+03  0.00000000000E+00 0. -1.
          1    1    1    2  502    0  0.51121170718E+02  0.79706917981E+02  0.12888728773E+04  0.12923466488E+04  0.00000000000E+00 0. -1.
         22    1    3    3    0    0 -0.63073944781E+02 -0.59582257992E+02  0.20146943100E+03  0.21935883754E+03  0.00000000000E+00 0. -1.
         22    1    3    3    0    0 -0.63610370530E+02  0.38996169689E+02  0.51630537803E+02  0.90734188282E+02  0.00000000000E+00 0. -1.
</event>
<event>
 7    1  0.5779468E-006  0.7731585E+02  0.7818608E-02  0.1411293E+00
          2   -1    0    0  502    0  0.00000000000E+00  0.00000000000E+00  0.20321327978E+04  0.20321327978E+04  0.00000000000E+00 0. -1.
          1   -1    0    0  501    0 -0.00000000000E+00 -0.00000000000E+00 -0.27615276269E+03  0.27615276269E+03  0.00000000000E+00 0. -1.
         25    2    1    2    0    0  0.30983889536E+02  0.11276827736E+03  0.35820798867E+03  0.39700725966E+03  0.12500046113E+03 0.  0.
          2    1    1    2  501    0 -0.16010532502E+02 -0.38703688876E+02 -0.25417554689E+03  0.25760341869E+03  0.00000000000E+00 0. -1.
          1    1    1    2  502    0 -0.14973357035E+02 -0.74064588482E+02  0.16519475933E+04  0.16536748821E+04  0.00000000000E+00 0. -1.
         22    1    3    3    0    0  0.30314831226E+01 -0.13154670041E+02  0.15971873509E+03  0.16028820784E+03  0.00000000000E+00 0.  1.
         22    1    3    3    0    0  0.27952406414E+02  0.12592294740E+03  0.19848925358E+03  0.23671905182E+03  0.00000000000E+00 0.  1.
</event>
<event>
 7    1  0.5779468E-006  0.1310043E+03  0.7818608E-02  0.1317159E+00
          2   -1    0    0  502    0  0.00000000000E+00  0.00000000000E+00  0.59252761153E+03  0.59252761153E+03  0.00000000000E+00 0. -1.
          1   -1    0    0  501    0 -0.00000000000E+00 -0.00000000000E+00 -0.96665649440E+03  0.96665649440E+03  0.00000000000E+00 0. -1.
         25    2    1    2    0    0  0.13036965435E+03 -0.11611040496E+03  0.55213405087E+02  0.22169554428E+03  0.12499008495E+03 0.  0.
          2    1    1    2  501    0 -0.22841176254E+02  0.49264330096E+02 -0.87373001976E+03  0.87541581033E+03  0.00000000000E+00 0. -1.
          1    1    1    2  502    0 -0.10752847810E+03  0.66846074864E+02  0.44438773181E+03  0.46207275132E+03  0.00000000000E+00 0. -1.
         22    1    3    3    0    0 -0.73725246707E+01 -0.33633784408E+02 -0.24684427529E+02  0.42366337298E+02  0.00000000000E+00 0. -1.
         22    1    3    3    0    0  0.13774217903E+03 -0.82476620553E+02  0.79897832615E+02  0.17932920698E+03  0.00000000000E+00 0. -1.
</event>
<event>
 7    1  0.5779468E-006  0.1660326E+03  0.7818608E-02  0.1246340E+00
          2   -1    0    0  502    0  0.00000000000E+00  0.00000000000E+00  0.72822464715E+03  0.72822464715E+03  0.00000000000E+00 0. -1.
          1   -1    0    0  501    0 -0.00000000000E+00 -0.00000000000E+00 -0.50166293175E+03  0.50166293175E+03  0.00000000000E+00 0. -1.
         25    2    1    2    0    0  0.12396696064E+03  0.96500345807E+02  0.63695970206E+01  0.20086302588E+03  0.12500103731E+03 0.  0.
          2    1    1    2  501    0 -0.16873488558E+03 -0.25493292115E+02 -0.38337933248E+03  0.41964399451E+03  0.00000000000E+00 0. -1.
          1    1    1    2  502    0  0.44767924942E+02 -0.71007053692E+02  0.60357145087E+03  0.60938055851E+03  0.00000000000E+00 0. -1.
         22    1    3    3    0    0 -0.64250606869E+01  0.59550463427E+02 -0.19296762344E+02  0.62927769198E+02  0.00000000000E+00 0.  1.
         22    1    3    3    0    0  0.13039202133E+03  0.36949882380E+02  0.25666359364E+02  0.13793525668E+03  0.00000000000E+00 0.  1.
</event>
<event>
 7    1  0.5779468E-006  0.2383741E+03  0.7818608E-02  0.1359337E+00
          2   -1    0    0  502    0  0.00000000000E+00  0.00000000000E+00  0.15724535169E+04  0.15724535169E+04  0.00000000000E+00 0. -1.
          1   -1    0    0  501    0 -0.00000000000E+00 -0.00000000000E+00 -0.15487423904E+04  0.15487423904E+04  0.00000000000E+00 0. -1.
         25    2    1    2    0    0  0.16498877423E+03 -0.15253079253E+03  0.50220924280E+02  0.26198116510E+03  0.12500020536E+03 0.  0.
          2    1    1    2  501    0 -0.16506379434E+03  0.17321758183E+03 -0.14328660908E+04  0.14527063093E+04  0.00000000000E+00 0. -1.
          1    1    1    2  502    0  0.75020114155E-01 -0.20686789296E+02  0.14063562930E+04  0.14065084329E+04  0.00000000000E+00 0. -1.
         22    1    3    3    0    0  0.30283082714E+02  0.21173385358E+02  0.12122269115E+02  0.38888645575E+02  0.00000000000E+00 0. -1.
         22    1    3    3    0    0  0.13470569152E+03 -0.17370417789E+03  0.38098655165E+02  0.22309251953E+03  0.00000000000E+00 0. -1.
</event>
<event>
 7    1  0.5779468E-006  0.5387069E+02  0.7818608E-02  0.1432809E+00
          2   -1    0    0  502    0  0.00000000000E+00  0.00000000000E+00  0.67169772285E+03  0.67169772285E+03  0.00000000000E+00 0. -1.
          1   -1    0    0  501    0 -0.00000000000E+00 -0.00000000000E+00 -0.90075240825E+02  0.90075240825E+02  0.00000000000E+00 0. -1.
         25    2    1    2    0    0 -0.33260557846E+02  0.61846205433E+02  0.49233376250E+03  0.51278528462E+03  0.12499998637E+03 0.  0.
          2    1    1    2  501    0  0.49673687682E+02 -0.11421645865E+02 -0.66864454538E+02  0.84076063912E+02  0.00000000000E+00 0. -1.
          1    1    1    2  502    0 -0.16413129836E+02 -0.50424559568E+02  0.15615317407E+03  0.16491161514E+03  0.00000000000E+00 0. -1.
         22    1    3    3    0    0 -0.38811582358E+02  0.13055721213E+02  0.43655435447E+03  0.43847063207E+03  0.00000000000E+00 0. -1.
         22    1    3    3    0    0  0.55510245124E+01  0.48790484220E+02  0.55779408026E+02  0.74314652548E+02  0.00000000000E+00 0. -1.
</event>
<event>
 7    1  0.5779468E-006  0.5650428E+02  0.7818608E-02  0.1446904E+00
          2   -1    0    0  502    0  0.00000000000E+00  0.00000000000E+00  0.12728569409E+04  0.12728569409E+04  0.00000000000E+00 0. -1.
          1   -1    0    0  501    0 -0.00000000000E+00 -0.00000000000E+00 -0.38976160166E+02  0.38976160166E+02  0.00000000000E+00 0. -1.
         25    2    1    2    0    0  0.84923851644E+02  0.25921531207E+02  0.62444140966E+03  0.64298990817E+03  0.12499984622E+03 0.  0.
          2    1    1    2  501    0 -0.31904496801E+02 -0.29914635170E+02 -0.11826594437E+02  0.45306187761E+02  0.00000000000E+00 0. -1.
          1    1    1    2  502    0 -0.53019354843E+02  0.39931039627E+01  0.62126596556E+03  0.62353700518E+03  0.00000000000E+00 0. -1.
         22    1    3    3    0    0 -0.14029546377E+02 -0.30928642881E+02  0.83517358093E+02  0.90158517207E+02  0.00000000000E+00 0. -1.
         22    1    3    3    0    0  0.98953398021E+02  0.56850174088E+02  0.54092405156E+03  0.55283139096E+03  0.00000000000E+00 0. -1.
</event>
<event>
 7    1  0.5779468E-006  0.1111779E+03  0.7818608E-02  0.1347869E+00
          2   -1    0    0  502    0  0.00000000000E+00  0.00000000000E+00  0.71252344949E+03  0.71252344949E+03  0.00000000000E+00 0. -1.
          1   -1    0    0  501    0 -0.00000000000E+00 -0.00000000000E+00 -0.22373406093E+03  0.22373406093E+03  0.00000000000E+00 0. -1.
         25    2    1    2    0    0 -0.27518544461E+02  0.88519878307E+02 -0.75170963515E+02  0.17282627322E+03  0.12500083126E+03 0.  0.
          2    1    1    2  501    0  0.72793587165E+02 -0.10696361573E+03 -0.56403941887E+02  0.14114363635E+03  0.00000000000E+00 0. -1.
          1    1    1    2  502    0 -0.45275042705E+02  0.18443737422E+02  0.62036429397E+03  0.62228760085E+03  0.00000000000E+00 0. -1.
         22    1    3    3    0    0 -0.51188024852E+02  0.92937663176E+02 -0.94395728107E+02  0.14201470561E+03  0.00000000000E+00 0.  1.
         22    1    3    3    0    0  0.23669480391E+02 -0.44177848686E+01  0.19224764592E+02  0.30811567613E+02  0.00000000000E+00 0.  1.
</event>
<event>
 7    1  0.5779468E-006  0.8236799E+02  0.7818608E-02  0.1370556E+00
          2   -1    0    0  502    0  0.00000000000E+00  0.00000000000E+00  0.16671514439E+04  0.16671514439E+04  0.00000000000E+00 0. -1.
          1   -1    0    0  501    0 -0.00000000000E+00 -0.00000000000E+00 -0.17708633093E+02  0.17708633093E+02  0.00000000000E+00 0. -1.
         25    2    1    2    0    0 -0.33985326142E+02  0.27702061198E+02  0.31814209172E+03  0.34461930060E+03  0.12500266091E+03 0.  0.
          2    1    1    2  501    0  0.11534092603E+01  0.54507879470E+02  0.28264156759E+03  0.28785186296E+03  0.00000000000E+00 0. -1.
          1    1    1    2  502    0  0.32831916882E+02 -0.82209940668E+02  0.10486591515E+04  0.10523889134E+04  0.00000000000E+00 0. -1.
         22    1    3    3    0    0 -0.46329323370E+01  0.67808799278E+02  0.10016236715E+03  0.12104543410E+03  0.00000000000E+00 0. -1.
         22    1    3    3    0    0 -0.29352393805E+02 -0.40106738080E+02  0.21797972457E+03  0.22357386650E+03  0.00000000000E+00 0. -1.
</event>
<event>
 7    1  0.5779468E-006  0.2552176E+02  0.7818608E-02  0.1688025E+00
          2   -1    0    0  502    0  0.00000000000E+00  0.00000000000E+00  0.34609379949E+03  0.34609379949E+03  0.00000000000E+00 0. -1.
          1   -1    0    0  501    0 -0.00000000000E+00 -0.00000000000E+00 -0.14239379166E+03  0.14239379166E+03  0.00000000000E+00 0. -1.
         25    2    1    2    0    0  0.18649040998E+02  0.30928188774E+02 -0.46965426087E+02  0.13832923036E+03  0.12499954053E+03 0.  0.
          2    1    1    2  501    0 -0.20393270896E+02 -0.54903241570E+01 -0.46934973419E+02  0.51467668366E+02  0.00000000000E+00 0. -1.
          1    1    1    2  502    0  0.17442298987E+01 -0.25437864617E+02  0.29760040734E+03  0.29869069243E+03  0.00000000000E+00 0. -1.
         22    1    3    3    0    0 -0.21421549896E+02 -0.41561589148E+02 -0.22976211668E+02  0.52097550759E+02  0.00000000000E+00 0. -1.
         22    1    3    3    0    0  0.40070590893E+02  0.72489777922E+02 -0.23989214420E+02  0.86231679597E+02  0.00000000000E+00 0. -1.
</event>
<event>
 7    1  0.5779468E-006  0.1106201E+03  0.7818608E-02  0.1376213E+00
          2   -1    0    0  502    0  0.00000000000E+00  0.00000000000E+00  0.45259218551E+03  0.45259218551E+03  0.00000000000E+00 0. -1.
          1   -1    0    0  501    0 -0.00000000000E+00 -0.00000000000E+00 -0.45780790221E+03  0.45780790221E+03  0.00000000000E+00 0. -1.
         25    2    1    2    0    0 -0.14476333240E+03 -0.64537860829E+00  0.28985476543E+03  0.34727012272E+03  0.12499565660E+03 0.  0.
          2    1    1    2  501    0  0.10883770029E+03  0.15162518111E+02 -0.41905924386E+03  0.43322765011E+03  0.00000000000E+00 0. -1.
          1    1    1    2  502    0  0.35925632107E+02 -0.14517139503E+02  0.12398876172E+03  0.12990231489E+03  0.00000000000E+00 0. -1.
         22    1    3    3    0    0 -0.10210477896E+03  0.58980577599E+02  0.17568366067E+03  0.21158649070E+03  0.00000000000E+00 0. -1.
         22    1    3    3    0    0 -0.42658553437E+02 -0.59625956207E+02  0.11417110476E+03  0.13568363202E+03  0.00000000000E+00 0. -1.
</event>
<event>
 7    1  0.5779468E-006  0.8804403E+02  0.7818608E-02  0.1492766E+00
          2   -1    0    0  502    0  0.00000000000E+00  0.00000000000E+00  0.14756236951E+04  0.14756236951E+04  0.00000000000E+00 0. -1.
          1   -1    0    0  501    0 -0.00000000000E+00 -0.00000000000E+00 -0.77508113794E+02  0.77508113794E+02  0.00000000000E+00 0. -1.
         25    2    1    2    0    0 -0.52054275703E+02 -0.61006670784E+02  0.49699330593E+03  0.51870840542E+03  0.12499840886E+03 0.  0.
          2    1    1    2  501    0 -0.19202461974E+02  0.62886857782E+01 -0.62981092872E+02  0.66143028159E+02  0.00000000000E+00 0. -1.
          1    1    1    2  502    0  0.71256737677E+02  0.54717985006E+02  0.96410336821E+03  0.96828037528E+03  0.00000000000E+00 0. -1.
         22    1    3    3    0    0 -0.71534338122E+02 -0.87326530096E+02  0.33717283366E+03  0.35556800215E+03  0.00000000000E+00 0. -1.
         22    1    3    3    0    0  0.19480062419E+02  0.26319859312E+02  0.15982047226E+03  0.16314040327E+03  0.00000000000E+00 0. -1.
</event>
<event>
 7    1  0.5779468E-006  0.7114457E+02  0.7818608E-02  0.1503645E+00
          2   -1    0    0  502    0  0.00000000000E+00  0.00000000000E+00  0.24506264682E+03  0.24506264682E+03  0.00000000000E+00 0. -1.
          1   -1    0    0  501    0 -0.00000000000E+00 -0.00000000000E+00 -0.11079413637E+03  0.11079413637E+03  0.00000000000E+00 0. -1.
         25    2    1    2    0    0 -0.42014022759E+02  0.34371687465E+02  0.84135324632E+02  0.16016599521E+03  0.12501120815E+03 0.  0.
          2    1    1    2  501    0 -0.21742995532E+02  0.80930358679E+01 -0.58403827880E+02  0.62843155517E+02  0.00000000000E+00 0. -1.
          1    1    1    2  502    0  0.63757018292E+02 -0.42464723332E+02  0.10853701370E+03  0.13284763246E+03  0.00000000000E+00 0. -1.
         22    1    3    3    0    0  0.36543196497E+02 -0.18886430610E+02  0.29900708855E+02  0.50854251164E+02  0.00000000000E+00 0. -1.
         22    1    3    3    0    0 -0.78557219257E+02  0.53258118074E+02  0.54234615777E+02  0.10931174405E+03  0.00000000000E+00 0. -1.
</event>
<event>
 7    1  0.5779468E-006  0.4822261E+02  0.7818608E-02  0.1490057E+00
          2   -1    0    0  502    0  0.00000000000E+00  0.00000000000E+00  0.37638275243E+03  0.37638275243E+03  0.00000000000E+00 0. -1.
          1   -1    0    0  501    0 -0.00000000000E+00 -0.00000000000E+00 -0.89650132913E+03  0.89650132913E+03  0.00000000000E+00 0. -1.
         25    2    1    2    0    0 -0.26624522018E+02  0.31560178524E+02 -0.13881146132E+03  0.19130500241E+03  0.12499628840E+03 0.  0.
          2    1    1    2  501    0 -0.70083104803E+01 -0.48355879911E+02 -0.72961453315E+03  0.73124877745E+03  0.00000000000E+00 0. -1.
          1    1    1    2  502    0  0.33632832499E+02  0.16795701387E+02  0.34830741777E+03  0.35033030169E+03  0.00000000000E+00 0. -1.
         22    1    3    3    0    0  0.24624487460E+02  0.33616186816E+02  0.17205065086E+01  0.41705797455E+02  0.00000000000E+00 0. -1.
         22    1    3    3    0    0 -0.51249009478E+02 -0.20560082919E+01 -0.14053196783E+03  0.14959920496E+03  0.00000000000E+00 0. -1.
</event>
<event>
 7    1  0.5779468E-006  0.8008206E+02  0.7818608E-02  0.1370667E+00
          2   -1    0    0  502    0  0.00000000000E+00  0.00000000000E+00  0.40843465801E+03  0.40843465801E+03  0.00000000000E+00 0. -1.
          1   -1    0    0  501    0 -0.00000000000E+00 -0.00000000000E+00 -0.37050547414E+03  0.37050547414E+03  0.00000000000E+00 0. -1.
         25    2    1    2    0    0 -0.10574414082E+03  0.94325151003E+01 -0.10442295243E+03  0.19441349677E+03  0.12498663558E+03 0.  0.
          2    1    1    2  501    0  0.63128030773E+02 -0.45801342141E+02 -0.21193848261E+03  0.22583363705E+03  0.00000000000E+00 0. -1.
          1    1    1    2  502    0  0.42616110043E+02  0.36368827041E+02  0.35429061890E+03  0.35869299834E+03  0.00000000000E+00 0. -1.
         22    1    3    3    0    0 -0.56290152267E+02  0.13782830281E+02 -0.12720983923E+03  0.13978873649E+03  0.00000000000E+00 0.  1.
         22    1    3    3    0    0 -0.49453988550E+02 -0.43503151802E+01  0.22786886800E+02  0.54624760280E+02  0.00000000000E+00 0.  1.
</event>
<event>
 7    1  0.5779468E-006  0.1657517E+03  0.7818608E-02  0.1371115E+00
          2   -1    0    0  502    0  0.00000000000E+00  0.00000000000E+00  0.20029962542E+03  0.20029962542E+03  0.00000000000E+00 0. -1.
          1   -1    0    0  501    0 -0.00000000000E+00 -0.00000000000E+00 -0.89228952083E+03  0.89228952083E+03  0.00000000000E+00 0. -1.
         25    2    1    2    0    0 -0.86441303235E+02  0.13495588003E+03 -0.65837956769E+03  0.68903561340E+03  0.12498493077E+03 0.  0.
          2    1    1    2  501    0  0.79832733164E+02 -0.16110181482E+03 -0.18016875438E+03  0.25453455576E+03  0.00000000000E+00 0. -1.
          1    1    1    2  502    0  0.66085700717E+01  0.26145934790E+02  0.14655842666E+03  0.14901897708E+03  0.00000000000E+00 0. -1.
         22    1    3    3    0    0 -0.88822585571E+02  0.15560842350E+03 -0.62019976738E+03  0.64556268838E+03  0.00000000000E+00 0.  1.
         22    1    3    3    0    0  0.23812823358E+01 -0.20652543477E+02 -0.38179800312E+02  0.43472925016E+02  0.00000000000E+00 0.  1.
</event>
<event>
 7    1  0.5779468E-006  0.1303328E+03  0.7818608E-02  0.1437565E+00
          2   -1    0    0  502    0  0.00000000000E+00  0.00000000000E+00  0.14041117978E+04  0.14041117978E+04  0.00000000000E+00 0. -1.
          1   -1    0    0  501    0 -0.00000000000E+00 -0.00000000000E+00 -0.97210278223E+02  0.97210278223E+02  0.00000000000E+00 0. -1.
         25    2    1    2    0    0 -0.11013328340E+03  0.96685973017E+02  0.44204419601E+03  0.48218824726E+03  0.12499966832E+03 0.  0.
          2    1    1    2  501    0  0.10208736471E+03 -0.78019260370E+02 -0.23437166300E+02  0.13060679839E+03  0.00000000000E+00 0. -1.
          1    1    1    2  502    0  0.80459186869E+01 -0.18666712647E+02  0.88829448986E+03  0.88852703037E+03  0.00000000000E+00 0. -1.
         22    1    3    3    0    0 -0.10413816770E+03  0.29173550307E+02  0.35932745717E+03  0.37524935108E+03  0.00000000000E+00 0. -1.
         22    1    3    3    0    0 -0.59951156952E+01  0.67512422710E+02  0.82716738844E+02  0.10693889619E+03  0.00000000000E+00 0. -1.
</event>
<event>
 7    1  0.5779468E-006  0.3141434E+03  0.7818608E-02  0.1116939E+00
          2   -1    0    0  502    0  0.00000000000E+00  0.00000000000E+00  0.11176356680E+04  0.11176356680E+04  0.00000000000E+00 0. -1.
          1   -1    0    0  501    0 -0.00000000000E+00 -0.00000000000E+00 -0.14011679685E+04  0.14011679685E+04  0.00000000000E+00 0. -1.
         25    2    1    2    0    0  0.33231895853E+03 -0.10364844043E+02 -0.13880579976E+03  0.38135932054E+03  0.12499824448E+03 0.  0.
          2    1    1    2  501    0 -0.27095642828E+03 -0.16949197045E+03 -0.11092517958E+04  0.11543762214E+04  0.00000000000E+00 0. -1.
          1    1    1    2  502    0 -0.61362530254E+02  0.17985681449E+03  0.96452529499E+03  0.98306809455E+03  0.00000000000E+00 0. -1.
         22    1    3    3    0    0  0.22080407019E+03  0.74499415456E+01 -0.27219361988E+02  0.22260016332E+03  0.00000000000E+00 0. -1.
         22    1    3    3    0    0  0.11151488834E+03 -0.17814785589E+02 -0.11158643777E+03  0.15875915722E+03  0.00000000000E+00 0. -1.
</event>
<event>
 7    1  0.5779468E-006  0.5517592E+02  0.7818608E-02  0.1523373E+00
          2   -1    0    0  502    0  0.00000000000E+00  0.00000000000E+00  0.25293174020E+04  0.25293174020E+04  0.00000000000E+00 0. -1.
          1   -1    0    0  501    0 -0.00000000000E+00 -0.00000000000E+00 -0.12393070704E+03  0.12393070704E+03  0.00000000000E+00 0. -1.
         25    2    1    2    0    0  0.22706666555E+02  0.75649644197E+02  0.55796471427E+03  0.57722475913E+03  0.12500135522E+03 0.  0.
          2    1    1    2  501    0 -0.14107199685E+02 -0.22062527007E+02 -0.11242015365E+03  0.11542988836E+03  0.00000000000E+00 0. -1.
          1    1    1    2  502    0 -0.85994668697E+01 -0.53587117190E+02  0.19598421343E+04  0.19605934615E+04  0.00000000000E+00 0. -1.
         22    1    3    3    0    0 -0.47465549073E+02  0.65499978102E+01  0.22261272165E+03  0.22771101128E+03  0.00000000000E+00 0. -1.
         22    1    3    3    0    0  0.70172215628E+02  0.69099646387E+02  0.33535199263E+03  0.34951374785E+03  0.00000000000E+00 0. -1.
</event>
<event>
 7    1  0.5779468E-006  0.1461141E+03  0.7818608E-02  0.1345561E+00
          2   -1    0    0  502    0  0.00000000000E+00  0.00000000000E+00  0.83698202321E+03  0.83698202321E+03  0.00000000000E+00 0. -1.
          1   -1    0    0  501    0 -0.00000000000E+00 -0.00000000000E+00 -0.64019447956E+02  0.64019447956E+02  0.00000000000E+00 0. -1.
         25    2    1    2    0    0 -0.83963527043E+02  0.15056464125E+03  0.31056776555E+03  0.37656024074E+03  0.12500277134E+03 0.  0.
          2    1    1    2  501    0  0.63223641225E+02 -0.11879283081E+03  0.12107695054E+03  0.18102097507E+03  0.00000000000E+00 0. -1.
          1    1    1    2  502    0  0.20739885818E+02 -0.31771810438E+02  0.34131785917E+03  0.34342025536E+03  0.00000000000E+00 0. -1.
         22    1    3    3    0    0 -0.78383115201E+02  0.18240835307E+02  0.12020989002E+03  0.14466187639E+03  0.00000000000E+00 0. -1.
         22    1    3    3    0    0 -0.55804118411E+01  0.13232380594E+03  0.19035787553E+03  0.23189836436E+03  0.00000000000E+00 0. -1.
</event>
<event>
 7    1  0.5779468E-006  0.1480087E+03  0.7818608E-02  0.1277068E+00
          2   -1    0    0  502    0  0.00000000000E+00  0.00000000000E+00  0.68653529896E+03  0.68653529896E+03  0.00000000000E+00 0. -1.
          1   -1    0    0  501    0 -0.00000000000E+00 -0.00000000000E+00 -0.14129751562E+04  0.14129751562E+04  0.00000000000E+00 0. -1.
         25    2    1    2    0    0  0.20099356832E+03 -0.69495467882E+02 -0.18231245430E+03  0.30673283275E+03  0.12497665835E+03 0.  0.
          2    1    1    2  501    0 -0.13753902048E+03  0.40716723838E+02 -0.11620851645E+04  0.11709042503E+04  0.00000000000E+00 0. -1.
          1    1    1    2  502    0 -0.63454547840E+02  0.28778744044E+02  0.61795776162E+03  0.62187337208E+03  0.00000000000E+00 0. -1.
         22    1    3    3    0    0  0.14610549701E+03  0.11713391977E+02 -0.89464083694E+02  0.17172024365E+03  0.00000000000E+00 0. -1.
         22    1    3    3    0    0  0.54888071310E+02 -0.81208859859E+02 -0.92848370608E+02  0.13501258910E+03  0.00000000000E+00 0. -1.
</event>
<event>
 7    1  0.5779468E-006  0.4697322E+02  0.7818608E-02  0.1575058E+00
          2   -1    0    0  502    0  0.00000000000E+00  0.00000000000E+00  0.59001465244E+03  0.59001465244E+03  0.00000000000E+00 0. -1.
          1   -1    0    0  501    0 -0.00000000000E+00 -0.00000000000E+00 -0.71845378362E+03  0.71845378362E+03  0.00000000000E+00 0. -1.
         25    2    1    2    0    0  0.50379679647E+02 -0.17702014236E+02 -0.29427505573E+02  0.13907754605E+03  0.12500044921E+03 0.  0.
          2    1    1    2  501    0 -0.36039241360E+01  0.21764658085E+02 -0.63297896065E+03  0.63336328693E+03  0.00000000000E+00 0. -1.
          1    1    1    2  502    0 -0.46775755512E+02 -0.40626438484E+01  0.53396733504E+03  0.53602760308E+03  0.00000000000E+00 0. -1.
         22    1    3    3    0    0  0.40814692307E+02 -0.64889766139E+02  0.93896879102E+01  0.77231386733E+02  0.00000000000E+00 0.  1.
         22    1    3    3    0    0  0.95649873407E+01  0.47187751903E+02 -0.38817193483E+02  0.61846159318E+02  0.00000000000E+00 0.  1.
</event>
<event>
 7    1  0.5779468E-006  0.3130133E+03  0.7818608E-02  0.1237006E+00
          2   -1    0    0  502    0  0.00000000000E+00  0.00000000000E+00  0.20920286923E+04  0.20920286923E+04  0.00000000000E+00 0. -1.
          1   -1    0    0  501    0 -0.00000000000E+00 -0.00000000000E+00 -0.87133734150E+03  0.87133734150E+03  0.00000000000E+00 0. -1.
         25    2    1    2    0    0 -0.31672347947E+03  0.14356306827E+03  0.11145103935E+04  0.11741733084E+04  0.12500169497E+03 0.  0.
          2    1    1    2  501    0  0.29598666614E+03 -0.99233870869E+02 -0.81187898999E+03  0.86982927179E+03  0.00000000000E+00 0. -1.
          1    1    1    2  502    0  0.20736813327E+02 -0.44329197405E+02  0.91805994727E+03  0.91936345367E+03  0.00000000000E+00 0. -1.
         22    1    3    3    0    0 -0.45516333623E+02  0.35266113794E+02  0.75786521986E+02  0.95178948950E+02  0.00000000000E+00 0.  1.
         22    1    3    3    0    0 -0.27120714584E+03  0.10829695448E+03  0.10387238716E+04  0.10789943594E+04  0.00000000000E+00 0.  1.
</event>
<event>
 7    1  0.5779468E-006  0.7214134E+02  0.7818608E-02  0.1509235E+00
          2   -1    0    0  502    0  0.00000000000E+00  0.00000000000E+00  0.24971543523E+04  0.24971543523E+04  0.00000000000E+00 0. -1.
          1   -1    0    0  501    0 -0.00000000000E+00 -0.00000000000E+00 -0.59697869014E+02  0.59697869014E+02  0.00000000000E+00 0. -1.
         25    2    1    2    0    0  0.83444989976E+01 -0.50664231596E+02  0.22906527958E+04  0.22946352260E+04  0.12499637870E+03 0.  0.
          2    1    1    2  501    0 -0.19435174197E+02  0.69693274164E+02 -0.34094290857E+02  0.79983117774E+02  0.00000000000E+00 0. -1.
          1    1    1    2  502    0  0.11090675200E+02 -0.19029042568E+02  0.18089797840E+03  0.18223387755E+03  0.00000000000E+00 0. -1.
         22    1    3    3    0    0 -0.23241290527E+02 -0.61252911628E+02  0.21048683764E+04  0.21058876890E+04  0.00000000000E+00 0.  1.
         22    1    3    3    0    0  0.31585789525E+02  0.10588680032E+02  0.18578441935E+03  0.18874753698E+03  0.00000000000E+00 0.  1.
</event>
<event>
 7    1  0.5779468E-006  0.8578995E+02  0.7818608E-02  0.1442045E+00
          2   -1    0    0  502    0  0.00000000000E+00  0.00000000000E+00  0.12886971882E+02  0.12886971882E+02  0.00000000000E+00 0. -1.
          1   -1    0    0  501    0 -0.00000000000E+00 -0.00000000000E+00 -0.26255674595E+04  0.26255674595E+04  0.00000000000E+00 0. -1.
         25    2    1    2    0    0  0.18739155067E+02  0.55849519834E+02 -0.21711099988E+04  0.21755032168E+04  0.12500117809E+03 0.  0.
          2    1    1    2  501    0  0.15648844487E+02  0.25435382045E+02 -0.25290279371E+03  0.25465990666E+03  0.00000000000E+00 0. -1.
          1    1    1    2  502    0 -0.34387999554E+02 -0.81284901879E+02 -0.18866769508E+03  0.20829130791E+03  0.00000000000E+00 0. -1.
         22    1    3    3    0    0  0.25670721574E+02  0.94961620529E+02 -0.15094228093E+04  0.15126248420E+04  0.00000000000E+00 0.  1.
         22    1    3    3    0    0 -0.69315665070E+01 -0.39112100695E+02 -0.66168718951E+03  0.66287837482E+03  0.00000000000E+00 0.  1.
</event>
<event>
 7    1  0.5779468E-006  0.3849623E+03  0.7818608E-02  0.1207707E+00
          2   -1    0    0  502    0  0.00000000000E+00  0.00000000000E+00  0.41677126540E+04  0.41677126540E+04  0.00000000000E+00 0. -1.
          1   -1    0    0  501    0 -0.00000000000E+00 -0.00000000000E+00 -0.10085882531E+03  0.10085882531E+03  0.00000000000E+00 0. -1.
         25    2    1    2    0    0  0.12381623807E+03 -0.37699022783E+03  0.14901280206E+04  0.15471138992E+04  0.12501122653E+03 0.  0.
          2    1    1    2  501    0 -0.69777047864E+02  0.37546287685E+03  0.43419293658E+03  0.57824278161E+03  0.00000000000E+00 0. -1.
          1    1    1    2  502    0 -0.54039190206E+02  0.15273509793E+01  0.21425328715E+04  0.21432147985E+04  0.00000000000E+00 0. -1.
         22    1    3    3    0    0  0.49545550503E+02 -0.24840033197E+02  0.16997225205E+03  0.17878018707E+03  0.00000000000E+00 0. -1.
         22    1    3    3    0    0  0.74270687566E+02 -0.35215019463E+03  0.13201557686E+04  0.13683337122E+04  0.00000000000E+00 0. -1.
</event>
<event>
 7    1  0.5779468E-006  0.3675742E+02  0.7818608E-02  0.1567104E+00
          2   -1    0    0  502    0  0.00000000000E+00  0.00000000000E+00  0.15072564419E+04  0.15072564419E+04  0.00000000000E+00 0. -1.
          1   -1    0    0  501    0 -0.00000000000E+00 -0.00000000000E+00 -0.14694875381E+04  0.14694875381E+04  0.00000000000E+00 0. -1.
         25    2    1    2    0    0 -0.28063060306E+02  0.18150568859E+02  0.39857685285E+03  0.41905311069E+03  0.12500009379E+03 0.  0.
          2    1    1    2  501    0  0.47656390934E+01 -0.36455817473E+02 -0.14588179594E+04  0.14592811849E+04  0.00000000000E+00 0. -1.
          1    1    1    2  502    0  0.23297421212E+02  0.18305248615E+02  0.10980100104E+04  0.10984096844E+04  0.00000000000E+00 0. -1.
         22    1    3    3    0    0 -0.28075208141E+01  0.41612875352E+02  0.36751793339E+02  0.55589638260E+02  0.00000000000E+00 0. -1.
         22    1    3    3    0    0 -0.25255539491E+02 -0.23462306493E+02  0.36182505951E+03  0.36346347243E+03  0.00000000000E+00 0. -1.
</event>
<event>
 7    1  0.5779468E-006  0.6248117E+02  0.7818608E-02  0.1392313E+00
          2   -1    0    0  502    0  0.00000000000E+00  0.00000000000E+00  0.93624244829E+03  0.93624244829E+03  0.00000000000E+00 0. -1.
          1   -1    0    0  501    0 -0.00000000000E+00 -0.00000000000E+00 -0.21627968133E+03  0.21627968133E+03  0.00000000000E+00 0. -1.
         25    2    1    2    0    0  0.44373070821E+02 -0.44020118105E+00  0.67744461979E+02  0.14894010131E+03  0.12499871382E+03 0.  0.
          2    1    1    2  501    0 -0.29262655668E+02 -0.57842958947E+02 -0.16856164655E+03  0.18059662124E+03  0.00000000000E+00 0. -1.
          1    1    1    2  502    0 -0.15110415153E+02  0.58283160128E+02  0.82077995154E+03  0.82298540707E+03  0.00000000000E+00 0. -1.
         22    1    3    3    0    0  0.16300147710E+02  0.62031034796E+02  0.33911723206E+02  0.72550320909E+02  0.00000000000E+00 0. -1.
         22    1    3    3    0    0  0.28072923111E+02 -0.62471235977E+02  0.33832738773E+02  0.76389780399E+02  0.00000000000E+00 0. -1.
</event>
<event>
 7    1  0.5779468E-006  0.1206833E+03  0.7818608E-02  0.1393796E+00
          2   -1    0    0  502    0  0.00000000000E+00  0.00000000000E+00  0.43502953443E+03  0.43502953443E+03  0.00000000000E+00 0. -1.
          1   -1    0    0  501    0 -0.00000000000E+00 -0.00000000000E+00 -0.94804847436E+03  0.94804847436E+03  0.00000000000E+00 0. -1.
         25    2    1    2    0    0 -0.13820139755E+02 -0.95189470614E+02 -0.36743475378E+03  0.39985739211E+03  0.12500241661E+03 0.  0.
          2    1    1    2  501    0  0.16431283655E+02 -0.26056508372E+02 -0.55518735903E+03  0.55604130453E+03  0.00000000000E+00 0. -1.
          1    1    1    2  502    0 -0.26111439005E+01  0.12124597899E+03  0.40960317289E+03  0.42717931216E+03  0.00000000000E+00 0. -1.
         22    1    3    3    0    0 -0.69287327731E+02 -0.49895037500E+02 -0.21885081470E+03  0.23491685263E+03  0.00000000000E+00 0.  1.
         22    1    3    3    0    0  0.55467187976E+02 -0.45294433114E+02 -0.14858393908E+03  0.16494053948E+03  0.00000000000E+00 0.  1.
</event>
<event>
 7    1  0.5779468E-006  0.9716589E+02  0.7818608E-02  0.1308831E+00
          2   -1    0    0  502    0  0.00000000000E+00  0.00000000000E+00  0.92186283093E+03  0.92186283093E+03  0.00000000000E+00 0. -1.
          1   -1    0    0  501    0 -0.00000000000E+00 -0.00000000000E+00 -0.14714236412E+04  0.14714236412E+04  0.00000000000E+00 0. -1.
         25    2    1    2    0    0  0.13154308117E+03 -0.11422886170E+03 -0.48954129258E+02  0.21993917529E+03  0.12499967603E+03 0.  0.
          2    1    1    2  501    0 -0.56034042030E+02  0.55591526489E+02 -0.13330737676E+04  0.13354085149E+04  0.00000000000E+00 0. -1.
          1    1    1    2  502    0 -0.75509039143E+02  0.58637335211E+02  0.83246708660E+03  0.83793878198E+03  0.00000000000E+00 0. -1.
         22    1    3    3    0    0  0.13956200494E+02 -0.90252346465E+02 -0.39686215816E+02  0.99575385013E+02  0.00000000000E+00 0. -1.
         22    1    3    3    0    0  0.11758688068E+03 -0.23976515235E+02 -0.92679134413E+01  0.12036379028E+03  0.00000000000E+00 0. -1.
</event>
<event>
 7    1  0.5779468E-006  0.7879805E+02  0.7818608E-02  0.1439889E+00
          2   -1    0    0  502    0  0.00000000000E+00  0.00000000000E+00  0.18629368657E+04  0.18629368657E+04  0.00000000000E+00 0. -1.
          1   -1    0    0  501    0 -0.00000000000E+00 -0.00000000000E+00 -0.98759334658E+02  0.98759334658E+02  0.00000000000E+00 0. -1.
         25    2    1    2    0    0 -0.40193841596E+02  0.98284621775E+02  0.76185174370E+03  0.77930813782E+03  0.12501072955E+03 0.  0.
          2    1    1    2  501    0  0.15126986542E+02 -0.76758534156E+02 -0.72733213160E+02  0.10682143317E+03  0.00000000000E+00 0. -1.
          1    1    1    2  502    0  0.25066855054E+02 -0.21526087618E+02  0.10750590005E+04  0.10755666293E+04  0.00000000000E+00 0. -1.
         22    1    3    3    0    0  0.38823455929E+01  0.77491268231E+02  0.18787018177E+03  0.20326134521E+03  0.00000000000E+00 0.  1.
         22    1    3    3    0    0 -0.44076187189E+02  0.20793353544E+02  0.57398156194E+03  0.57604679260E+03  0.00000000000E+00 0.  1.
</event>
<event>
 7    1  0.5779468E-006  0.2902744E+02  0.7818608E-02  0.1644653E+00
          2   -1    0    0  502    0  0.00000000000E+00  0.00000000000E+00  0.12360680079E+04  0.12360680079E+04  0.00000000000E+00 0. -1.
          1   -1    0    0  501    0 -0.00000000000E+00 -0.00000000000E+00 -0.27072008826E+02  0.27072008826E+02  0.00000000000E+00 0. -1.
         25    2    1    2    0    0 -0.52322348937E+00 -0.42048422964E+02  0.93529921963E+03  0.94455187848E+03  0.12500110904E+03 0.  0.
          2    1    1    2  501    0  0.15026216867E+02  0.18205926877E+02 -0.15375588521E+02  0.28171824384E+02  0.00000000000E+00 0. -1.
          1    1    1    2  502    0 -0.14502993378E+02  0.23842496087E+02  0.28907236792E+03  0.29041631382E+03  0.00000000000E+00 0. -1.
         22    1    3    3    0    0  0.42118319332E+02 -0.67915096412E+02  0.65414215043E+03  0.65900558883E+03  0.00000000000E+00 0.  1.
         22    1    3    3    0    0 -0.42641542821E+02  0.25866673448E+02  0.28115706921E+03  0.28554628965E+03  0.00000000000E+00 0.  1.
</event>
<event>
 7    1  0.5779468E-006  0.6079131E+02  0.7818608E-02  0.1434160E+00
          2   -1    0    0  502    0  0.00000000000E+00  0.00000000000E+00  0.13426998269E+04  0.13426998269E+04  0.00000000000E+00 0. -1.
          1   -1    0    0  501    0 -0.00000000000E+00 -0.00000000000E+00 -0.55488990703E+03  0.55488990703E+03  0.00000000000E+00 0. -1.
         25    2    1    2    0    0  0.63989690663E+02  0.81761245645E+02  0.27447871461E+03  0.31897236445E+03  0.12500089083E+03 0.  0.
          2    1    1    2  501    0 -0.28882641245E+02 -0.34128399774E+02 -0.53086575401E+03  0.53274515804E+03  0.00000000000E+00 0. -1.
          1    1    1    2  502    0 -0.35107049418E+02 -0.47632845871E+02  0.10441969593E+04  0.10458722115E+04  0.00000000000E+00 0. -1.
         22    1    3    3    0    0  0.84694599530E+02  0.83327450908E+01  0.12613060013E+03  0.15215629504E+03  0.00000000000E+00 0.  1.
         22    1    3    3    0    0 -0.20704908866E+02  0.73428500554E+02  0.14834811448E+03  0.16681606941E+03  0.00000000000E+00 0.  1.
</event>
<event>
 7    1  0.5779468E-006  0.1326516E+03  0.7818608E-02  0.1276516E+00
          2   -1    0    0  502    0  0.00000000000E+00  0.00000000000E+00  0.84688863277E+03  0.84688863277E+03  0.00000000000E+00 0. -1.
          1   -1    0    0  501    0 -0.00000000000E+00 -0.00000000000E+00 -0.30691455771E+03  0.30691455771E+03  0.00000000000E+00 0. -1.
         25    2    1    2    0    0 -0.54970806051E+02 -0.64475211313E+02  0.15738496282E+03  0.21811366802E+03  0.12499881305E+03 0.  0.
          2    1    1    2  501    0  0.23669686279E+02  0.13608651427E+03 -0.25677303877E+03  0.29156849427E+03  0.00000000000E+00 0. -1.
          1    1    1    2  502    0  0.31301119772E+02 -0.71611302961E+02  0.63936215100E+03  0.64412102818E+03  0.00000000000E+00 0. -1.
         22    1    3    3    0    0  0.32194533392E+02 -0.15238395193E+02  0.91709138611E+02  0.98383244372E+02  0.00000000000E+00 0.  1.
         22    1    3    3    0    0 -0.87165339443E+02 -0.49236816120E+02  0.65675824209E+02  0.11973042365E+03  0.00000000000E+00 0.  1.
</event>
<event>
 7    1  0.5779468E-006  0.1002949E+03  0.7818608E-02  0.1330759E+00
          2   -1    0    0  502    0  0.00000000000E+00  0.00000000000E+00  0.12387370635E+04  0.12387370635E+04  0.00000000000E+00 0. -1.
          1   -1    0    0  501    0 -0.00000000000E+00 -0.00000000000E+00 -0.87490758371E+02  0.87490758371E+02  0.00000000000E+00 0. -1.
         25    2    1    2    0    0  0.10339869060E+03 -0.51405642324E+02  0.30143432815E+03  0.34615505142E+03  0.12500734441E+03 0.  0.
          2    1    1    2  501    0 -0.99801734266E+02 -0.11351938182E+02 -0.24592245279E+02  0.10341194898E+03  0.00000000000E+00 0. -1.
          1    1    1    2  502    0 -0.35969563326E+01  0.62757580505E+02  0.87440422226E+03  0.87666082148E+03  0.00000000000E+00 0. -1.
         22    1    3    3    0    0  0.65298649450E+02 -0.62915702444E+02  0.79230930527E+02  0.12041527970E+03  0.00000000000E+00 0.  1.
         22    1    3    3    0    0  0.38100041149E+02  0.11510060120E+02  0.22220339763E+03  0.22573977172E+03  0.00000000000E+00 0.  1.
</event>
<event>
 7    1  0.5779468E-006  0.5937985E+02  0.7818608E-02  0.1528677E+00
          2   -1    0    0  502    0  0.00000000000E+00  0.00000000000E+00  0.78348598892E+03  0.78348598892E+03  0.00000000000E+00 0. -1.
          1   -1    0    0  501    0 -0.00000000000E+00 -0.00000000000E+00 -0.41251112239E+03  0.41251112239E+03  0.00000000000E+00 0. -1.
         25    2    1    2    0    0 -0.31086803040E+02  0.74498347079E+02 -0.68107588642E+02  0.16365109562E+03  0.12500657753E+03 0.  0.
          2    1    1    2  501    0  0.15871215982E+02 -0.17320158535E+02 -0.29497441318E+03  0.29590841120E+03  0.00000000000E+00 0. -1.
          1    1    1    2  502    0  0.15215587058E+02 -0.57178188544E+02  0.73405686835E+03  0.73643760449E+03  0.00000000000E+00 0. -1.
         22    1    3    3    0    0  0.34050858898E+02  0.70336733285E+02 -0.58633790213E+02  0.97696665223E+02  0.00000000000E+00 0. -1.
         22    1    3    3    0    0 -0.65137661937E+02  0.41616137936E+01 -0.94737984284E+01  0.65954430395E+02  0.00000000000E+00 0. -1.
</event>
<event>
 7    1  0.5779468E-006  0.1942867E+03  0.7818608E-02  0.1287447E+00
          2   -1    0    0  502    0  0.00000000000E+00  0.00000000000E+00  0.17204325901E+04  0.17204325901E+04  0.00000000000E+00 0. -1.
          1   -1    0    0  501    0 -0.00000000000E+00 -0.00000000000E+00 -0.42121330112E+03  0.42121330112E+03  0.00000000000E+00 0. -1.
         25    2    1    2    0    0 -0.15603730011E+03  0.18777310268E+02  0.95547151021E+03  0.97634425453E+03  0.12498827994E+03 0.  0.
          2    1    1    2  501    0  0.18720019700E+03 -0.55423254365E+02 -0.38674378212E+03  0.43322788910E+03  0.00000000000E+00 0. -1.
          1    1    1    2  502    0 -0.31162896891E+02  0.36645944097E+02  0.73049156090E+03  0.73207374759E+03  0.00000000000E+00 0. -1.
         22    1    3    3    0    0 -0.83931753682E+02  0.69788557061E+02  0.43850718019E+03  0.45188884590E+03  0.00000000000E+00 0.  1.
         22    1    3    3    0    0 -0.72105546428E+02 -0.51011246793E+02  0.51696433002E+03  0.52445540863E+03  0.00000000000E+00 0.  1.
</event>
<event>
 7    1  0.5779468E-006  0.6822085E+02  0.7818608E-02  0.1491254E+00
          2   -1    0    0  502    0  0.00000000000E+00  0.00000000000E+00  0.26616893816E+03  0.26616893816E+03  0.00000000000E+00 0. -1.
          1   -1    0    0  501    0 -0.00000000000E+00 -0.00000000000E+00 -0.43951707956E+03  0.43951707956E+03  0.00000000000E+00 0. -1.
         25    2    1    2    0    0  0.10441575455E+02 -0.43218343702E+02 -0.14686235789E+02  0.13348016561E+03  0.12499766942E+03 0.  0.
          2    1    1    2  501    0 -0.12152279576E+01 -0.26324711508E+02 -0.35898673880E+03  0.35995269946E+03  0.00000000000E+00 0. -1.
          1    1    1    2  502    0 -0.92263474977E+01  0.69543055210E+02  0.20032483319E+03  0.21225315265E+03  0.00000000000E+00 0. -1.
         22    1    3    3    0    0  0.14272009722E+01 -0.66020022469E+02  0.37414682987E+02  0.75898213236E+02  0.00000000000E+00 0. -1.
         22    1    3    3    0    0  0.90143744831E+01  0.22801678767E+02 -0.52100918777E+02  0.57581952375E+02  0.00000000000E+00 0. -1.
</event>
<event>
 7    1  0.5779468E-006  0.8231724E+02  0.7818608E-02  0.1357673E+00
          2   -1    0    0  502    0  0.00000000000E+00  0.00000000000E+00  0.25106549631E+04  0.25106549631E+04  0.00000000000E+00 0. -1.
          1   -1    0    0  501    0 -0.00000000000E+00 -0.00000000000E+00 -0.59195385147E+02  0.59195385147E+02  0.00000000000E+00 0. -1.
         25    2    1    2    0    0 -0.14505401118E+02 -0.54138382116E+02  0.10772255341E+03  0.17427049057E+03  0.12499873715E+03 0.  0.
          2    1    1    2  501    0  0.69456739322E+02  0.80042420235E+02  0.84538554085E+02  0.13556472550E+03  0.00000000000E+00 0. -1.
          1    1    1    2  502    0 -0.54951338204E+02 -0.25904038119E+02  0.22591984705E+04  0.22600151322E+04  0.00000000000E+00 0. -1.
         22    1    3    3    0    0  0.46536751353E+02 -0.10429943170E+02  0.82090542246E+02  0.94938454102E+02  0.00000000000E+00 0. -1.
         22    1    3    3    0    0 -0.61042152470E+02 -0.43708438946E+02  0.25632011169E+02  0.79332036466E+02  0.00000000000E+00 0. -1.
</event>
<event>
 7    1  0.5779468E-006  0.1289212E+03  0.7818608E-02  0.1432077E+00
          2   -1    0    0  502    0  0.00000000000E+00  0.00000000000E+00  0.17593708444E+03  0.17593708444E+03  0.00000000000E+00 0. -1.
          1   -1    0    0  501    0 -0.00000000000E+00 -0.00000000000E+00 -0.31310657782E+03  0.31310657782E+03  0.00000000000E+00 0. -1.
         25    2    1    2    0    0 -0.61374936811E+02  0.11213781445E+03 -0.72351187433E+02  0.19287616077E+03  0.12499898709E+03 0.  0.
          2    1    1    2  501    0 -0.18779390369E+02 -0.10295163676E+02 -0.14314307151E+03  0.14473629406E+03  0.00000000000E+00 0. -1.
          1    1    1    2  502    0  0.80154327180E+02 -0.10184265077E+03  0.78324765568E+02  0.15143120743E+03  0.00000000000E+00 0. -1.
         22    1    3    3    0    0 -0.77197296797E+02  0.12584652739E+03 -0.37671913847E+02  0.15236779247E+03  0.00000000000E+00 0.  1.
         22    1    3    3    0    0  0.15822359987E+02 -0.13708712940E+02 -0.34679273586E+02  0.40508368302E+02  0.00000000000E+00 0.  1.
</event>
<event>
 7    1  0.5779468E-006  0.6262824E+02  0.7818608E-02  0.1405687E+00
          2   -1    0    0  502    0  0.00000000000E+00  0.00000000000E+00  0.81104816685E+02  0.81104816685E+02  0.00000000000E+00 0. -1.
          1   -1    0    0  501    0 -0.00000000000E+00 -0.00000000000E+00 -0.67208454085E+03  0.67208454085E+03  0.00000000000E+00 0. -1.
         25    2    1    2    0    0  0.48767659248E+01 -0.14873946924E+02 -0.18013770120E+03  0.21981701557E+03  0.12499964719E+03 0.  0.
          2    1    1    2  501    0 -0.15186905218E+01  0.68793916563E+02 -0.45709960445E+03  0.46224988671E+03  0.00000000000E+00 0. -1.
          1    1    1    2  502    0 -0.33580754030E+01 -0.53919969639E+02  0.46257581486E+02  0.71122455253E+02  0.00000000000E+00 0. -1.
         22    1    3    3    0    0  0.14909278641E+02 -0.58418895511E+02 -0.39076695704E+02  0.71847352696E+02  0.00000000000E+00 0.  1.
         22    1    3    3    0    0 -0.10032512716E+02  0.43544948588E+02 -0.14106100550E+03  0.14796966287E+03  0.00000000000E+00 0.  1.
</event>
<event>
 7    1  0.5779468E-006  0.1928564E+03  0.7818608E-02  0.1388636E+00
          2   -1    0    0  502    0  0.00000000000E+00  0.00000000000E+00  0.53252005810E+03  0.53252005810E+03  0.00000000000E+00 0. -1.
          1   -1    0    0  501    0 -0.00000000000E+00 -0.00000000000E+00 -0.50457423335E+03  0.50457423335E+03  0.00000000000E+00 0. -1.
         25    2    1    2    0    0  0.18514158598E+03  0.88303497223E+02  0.85630405010E+01  0.24036026948E+03  0.12499927599E+03 0.  0.
          2    1    1    2  501    0 -0.19297142904E+02  0.55923568016E+01 -0.36613296373E+03  0.36668378926E+03  0.00000000000E+00 0. -1.
          1    1    1    2  502    0 -0.16584444308E+03 -0.93895854024E+02  0.38551574798E+03  0.43005023270E+03  0.00000000000E+00 0. -1.
         22    1    3    3    0    0  0.13793081292E+03  0.76128423050E+02 -0.48938681392E+02  0.16497102923E+03  0.00000000000E+00 0. -1.
         22    1    3    3    0    0  0.47210773063E+02  0.12175074173E+02  0.57501721893E+02  0.75389240247E+02  0.00000000000E+00 0. -1.
</event>
<event>
 7    1  0.5779468E-006  0.1157551E+03  0.7818608E-02  0.1262273E+00
          2   -1    0    0  502    0  0.00000000000E+00  0.00000000000E+00  0.23116931961E+03  0.23116931961E+03  0.00000000000E+00 0. -1.
          1   -1    0    0  501    0 -0.00000000000E+00 -0.00000000000E+00 -0.12102043851E+04  0.12102043851E+04  0.00000000000E+00 0. -1.
         25    2    1    2    0    0 -0.44757861753E+02  0.59224825628E+02  0.67473281324E+02  0.16027577463E+03  0.12499933633E+03 0.  0.
          2    1    1    2  501    0  0.11701264072E+03  0.13898336221E+02 -0.11376361181E+04  0.11437224572E+04  0.00000000000E+00 0. -1.
          1    1    1    2  502    0 -0.72254778969E+02 -0.73123161849E+02  0.91127771228E+02  0.13737547296E+03  0.00000000000E+00 0. -1.
         22    1    3    3    0    0  0.39136303248E+02  0.39338474496E+02  0.92928369831E+01  0.56262977408E+02  0.00000000000E+00 0. -1.
         22    1    3    3    0    0 -0.83894165001E+02  0.19886351132E+02  0.58180444341E+02  0.10401279722E+03  0.00000000000E+00 0. -1.
</event>
<event>
 7    1  0.5779468E-006  0.1021950E+03  0.7818608E-02  0.1402558E+00
          2   -1    0    0  502    0  0.00000000000E+00  0.00000000000E+00  0.65564623017E+03  0.65564623017E+03  0.00000000000E+00 0. -1.
          1   -1    0    0  501    0 -0.00000000000E+00 -0.00000000000E+00 -0.12121251304E+04  0.12121251304E+04  0.00000000000E+00 0. -1.
         25    2    1    2    0    0 -0.71186874857E+02 -0.17477174532E+02  0.58030707195E+02  0.15609561885E+03  0.12500102585E+03 0.  0.
          2    1    1    2  501    0 -0.33409263875E+02  0.59407185137E+01 -0.11577954224E+04  0.11582925845E+04  0.00000000000E+00 0. -1.
          1    1    1    2  502    0  0.10459613873E+03  0.11536456018E+02  0.54328581495E+03  0.55338315730E+03  0.00000000000E+00 0. -1.
         22    1    3    3    0    0 -0.42671701202E+02 -0.15847965531E+02  0.97368064968E+02  0.10748289246E+03  0.00000000000E+00 0. -1.
         22    1    3    3    0    0 -0.28515173654E+02 -0.16292090004E+01 -0.39337357773E+02  0.48612726390E+02  0.00000000000E+00 0. -1.
</event>
<event>
 7    1  0.5779468E-006  0.1386485E+03  0.7818608E-02  0.1224572E+00
          2   -1    0    0  502    0  0.00000000000E+00  0.00000000000E+00  0.73898792985E+03  0.73898792985E+03  0.00000000000E+00 0. -1.
          1   -1    0    0  501    0 -0.00000000000E+00 -0.00000000000E+00 -0.22036518760E+03  0.22036518760E+03  0.00000000000E+00 0. -1.
         25    2    1    2    0    0  0.64106661049E+02  0.13666573898E+03  0.44491210156E+03  0.48615590444E+03  0.12495438010E+03 0.  0.
          2    1    1    2  501    0  0.83342687436E+02 -0.93964749821E+02 -0.15390748329E+03  0.19865268982E+03  0.00000000000E+00 0. -1.
          1    1    1    2  502    0 -0.14744934848E+03 -0.42700989163E+02  0.22761812399E+03  0.27454452319E+03  0.00000000000E+00 0. -1.
         22    1    3    3    0    0 -0.31197514862E+02  0.60196369917E+02  0.10538737668E+03  0.12531315593E+03  0.00000000000E+00 0. -1.
         22    1    3    3    0    0  0.95304175911E+02  0.76469369068E+02  0.33952472487E+03  0.36084274851E+03  0.00000000000E+00 0. -1.
</event>
<event>
 7    1  0.5779468E-006  0.4565106E+02  0.7818608E-02  0.1478923E+00
          2   -1    0    0  502    0  0.00000000000E+00  0.00000000000E+00  0.84241008655E+02  0.84241008655E+02  0.00000000000E+00 0. -1.
          1   -1    0    0  501    0 -0.00000000000E+00 -0.00000000000E+00 -0.80290579930E+03  0.80290579930E+03  0.00000000000E+00 0. -1.
         25    2    1    2    0    0  0.77467091230E+01 -0.19453690028E+02 -0.11940019116E+03  0.17412190092E+03  0.12499429256E+03 0.  0.
          2    1    1    2  501    0  0.40226815300E+02  0.15019601721E+02 -0.64509956488E+03  0.64652705567E+03  0.00000000000E+00 0. -1.
          1    1    1    2  502    0 -0.47973524422E+02  0.44340883073E+01  0.45834965392E+02  0.66497851372E+02  0.00000000000E+00 0. -1.
         22    1    3    3    0    0  0.54994496997E+02 -0.46720952462E+02 -0.66336138399E+02  0.98019005078E+02  0.00000000000E+00 0.  1.
         22    1    3    3    0    0 -0.47247787874E+02  0.27267262434E+02 -0.53064052762E+02  0.76102895839E+02  0.00000000000E+00 0.  1.
</event>
<event>
 7    1  0.5779468E-006  0.1043570E+03  0.7818608E-02  0.1450730E+00
          2   -1    0    0  502    0  0.00000000000E+00  0.00000000000E+00  0.23927239995E+03  0.23927239995E+03  0.00000000000E+00 0. -1.
          1   -1    0    0  501    0 -0.00000000000E+00 -0.00000000000E+00 -0.70295673286E+03  0.70295673286E+03  0.00000000000E+00 0. -1.
         25    2    1    2    0    0 -0.85706605922E+02 -0.73973476415E+01 -0.46452935618E+02  0.15868987839E+03  0.12499703687E+03 0.  0.
          2    1    1    2  501    0 -0.19781254518E+02 -0.11776492533E+02 -0.58444847552E+03  0.58490170485E+03  0.00000000000E+00 0. -1.
          1    1    1    2  502    0  0.10548786044E+03  0.19173840175E+02  0.16721707822E+03  0.19863754956E+03  0.00000000000E+00 0. -1.
         22    1    3    3    0    0 -0.81664356363E+02 -0.16720864071E+02 -0.84864717651E+02  0.11895660846E+03  0.00000000000E+00 0.  1.
         22    1    3    3    0    0 -0.40422495590E+01  0.93235164291E+01  0.38411782033E+02  0.39733269926E+02  0.00000000000E+00 0.  1.
</event>
<event>
 7    1  0.5779468E-006  0.7896820E+02  0.7818608E-02  0.1501462E+00
          2   -1    0    0  502    0  0.00000000000E+00  0.00000000000E+00  0.29315700904E+03  0.29315700904E+03  0.00000000000E+00 0. -1.
          1   -1    0    0  501    0 -0.00000000000E+00 -0.00000000000E+00 -0.12496002901E+04  0.12496002901E+04  0.00000000000E+00 0. -1.
         25    2    1    2    0    0 -0.32754283151E+02  0.77174789230E+02 -0.12639466945E+03  0.19654195756E+03  0.12499734980E+03 0.  0.
          2    1    1    2  501    0 -0.15344660825E+02 -0.14652266479E+02 -0.10819978697E+04  0.10822058665E+04  0.00000000000E+00 0. -1.
          1    1    1    2  502    0  0.48098943976E+02 -0.62522522751E+02  0.25194925809E+03  0.26400947505E+03  0.00000000000E+00 0. -1.
         22    1    3    3    0    0 -0.10217809701E+02  0.33127751864E+02  0.21362335275E+02  0.40721013581E+02  0.00000000000E+00 0. -1.
         22    1    3    3    0    0 -0.22536473449E+02  0.44047037366E+02 -0.14775700472E+03  0.15582094398E+03  0.00000000000E+00 0. -1.
</event>
<event>
 7    1  0.5779468E-006  0.4492955E+02  0.7818608E-02  0.1542390E+00
          2   -1    0    0  502    0  0.00000000000E+00  0.00000000000E+00  0.73399258954E+02  0.73399258954E+02  0.00000000000E+00 0. -1.
          1   -1    0    0  501    0 -0.00000000000E+00 -0.00000000000E+00 -0.14059599287E+04  0.14059599287E+04  0.00000000000E+00 0. -1.
         25    2    1    2    0    0  0.60260743942E+02 -0.40068374466E+02 -0.18455750911E+03  0.23435792498E+03  0.12500132375E+03 0.  0.
          2    1    1    2  501    0 -0.39161385941E+02  0.21086475479E+02 -0.11918994817E+04  0.11927290674E+04  0.00000000000E+00 0. -1.
          1    1    1    2  502    0 -0.21099358001E+02  0.18981898987E+02  0.43896321091E+02  0.52272195310E+02  0.00000000000E+00 0. -1.
         22    1    3    3    0    0  0.11740297332E+02 -0.58460583424E+02 -0.21732583202E+02  0.63464789989E+02  0.00000000000E+00 0.  1.
         22    1    3    3    0    0  0.48520446610E+02  0.18392208958E+02 -0.16282492591E+03  0.17089313499E+03  0.00000000000E+00 0.  1.
</event>
<event>
 7    1  0.5779468E-006  0.1008958E+03  0.7818608E-02  0.1337500E+00
          2   -1    0    0  502    0  0.00000000000E+00  0.00000000000E+00  0.11483129525E+04  0.11483129525E+04  0.00000000000E+00 0. -1.
          1   -1    0    0  501    0 -0.00000000000E+00 -0.00000000000E+00 -0.13720244702E+04  0.13720244702E+04  0.00000000000E+00 0. -1.
         25    2    1    2    0    0  0.20933689132E+02 -0.59857132393E+02  0.68964160400E+03  0.70373882244E+03  0.12498676970E+03 0.  0.
          2    1    1    2  501    0 -0.79807230958E+02  0.61940438607E+02 -0.13611748992E+04  0.13649186489E+04  0.00000000000E+00 0. -1.
          1    1    1    2  502    0  0.58873541826E+02 -0.20833062143E+01  0.44782177747E+03  0.45167995137E+03  0.00000000000E+00 0. -1.
         22    1    3    3    0    0 -0.47335201023E+02 -0.30029346956E+02  0.17570748506E+03  0.18443292342E+03  0.00000000000E+00 0.  1.
         22    1    3    3    0    0  0.68268890155E+02 -0.29827785437E+02  0.51393411894E+03  0.51930589902E+03  0.00000000000E+00 0.  1.
</event>
<event>
 7    1  0.5779468E-006  0.2288862E+03  0.7818608E-02  0.1151774E+00
          2   -1    0    0  502    0  0.00000000000E+00  0.00000000000E+00  0.30227582976E+04  0.30227582976E+04  0.00000000000E+00 0. -1.
          1   -1    0    0  501    0 -0.00000000000E+00 -0.00000000000E+00 -0.23829614091E+04  0.23829614091E+04  0.00000000000E+00 0. -1.
         25    2    1    2    0    0 -0.29369000551E+03  0.18105955135E+02 -0.55699818307E+03  0.64222562258E+03  0.12500051765E+03 0.  0.
          2    1    1    2  501    0  0.19171829577E+03  0.11866666439E+03 -0.17737655637E+04  0.17880385782E+04  0.00000000000E+00 0. -1.
          1    1    1    2  502    0  0.10197170974E+03 -0.13677261953E+03  0.29705606353E+04  0.29754555058E+04  0.00000000000E+00 0. -1.
         22    1    3    3    0    0 -0.25163507980E+03  0.60892238576E+02 -0.46917486787E+03  0.53586671360E+03  0.00000000000E+00 0. -1.
         22    1    3    3    0    0 -0.42054925709E+02 -0.42786283441E+02 -0.87823315196E+02  0.10635890898E+03  0.00000000000E+00 0. -1.
</event>
<event>
 7    1  0.5779468E-006  0.6872457E+02  0.7818608E-02  0.1364896E+00
          2   -1    0    0  502    0  0.00000000000E+00  0.00000000000E+00  0.14296055892E+04  0.14296055892E+04  0.00000000000E+00 0. -1.
          1   -1    0    0  501    0 -0.00000000000E+00 -0.00000000000E+00 -0.31725337718E+02  0.31725337718E+02  0.00000000000E+00 0. -1.
         25    2    1    2    0    0 -0.22955456835E+02 -0.43805980823E+02  0.10405200134E+04  0.10491677919E+04  0.12500096072E+03 0.  0.
          2    1    1    2  501    0 -0.43311078110E+02 -0.53359325102E+02  0.55951001131E+02  0.88620435510E+02  0.00000000000E+00 0. -1.
          1    1    1    2  502    0  0.66266534945E+02  0.97165305926E+02  0.30140923695E+03  0.32354269958E+03  0.00000000000E+00 0. -1.
         22    1    3    3    0    0  0.32074875503E+02  0.15036162341E+02  0.11974603518E+03  0.12487592545E+03  0.00000000000E+00 0.  1.
         22    1    3    3    0    0 -0.55030332338E+02 -0.58842143165E+02  0.92077397825E+03  0.92429186641E+03  0.00000000000E+00 0.  1.
</event>
<event>
 7    1  0.5779468E-006  0.6630857E+02  0.7818608E-02  0.1382660E+00
          2   -1    0    0  502    0  0.00000000000E+00  0.00000000000E+00  0.16116343556E+04  0.16116343556E+04  0.00000000000E+00 0. -1.
          1   -1    0    0  501    0 -0.00000000000E+00 -0.00000000000E+00 -0.88914612341E+03  0.88914612341E+03  0.00000000000E+00 0. -1.
         25    2    1    2    0    0 -0.21574342206E+02  0.82008080518E+02  0.40219748979E+03  0.42963145362E+03  0.12501834921E+03 0.  0.
          2    1    1    2  501    0  0.57807281937E+02 -0.32527446087E+02 -0.87338435741E+03  0.87589951042E+03  0.00000000000E+00 0. -1.
          1    1    1    2  502    0 -0.36232939731E+02 -0.49480634431E+02  0.11936750998E+04  0.11952495150E+04  0.00000000000E+00 0. -1.
         22    1    3    3    0    0  0.51729795717E+02  0.35761117817E+02  0.13989680975E+03  0.15338170259E+03  0.00000000000E+00 0. -1.
         22    1    3    3    0    0 -0.73304137922E+02  0.46246962701E+02  0.26230068004E+03  0.27624975103E+03  0.00000000000E+00 0. -1.
</event>
<event>
 7    1  0.5779468E-006  0.1097500E+03  0.7818608E-02  0.1364554E+00
          2   -1    0    0  502    0  0.00000000000E+00  0.00000000000E+00  0.63019478137E+03  0.63019478137E+03  0.00000000000E+00 0. -1.
          1   -1    0    0  501    0 -0.00000000000E+00 -0.00000000000E+00 -0.89666150317E+03  0.89666150317E+03  0.00000000000E+00 0. -1.
         25    2    1    2    0    0 -0.51725264675E+02  0.44153454413E+02 -0.29322363130E+03  0.32592983797E+03  0.12500052315E+03 0.  0.
          2    1    1    2  501    0 -0.26091943154E+02  0.34191742766E+02 -0.58131781506E+03  0.58290673943E+03  0.00000000000E+00 0. -1.
          1    1    1    2  502    0  0.77817207828E+02 -0.78345197179E+02  0.60807472456E+03  0.61801970713E+03  0.00000000000E+00 0. -1.
         22    1    3    3    0    0 -0.27322120069E+02  0.60010339398E+01 -0.27609687920E+03  0.27751035541E+03  0.00000000000E+00 0. -1.
         22    1    3    3    0    0 -0.24403144606E+02  0.38152420473E+02 -0.17126752099E+02  0.48419482567E+02  0.00000000000E+00 0. -1.
</event>
<event>
 7    1  0.5779468E-006  0.5788338E+02  0.7818608E-02  0.1438310E+00
          2   -1    0    0  502    0  0.00000000000E+00  0.00000000000E+00  0.61719390223E+03  0.61719390223E+03  0.00000000000E+00 0. -1.
          1   -1    0    0  501    0 -0.00000000000E+00 -0.00000000000E+00 -0.75481081456E+03  0.75481081456E+03  0.00000000000E+00 0. -1.
         25    2    1    2    0    0  0.27285547588E+02  0.98427293682E+02  0.21811509624E+03  0.27135253636E+03  0.12500228210E+03 0.  0.
          2    1    1    2  501    0 -0.22326807768E+02 -0.53183879550E+02 -0.72565294610E+03  0.72794176249E+03  0.00000000000E+00 0. -1.
          1    1    1    2  502    0 -0.49587398198E+01 -0.45243414132E+02  0.36992093752E+03  0.37271041794E+03  0.00000000000E+00 0. -1.
         22    1    3    3    0    0  0.53322187302E+02  0.21650588263E+02  0.26630493854E+02  0.63412828621E+02  0.00000000000E+00 0.  1.
         22    1    3    3    0    0 -0.26036639714E+02  0.76776705419E+02  0.19148460239E+03  0.20793970774E+03  0.00000000000E+00 0.  1.
</event>
<event>
 7    1  0.5779468E-006  0.9765606E+02  0.7818608E-02  0.1329376E+00
          2   -1    0    0  502    0  0.00000000000E+00  0.00000000000E+00  0.86779952069E+03  0.86779952069E+03  0.00000000000E+00 0. -1.
          1   -1    0    0  501    0 -0.00000000000E+00 -0.00000000000E+00 -0.35897915113E+02  0.35897915113E+02  0.00000000000E+00 0. -1.
         25    2    1    2    0    0 -0.79097365035E+01  0.30378071452E+02  0.23021586244E+03  0.26384334535E+03  0.12501430482E+03 0.  0.
          2    1    1    2  501    0  0.96621607590E+02 -0.71205877199E+02  0.33404870089E+03  0.35495710525E+03  0.00000000000E+00 0. -1.
          1    1    1    2  502    0 -0.88711871086E+02  0.40827805747E+02  0.26763704225E+03  0.28489698521E+03  0.00000000000E+00 0. -1.
         22    1    3    3    0    0 -0.49730967920E+02  0.18626497960E+02  0.20872975007E+03  0.21537925657E+03  0.00000000000E+00 0.  1.
         22    1    3    3    0    0  0.41821231416E+02  0.11751573492E+02  0.21486112370E+02  0.48464088782E+02  0.00000000000E+00 0.  1.
</event>
<event>
 7    1  0.1378051E-005  0.6820076E+02  0.7818608E-02  0.1386944E+00
          2   -1    0    0  502    0  0.00000000000E+00  0.00000000000E+00  0.26845545023E+04  0.26845545023E+04  0.00000000000E+00 0. -1.
          1   -1    0    0  501    0 -0.00000000000E+00 -0.00000000000E+00 -0.11422691102E+04  0.11422691102E+04  0.00000000000E+00 0. -1.
         25    2    1    2    0    0  0.16118823342E+01 -0.58588687418E+02 -0.32771180908E+03  0.35560454715E+03  0.12499732673E+03 0.  0.
          2    1    1    2  501    0  0.54237924319E+02  0.19372311171E+02 -0.79913845355E+03  0.80121114995E+03  0.00000000000E+00 0. -1.
          1    1    1    2  502    0 -0.55849806653E+02  0.39216376247E+02  0.26691356547E+04  0.26700079154E+04  0.00000000000E+00 0. -1.
         22    1    3    3    0    0  0.45867777509E+02 -0.19438915090E+02 -0.46145652814E+02  0.67905417362E+02  0.00000000000E+00 0. -1.
         22    1    3    3    0    0 -0.44255895175E+02 -0.39149772329E+02 -0.28156615626E+03  0.28769912979E+03  0.00000000000E+00 0. -1.
</event>
<event>
 7    1  0.5779468E-006  0.7175245E+02  0.7818608E-02  0.1381685E+00
          2   -1    0    0  502    0  0.00000000000E+00  0.00000000000E+00  0.84903283211E+02  0.84903283211E+02  0.00000000000E+00 0. -1.
          1   -1    0    0  501    0 -0.00000000000E+00 -0.00000000000E+00 -0.61300884903E+03  0.61300884903E+03  0.00000000000E+00 0. -1.
         25    2    1    2    0    0 -0.65242269662E+02 -0.31965308498E+02 -0.20805264852E+03  0.25335705138E+03  0.12500222491E+03 0.  0.
          2    1    1    2  501    0 -0.40485018506E+01  0.56982308487E+02 -0.35741656566E+03  0.36195300145E+03  0.00000000000E+00 0. -1.
          1    1    1    2  502    0  0.69290771513E+02 -0.25016999989E+02  0.37363648355E+02  0.82602079415E+02  0.00000000000E+00 0. -1.
         22    1    3    3    0    0  0.72190557117E+01 -0.46209126411E+02 -0.19160257161E+02  0.50542196070E+02  0.00000000000E+00 0. -1.
         22    1    3    3    0    0 -0.72461325374E+02  0.14243817913E+02 -0.18889239135E+03  0.20281485531E+03  0.00000000000E+00 0. -1.
</event>
<event>
 7    1  0.5779468E-006  0.5062111E+02  0.7818608E-02  0.1500356E+00
          2   -1    0    0  502    0  0.00000000000E+00  0.00000000000E+00  0.25914743896E+02  0.25914743896E+02  0.00000000000E+00 0. -1.
          1   -1    0    0  501    0 -0.00000000000E+00 -0.00000000000E+00 -0.17233333181E+04  0.17233333181E+04  0.00000000000E+00 0. -1.
         25    2    1    2    0    0  0.99818092734E+00 -0.47764007331E+02 -0.86099440057E+03  0.87132759518E+03  0.12497209102E+03 0.  0.
          2    1    1    2  501    0 -0.33531340160E+02  0.40428998852E+02 -0.84240306567E+03  0.84403896816E+03  0.00000000000E+00 0. -1.
          1    1    1    2  502    0  0.32533159232E+02  0.73350084782E+01  0.59788920712E+01  0.33881498630E+02  0.00000000000E+00 0. -1.
         22    1    3    3    0    0  0.17996057342E+01  0.42993182995E+02 -0.27543296663E+03  0.27877405092E+03  0.00000000000E+00 0. -1.
         22    1    3    3    0    0 -0.80142480688E+00 -0.90757190326E+02 -0.58556143395E+03  0.59255354425E+03  0.00000000000E+00 0. -1.
</event>
<event>
 7    1  0.5779468E-006  0.2974587E+02  0.7818608E-02  0.1658497E+00
          2   -1    0    0  502    0  0.00000000000E+00  0.00000000000E+00  0.29976134905E+04  0.29976134905E+04  0.00000000000E+00 0. -1.
          1   -1    0    0  501    0 -0.00000000000E+00 -0.00000000000E+00 -0.65553073652E+01  0.65553073652E+01  0.00000000000E+00 0. -1.
         25    2    1    2    0    0  0.13778589645E+02  0.31945492674E+02  0.20395066845E+04  0.20436298298E+04  0.12500000457E+03 0.  0.
          2    1    1    2  501    0  0.12335073245E+02 -0.17373418372E+02  0.22432170838E+02  0.30938519461E+02  0.00000000000E+00 0. -1.
          1    1    1    2  502    0 -0.26113662890E+02 -0.14572074303E+02  0.92911932780E+03  0.92960044860E+03  0.00000000000E+00 0. -1.
         22    1    3    3    0    0 -0.10564552775E+02  0.11190329715E+02  0.28674558415E+02  0.32543256671E+02  0.00000000000E+00 0. -1.
         22    1    3    3    0    0  0.24343142419E+02  0.20755162959E+02  0.20108321261E+04  0.20110865731E+04  0.00000000000E+00 0. -1.
</event>
<event>
 7    1  0.5779468E-006  0.9197913E+02  0.7818608E-02  0.1309566E+00
          2   -1    0    0  502    0  0.00000000000E+00  0.00000000000E+00  0.64218189663E+03  0.64218189663E+03  0.00000000000E+00 0. -1.
          1   -1    0    0  501    0 -0.00000000000E+00 -0.00000000000E+00 -0.14601346806E+04  0.14601346806E+04  0.00000000000E+00 0. -1.
         25    2    1    2    0    0 -0.44169138239E+02 -0.95344189578E+02  0.16780299150E+03  0.23414753454E+03  0.12500318682E+03 0.  0.
          2    1    1    2  501    0 -0.37879110549E+02  0.84004290447E+02 -0.14215700910E+04  0.14245536393E+04  0.00000000000E+00 0. -1.
          1    1    1    2  502    0  0.82048248788E+02  0.11339899131E+02  0.43581431552E+03  0.44361540331E+03  0.00000000000E+00 0. -1.
         22    1    3    3    0    0 -0.47741894807E+02 -0.39268836836E+02  0.51133672772E+01  0.62028030689E+02  0.00000000000E+00 0. -1.
         22    1    3    3    0    0  0.35727565679E+01 -0.56075352742E+02  0.16268962423E+03  0.17211950385E+03  0.00000000000E+00 0. -1.
</event>
<event>
 7    1  0.5779468E-006  0.3918718E+02  0.7818608E-02  0.1594268E+00
          2   -1    0    0  502    0  0.00000000000E+00  0.00000000000E+00  0.31478384745E+03  0.31478384745E+03  0.00000000000E+00 0. -1.
          1   -1    0    0  501    0 -0.00000000000E+00 -0.00000000000E+00 -0.14100401580E+03  0.14100401580E+03  0.00000000000E+00 0. -1.
         25    2    1    2    0    0  0.12088682524E+02  0.13049985968E+02 -0.45605427966E+01  0.12634313507E+03  0.12500140339E+03 0.  0.
          2    1    1    2  501    0 -0.30447458429E+02 -0.27725385799E+02 -0.69343052322E+02  0.80648643187E+02  0.00000000000E+00 0. -1.
          1    1    1    2  502    0  0.18358775905E+02  0.14675399831E+02  0.24768342677E+03  0.24879608500E+03  0.00000000000E+00 0. -1.
         22    1    3    3    0    0 -0.52741861164E+02  0.19557716393E+02 -0.19428476365E+02  0.59511964204E+02  0.00000000000E+00 0. -1.
         22    1    3    3    0    0  0.64830543689E+02 -0.65077304253E+01  0.14867933569E+02  0.66831170863E+02  0.00000000000E+00 0. -1.
</event>
<event>
 7    1  0.5779468E-006  0.1695668E+03  0.7818608E-02  0.1286371E+00
          2   -1    0    0  502    0  0.00000000000E+00  0.00000000000E+00  0.42683511172E+03  0.42683511172E+03  0.00000000000E+00 0. -1.
          1   -1    0    0  501    0 -0.00000000000E+00 -0.00000000000E+00 -0.61818819345E+03  0.61818819345E+03  0.00000000000E+00 0. -1.
         25    2    1    2    0    0  0.20725083851E+03 -0.56022235398E+02 -0.52438633623E+02  0.25390470727E+03  0.12500555651E+03 0.  0.
          2    1    1    2  501    0 -0.55442464746E+02 -0.51208798121E+01 -0.44262838010E+03  0.44611654663E+03  0.00000000000E+00 0. -1.
          1    1    1    2  502    0 -0.15180837376E+03  0.61143115210E+02  0.30371393200E+03  0.34500205126E+03  0.00000000000E+00 0. -1.
         22    1    3    3    0    0  0.11038042575E+03 -0.26508840111E+02 -0.91054937828E+02  0.14552511362E+03  0.00000000000E+00 0. -1.
         22    1    3    3    0    0  0.96870412761E+02 -0.29513395287E+02  0.38616304205E+02  0.10837959365E+03  0.00000000000E+00 0. -1.
</event>
<event>
 7    1  0.5779468E-006  0.1138722E+03  0.7818608E-02  0.1325209E+00
          2   -1    0    0  502    0  0.00000000000E+00  0.00000000000E+00  0.41985020752E+03  0.41985020752E+03  0.00000000000E+00 0. -1.
          1   -1    0    0  501    0 -0.00000000000E+00 -0.00000000000E+00 -0.16420444953E+03  0.16420444953E+03  0.00000000000E+00 0. -1.
         25    2    1    2    0    0  0.15514446853E+03  0.58865259172E+02  0.19271228938E+03  0.28337196960E+03  0.12500688711E+03 0.  0.
          2    1    1    2  501    0 -0.98978302058E+02 -0.43827393711E+02 -0.87636792301E+02  0.13927581298E+03  0.00000000000E+00 0. -1.
          1    1    1    2  502    0 -0.56166166470E+02 -0.15037865461E+02  0.15057026091E+03  0.16140687446E+03  0.00000000000E+00 0. -1.
         22    1    3    3    0    0  0.27523237514E+02  0.58235189031E+02  0.17756103779E+02  0.66814257955E+02  0.00000000000E+00 0.  1.
         22    1    3    3    0    0  0.12762123101E+03  0.63007014115E+00  0.17495618560E+03  0.21655771165E+03  0.00000000000E+00 0.  1.
</event>
<event>
 7    1  0.5779468E-006  0.1264467E+03  0.7818608E-02  0.1306280E+00
          2   -1    0    0  502    0  0.00000000000E+00  0.00000000000E+00  0.20530312359E+03  0.20530312359E+03  0.00000000000E+00 0. -1.
          1   -1    0    0  501    0 -0.00000000000E+00 -0.00000000000E+00 -0.25878936743E+04  0.25878936743E+04  0.00000000000E+00 0. -1.
         25    2    1    2    0    0  0.17888294866E+03 -0.30034512532E+02 -0.37045360365E+03  0.43100238717E+03  0.12500401603E+03 0.  0.
          2    1    1    2  501    0 -0.11733715352E+03  0.38159303659E+02 -0.21798609924E+04  0.21833501978E+04  0.00000000000E+00 0. -1.
          1    1    1    2  502    0 -0.61545795139E+02 -0.81247911267E+01  0.16772404531E+03  0.17884421295E+03  0.00000000000E+00 0. -1.
         22    1    3    3    0    0  0.26780764961E+02  0.28638048253E+02 -0.18981774197E+02  0.43562081347E+02  0.00000000000E+00 0.  1.
         22    1    3    3    0    0  0.15210218370E+03 -0.58672560785E+02 -0.35147182945E+03  0.38744030582E+03  0.00000000000E+00 0.  1.
</event>
<event>
 7    1  0.5779468E-006  0.8642456E+02  0.7818608E-02  0.1437655E+00
          2   -1    0    0  502    0  0.00000000000E+00  0.00000000000E+00  0.33042254194E+04  0.33042254194E+04  0.00000000000E+00 0. -1.
          1   -1    0    0  501    0 -0.00000000000E+00 -0.00000000000E+00 -0.35976446308E+03  0.35976446308E+03  0.00000000000E+00 0. -1.
         25    2    1    2    0    0 -0.55240933342E+02  0.89085352050E+02  0.22660836061E+04  0.22719480253E+04  0.12500063677E+03 0.  0.
          2    1    1    2  501    0  0.62743025988E+02 -0.59384862156E+02 -0.35137231973E+03  0.36183664303E+03  0.00000000000E+00 0. -1.
          1    1    1    2  502    0 -0.75020926462E+01 -0.29700489894E+02  0.10297496699E+04  0.10302052141E+04  0.00000000000E+00 0. -1.
         22    1    3    3    0    0 -0.42507531819E+02  0.26878452520E+02  0.18804045625E+04  0.18810769948E+04  0.00000000000E+00 0. -1.
         22    1    3    3    0    0 -0.12733401523E+02  0.62206899530E+02  0.38567904360E+03  0.39087103057E+03  0.00000000000E+00 0. -1.
</event>
<event>
 7    1  0.5779468E-006  0.1043543E+03  0.7818608E-02  0.1457246E+00
          2   -1    0    0  502    0  0.00000000000E+00  0.00000000000E+00  0.43181178608E+03  0.43181178608E+03  0.00000000000E+00 0. -1.
          1   -1    0    0  501    0 -0.00000000000E+00 -0.00000000000E+00 -0.11882113888E+03  0.11882113888E+03  0.00000000000E+00 0. -1.
         25    2    1    2    0    0  0.68644889628E+02 -0.59979258412E+02  0.63403443286E+02  0.16719848285E+03  0.12500281491E+03 0.  0.
          2    1    1    2  501    0 -0.90496552997E+02  0.62041216343E+02 -0.21207285913E+02  0.11175190202E+03  0.00000000000E+00 0. -1.
          1    1    1    2  502    0  0.21851663368E+02 -0.20619579312E+01  0.27079448983E+03  0.27168254008E+03  0.00000000000E+00 0. -1.
         22    1    3    3    0    0  0.66795675078E+02 -0.92745622852E+02  0.25581722232E+02  0.11712317140E+03  0.00000000000E+00 0.  1.
         22    1    3    3    0    0  0.18492145505E+01  0.32766364440E+02  0.37821721054E+02  0.50075311447E+02  0.00000000000E+00 0.  1.
</event>
<event>
 7    1  0.5779468E-006  0.5169509E+02  0.7818608E-02  0.1487261E+00
          2   -1    0    0  502    0  0.00000000000E+00  0.00000000000E+00  0.25703726634E+04  0.25703726634E+04  0.00000000000E+00 0. -1.
          1   -1    0    0  501    0 -0.00000000000E+00 -0.00000000000E+00 -0.14606805629E+03  0.14606805629E+03  0.00000000000E+00 0. -1.
         25    2    1    2    0    0  0.26556762642E+02  0.29301692987E+02  0.64784422766E+02  0.14624095718E+03  0.12500218106E+03 0.  0.
          2    1    1    2  501    0  0.25147065498E+02 -0.25423379647E+02 -0.10202414321E+03  0.10810943036E+03  0.00000000000E+00 0. -1.
          1    1    1    2  502    0 -0.51703828140E+02 -0.38783133397E+01  0.24615443276E+04  0.24620903322E+04  0.00000000000E+00 0. -1.
         22    1    3    3    0    0 -0.11432328414E+00  0.37474750630E+01  0.97094260912E+02  0.97166620509E+02  0.00000000000E+00 0. -1.
         22    1    3    3    0    0  0.26671085926E+02  0.25554217924E+02 -0.32309838146E+02  0.49074336666E+02  0.00000000000E+00 0. -1.
</event>
<event>
 7    1  0.5779468E-006  0.1009876E+03  0.7818608E-02  0.1288299E+00
          2   -1    0    0  502    0  0.00000000000E+00  0.00000000000E+00  0.17442958945E+04  0.17442958945E+04  0.00000000000E+00 0. -1.
          1   -1    0    0  501    0 -0.00000000000E+00 -0.00000000000E+00 -0.26059401742E+02  0.26059401742E+02  0.00000000000E+00 0. -1.
         25    2    1    2    0    0  0.73358025447E+02 -0.74552884811E+00  0.32842448000E+03  0.35898451364E+03  0.12500114504E+03 0.  0.
          2    1    1    2  501    0 -0.11111321120E+02 -0.91133863354E+02  0.25278818822E+03  0.26894369413E+03  0.00000000000E+00 0. -1.
          1    1    1    2  502    0 -0.62246704328E+02  0.91879392202E+02  0.11370238245E+04  0.11424270884E+04  0.00000000000E+00 0. -1.
         22    1    3    3    0    0  0.57745289994E+02  0.13281213793E+02  0.44041096195E+02  0.73827686611E+02  0.00000000000E+00 0. -1.
         22    1    3    3    0    0  0.15612735453E+02 -0.14026742641E+02  0.28438338381E+03  0.28515682703E+03  0.00000000000E+00 0. -1.
</event>
<event>
 7    1  0.5779468E-006  0.5732396E+02  0.7818608E-02  0.1517071E+00
          2   -1    0    0  502    0  0.00000000000E+00  0.00000000000E+00  0.12096534951E+04  0.12096534951E+04  0.00000000000E+00 0. -1.
          1   -1    0    0  501    0 -0.00000000000E+00 -0.00000000000E+00 -0.44932126971E+03  0.44932126971E+03  0.00000000000E+00 0. -1.
         25    2    1    2    0    0 -0.40124988215E+02 -0.15874149359E+02 -0.20235009160E+02  0.13378108829E+03  0.12500368271E+03 0.  0.
          2    1    1    2  501    0  0.57942645936E+02 -0.34577009417E+01 -0.36989971652E+03  0.37442636952E+03  0.00000000000E+00 0. -1.
          1    1    1    2  502    0 -0.17817657721E+02  0.19331850301E+02  0.11504669510E+04  0.11507673070E+04  0.00000000000E+00 0. -1.
         22    1    3    3    0    0 -0.81189533379E+02  0.20356955380E-02  0.78359998416E+01  0.81566802242E+02  0.00000000000E+00 0.  1.
         22    1    3    3    0    0  0.41064545164E+02 -0.15876185055E+02 -0.28071009001E+02  0.52214286051E+02  0.00000000000E+00 0.  1.
</event>
<event>
 7    1  0.5779468E-006  0.1152384E+03  0.7818608E-02  0.1284406E+00
          2   -1    0    0  502    0  0.00000000000E+00  0.00000000000E+00  0.66509209395E+03  0.66509209395E+03  0.00000000000E+00 0. -1.
          1   -1    0    0  501    0 -0.00000000000E+00 -0.00000000000E+00 -0.16391027036E+04  0.16391027036E+04  0.00000000000E+00 0. -1.
         25    2    1    2    0    0  0.18470295817E+03 -0.29974138951E+02  0.21026687114E+03  0.30797907857E+03  0.12500129590E+03 0.  0.
          2    1    1    2  501    0 -0.79492292459E+02  0.25429990597E+02 -0.15822989489E+04  0.15844985556E+04  0.00000000000E+00 0. -1.
          1    1    1    2  502    0 -0.10521066571E+03  0.45441483533E+01  0.39802146817E+03  0.41171716333E+03  0.00000000000E+00 0. -1.
         22    1    3    3    0    0  0.15393577207E+03 -0.34711308565E+02  0.22396123634E+03  0.27397031271E+03  0.00000000000E+00 0.  1.
         22    1    3    3    0    0  0.30767186099E+02  0.47371696138E+01 -0.13694365207E+02  0.34008765853E+02  0.00000000000E+00 0.  1.
</event>
<event>
 7    1  0.5779468E-006  0.8455933E+02  0.7818608E-02  0.1445293E+00
          2   -1    0    0  502    0  0.00000000000E+00  0.00000000000E+00  0.49038389265E+03  0.49038389265E+03  0.00000000000E+00 0. -1.
          1   -1    0    0  501    0 -0.00000000000E+00 -0.00000000000E+00 -0.58079765045E+03  0.58079765045E+03  0.00000000000E+00 0. -1.
         25    2    1    2    0    0  0.10929747332E+03 -0.26372920088E+02 -0.32606673508E+03  0.36685942068E+03  0.12499940089E+03 0.  0.
          2    1    1    2  501    0 -0.25913213139E+02  0.14255979077E+02 -0.22960184874E+03  0.23149889093E+03  0.00000000000E+00 0. -1.
          1    1    1    2  502    0 -0.83384260182E+02  0.12116941011E+02  0.46525482603E+03  0.47282323150E+03  0.00000000000E+00 0. -1.
         22    1    3    3    0    0  0.39855773269E+02 -0.72539360140E+02 -0.13443486208E+03  0.15787074959E+03  0.00000000000E+00 0. -1.
         22    1    3    3    0    0  0.69441700051E+02  0.46166440052E+02 -0.19163187300E+03  0.20898867109E+03  0.00000000000E+00 0. -1.
</event>
<event>
 7    1  0.5779468E-006  0.1169778E+03  0.7818608E-02  0.1355459E+00
          2   -1    0    0  502    0  0.00000000000E+00  0.00000000000E+00  0.17175408602E+03  0.17175408602E+03  0.00000000000E+00 0. -1.
          1   -1    0    0  501    0 -0.00000000000E+00 -0.00000000000E+00 -0.88039706713E+03  0.88039706713E+03  0.00000000000E+00 0. -1.
         25    2    1    2    0    0  0.11359564177E+03 -0.11116429631E+03  0.33377807339E+02  0.20494029307E+03  0.12499990039E+03 0.  0.
          2    1    1    2  501    0 -0.80743666179E+02  0.82563911067E+02 -0.78055696889E+03  0.78905356011E+03  0.00000000000E+00 0. -1.
          1    1    1    2  502    0 -0.32851975588E+02  0.28600385247E+02  0.38536180442E+02  0.58157299966E+02  0.00000000000E+00 0. -1.
         22    1    3    3    0    0  0.12694235422E+03 -0.55200878824E+02  0.46320586866E+02  0.14596950053E+03  0.00000000000E+00 0.  1.
         22    1    3    3    0    0 -0.13346712453E+02 -0.55963417490E+02 -0.12942779527E+02  0.58970792536E+02  0.00000000000E+00 0.  1.
</event>
<event>
 7    1  0.5779468E-006  0.9663469E+02  0.7818608E-02  0.1474258E+00
          2   -1    0    0  502    0  0.00000000000E+00  0.00000000000E+00  0.25283144349E+03  0.25283144349E+03  0.00000000000E+00 0. -1.
          1   -1    0    0  501    0 -0.00000000000E+00 -0.00000000000E+00 -0.12567000557E+04  0.12567000557E+04  0.00000000000E+00 0. -1.
         25    2    1    2    0    0  0.11174493294E+03 -0.34468715932E+02 -0.28474079387E+03  0.33223106119E+03  0.12500054362E+03 0.  0.
          2    1    1    2  501    0 -0.20054435151E+02  0.61206039871E+01 -0.93804019980E+03  0.93827451132E+03  0.00000000000E+00 0. -1.
          1    1    1    2  502    0 -0.91690497794E+02  0.28348111945E+02  0.21891238149E+03  0.23902592664E+03  0.00000000000E+00 0. -1.
         22    1    3    3    0    0  0.95645920488E+02 -0.60191116852E+02 -0.12046239550E+03  0.16517354929E+03  0.00000000000E+00 0.  1.
         22    1    3    3    0    0  0.16099012457E+02  0.25722400919E+02 -0.16427839837E+03  0.16705751190E+03  0.00000000000E+00 0.  1.
</event>
<event>
 7    1  0.5779468E-006  0.3203073E+03  0.7818608E-02  0.1184864E+00
          2   -1    0    0  502    0  0.00000000000E+00  0.00000000000E+00  0.31059275212E+03  0.31059275212E+03  0.00000000000E+00 0. -1.
          1   -1    0    0  501    0 -0.00000000000E+00 -0.00000000000E+00 -0.77847875565E+03  0.77847875565E+03  0.00000000000E+00 0. -1.
         25    2    1    2    0    0  0.21860861625E+03  0.12698670274E+03  0.97681155615E+02  0.29846074314E+03  0.12498742842E+03 0.  0.
          2    1    1    2  501    0 -0.29752264112E+03 -0.15396864885E+03 -0.61013222636E+03  0.69605129154E+03  0.00000000000E+00 0. -1.
          1    1    1    2  502    0  0.78914024864E+02  0.26981946111E+02  0.44565067213E+02  0.94559473094E+02  0.00000000000E+00 0. -1.
         22    1    3    3    0    0 -0.12477017102E+02  0.22422522869E+02  0.21913820865E+02  0.33744051809E+02  0.00000000000E+00 0.  1.
         22    1    3    3    0    0  0.23108563335E+03  0.10456417987E+03  0.75767334749E+02  0.26471669133E+03  0.00000000000E+00 0.  1.
</event>
<event>
 7    1  0.5779468E-006  0.1869000E+03  0.7818608E-02  0.1360531E+00
          2   -1    0    0  502    0  0.00000000000E+00  0.00000000000E+00  0.17271735105E+04  0.17271735105E+04  0.00000000000E+00 0. -1.
          1   -1    0    0  501    0 -0.00000000000E+00 -0.00000000000E+00 -0.11845318467E+04  0.11845318467E+04  0.00000000000E+00 0. -1.
         25    2    1    2    0    0  0.98767309495E+02  0.12724067916E+03 -0.86899668595E+03  0.89259407200E+03  0.12499506118E+03 0.  0.
          2    1    1    2  501    0  0.13562459091E+02  0.22324075348E+02 -0.29806446663E+03  0.29920683632E+03  0.00000000000E+00 0. -1.
          1    1    1    2  502    0 -0.11232976859E+03 -0.14956475450E+03  0.17097028164E+04  0.17199044488E+04  0.00000000000E+00 0. -1.
         22    1    3    3    0    0  0.89591185388E+02  0.57730028070E+02 -0.28276326127E+03  0.30218272380E+03  0.00000000000E+00 0. -1.
         22    1    3    3    0    0  0.91761241069E+01  0.69510651086E+02 -0.58623342467E+03  0.59041134819E+03  0.00000000000E+00 0. -1.
</event>
<event>
 7    1  0.5779468E-006  0.1255641E+03  0.7818608E-02  0.1300794E+00
          2   -1    0    0  502    0  0.00000000000E+00  0.00000000000E+00  0.23374609144E+03  0.23374609144E+03  0.00000000000E+00 0. -1.
          1   -1    0    0  501    0 -0.00000000000E+00 -0.00000000000E+00 -0.89572701145E+03  0.89572701145E+03  0.00000000000E+00 0. -1.
         25    2    1    2    0    0 -0.24666681825E+02 -0.12282004405E+03 -0.18124149789E+03  0.25330928883E+03  0.12499562727E+03 0.  0.
          2    1    1    2  501    0 -0.41056672415E+02  0.12131918783E+03 -0.66671770525E+03  0.67890831058E+03  0.00000000000E+00 0. -1.
          1    1    1    2  502    0  0.65723354239E+02  0.15008562242E+01  0.18597828312E+03  0.19725550348E+03  0.00000000000E+00 0. -1.
         22    1    3    3    0    0 -0.34530178372E+02 -0.14689087173E+03 -0.15685071696E+03  0.21764973887E+03  0.00000000000E+00 0.  1.
         22    1    3    3    0    0  0.98634965471E+01  0.24070827678E+02 -0.24390780928E+02  0.35659549962E+02  0.00000000000E+00 0.  1.
</event>
<event>
 7    1  0.5779468E-006  0.1670700E+03  0.7818608E-02  0.1199568E+00
          2   -1    0    0  502    0  0.00000000000E+00  0.00000000000E+00  0.27248233792E+04  0.27248233792E+04  0.00000000000E+00 0. -1.
          1   -1    0    0  501    0 -0.00000000000E+00 -0.00000000000E+00 -0.35081141166E+03  0.35081141166E+03  0.00000000000E+00 0. -1.
         25    2    1    2    0    0  0.74845647930E+02 -0.43024128618E+00  0.90322285018E+02  0.17141971925E+03  0.12499819541E+03 0.  0.
          2    1    1    2  501    0  0.45675341390E+02  0.12810523712E+03 -0.29222498129E+03  0.32232379415E+03  0.00000000000E+00 0. -1.
          1    1    1    2  502    0 -0.12052098932E+03 -0.12767499583E+03  0.25759146638E+04  0.25818912775E+04  0.00000000000E+00 0. -1.
         22    1    3    3    0    0 -0.57522846084E+01  0.16755640340E+01  0.90595921623E+02  0.90793817564E+02  0.00000000000E+00 0. -1.
         22    1    3    3    0    0  0.80597932538E+02 -0.21058053202E+01 -0.27363660558E+00  0.80625901685E+02  0.00000000000E+00 0. -1.
</event>
<event>
 7    1  0.5779468E-006  0.1436633E+03  0.7818608E-02  0.1212354E+00
          2   -1    0    0  502    0  0.00000000000E+00  0.00000000000E+00  0.44348366702E+03  0.44348366702E+03  0.00000000000E+00 0. -1.
          1   -1    0    0  501    0 -0.00000000000E+00 -0.00000000000E+00 -0.10017885931E+04  0.10017885931E+04  0.00000000000E+00 0. -1.
         25    2    1    2    0    0  0.22205401165E+03  0.11972687227E+03 -0.33488784878E+03  0.43751153503E+03  0.12499585590E+03 0.  0.
          2    1    1    2  501    0 -0.81541239787E+02 -0.11114720839E+03 -0.59481427902E+03  0.61057898936E+03  0.00000000000E+00 0. -1.
          1    1    1    2  502    0 -0.14051277186E+03 -0.85796638772E+01  0.37139720176E+03  0.39718173569E+03  0.00000000000E+00 0. -1.
         22    1    3    3    0    0  0.11798543229E+03 -0.47941387013E+01 -0.12152989060E+03  0.16944928536E+03  0.00000000000E+00 0. -1.
         22    1    3    3    0    0  0.10406857936E+03  0.12452101097E+03 -0.21335795817E+03  0.26806224967E+03  0.00000000000E+00 0. -1.
</event>
<event>
 7    1  0.5779468E-006  0.2735937E+03  0.7818608E-02  0.1311137E+00
          2   -1    0    0  502    0  0.00000000000E+00  0.00000000000E+00  0.38460709473E+03  0.38460709473E+03  0.00000000000E+00 0. -1.
          1   -1    0    0  501    0 -0.00000000000E+00 -0.00000000000E+00 -0.53048698464E+03  0.53048698464E+03  0.00000000000E+00 0. -1.
         25    2    1    2    0    0  0.23652759511E+03 -0.13405870432E+03 -0.28731671648E+03  0.41484920068E+03  0.12502769409E+03 0.  0.
          2    1    1    2  501    0 -0.22672500592E+03  0.15970081009E+03 -0.70817104165E+02  0.28622305864E+03  0.00000000000E+00 0. -1.
          1    1    1    2  502    0 -0.98025891908E+01 -0.25642105772E+02  0.21225393074E+03  0.21402182005E+03  0.00000000000E+00 0. -1.
         22    1    3    3    0    0  0.15930243626E+03 -0.89906474371E+02 -0.26692120180E+03  0.32358517936E+03  0.00000000000E+00 0. -1.
         22    1    3    3    0    0  0.77225158854E+02 -0.44152229948E+02 -0.20395514678E+02  0.91264021325E+02  0.00000000000E+00 0. -1.
</event>
<event>
 7    1  0.5779468E-006  0.7605369E+02  0.7818608E-02  0.1344211E+00
          2   -1    0    0  502    0  0.00000000000E+00  0.00000000000E+00  0.14525946718E+04  0.14525946718E+04  0.00000000000E+00 0. -1.
          1   -1    0    0  501    0 -0.00000000000E+00 -0.00000000000E+00 -0.12703897963E+04  0.12703897963E+04  0.00000000000E+00 0. -1.
         25    2    1    2    0    0 -0.12435389798E+03  0.27557921347E+02  0.49925871881E+02  0.18531414148E+03  0.12500162950E+03 0.  0.
          2    1    1    2  501    0  0.54847489829E+02 -0.52198213351E+02 -0.12004836379E+04  0.12028690143E+04  0.00000000000E+00 0. -1.
          1    1    1    2  502    0  0.69506408149E+02  0.24640292004E+02  0.13327626415E+04  0.13348013123E+04  0.00000000000E+00 0. -1.
         22    1    3    3    0    0  0.21019765234E+02 -0.16085688556E+02  0.42548365758E+01  0.26808273743E+02  0.00000000000E+00 0. -1.
         22    1    3    3    0    0 -0.14537366321E+03  0.43643609904E+02  0.45671035305E+02  0.15850586774E+03  0.00000000000E+00 0. -1.
</event>
<event>
 7    1  0.5779468E-006  0.9453151E+02  0.7818608E-02  0.1359027E+00
          2   -1    0    0  502    0  0.00000000000E+00  0.00000000000E+00  0.13686295430E+03  0.13686295430E+03  0.00000000000E+00 0. -1.
          1   -1    0    0  501    0 -0.00000000000E+00 -0.00000000000E+00 -0.34948873774E+03  0.34948873774E+03  0.00000000000E+00 0. -1.
         25    2    1    2    0    0  0.39166780787E+02  0.13641858825E+03 -0.19475009273E+03  0.27147151403E+03  0.12500046549E+03 0.  0.
          2    1    1    2  501    0 -0.19340864285E+02 -0.48593810951E+02 -0.86904379359E+02  0.10142878608E+03  0.00000000000E+00 0. -1.
          1    1    1    2  502    0 -0.19825916502E+02 -0.87824777301E+02  0.69028688649E+02  0.11345139193E+03  0.00000000000E+00 0. -1.
         22    1    3    3    0    0 -0.33041156263E+02  0.20639568466E+02 -0.94311636724E+02  0.10204114178E+03  0.00000000000E+00 0.  1.
         22    1    3    3    0    0  0.72207937050E+02  0.11577901979E+03 -0.10043845601E+03  0.16943037225E+03  0.00000000000E+00 0.  1.
</event>
<event>
 7    1  0.5779468E-006  0.7503552E+02  0.7818608E-02  0.1379852E+00
          2   -1    0    0  502    0  0.00000000000E+00  0.00000000000E+00  0.60959458018E+03  0.60959458018E+03  0.00000000000E+00 0. -1.
          1   -1    0    0  501    0 -0.00000000000E+00 -0.00000000000E+00 -0.22934561746E+03  0.22934561746E+03  0.00000000000E+00 0. -1.
         25    2    1    2    0    0 -0.24984375985E+02  0.10059753042E+03  0.10790057298E+03  0.19496519338E+03  0.12499924325E+03 0.  0.
          2    1    1    2  501    0  0.46717884926E+02 -0.29866060514E+02 -0.17859315930E+03  0.18700283124E+03  0.00000000000E+00 0. -1.
          1    1    1    2  502    0 -0.21733508942E+02 -0.70731469903E+02  0.45094154905E+03  0.45697217301E+03  0.00000000000E+00 0. -1.
         22    1    3    3    0    0 -0.24845348860E+02 -0.25748004974E+02  0.19342772845E+02  0.40674242235E+02  0.00000000000E+00 0. -1.
         22    1    3    3    0    0 -0.13902712457E+00  0.12634553539E+03  0.88557800131E+02  0.15429095115E+03  0.00000000000E+00 0. -1.
</event>
<event>
 7    1  0.5779468E-006  0.1089423E+03  0.7818608E-02  0.1308095E+00
          2   -1    0    0  502    0  0.00000000000E+00  0.00000000000E+00  0.87837932871E+03  0.87837932871E+03  0.00000000000E+00 0. -1.
          1   -1    0    0  501    0 -0.00000000000E+00 -0.00000000000E+00 -0.12202266605E+03  0.12202266605E+03  0.00000000000E+00 0. -1.
         25    2    1    2    0    0  0.94314007052E+02  0.14555823519E+03  0.18838819006E+03  0.28495382991E+03  0.12500497298E+03 0.  0.
          2    1    1    2  501    0 -0.44734483785E+02 -0.54970376306E+02 -0.51387558507E+02  0.87541975532E+02  0.00000000000E+00 0. -1.
          1    1    1    2  502    0 -0.49579523267E+02 -0.90587858879E+02  0.61935603111E+03  0.62790618932E+03  0.00000000000E+00 0. -1.
         22    1    3    3    0    0  0.74644775730E+01  0.43513769771E+02 -0.10268982545E+02  0.45327900763E+02  0.00000000000E+00 0.  1.
         22    1    3    3    0    0  0.86849529479E+02  0.10204446541E+03  0.19865717260E+03  0.23962592915E+03  0.00000000000E+00 0.  1.
</event>
<event>
 7    1  0.5779468E-006  0.1504407E+03  0.7818608E-02  0.1362240E+00
          2   -1    0    0  502    0  0.00000000000E+00  0.00000000000E+00  0.14898963450E+04  0.14898963450E+04  0.00000000000E+00 0. -1.
          1   -1    0    0  501    0 -0.00000000000E+00 -0.00000000000E+00 -0.71812492289E+02  0.71812492289E+02  0.00000000000E+00 0. -1.
         25    2    1    2    0    0 -0.77252940526E+02  0.15918194687E+03  0.84851077528E+03  0.87573066683E+03  0.12500702390E+03 0.  0.
          2    1    1    2  501    0  0.53781434653E+02 -0.13744674518E+03  0.36624502589E+02  0.15207039377E+03  0.00000000000E+00 0. -1.
          1    1    1    2  502    0  0.23471505873E+02 -0.21735201696E+02  0.53294857483E+03  0.53390777667E+03  0.00000000000E+00 0. -1.
         22    1    3    3    0    0  0.17865504600E+02  0.83789049463E+02  0.48454586277E+03  0.49206145367E+03  0.00000000000E+00 0.  1.
         22    1    3    3    0    0 -0.95118445126E+02  0.75392897409E+02  0.36396491251E+03  0.38366921316E+03  0.00000000000E+00 0.  1.
</event>
<event>
 7    1  0.5779468E-006  0.9391404E+02  0.7818608E-02  0.1462160E+00
          2   -1    0    0  502    0  0.00000000000E+00  0.00000000000E+00  0.11497675436E+04  0.11497675436E+04  0.00000000000E+00 0. -1.
          1   -1    0    0  501    0 -0.00000000000E+00 -0.00000000000E+00 -0.23013690977E+03  0.23013690977E+03  0.00000000000E+00 0. -1.
         25    2    1    2    0    0 -0.95457438191E+02  0.64668076604E+02  0.10053645609E+04  0.10196453852E+04  0.12499891437E+03 0.  0.
          2    1    1    2  501    0  0.72538304142E+02 -0.59326915566E+02 -0.21201637582E+03  0.23180257137E+03  0.00000000000E+00 0. -1.
          1    1    1    2  502    0  0.22919134049E+02 -0.53411610379E+01  0.12628244873E+03  0.12845649677E+03  0.00000000000E+00 0. -1.
         22    1    3    3    0    0 -0.11637949668E+03  0.46318034792E+02  0.94389424171E+03  0.95216904336E+03  0.00000000000E+00 0. -1.
         22    1    3    3    0    0  0.20922058492E+02  0.18350041812E+02  0.61470319180E+02  0.67476341825E+02  0.00000000000E+00 0. -1.
</event>
<event>
 7    1  0.5779468E-006  0.8726984E+02  0.7818608E-02  0.1370874E+00
          2   -1    0    0  502    0  0.00000000000E+00  0.00000000000E+00  0.60264031136E+03  0.60264031136E+03  0.00000000000E+00 0. -1.
          1   -1    0    0  501    0 -0.00000000000E+00 -0.00000000000E+00 -0.37757159768E+03  0.37757159768E+03  0.00000000000E+00 0. -1.
         25    2    1    2    0    0  0.42220151084E+02  0.30169591966E+02 -0.11491077100E+03  0.17754359362E+03  0.12499798761E+03 0.  0.
          2    1    1    2  501    0 -0.93167947264E+02 -0.36361452208E+02 -0.21930528748E+03  0.24103367134E+03  0.00000000000E+00 0. -1.
          1    1    1    2  502    0  0.50947796179E+02  0.61918602420E+01  0.55928477216E+03  0.56163464409E+03  0.00000000000E+00 0. -1.
         22    1    3    3    0    0 -0.22009428659E+02  0.32514617048E+02  0.68538577299E+01  0.39857127812E+02  0.00000000000E+00 0. -1.
         22    1    3    3    0    0  0.64229579743E+02 -0.23450250822E+01 -0.12176462873E+03  0.13768646581E+03  0.00000000000E+00 0. -1.
</event>
<event>
 7    1  0.5779468E-006  0.1170396E+03  0.7818608E-02  0.1278950E+00
          2   -1    0    0  502    0  0.00000000000E+00  0.00000000000E+00  0.40746864419E+03  0.40746864419E+03  0.00000000000E+00 0. -1.
          1   -1    0    0  501    0 -0.00000000000E+00 -0.00000000000E+00 -0.29175260612E+03  0.29175260612E+03  0.00000000000E+00 0. -1.
         25    2    1    2    0    0  0.80036095639E+02 -0.14069574736E+02 -0.12949988374E+03  0.19748140590E+03  0.12499982500E+03 0.  0.
          2    1    1    2  501    0  0.17923762993E+02  0.84666724794E+02 -0.10221078886E+03  0.13392819317E+03  0.00000000000E+00 0. -1.
          1    1    1    2  502    0 -0.97959858633E+02 -0.70597150058E+02  0.34742671067E+03  0.36781165123E+03  0.00000000000E+00 0. -1.
         22    1    3    3    0    0 -0.14395719776E+02 -0.43670111583E+02 -0.64002646144E+02  0.78807703348E+02  0.00000000000E+00 0.  1.
         22    1    3    3    0    0  0.94431815415E+02  0.29600536848E+02 -0.65497237592E+02  0.11867370255E+03  0.00000000000E+00 0.  1.
</event>
<event>
 7    1  0.5779468E-006  0.2951669E+03  0.7818608E-02  0.1203102E+00
          2   -1    0    0  502    0  0.00000000000E+00  0.00000000000E+00  0.17525283098E+04  0.17525283098E+04  0.00000000000E+00 0. -1.
          1   -1    0    0  501    0 -0.00000000000E+00 -0.00000000000E+00 -0.72796894406E+03  0.72796894406E+03  0.00000000000E+00 0. -1.
         25    2    1    2    0    0 -0.30271286006E+03  0.10276017863E+03  0.20796725950E+02  0.34389158737E+03  0.12503675498E+03 0.  0.
          2    1    1    2  501    0  0.28994838075E+03 -0.29778695011E+02 -0.52796957073E+03  0.60308266580E+03  0.00000000000E+00 0. -1.
          1    1    1    2  502    0  0.12764479314E+02 -0.72981483620E+02  0.15317322106E+04  0.15335230007E+04  0.00000000000E+00 0. -1.
         22    1    3    3    0    0  0.81480809560E+01 -0.68403532156E+01 -0.75700425285E+01  0.13057074682E+02  0.00000000000E+00 0.  1.
         22    1    3    3    0    0 -0.31086094102E+03  0.10960053185E+03  0.28366768478E+02  0.33083451269E+03  0.00000000000E+00 0.  1.
</event>
<event>
 7    1  0.5779468E-006  0.1708640E+03  0.7818608E-02  0.1251805E+00
          2   -1    0    0  502    0  0.00000000000E+00  0.00000000000E+00  0.18816093767E+03  0.18816093767E+03  0.00000000000E+00 0. -1.
          1   -1    0    0  501    0 -0.00000000000E+00 -0.00000000000E+00 -0.20288563286E+04  0.20288563286E+04  0.00000000000E+00 0. -1.
         25    2    1    2    0    0 -0.18775896667E+02  0.12821574988E+03 -0.72847710700E+03  0.75039558695E+03  0.12499131443E+03 0.  0.
          2    1    1    2  501    0  0.66680583678E+02  0.38959660192E+02 -0.12452670404E+04  0.12476594717E+04  0.00000000000E+00 0. -1.
          1    1    1    2  502    0 -0.47904687011E+02 -0.16717541007E+03  0.13304875648E+03  0.21896220763E+03  0.00000000000E+00 0. -1.
         22    1    3    3    0    0 -0.19665919913E+02  0.71425123979E+02 -0.13320565098E+03  0.15242060949E+03  0.00000000000E+00 0. -1.
         22    1    3    3    0    0  0.89002324596E+00  0.56790625900E+02 -0.59527145601E+03  0.59797497747E+03  0.00000000000E+00 0. -1.
</event>
<event>
 7    1  0.5779468E-006  0.1222292E+03  0.7818608E-02  0.1312941E+00
          2   -1    0    0  502    0  0.00000000000E+00  0.00000000000E+00  0.46496461156E+03  0.46496461156E+03  0.00000000000E+00 0. -1.
          1   -1    0    0  501    0 -0.00000000000E+00 -0.00000000000E+00 -0.83022961397E+03  0.83022961397E+03  0.00000000000E+00 0. -1.
         25    2    1    2    0    0 -0.35142479573E+01 -0.15639578611E+03  0.24026781354E+03  0.31277429860E+03  0.12500859087E+03 0.  0.
          2    1    1    2  501    0 -0.29788184973E+02  0.52604241932E+02 -0.77694038117E+03  0.77928871295E+03  0.00000000000E+00 0. -1.
          1    1    1    2  502    0  0.33302432930E+02  0.10379154417E+03  0.17140756522E+03  0.20313121399E+03  0.00000000000E+00 0. -1.
         22    1    3    3    0    0  0.31764567889E+01 -0.76142875607E+02  0.20798155743E+02  0.78996143360E+02  0.00000000000E+00 0.  1.
         22    1    3    3    0    0 -0.66907047462E+01 -0.80252910500E+02  0.21946965779E+03  0.23377815524E+03  0.00000000000E+00 0.  1.
</event>
<event>
 7    1  0.5779468E-006  0.6050131E+02  0.7818608E-02  0.1503399E+00
          2   -1    0    0  502    0  0.00000000000E+00  0.00000000000E+00  0.24117380893E+03  0.24117380893E+03  0.00000000000E+00 0. -1.
          1   -1    0    0  501    0 -0.00000000000E+00 -0.00000000000E+00 -0.23926300302E+03  0.23926300302E+03  0.00000000000E+00 0. -1.
         25    2    1    2    0    0 -0.15167401390E+02 -0.34892310640E+02 -0.50963204380E+02  0.14025021397E+03  0.12500140364E+03 0.  0.
          2    1    1    2  501    0 -0.24245621390E+02 -0.12607422093E+02 -0.13743148534E+03  0.14012212677E+03  0.00000000000E+00 0. -1.
          1    1    1    2  502    0  0.39413022780E+02  0.47499732734E+02  0.19030549562E+03  0.20006447121E+03  0.00000000000E+00 0. -1.
         22    1    3    3    0    0  0.30362812992E+02 -0.50114424217E+02  0.13250809114E+02  0.60074452720E+02  0.00000000000E+00 0.  1.
         22    1    3    3    0    0 -0.45530214382E+02  0.15222113577E+02 -0.64214013494E+02  0.80175761253E+02  0.00000000000E+00 0.  1.
</event>
<event>
 7    1  0.5779468E-006  0.6444434E+02  0.7818608E-02  0.1444053E+00
          2   -1    0    0  502    0  0.00000000000E+00  0.00000000000E+00  0.15083544556E+04  0.15083544556E+04  0.00000000000E+00 0. -1.
          1   -1    0    0  501    0 -0.00000000000E+00 -0.00000000000E+00 -0.11381837164E+04  0.11381837164E+04  0.00000000000E+00 0. -1.
         25    2    1    2    0    0  0.81656698950E+01  0.62064308756E+02  0.41501919814E+03  0.43793278525E+03  0.12500213192E+03 0.  0.
          2    1    1    2  501    0  0.30635320787E+02 -0.56730672645E+02 -0.11254495240E+04  0.11272947809E+04  0.00000000000E+00 0. -1.
          1    1    1    2  502    0 -0.38800990682E+02 -0.53336361110E+01  0.10806010651E+04  0.10813106059E+04  0.00000000000E+00 0. -1.
         22    1    3    3    0    0  0.65719984712E+02  0.42738064527E+02  0.21201157699E+03  0.22604107442E+03  0.00000000000E+00 0. -1.
         22    1    3    3    0    0 -0.57554314817E+02  0.19326244229E+02  0.20300762115E+03  0.21189171083E+03  0.00000000000E+00 0. -1.
</event>
<event>
 7    1  0.5779468E-006  0.1620953E+03  0.7818608E-02  0.1350477E+00
          2   -1    0    0  502    0  0.00000000000E+00  0.00000000000E+00  0.10370090354E+04  0.10370090354E+04  0.00000000000E+00 0. -1.
          1   -1    0    0  501    0 -0.00000000000E+00 -0.00000000000E+00 -0.16162440892E+04  0.16162440892E+04  0.00000000000E+00 0. -1.
         25    2    1    2    0    0  0.13224844707E+03  0.29450985131E+02 -0.48032544349E+03  0.51448334501E+03  0.12499427325E+03 0.  0.
          2    1    1    2  501    0  0.20636402117E+02  0.25484475335E+02 -0.11121274956E+04  0.11126108421E+04  0.00000000000E+00 0. -1.
          1    1    1    2  502    0 -0.15288484919E+03 -0.54935460466E+02  0.10132178852E+04  0.10261589375E+04  0.00000000000E+00 0. -1.
         22    1    3    3    0    0  0.81354293820E+01 -0.17696839455E+02 -0.23267862363E+03  0.23349240937E+03  0.00000000000E+00 0. -1.
         22    1    3    3    0    0  0.12411301769E+03  0.47147824586E+02 -0.24764681986E+03  0.28099093564E+03  0.00000000000E+00 0. -1.
</event>
<event>
 7    1  0.5779468E-006  0.2293601E+03  0.7818608E-02  0.1220421E+00
          2   -1    0    0  502    0  0.00000000000E+00  0.00000000000E+00  0.24761910275E+04  0.24761910275E+04  0.00000000000E+00 0. -1.
          1   -1    0    0  501    0 -0.00000000000E+00 -0.00000000000E+00 -0.76058391298E+02  0.76058391298E+02  0.00000000000E+00 0. -1.
         25    2    1    2    0    0  0.26566364449E+01  0.19226156319E+03  0.44754913594E+03  0.50288811752E+03  0.12499865306E+03 0.  0.
          2    1    1    2  501    0 -0.53644841690E+02 -0.25298646529E+03  0.30504349403E+03  0.39991430821E+03  0.00000000000E+00 0. -1.
          1    1    1    2  502    0  0.50988205246E+02  0.60724902096E+02  0.16475400063E+04  0.16494469931E+04  0.00000000000E+00 0. -1.
         22    1    3    3    0    0 -0.48527821815E+02  0.64436071642E+02  0.24525307623E+03  0.25817828766E+03  0.00000000000E+00 0. -1.
         22    1    3    3    0    0  0.51184458260E+02  0.12782549155E+03  0.20229605971E+03  0.24470982986E+03  0.00000000000E+00 0. -1.
</event>
<event>
 7    1  0.5779468E-006  0.1427977E+03  0.7818608E-02  0.1403997E+00
          2   -1    0    0  502    0  0.00000000000E+00  0.00000000000E+00  0.89919582406E+03  0.89919582406E+03  0.00000000000E+00 0. -1.
          1   -1    0    0  501    0 -0.00000000000E+00 -0.00000000000E+00 -0.28068097834E+03  0.28068097834E+03  0.00000000000E+00 0. -1.
         25    2    1    2    0    0 -0.53805096076E+02  0.10697287516E+03 -0.11364774997E+03  0.20707232107E+03  0.12499980278E+03 0.  0.
          2    1    1    2  501    0 -0.87888994123E+01  0.22344601790E+02 -0.11299732308E+03  0.11552021903E+03  0.00000000000E+00 0. -1.
          1    1    1    2  502    0  0.62593995488E+02 -0.12931747695E+03  0.84515991876E+03  0.85728426231E+03  0.00000000000E+00 0. -1.
         22    1    3    3    0    0  0.13062213386E+02 -0.56523178481E+01  0.16933623147E+02  0.22120526858E+02  0.00000000000E+00 0.  1.
         22    1    3    3    0    0 -0.66867309462E+02  0.11262519301E+03 -0.13058137312E+03  0.18495179421E+03  0.00000000000E+00 0.  1.
</event>
<event>
 7    1  0.5779468E-006  0.9923706E+02  0.7818608E-02  0.1299757E+00
          2   -1    0    0  502    0  0.00000000000E+00  0.00000000000E+00  0.22272088484E+04  0.22272088484E+04  0.00000000000E+00 0. -1.
          1   -1    0    0  501    0 -0.00000000000E+00 -0.00000000000E+00 -0.17152151221E+04  0.17152151221E+04  0.00000000000E+00 0. -1.
         25    2    1    2    0    0  0.13809838842E+03  0.91895754589E+02  0.49978089693E+03  0.54122251996E+03  0.12499950633E+03 0.  0.
          2    1    1    2  501    0 -0.44833810011E+02 -0.71011195207E+02 -0.16921141232E+04  0.16941968204E+04  0.00000000000E+00 0. -1.
          1    1    1    2  502    0 -0.93264578412E+02 -0.20884559382E+02  0.17043269525E+04  0.17070046302E+04  0.00000000000E+00 0. -1.
         22    1    3    3    0    0  0.12243472777E+03  0.73830074766E+02  0.23297141511E+03  0.27334378128E+03  0.00000000000E+00 0.  1.
         22    1    3    3    0    0  0.15663660655E+02  0.18065679823E+02  0.26680948182E+03  0.26787873868E+03  0.00000000000E+00 0.  1.
</event>
<event>
 7    1  0.5779468E-006  0.8612253E+02  0.7818608E-02  0.1328796E+00
          2   -1    0    0  502    0  0.00000000000E+00  0.00000000000E+00  0.25939218987E+04  0.25939218987E+04  0.00000000000E+00 0. -1.
          1   -1    0    0  501    0 -0.00000000000E+00 -0.00000000000E+00 -0.55512735410E+02  0.55512735410E+02  0.00000000000E+00 0. -1.
         25    2    1    2    0    0  0.97535174739E+02 -0.99377640481E+02  0.35197261857E+03  0.39862101638E+03  0.12499985898E+03 0.  0.
          2    1    1    2  501    0 -0.75154683101E+02  0.28339443636E+02  0.19573434005E+02  0.82670852036E+02  0.00000000000E+00 0. -1.
          1    1    1    2  502    0 -0.22380491638E+02  0.71038196845E+02  0.21668631107E+04  0.21681427657E+04  0.00000000000E+00 0. -1.
         22    1    3    3    0    0  0.45670618183E+02 -0.12219964776E+03  0.24469224289E+03  0.27729560582E+03  0.00000000000E+00 0.  1.
         22    1    3    3    0    0  0.51864556556E+02  0.22822007278E+02  0.10728037567E+03  0.12132541056E+03  0.00000000000E+00 0.  1.
</event>
<event>
 7    1  0.5779468E-006  0.7833330E+02  0.7818608E-02  0.1459268E+00
          2   -1    0    0  502    0  0.00000000000E+00  0.00000000000E+00  0.39612449124E+03  0.39612449124E+03  0.00000000000E+00 0. -1.
          1   -1    0    0  501    0 -0.00000000000E+00 -0.00000000000E+00 -0.85664666493E+03  0.85664666493E+03  0.00000000000E+00 0. -1.
         25    2    1    2    0    0 -0.75363466823E+02  0.68834658106E+02 -0.40294582346E+03  0.43406039554E+03  0.12500091216E+03 0.  0.
          2    1    1    2  501    0  0.28025097816E+02 -0.66896418505E+01 -0.43365135668E+03  0.43460747413E+03  0.00000000000E+00 0. -1.
          1    1    1    2  502    0  0.47338369007E+02 -0.62145016256E+02  0.37607500645E+03  0.38410328651E+03  0.00000000000E+00 0. -1.
         22    1    3    3    0    0 -0.79621825469E+02  0.67527590593E+00 -0.30100483089E+03  0.31135831337E+03  0.00000000000E+00 0. -1.
         22    1    3    3    0    0  0.42583586461E+01  0.68159382200E+02 -0.10194099257E+03  0.12270208216E+03  0.00000000000E+00 0. -1.
</event>
<event>
 7    1  0.5779468E-006  0.2156137E+03  0.7818608E-02  0.1217747E+00
          2   -1    0    0  502    0  0.00000000000E+00  0.00000000000E+00  0.12539811577E+04  0.12539811577E+04  0.00000000000E+00 0. -1.
          1   -1    0    0  501    0 -0.00000000000E+00 -0.00000000000E+00 -0.24942857652E+04  0.24942857652E+04  0.00000000000E+00 0. -1.
         25    2    1    2    0    0 -0.15838607082E+03  0.77313298772E+02  0.25810863162E+03  0.33661219263E+03  0.12499683561E+03 0.  0.
          2    1    1    2  501    0  0.21609867508E+03 -0.12541672346E+02 -0.24482820113E+04  0.24578325284E+04  0.00000000000E+00 0. -1.
          1    1    1    2  502    0 -0.57712604263E+02 -0.64771626426E+02  0.94986877220E+03  0.95382220181E+03  0.00000000000E+00 0. -1.
         22    1    3    3    0    0 -0.31885997173E+02  0.83047070131E+02  0.95502327992E+02  0.13051523790E+03  0.00000000000E+00 0. -1.
         22    1    3    3    0    0 -0.12650007365E+03 -0.57337713595E+01  0.16260630362E+03  0.20609695472E+03  0.00000000000E+00 0. -1.
</event>
<event>
 7    1  0.5779468E-006  0.8239193E+02  0.7818608E-02  0.1402892E+00
          2   -1    0    0  502    0  0.00000000000E+00  0.00000000000E+00  0.22112962413E+04  0.22112962413E+04  0.00000000000E+00 0. -1.
          1   -1    0    0  501    0 -0.00000000000E+00 -0.00000000000E+00 -0.30328317027E+03  0.30328317027E+03  0.00000000000E+00 0. -1.
         25    2    1    2    0    0  0.10295740252E+03  0.11216250806E+01  0.67839547446E+03  0.69745552862E+03  0.12498923894E+03 0.  0.
          2    1    1    2  501    0 -0.76149696055E+02  0.31182275525E+02 -0.28769456466E+03  0.29923113650E+03  0.00000000000E+00 0. -1.
          1    1    1    2  502    0 -0.26807706467E+02 -0.32303900605E+02  0.15173121612E+04  0.15178927464E+04  0.00000000000E+00 0. -1.
         22    1    3    3    0    0  0.11038746679E+03  0.38699698339E+02  0.58370539490E+03  0.59531088308E+03  0.00000000000E+00 0. -1.
         22    1    3    3    0    0 -0.74300642649E+01 -0.37578073259E+02  0.94690079561E+02  0.10214464554E+03  0.00000000000E+00 0. -1.
</event>
<event>
 7    1  0.5779468E-006  0.9634798E+02  0.7818608E-02  0.1338976E+00
          2   -1    0    0  502    0  0.00000000000E+00  0.00000000000E+00  0.13074578268E+03  0.13074578268E+03  0.00000000000E+00 0. -1.
          1   -1    0    0  501    0 -0.00000000000E+00 -0.00000000000E+00 -0.36835794579E+03  0.36835794579E+03  0.00000000000E+00 0. -1.
         25    2    1    2    0    0 -0.13475899232E+03 -0.62939706127E+02 -0.11838407574E+03  0.22751039239E+03  0.12499918655E+03 0.  0.
          2    1    1    2  501    0  0.56785487620E+02  0.22020447312E+02 -0.16245545545E+03  0.17349716629E+03  0.00000000000E+00 0. -1.
          1    1    1    2  502    0  0.77973504695E+02  0.40919258815E+02  0.43227368089E+02  0.98096169794E+02  0.00000000000E+00 0. -1.
         22    1    3    3    0    0 -0.11501317426E+03 -0.40810255777E+02 -0.14369127920E+03  0.18852238846E+03  0.00000000000E+00 0. -1.
         22    1    3    3    0    0 -0.19745818052E+02 -0.22129450350E+02  0.25307203461E+02  0.38988003928E+02  0.00000000000E+00 0. -1.
</event>
<event>
 7    1  0.5779468E-006  0.7919359E+02  0.7818608E-02  0.1443540E+00
          2   -1    0    0  502    0  0.00000000000E+00  0.00000000000E+00  0.39732713890E+02  0.39732713890E+02  0.00000000000E+00 0. -1.
          1   -1    0    0  501    0 -0.00000000000E+00 -0.00000000000E+00 -0.98807362494E+03  0.98807362494E+03  0.00000000000E+00 0. -1.
         25    2    1    2    0    0  0.70781890266E+02  0.79693380461E+01 -0.53181339811E+03  0.55092918999E+03  0.12499558249E+03 0.  0.
          2    1    1    2  501    0 -0.81164275183E+02  0.22292574867E+02 -0.43285197425E+03  0.44095966944E+03  0.00000000000E+00 0. -1.
          1    1    1    2  502    0  0.10382384917E+02 -0.30261912913E+02  0.16324461303E+02  0.35917479402E+02  0.00000000000E+00 0. -1.
         22    1    3    3    0    0  0.82540164440E+02 -0.78108279275E+01 -0.52271356251E+03  0.52924791564E+03  0.00000000000E+00 0. -1.
         22    1    3    3    0    0 -0.11758274174E+02  0.15780165974E+02 -0.90998356007E+01  0.21681274355E+02  0.00000000000E+00 0. -1.
</event>
<event>
 7    1  0.5779468E-006  0.8432816E+02  0.7818608E-02  0.1462517E+00
          2   -1    0    0  502    0  0.00000000000E+00  0.00000000000E+00  0.14468283461E+04  0.14468283461E+04  0.00000000000E+00 0. -1.
          1   -1    0    0  501    0 -0.00000000000E+00 -0.00000000000E+00 -0.14874705026E+03  0.14874705026E+03  0.00000000000E+00 0. -1.
         25    2    1    2    0    0  0.18673921162E+02  0.72633091250E+02  0.11204229671E+03  0.18385655741E+03  0.12500190469E+03 0.  0.
          2    1    1    2  501    0 -0.23190291356E+02  0.12064321430E+02 -0.10992083446E+03  0.11298640322E+03  0.00000000000E+00 0. -1.
          1    1    1    2  502    0  0.45163701940E+01 -0.84697412680E+02  0.12959598336E+04  0.12987324357E+04  0.00000000000E+00 0. -1.
         22    1    3    3    0    0  0.14931745929E+02  0.27201856889E+02 -0.24735144544E+02  0.39682810262E+02  0.00000000000E+00 0. -1.
         22    1    3    3    0    0  0.37421752329E+01  0.45431234361E+02  0.13677744126E+03  0.14417374715E+03  0.00000000000E+00 0. -1.
</event>
<event>
 7    1  0.5779468E-006  0.5921834E+02  0.7818608E-02  0.1427211E+00
          2   -1    0    0  502    0  0.00000000000E+00  0.00000000000E+00  0.13898540901E+04  0.13898540901E+04  0.00000000000E+00 0. -1.
          1   -1    0    0  501    0 -0.00000000000E+00 -0.00000000000E+00 -0.20846017860E+03  0.20846017860E+03  0.00000000000E+00 0. -1.
         25    2    1    2    0    0  0.76840869343E+02  0.47439019987E+02  0.10975941417E+02  0.15459797976E+03  0.12500033695E+03 0.  0.
          2    1    1    2  501    0 -0.48196108368E+02  0.41806932971E+01 -0.13167764440E+03  0.14028308912E+03  0.00000000000E+00 0. -1.
          1    1    1    2  502    0 -0.28644760975E+02 -0.51619713284E+02  0.13020956144E+04  0.13034331998E+04  0.00000000000E+00 0. -1.
         22    1    3    3    0    0  0.81148501832E+02 -0.18324695427E+02 -0.13529638389E+02  0.84284784671E+02  0.00000000000E+00 0. -1.
         22    1    3    3    0    0 -0.43076324891E+01  0.65763715414E+02  0.24505579806E+02  0.70313195094E+02  0.00000000000E+00 0. -1.
</event>
<event>
 7    1  0.5779468E-006  0.4815253E+02  0.7818608E-02  0.1500929E+00
          2   -1    0    0  502    0  0.00000000000E+00  0.00000000000E+00  0.21424892490E+03  0.21424892490E+03  0.00000000000E+00 0. -1.
          1   -1    0    0  501    0 -0.00000000000E+00 -0.00000000000E+00 -0.12550605642E+04  0.12550605642E+04  0.00000000000E+00 0. -1.
         25    2    1    2    0    0  0.70679381472E+01  0.78801773720E+02  0.54168453340E+02  0.15754252685E+03  0.12500300451E+03 0.  0.
          2    1    1    2  501    0  0.36977907075E+01 -0.34725556206E+02 -0.11983599818E+04  0.11988687100E+04  0.00000000000E+00 0. -1.
          1    1    1    2  502    0 -0.10765728855E+02 -0.44076217514E+02  0.10337988917E+03  0.11289825221E+03  0.00000000000E+00 0. -1.
         22    1    3    3    0    0  0.42861651455E+02  0.65857780808E+02  0.79533218748E+02  0.11180295767E+03  0.00000000000E+00 0. -1.
         22    1    3    3    0    0 -0.35793713307E+02  0.12943992912E+02 -0.25364765408E+02  0.45739569183E+02  0.00000000000E+00 0. -1.
</event>
<event>
 7    1  0.5779468E-006  0.8207339E+02  0.7818608E-02  0.1462490E+00
          2   -1    0    0  502    0  0.00000000000E+00  0.00000000000E+00  0.15439065145E+04  0.15439065145E+04  0.00000000000E+00 0. -1.
          1   -1    0    0  501    0 -0.00000000000E+00 -0.00000000000E+00 -0.38172131532E+03  0.38172131532E+03  0.00000000000E+00 0. -1.
         25    2    1    2    0    0 -0.53623491944E+02 -0.34088881697E+02 -0.91486130223E+02  0.16741770126E+03  0.12498577491E+03 0.  0.
          2    1    1    2  501    0  0.61698622772E+02  0.59710558119E+02 -0.24483976979E+03  0.25945825035E+03  0.00000000000E+00 0. -1.
          1    1    1    2  502    0 -0.80751308285E+01 -0.25621676423E+02  0.14985110992E+04  0.14987518782E+04  0.00000000000E+00 0. -1.
         22    1    3    3    0    0 -0.24270376324E+02  0.64617116719E+01  0.28152909143E+02  0.37727856789E+02  0.00000000000E+00 0.  1.
         22    1    3    3    0    0 -0.29353115619E+02 -0.40550593369E+02 -0.11963903937E+03  0.12968984447E+03  0.00000000000E+00 0.  1.
</event>
<event>
 7    1  0.5779468E-006  0.7413627E+02  0.7818608E-02  0.1467599E+00
          2   -1    0    0  502    0  0.00000000000E+00  0.00000000000E+00  0.17400372085E+03  0.17400372085E+03  0.00000000000E+00 0. -1.
          1   -1    0    0  501    0 -0.00000000000E+00 -0.00000000000E+00 -0.10029287400E+04  0.10029287400E+04  0.00000000000E+00 0. -1.
         25    2    1    2    0    0 -0.42121349306E+02 -0.20856531821E+02 -0.10978076134E+03  0.17287621322E+03  0.12500066620E+03 0.  0.
          2    1    1    2  501    0  0.66313523848E+02  0.36231046485E+02 -0.85848168121E+03  0.86180100322E+03  0.00000000000E+00 0. -1.
          1    1    1    2  502    0 -0.24192174542E+02 -0.15374514664E+02  0.13933742339E+03  0.14225524443E+03  0.00000000000E+00 0. -1.
         22    1    3    3    0    0  0.27015573141E+02 -0.34410825648E+02 -0.89406547555E+02  0.99536309253E+02  0.00000000000E+00 0. -1.
         22    1    3    3    0    0 -0.69136922447E+02  0.13554293827E+02 -0.20374213783E+02  0.73339903967E+02  0.00000000000E+00 0. -1.
</event>
<event>
 7    1  0.5779468E-006  0.6558974E+02  0.7818608E-02  0.1384951E+00
          2   -1    0    0  502    0  0.00000000000E+00  0.00000000000E+00  0.52027333871E+02  0.52027333871E+02  0.00000000000E+00 0. -1.
          1   -1    0    0  501    0 -0.00000000000E+00 -0.00000000000E+00 -0.13576251068E+04  0.13576251068E+04  0.00000000000E+00 0. -1.
         25    2    1    2    0    0  0.97863959835E+02  0.63025756805E+02 -0.50451680191E+03  0.53264607342E+03  0.12500014190E+03 0.  0.
          2    1    1    2  501    0 -0.59516412841E+02 -0.12713130692E+02 -0.81073274106E+03  0.81301377880E+03  0.00000000000E+00 0. -1.
          1    1    1    2  502    0 -0.38347546994E+02 -0.50312626113E+02  0.96517700675E+01  0.63992588417E+02  0.00000000000E+00 0. -1.
         22    1    3    3    0    0  0.26573513757E+01 -0.54894896336E+00  0.75058102376E+01  0.79812310217E+01  0.00000000000E+00 0.  1.
         22    1    3    3    0    0  0.95206608459E+02  0.63574705768E+02 -0.51202261214E+03  0.52466484240E+03  0.00000000000E+00 0.  1.
</event>
<event>
 7    1  0.5779468E-006  0.6239782E+02  0.7818608E-02  0.1437287E+00
          2   -1    0    0  502    0  0.00000000000E+00  0.00000000000E+00  0.12226481635E+03  0.12226481635E+03  0.00000000000E+00 0. -1.
          1   -1    0    0  501    0 -0.00000000000E+00 -0.00000000000E+00 -0.17896614614E+04  0.17896614614E+04  0.00000000000E+00 0. -1.
         25    2    1    2    0    0  0.75560227624E+02 -0.13225028439E+02 -0.93825321282E+02  0.17410457659E+03  0.12499985320E+03 0.  0.
          2    1    1    2  501    0 -0.57097353579E+02 -0.25106660446E+02 -0.16495567901E+04  0.16507356105E+04  0.00000000000E+00 0. -1.
          1    1    1    2  502    0 -0.18462874044E+02  0.38331688885E+02  0.75985466313E+02  0.87086090632E+02  0.00000000000E+00 0. -1.
         22    1    3    3    0    0  0.83863350167E+02 -0.49358404758E+02 -0.96354347768E+02  0.13694332388E+03  0.00000000000E+00 0. -1.
         22    1    3    3    0    0 -0.83031225433E+01  0.36133376319E+02  0.25290264859E+01  0.37161252712E+02  0.00000000000E+00 0. -1.
</event>
<event>
 7    1  0.5779468E-006  0.1225923E+03  0.7818608E-02  0.1300769E+00
          2   -1    0    0  502    0  0.00000000000E+00  0.00000000000E+00  0.79794024866E+03  0.79794024866E+03  0.00000000000E+00 0. -1.
          1   -1    0    0  501    0 -0.00000000000E+00 -0.00000000000E+00 -0.39249839009E+04  0.39249839009E+04  0.00000000000E+00 0. -1.
         25    2    1    2    0    0 -0.58429613254E+02  0.58596991515E+01 -0.12781287648E+03  0.18817591409E+03  0.12500274984E+03 0.  0.
          2    1    1    2  501    0  0.12463361375E+03  0.65108400013E+01 -0.37644763690E+04  0.37665446050E+04  0.00000000000E+00 0. -1.
          1    1    1    2  502    0 -0.66204000491E+02 -0.12370539153E+02  0.76524559323E+03  0.76820363048E+03  0.00000000000E+00 0. -1.
         22    1    3    3    0    0 -0.78298594127E+02 -0.18513892667E+02 -0.13383572928E+03  0.15615836992E+03  0.00000000000E+00 0. -1.
         22    1    3    3    0    0  0.19868980873E+02  0.24373591818E+02  0.60228527914E+01  0.32017544172E+02  0.00000000000E+00 0. -1.
</event>
<event>
 7    1  0.5779468E-006  0.7302451E+02  0.7818608E-02  0.1500893E+00
          2   -1    0    0  502    0  0.00000000000E+00  0.00000000000E+00  0.10181235667E+04  0.10181235667E+04  0.00000000000E+00 0. -1.
          1   -1    0    0  501    0 -0.00000000000E+00 -0.00000000000E+00 -0.51130584887E+02  0.51130584887E+02  0.00000000000E+00 0. -1.
         25    2    1    2    0    0  0.61946650789E+02 -0.56171353636E+02  0.45002057716E+03  0.47448555453E+03  0.12500165230E+03 0.  0.
          2    1    1    2  501    0 -0.39382231572E+02  0.60794839667E+02 -0.46996626104E+01  0.72588287777E+02  0.00000000000E+00 0. -1.
          1    1    1    2  502    0 -0.22564419217E+02 -0.46234860307E+01  0.52167206722E+03  0.52218030924E+03  0.00000000000E+00 0. -1.
         22    1    3    3    0    0  0.51202270913E+02 -0.82617055448E+02  0.42668633805E+03  0.43761682037E+03  0.00000000000E+00 0. -1.
         22    1    3    3    0    0  0.10744379876E+02  0.26445701812E+02  0.23334239109E+02  0.36868734153E+02  0.00000000000E+00 0. -1.
</event>
<event>
 7    1  0.5779468E-006  0.8145128E+02  0.7818608E-02  0.1394199E+00
          2   -1    0    0  502    0  0.00000000000E+00  0.00000000000E+00  0.20598227976E+04  0.20598227976E+04  0.00000000000E+00 0. -1.
          1   -1    0    0  501    0 -0.00000000000E+00 -0.00000000000E+00 -0.25452565548E+03  0.25452565548E+03  0.00000000000E+00 0. -1.
         25    2    1    2    0    0 -0.51105397200E+02  0.73787083963E+02  0.79826587946E+02  0.17335484812E+03  0.12499329518E+03 0.  0.
          2    1    1    2  501    0  0.44873905046E+02  0.74946005630E+01 -0.20440003145E+03  0.20940202780E+03  0.00000000000E+00 0. -1.
          1    1    1    2  502    0  0.62314921536E+01 -0.81281684526E+02  0.19298705856E+04  0.19315915772E+04  0.00000000000E+00 0. -1.
         22    1    3    3    0    0 -0.50343711326E+02 -0.24105576324E+02  0.25105480552E+02  0.61203375999E+02  0.00000000000E+00 0.  1.
         22    1    3    3    0    0 -0.76168587396E+00  0.97892660287E+02  0.54721107394E+02  0.11215147212E+03  0.00000000000E+00 0.  1.
</event>
<event>
 7    1  0.5779468E-006  0.1406108E+03  0.7818608E-02  0.1335816E+00
          2   -1    0    0  502    0  0.00000000000E+00  0.00000000000E+00  0.40333287124E+03  0.40333287124E+03  0.00000000000E+00 0. -1.
          1   -1    0    0  501    0 -0.00000000000E+00 -0.00000000000E+00 -0.17523166144E+04  0.17523166144E+04  0.00000000000E+00 0. -1.
         25    2    1    2    0    0 -0.58608341425E+02 -0.95011611555E+02 -0.12920014486E+03  0.21160320209E+03  0.12498437378E+03 0.  0.
          2    1    1    2  501    0  0.10103288208E+03  0.10135343793E+03 -0.15773939426E+04  0.15838724105E+04  0.00000000000E+00 0. -1.
          1    1    1    2  502    0 -0.42424540652E+02 -0.63418263701E+01  0.35761034434E+03  0.36017387300E+03  0.00000000000E+00 0. -1.
         22    1    3    3    0    0 -0.49829967095E+02  0.12942646991E+02 -0.73699172928E+02  0.89900532935E+02  0.00000000000E+00 0.  1.
         22    1    3    3    0    0 -0.87783743300E+01 -0.10795425855E+03 -0.55500971937E+02  0.12170266916E+03  0.00000000000E+00 0.  1.
</event>
<event>
 7    1  0.5779468E-006  0.8781642E+02  0.7818608E-02  0.1322764E+00
          2   -1    0    0  502    0  0.00000000000E+00  0.00000000000E+00  0.86707726825E+03  0.86707726825E+03  0.00000000000E+00 0. -1.
          1   -1    0    0  501    0 -0.00000000000E+00 -0.00000000000E+00 -0.78951497494E+03  0.78951497494E+03  0.00000000000E+00 0. -1.
         25    2    1    2    0    0  0.27459502952E+02  0.43474856999E+02  0.49228466121E+02  0.14384888607E+03  0.12499989061E+03 0.  0.
          2    1    1    2  501    0  0.40453330071E+02 -0.79870430474E+02 -0.73756476003E+03  0.74297882393E+03  0.00000000000E+00 0. -1.
          1    1    1    2  502    0 -0.67912833023E+02  0.36395573475E+02  0.76589858721E+03  0.76976453318E+03  0.00000000000E+00 0. -1.
         22    1    3    3    0    0  0.39615415464E+02  0.28392351218E+02 -0.33331650199E+02  0.59046639659E+02  0.00000000000E+00 0.  1.
         22    1    3    3    0    0 -0.12155912512E+02  0.15082505782E+02  0.82560116320E+02  0.84802246412E+02  0.00000000000E+00 0.  1.
</event>
<event>
 7    1  0.5779468E-006  0.1543970E+03  0.7818608E-02  0.1249197E+00
          2   -1    0    0  502    0  0.00000000000E+00  0.00000000000E+00  0.76410618351E+03  0.76410618351E+03  0.00000000000E+00 0. -1.
          1   -1    0    0  501    0 -0.00000000000E+00 -0.00000000000E+00 -0.28556442055E+03  0.28556442055E+03  0.00000000000E+00 0. -1.
         25    2    1    2    0    0 -0.62829606633E+02  0.13064682952E+03  0.67565312938E+02  0.20298938888E+03  0.12499386766E+03 0.  0.
          2    1    1    2  501    0 -0.73183572771E+02 -0.48360984423E+02 -0.19839181002E+03  0.21691917947E+03  0.00000000000E+00 0. -1.
          1    1    1    2  502    0  0.13601317940E+03 -0.82285845093E+02  0.60936826005E+03  0.62976203571E+03  0.00000000000E+00 0. -1.
         22    1    3    3    0    0 -0.35661005373E+02  0.15068499868E+03  0.68256144168E+02  0.16922345389E+03  0.00000000000E+00 0. -1.
         22    1    3    3    0    0 -0.27168601260E+02 -0.20038169160E+02 -0.69083122981E+00  0.33765934986E+02  0.00000000000E+00 0. -1.
</event>
<event>
 7    1  0.5779468E-006  0.2612824E+02  0.7818608E-02  0.1672685E+00
          2   -1    0    0  502    0  0.00000000000E+00  0.00000000000E+00  0.10220009272E+03  0.10220009272E+03  0.00000000000E+00 0. -1.
          1   -1    0    0  501    0 -0.00000000000E+00 -0.00000000000E+00 -0.13055417814E+04  0.13055417814E+04  0.00000000000E+00 0. -1.
         25    2    1    2    0    0 -0.33774508548E+02 -0.87923286507E+01 -0.12621614096E+03  0.18102269263E+03  0.12498271296E+03 0.  0.
          2    1    1    2  501    0  0.18627799382E+02 -0.12483711179E+02 -0.11495298614E+04  0.11497485552E+04  0.00000000000E+00 0. -1.
          1    1    1    2  502    0  0.15146709166E+02  0.21276039830E+02  0.72404313684E+02  0.76970626277E+02  0.00000000000E+00 0. -1.
         22    1    3    3    0    0 -0.27506217197E+02  0.72952255498E+01 -0.14941681858E+03  0.15210259030E+03  0.00000000000E+00 0.  1.
         22    1    3    3    0    0 -0.62682913508E+01 -0.16087554201E+02  0.23200677625E+02  0.28920102331E+02  0.00000000000E+00 0.  1.
</event>
<event>
 7    1  0.5779468E-006  0.6086891E+02  0.7818608E-02  0.1411715E+00
          2   -1    0    0  502    0  0.00000000000E+00  0.00000000000E+00  0.10340459004E+04  0.10340459004E+04  0.00000000000E+00 0. -1.
          1   -1    0    0  501    0 -0.00000000000E+00 -0.00000000000E+00 -0.24309823612E+03  0.24309823612E+03  0.00000000000E+00 0. -1.
         25    2    1    2    0    0 -0.45013561072E+02  0.76063100909E+01  0.27127389311E+02  0.13581163258E+03  0.12499931064E+03 0.  0.
          2    1    1    2  501    0  0.43819167872E+02  0.45407568245E+02 -0.18271924416E+03  0.19330879161E+03  0.00000000000E+00 0. -1.
          1    1    1    2  502    0  0.11943931995E+01 -0.53013878335E+02  0.94653951912E+03  0.94802371233E+03  0.00000000000E+00 0. -1.
         22    1    3    3    0    0  0.16629006502E+02 -0.27636737187E+02  0.51476551968E+02  0.60746592515E+02  0.00000000000E+00 0. -1.
         22    1    3    3    0    0 -0.61642567573E+02  0.35243047278E+02 -0.24349162657E+02  0.75065040069E+02  0.00000000000E+00 0. -1.
</event>
<event>
 7    1  0.5779468E-006  0.7440561E+02  0.7818608E-02  0.1409011E+00
          2   -1    0    0  502    0  0.00000000000E+00  0.00000000000E+00  0.15833402987E+04  0.15833402987E+04  0.00000000000E+00 0. -1.
          1   -1    0    0  501    0 -0.00000000000E+00 -0.00000000000E+00 -0.12697438915E+03  0.12697438915E+03  0.00000000000E+00 0. -1.
         25    2    1    2    0    0  0.11644659293E+03  0.15622093153E+01  0.17010807071E+03  0.24108139255E+03  0.12498492954E+03 0.  0.
          2    1    1    2  501    0 -0.43501635026E+02 -0.83963278935E+01 -0.85088127196E+02  0.95931642130E+02  0.00000000000E+00 0. -1.
          1    1    1    2  502    0 -0.72944957903E+02  0.68341185782E+01  0.13713459660E+04  0.13733016532E+04  0.00000000000E+00 0. -1.
         22    1    3    3    0    0 -0.11839285999E+01 -0.33519834309E+02  0.29168486650E+01  0.33667328156E+02  0.00000000000E+00 0.  1.
         22    1    3    3    0    0  0.11763052153E+03  0.35082043624E+02  0.16719122205E+03  0.20741406440E+03  0.00000000000E+00 0.  1.
</event>
<event>
 7    1  0.5779468E-006  0.5285833E+02  0.7818608E-02  0.1535367E+00
          2   -1    0    0  502    0  0.00000000000E+00  0.00000000000E+00  0.29931870092E+03  0.29931870092E+03  0.00000000000E+00 0. -1.
          1   -1    0    0  501    0 -0.00000000000E+00 -0.00000000000E+00 -0.24412853470E+03  0.24412853470E+03  0.00000000000E+00 0. -1.
         25    2    1    2    0    0  0.16050532843E+02  0.24335392072E+02  0.53872322031E+00  0.12835487187E+03  0.12499940799E+03 0.  0.
          2    1    1    2  501    0 -0.28463820921E+02 -0.46328262938E+02 -0.17541248590E+03  0.18364650081E+03  0.00000000000E+00 0. -1.
          1    1    1    2  502    0  0.12413288078E+02  0.21992870866E+02  0.23006392891E+03  0.23144586294E+03  0.00000000000E+00 0. -1.
         22    1    3    3    0    0  0.25284707890E+02 -0.48210650173E+02  0.72354182206E+01  0.54917524707E+02  0.00000000000E+00 0.  1.
         22    1    3    3    0    0 -0.92341750471E+01  0.72546042245E+02 -0.66966950003E+01  0.73437347162E+02  0.00000000000E+00 0.  1.
</event>
<event>
 7    1  0.5779468E-006  0.7285172E+02  0.7818608E-02  0.1440032E+00
          2   -1    0    0  502    0  0.00000000000E+00  0.00000000000E+00  0.12996874378E+04  0.12996874378E+04  0.00000000000E+00 0. -1.
          1   -1    0    0  501    0 -0.00000000000E+00 -0.00000000000E+00 -0.14787502335E+02  0.14787502335E+02  0.00000000000E+00 0. -1.
         25    2    1    2    0    0  0.38670177285E+02 -0.41296372858E+02  0.80016515483E+03  0.81184352979E+03  0.12499947530E+03 0.  0.
          2    1    1    2  501    0 -0.24215909751E+02  0.73939054280E+02  0.18383680661E+03  0.19962305853E+03  0.00000000000E+00 0. -1.
          1    1    1    2  502    0 -0.14454267534E+02 -0.32642681421E+02  0.30089797399E+03  0.30300835179E+03  0.00000000000E+00 0. -1.
         22    1    3    3    0    0  0.38513097561E+02  0.30554508655E+02  0.15305273142E+03  0.16075439427E+03  0.00000000000E+00 0. -1.
         22    1    3    3    0    0  0.15707972360E+00 -0.71850881514E+02  0.64711242342E+03  0.65108913552E+03  0.00000000000E+00 0. -1.
</event>
<event>
 7    1  0.5779468E-006  0.1041942E+03  0.7818608E-02  0.1299339E+00
          2   -1    0    0  502    0  0.00000000000E+00  0.00000000000E+00  0.55486549564E+03  0.55486549564E+03  0.00000000000E+00 0. -1.
          1   -1    0    0  501    0 -0.00000000000E+00 -0.00000000000E+00 -0.62998499982E+03  0.62998499982E+03  0.00000000000E+00 0. -1.
         25    2    1    2    0    0 -0.63635402291E+02  0.14756586004E+03  0.34241775984E+00  0.20359881069E+03  0.12500884365E+03 0.  0.
          2    1    1    2  501    0  0.65925043212E+02 -0.45835478004E+02 -0.51951789939E+03  0.52568607567E+03  0.00000000000E+00 0. -1.
          1    1    1    2  502    0 -0.22896409209E+01 -0.10173038204E+03  0.44405597745E+03  0.45556560910E+03  0.00000000000E+00 0. -1.
         22    1    3    3    0    0 -0.11644770635E+02  0.14923841834E+03  0.12391417097E+02  0.15020403926E+03  0.00000000000E+00 0. -1.
         22    1    3    3    0    0 -0.51990631656E+02 -0.16725583032E+01 -0.12048999338E+02  0.53394771433E+02  0.00000000000E+00 0. -1.
</event>
<event>
 7    1  0.5779468E-006  0.7374808E+02  0.7818608E-02  0.1417240E+00
          2   -1    0    0  502    0  0.00000000000E+00  0.00000000000E+00  0.57625131273E+03  0.57625131273E+03  0.00000000000E+00 0. -1.
          1   -1    0    0  501    0 -0.00000000000E+00 -0.00000000000E+00 -0.85867328278E+03  0.85867328278E+03  0.00000000000E+00 0. -1.
         25    2    1    2    0    0  0.42596245988E+02 -0.96472360829E+01 -0.47508619950E+02  0.14068017948E+03  0.12500533825E+03 0.  0.
          2    1    1    2  501    0  0.29325454244E+02  0.29971481961E+02 -0.76136262372E+03  0.76251643706E+03  0.00000000000E+00 0. -1.
          1    1    1    2  502    0 -0.71921700232E+02 -0.20324245878E+02  0.52644927361E+03  0.53172797897E+03  0.00000000000E+00 0. -1.
         22    1    3    3    0    0  0.49661132394E+02  0.44784597648E+02  0.17996983351E+01  0.66896391317E+02  0.00000000000E+00 0. -1.
         22    1    3    3    0    0 -0.70648864058E+01 -0.54431833731E+02 -0.49308318285E+02  0.73783788160E+02  0.00000000000E+00 0. -1.
</event>
<event>
 7    1  0.5779468E-006  0.2305757E+03  0.7818608E-02  0.1216102E+00
          2   -1    0    0  502    0  0.00000000000E+00  0.00000000000E+00  0.43142511161E+04  0.43142511161E+04  0.00000000000E+00 0. -1.
          1   -1    0    0  501    0 -0.00000000000E+00 -0.00000000000E+00 -0.41119738050E+02  0.41119738050E+02  0.00000000000E+00 0. -1.
         25    2    1    2    0    0 -0.12345980955E+03 -0.12778437517E+03  0.89105091441E+03  0.91715384832E+03  0.12501311258E+03 0.  0.
          2    1    1    2  501    0 -0.80699638229E+02 -0.17354237047E+02  0.49527281827E+02  0.96262935748E+02  0.00000000000E+00 0. -1.
          1    1    1    2  502    0  0.20415944778E+03  0.14513861222E+03  0.33325531818E+04  0.33419540700E+04  0.00000000000E+00 0. -1.
         22    1    3    3    0    0 -0.78500575175E+02 -0.11154582129E+03  0.37756196365E+03  0.40144469973E+03  0.00000000000E+00 0. -1.
         22    1    3    3    0    0 -0.44959234378E+02 -0.16238553878E+02  0.51348895076E+03  0.51570914859E+03  0.00000000000E+00 0. -1.
</event>
<event>
 7    1  0.5779468E-006  0.3207216E+03  0.7818608E-02  0.1137868E+00
          2   -1    0    0  502    0  0.00000000000E+00  0.00000000000E+00  0.93751877808E+03  0.93751877808E+03  0.00000000000E+00 0. -1.
          1   -1    0    0  501    0 -0.00000000000E+00 -0.00000000000E+00 -0.13523023311E+04  0.13523023311E+04  0.00000000000E+00 0. -1.
         25    2    1    2    0    0 -0.64526687553E+02  0.31626577235E+03 -0.16951442383E+03  0.38541900267E+03  0.12499974226E+03 0.  0.
          2    1    1    2  501    0 -0.79250314546E+02 -0.31646632922E+03 -0.10435089701E+04  0.10933172094E+04  0.00000000000E+00 0. -1.
          1    1    1    2  502    0  0.14377700210E+03  0.20055686862E+00  0.79823984091E+03  0.81108489702E+03  0.00000000000E+00 0. -1.
         22    1    3    3    0    0 -0.37393619392E+02  0.85169781331E+02  0.71163812687E+01  0.93288891652E+02  0.00000000000E+00 0.  1.
         22    1    3    3    0    0 -0.27133068161E+02  0.23109599102E+03 -0.17663080510E+03  0.29213011102E+03  0.00000000000E+00 0.  1.
</event>
<event>
 7    1  0.5779468E-006  0.3596815E+02  0.7818608E-02  0.1563619E+00
          2   -1    0    0  502    0  0.00000000000E+00  0.00000000000E+00  0.24586951217E+03  0.24586951217E+03  0.00000000000E+00 0. -1.
          1   -1    0    0  501    0 -0.00000000000E+00 -0.00000000000E+00 -0.33493149966E+03  0.33493149966E+03  0.00000000000E+00 0. -1.
         25    2    1    2    0    0  0.10207846988E+02 -0.29649065667E+02 -0.30742049228E+01  0.12891193744E+03  0.12500227855E+03 0.  0.
          2    1    1    2  501    0  0.20741901859E+02  0.29798389941E+02 -0.26638920632E+03  0.26885196629E+03  0.00000000000E+00 0. -1.
          1    1    1    2  502    0 -0.30949748847E+02 -0.14932427370E+00  0.18040142375E+03  0.18303710810E+03  0.00000000000E+00 0. -1.
         22    1    3    3    0    0 -0.25339775648E+02  0.34833724959E+02  0.25353435430E+02  0.49982890198E+02  0.00000000000E+00 0. -1.
         22    1    3    3    0    0  0.35547622635E+02 -0.64482790627E+02 -0.28427640353E+02  0.78929047239E+02  0.00000000000E+00 0. -1.
</event>
<event>
 7    1  0.5779468E-006  0.5608573E+02  0.7818608E-02  0.1471455E+00
          2   -1    0    0  502    0  0.00000000000E+00  0.00000000000E+00  0.23683937290E+04  0.23683937290E+04  0.00000000000E+00 0. -1.
          1   -1    0    0  501    0 -0.00000000000E+00 -0.00000000000E+00 -0.16844257620E+03  0.16844257620E+03  0.00000000000E+00 0. -1.
         25    2    1    2    0    0  0.68673701407E+02 -0.78577916864E+01  0.12270606865E+03  0.18830778841E+03  0.12500088693E+03 0.  0.
          2    1    1    2  501    0 -0.50479807433E+02 -0.24195194717E+02 -0.12970574594E+03  0.14126995058E+03  0.00000000000E+00 0. -1.
          1    1    1    2  502    0 -0.18193893975E+02  0.32052986404E+02  0.22069508300E+04  0.22072585662E+04  0.00000000000E+00 0. -1.
         22    1    3    3    0    0  0.38285928377E+02  0.56696825390E+02  0.79552309617E+02  0.10492336387E+03  0.00000000000E+00 0.  1.
         22    1    3    3    0    0  0.30387773030E+02 -0.64554617076E+02  0.43153759037E+02  0.83384424533E+02  0.00000000000E+00 0.  1.
</event>
<event>
 7    1  0.5779468E-006  0.1708716E+03  0.7818608E-02  0.1358697E+00
          2   -1    0    0  502    0  0.00000000000E+00  0.00000000000E+00  0.10996932669E+04  0.10996932669E+04  0.00000000000E+00 0. -1.
          1   -1    0    0  501    0 -0.00000000000E+00 -0.00000000000E+00 -0.55215257936E+03  0.55215257936E+03  0.00000000000E+00 0. -1.
         25    2    1    2    0    0 -0.48730801832E+01  0.15153622415E+03 -0.77371203606E+02  0.21118497867E+03  0.12500327167E+03 0.  0.
          2    1    1    2  501    0  0.21696041757E+02 -0.17517675847E+03 -0.38855957927E+03  0.42677413415E+03  0.00000000000E+00 0. -1.
          1    1    1    2  502    0 -0.16822961574E+02  0.23640534326E+02  0.10134714705E+04  0.10138867335E+04  0.00000000000E+00 0. -1.
         22    1    3    3    0    0 -0.36676100562E+02  0.79793772791E+02  0.15947757005E+02  0.89255327472E+02  0.00000000000E+00 0.  1.
         22    1    3    3    0    0  0.31803020379E+02  0.71742451356E+02 -0.93318960611E+02  0.12192965120E+03  0.00000000000E+00 0.  1.
</event>
<event>
 7    1  0.5779468E-006  0.6637752E+02  0.7818608E-02  0.1497062E+00
          2   -1    0    0  502    0  0.00000000000E+00  0.00000000000E+00  0.12629436179E+04  0.12629436179E+04  0.00000000000E+00 0. -1.
          1   -1    0    0  501    0 -0.00000000000E+00 -0.00000000000E+00 -0.78527546224E+03  0.78527546224E+03  0.00000000000E+00 0. -1.
         25    2    1    2    0    0  0.42643277457E+02  0.15177769552E+01 -0.12878731072E+03  0.18447880432E+03  0.12500202031E+03 0.  0.
          2    1    1    2  501    0 -0.67752510579E+02  0.52932207853E+01 -0.62666812912E+03  0.63034226015E+03  0.00000000000E+00 0. -1.
          1    1    1    2  502    0  0.25109233122E+02 -0.68109977404E+01  0.12331235955E+04  0.12333980157E+04  0.00000000000E+00 0. -1.
         22    1    3    3    0    0 -0.22855863405E+02 -0.45548068657E+02 -0.57525159273E+02  0.76851551706E+02  0.00000000000E+00 0.  1.
         22    1    3    3    0    0  0.65499140862E+02  0.47065845612E+02 -0.71262151450E+02  0.10762725262E+03  0.00000000000E+00 0.  1.
</event>
<event>
 7    1  0.5779468E-006  0.9696141E+02  0.7818608E-02  0.1457230E+00
          2   -1    0    0  502    0  0.00000000000E+00  0.00000000000E+00  0.28721294513E+03  0.28721294513E+03  0.00000000000E+00 0. -1.
          1   -1    0    0  501    0 -0.00000000000E+00 -0.00000000000E+00 -0.26870264877E+04  0.26870264877E+04  0.00000000000E+00 0. -1.
         25    2    1    2    0    0 -0.94683184906E+02 -0.13388025424E+02 -0.12242214299E+03  0.19939071615E+03  0.12500132745E+03 0.  0.
          2    1    1    2  501    0  0.96527882402E+02 -0.10164909798E+02 -0.25246243880E+04  0.25264895127E+04  0.00000000000E+00 0. -1.
          1    1    1    2  502    0 -0.18446974963E+01  0.23552935222E+02  0.24723298838E+03  0.24835920399E+03  0.00000000000E+00 0. -1.
         22    1    3    3    0    0  0.18716435140E+02 -0.32267391693E+02 -0.10052056182E+02  0.38633319097E+02  0.00000000000E+00 0.  1.
         22    1    3    3    0    0 -0.11339962005E+03  0.18879366269E+02 -0.11237008681E+03  0.16075739705E+03  0.00000000000E+00 0.  1.
</event>
<event>
 7    1  0.5779468E-006  0.2752717E+03  0.7818608E-02  0.1237890E+00
          2   -1    0    0  502    0  0.00000000000E+00  0.00000000000E+00  0.88756819774E+03  0.88756819774E+03  0.00000000000E+00 0. -1.
          1   -1    0    0  501    0 -0.00000000000E+00 -0.00000000000E+00 -0.56301739362E+03  0.56301739362E+03  0.00000000000E+00 0. -1.
         25    2    1    2    0    0  0.80811466447E+02 -0.24195918807E+03  0.25276719273E+03  0.38024776161E+03  0.12498945830E+03 0.  0.
          2    1    1    2  501    0 -0.35154407598E+02 -0.42493388486E+02 -0.46119446670E+03  0.46448020039E+03  0.00000000000E+00 0. -1.
          1    1    1    2  502    0 -0.45657058849E+02  0.28445257656E+03  0.53297807810E+03  0.60585762937E+03  0.00000000000E+00 0. -1.
         22    1    3    3    0    0  0.91942327364E+02 -0.25057170144E+03  0.22489303304E+03  0.34902212743E+03  0.00000000000E+00 0.  1.
         22    1    3    3    0    0 -0.11130860917E+02  0.86125133748E+01  0.27874159687E+02  0.31225634175E+02  0.00000000000E+00 0.  1.
</event>
<event>
 7    1  0.5779468E-006  0.1616368E+03  0.7818608E-02  0.1370961E+00
          2   -1    0    0  502    0  0.00000000000E+00  0.00000000000E+00  0.10526958678E+04  0.10526958678E+04  0.00000000000E+00 0. -1.
          1   -1    0    0  501    0 -0.00000000000E+00 -0.00000000000E+00 -0.16644887732E+03  0.16644887732E+03  0.00000000000E+00 0. -1.
         25    2    1    2    0    0 -0.98359990082E+01 -0.14191664488E+03 -0.20925508465E+02  0.19052512880E+03  0.12499946731E+03 0.  0.
          2    1    1    2  501    0 -0.20943966257E+02 -0.18112892736E+02 -0.50278516394E+02  0.57399092472E+02  0.00000000000E+00 0. -1.
          1    1    1    2  502    0  0.30779965266E+02  0.16002953762E+03  0.95745101534E+03  0.97122052385E+03  0.00000000000E+00 0. -1.
         22    1    3    3    0    0 -0.54612316005E+02 -0.18844547094E+02  0.76220844505E+00  0.57777183873E+02  0.00000000000E+00 0.  1.
         22    1    3    3    0    0  0.44776316996E+02 -0.12307209779E+03 -0.21687716910E+02  0.13274794493E+03  0.00000000000E+00 0.  1.
</event>
<event>
 7    1  0.5779468E-006  0.1426155E+03  0.7818608E-02  0.1261104E+00
          2   -1    0    0  502    0  0.00000000000E+00  0.00000000000E+00  0.22700824974E+04  0.22700824974E+04  0.00000000000E+00 0. -1.
          1   -1    0    0  501    0 -0.00000000000E+00 -0.00000000000E+00 -0.22440292973E+03  0.22440292973E+03  0.00000000000E+00 0. -1.
         25    2    1    2    0    0  0.13932320561E+03 -0.53309362564E+02  0.11102202252E+03  0.22405014531E+03  0.12497893571E+03 0.  0.
          2    1    1    2  501    0 -0.84951810305E+02  0.11786299727E+03 -0.13543487873E+03  0.19862301623E+03  0.00000000000E+00 0. -1.
          1    1    1    2  502    0 -0.54371395308E+02 -0.64553634705E+02  0.20700924239E+04  0.20718122656E+04  0.00000000000E+00 0. -1.
         22    1    3    3    0    0  0.13410849333E+03 -0.82697248783E+02  0.11337928937E+03  0.19411024238E+03  0.00000000000E+00 0. -1.
         22    1    3    3    0    0  0.52147122841E+01  0.29387886218E+02 -0.23572668515E+01  0.29939902932E+02  0.00000000000E+00 0. -1.
</event>
<event>
 7    1  0.5779468E-006  0.6173458E+02  0.7818608E-02  0.1478380E+00
          2   -1    0    0  502    0  0.00000000000E+00  0.00000000000E+00  0.15874832132E+04  0.15874832132E+04  0.00000000000E+00 0. -1.
          1   -1    0    0  501    0 -0.00000000000E+00 -0.00000000000E+00 -0.12027183374E+04  0.12027183374E+04  0.00000000000E+00 0. -1.
         25    2    1    2    0    0  0.66343775036E+02 -0.65310749162E+02 -0.23693405584E+02  0.15765077243E+03  0.12500159254E+03 0.  0.
          2    1    1    2  501    0 -0.20094531296E+02  0.24742763156E+02 -0.11111953345E+04  0.11116524034E+04  0.00000000000E+00 0. -1.
          1    1    1    2  502    0 -0.46249243741E+02  0.40567986006E+02  0.15196536159E+04  0.15208983748E+04  0.00000000000E+00 0. -1.
         22    1    3    3    0    0  0.70660116273E+02  0.17586338629E+02 -0.94043623584E+01  0.73420524171E+02  0.00000000000E+00 0.  1.
         22    1    3    3    0    0 -0.43163412370E+01 -0.82897087791E+02 -0.14289043226E+02  0.84230248261E+02  0.00000000000E+00 0.  1.
</event>
<event>
 7    1  0.5779468E-006  0.2051493E+03  0.7818608E-02  0.1299566E+00
          2   -1    0    0  502    0  0.00000000000E+00  0.00000000000E+00  0.15916433363E+04  0.15916433363E+04  0.00000000000E+00 0. -1.
          1   -1    0    0  501    0 -0.00000000000E+00 -0.00000000000E+00 -0.15352331745E+03  0.15352331745E+03  0.00000000000E+00 0. -1.
         25    2    1    2    0    0 -0.15567776477E+03 -0.14303251540E+03  0.71569897259E+03  0.75666636103E+03  0.12500038259E+03 0.  0.
          2    1    1    2  501    0 -0.17218535242E+02  0.36872934736E+02 -0.11753906318E+03  0.12438457559E+03  0.00000000000E+00 0. -1.
          1    1    1    2  502    0  0.17289630001E+03  0.10615958066E+03  0.83996010946E+03  0.86411571714E+03  0.00000000000E+00 0. -1.
         22    1    3    3    0    0 -0.99124632109E+01 -0.36960502907E+02  0.31458276085E+03  0.31690163951E+03  0.00000000000E+00 0. -1.
         22    1    3    3    0    0 -0.14576530156E+03 -0.10607201249E+03  0.40111621174E+03  0.43976472152E+03  0.00000000000E+00 0. -1.
</event>
<event>
 7    1  0.5779468E-006  0.1253859E+03  0.7818608E-02  0.1358066E+00
          2   -1    0    0  502    0  0.00000000000E+00  0.00000000000E+00  0.86311248887E+03  0.86311248887E+03  0.00000000000E+00 0. -1.
          1   -1    0    0  501    0 -0.00000000000E+00 -0.00000000000E+00 -0.18145823194E+04  0.18145823194E+04  0.00000000000E+00 0. -1.
         25    2    1    2    0    0 -0.15426149351E+03 -0.41080495738E+01 -0.65502501833E+02  0.20911637210E+03  0.12500237952E+03 0.  0.
          2    1    1    2  501    0  0.32709736391E+02 -0.22589045105E+02 -0.16721421603E+04  0.16726145988E+04  0.00000000000E+00 0. -1.
          1    1    1    2  502    0  0.12155175711E+03  0.26697094678E+02  0.78617483162E+03  0.79596383736E+03  0.00000000000E+00 0. -1.
         22    1    3    3    0    0 -0.92172433145E+02  0.51245841905E+02 -0.37648695010E+01  0.10552756979E+03  0.00000000000E+00 0.  1.
         22    1    3    3    0    0 -0.62089060360E+02 -0.55353891478E+02 -0.61737632332E+02  0.10358880231E+03  0.00000000000E+00 0.  1.
</event>
<event>
 7    1  0.5779468E-006  0.2886217E+03  0.7818608E-02  0.1245651E+00
          2   -1    0    0  502    0  0.00000000000E+00  0.00000000000E+00  0.16932128297E+04  0.16932128297E+04  0.00000000000E+00 0. -1.
          1   -1    0    0  501    0 -0.00000000000E+00 -0.00000000000E+00 -0.44838726367E+03  0.44838726367E+03  0.00000000000E+00 0. -1.
         25    2    1    2    0    0  0.25090106754E+03  0.17542640930E+03  0.32043181833E+03  0.46046490766E+03  0.12500244087E+03 0.  0.
          2    1    1    2  501    0 -0.43892133631E+02  0.20922821643E+02 -0.36109991927E+03  0.36435893780E+03  0.00000000000E+00 0. -1.
          1    1    1    2  502    0 -0.20700893391E+03 -0.19634923094E+03  0.12854936670E+04  0.13167762479E+04  0.00000000000E+00 0. -1.
         22    1    3    3    0    0  0.84086527828E+02  0.16846324930E+01  0.48038275330E+02  0.96855862216E+02  0.00000000000E+00 0. -1.
         22    1    3    3    0    0  0.16681453971E+03  0.17374177680E+03  0.27239354300E+03  0.36360904545E+03  0.00000000000E+00 0. -1.
</event>
<event>
 7    1  0.5779468E-006  0.1012790E+03  0.7818608E-02  0.1377052E+00
          2   -1    0    0  502    0  0.00000000000E+00  0.00000000000E+00  0.60378349494E+03  0.60378349494E+03  0.00000000000E+00 0. -1.
          1   -1    0    0  501    0 -0.00000000000E+00 -0.00000000000E+00 -0.21126260133E+03  0.21126260133E+03  0.00000000000E+00 0. -1.
         25    2    1    2    0    0 -0.60097164824E+02 -0.16615103334E+02 -0.89400059989E+01  0.13997271191E+03  0.12499882197E+03 0.  0.
          2    1    1    2  501    0 -0.37666569049E+02 -0.18651633784E+02 -0.12840593504E+03  0.13511009592E+03  0.00000000000E+00 0. -1.
          1    1    1    2  502    0  0.97763733873E+02  0.35266737118E+02  0.52986683464E+03  0.53996328844E+03  0.00000000000E+00 0. -1.
         22    1    3    3    0    0 -0.35687698670E+02  0.38980946374E+02 -0.44948921263E+02  0.69379619049E+02  0.00000000000E+00 0. -1.
         22    1    3    3    0    0 -0.24409466154E+02 -0.55596049708E+02  0.36008915264E+02  0.70593092860E+02  0.00000000000E+00 0. -1.
</event>
<event>
 7    1  0.5779468E-006  0.9884522E+02  0.7818608E-02  0.1357493E+00
          2   -1    0    0  502    0  0.00000000000E+00  0.00000000000E+00  0.24798777711E+02  0.24798777711E+02  0.00000000000E+00 0. -1.
          1   -1    0    0  501    0 -0.00000000000E+00 -0.00000000000E+00 -0.23811965433E+04  0.23811965433E+04  0.00000000000E+00 0. -1.
         25    2    1    2    0    0  0.89855007286E+02  0.10019837053E+03 -0.10456870601E+04  0.10616967096E+04  0.12499935947E+03 0.  0.
          2    1    1    2  501    0 -0.76518126359E+02 -0.51315774209E+02 -0.12834668823E+04  0.12867694316E+04  0.00000000000E+00 0. -1.
          1    1    1    2  502    0 -0.13336880928E+02 -0.48882596325E+02 -0.27243823286E+02  0.57529179758E+02  0.00000000000E+00 0. -1.
         22    1    3    3    0    0  0.32802287852E+02  0.11690828583E+03 -0.78359793363E+03  0.79294972033E+03  0.00000000000E+00 0.  1.
         22    1    3    3    0    0  0.57052719434E+02 -0.16709915294E+02 -0.26208912643E+03  0.26874698930E+03  0.00000000000E+00 0.  1.
</event>
<event>
 7    1  0.5779468E-006  0.5015867E+02  0.7818608E-02  0.1448324E+00
          2   -1    0    0  502    0  0.00000000000E+00  0.00000000000E+00  0.11637742365E+04  0.11637742365E+04  0.00000000000E+00 0. -1.
          1   -1    0    0  501    0 -0.00000000000E+00 -0.00000000000E+00 -0.41996284059E+02  0.41996284059E+02  0.00000000000E+00 0. -1.
         25    2    1    2    0    0 -0.68471909378E+02  0.22010603800E+02  0.43959820436E+03  0.46264889706E+03  0.12499820645E+03 0.  0.
          2    1    1    2  501    0  0.23237738694E+02 -0.42859763752E+02 -0.94831135981E+01  0.49667708745E+02  0.00000000000E+00 0. -1.
          1    1    1    2  502    0  0.45234170684E+02  0.20849159952E+02  0.69166286168E+03  0.69345391476E+03  0.00000000000E+00 0. -1.
         22    1    3    3    0    0  0.31895660535E+02 -0.11020041343E+02  0.16516290993E+03  0.16857509095E+03  0.00000000000E+00 0. -1.
         22    1    3    3    0    0 -0.10036756991E+03  0.33030645143E+02  0.27443529443E+03  0.29407380611E+03  0.00000000000E+00 0. -1.
</event>
<event>
 7    1  0.5779468E-006  0.2111677E+03  0.7818608E-02  0.1301347E+00
          2   -1    0    0  502    0  0.00000000000E+00  0.00000000000E+00  0.32788235825E+03  0.32788235825E+03  0.00000000000E+00 0. -1.
          1   -1    0    0  501    0 -0.00000000000E+00 -0.00000000000E+00 -0.83634986776E+03  0.83634986776E+03  0.00000000000E+00 0. -1.
         25    2    1    2    0    0 -0.93716437845E+02  0.19241279287E+03  0.99078384155E+02  0.26692146149E+03  0.12500034725E+03 0.  0.
          2    1    1    2  501    0 -0.31165299840E+02 -0.23265985300E+02 -0.67529385848E+03  0.67641287486E+03  0.00000000000E+00 0. -1.
          1    1    1    2  502    0  0.12488173768E+03 -0.16914680757E+03  0.67747964817E+02  0.22089788966E+03  0.00000000000E+00 0. -1.
         22    1    3    3    0    0 -0.75487928356E+02  0.70903165743E+02 -0.80919275021E+01  0.10388053490E+03  0.00000000000E+00 0. -1.
         22    1    3    3    0    0 -0.18228509488E+02  0.12150962713E+03  0.10717031166E+03  0.16304092659E+03  0.00000000000E+00 0. -1.
</event>
<event>
 7    1  0.5779468E-006  0.3325451E+03  0.7818608E-02  0.1144463E+00
          2   -1    0    0  502    0  0.00000000000E+00  0.00000000000E+00  0.59452121236E+03  0.59452121236E+03  0.00000000000E+00 0. -1.
          1   -1    0    0  501    0 -0.00000000000E+00 -0.00000000000E+00 -0.12367400781E+04  0.12367400781E+04  0.00000000000E+00 0. -1.
         25    2    1    2    0    0 -0.26525909543E+03  0.67277067200E+02 -0.34464477576E+03  0.45749213752E+03  0.12502176992E+03 0.  0.
          2    1    1    2  501    0  0.34154743309E+03 -0.17016350948E+03 -0.78337301994E+03  0.87136878380E+03  0.00000000000E+00 0. -1.
          1    1    1    2  502    0 -0.76288337653E+02  0.10288644228E+03  0.48579893001E+03  0.50240036909E+03  0.00000000000E+00 0. -1.
         22    1    3    3    0    0 -0.10327649937E+03 -0.35230775261E+02 -0.12100740521E+03  0.16294181466E+03  0.00000000000E+00 0. -1.
         22    1    3    3    0    0 -0.16198259606E+03  0.10250784246E+03 -0.22363737055E+03  0.29455032286E+03  0.00000000000E+00 0. -1.
</event>
<event>
 7    1  0.5779468E-006  0.1284040E+03  0.7818608E-02  0.1269574E+00
          2   -1    0    0  502    0  0.00000000000E+00  0.00000000000E+00  0.51695302324E+03  0.51695302324E+03  0.00000000000E+00 0. -1.
          1   -1    0    0  501    0 -0.00000000000E+00 -0.00000000000E+00 -0.91367702786E+03  0.91367702786E+03  0.00000000000E+00 0. -1.
         25    2    1    2    0    0  0.13485073268E+02  0.86321079093E+02  0.19936455177E+03  0.25100739689E+03  0.12500125156E+03 0.  0.
          2    1    1    2  501    0  0.69680202014E+02 -0.10942869071E+03 -0.87659170148E+03  0.88613936827E+03  0.00000000000E+00 0. -1.
          1    1    1    2  502    0 -0.83165275282E+02  0.23107611619E+02  0.28050314508E+03  0.29348328594E+03  0.00000000000E+00 0. -1.
         22    1    3    3    0    0  0.68126757288E+02  0.43222117034E+02  0.12816516175E+03  0.15144541969E+03  0.00000000000E+00 0.  1.
         22    1    3    3    0    0 -0.54641684020E+02  0.43098962059E+02  0.71199390023E+02  0.99561977194E+02  0.00000000000E+00 0.  1.
</event>
<event>
 7    1  0.5779468E-006  0.1293100E+03  0.7818608E-02  0.1288082E+00
          2   -1    0    0  502    0  0.00000000000E+00  0.00000000000E+00  0.36856216930E+04  0.36856216930E+04  0.00000000000E+00 0. -1.
          1   -1    0    0  501    0 -0.00000000000E+00 -0.00000000000E+00 -0.81925192110E+02  0.81925192110E+02  0.00000000000E+00 0. -1.
         25    2    1    2    0    0 -0.17002809511E+03 -0.37761557216E+02  0.17859441031E+04  0.17987652770E+04  0.12499877619E+03 0.  0.
          2    1    1    2  501    0  0.68333791796E+02 -0.22191222789E+02 -0.56136996606E+02  0.91177408704E+02  0.00000000000E+00 0. -1.
          1    1    1    2  502    0  0.10169430332E+03  0.59952780005E+02  0.18738893944E+04  0.18776041994E+04  0.00000000000E+00 0. -1.
         22    1    3    3    0    0 -0.73522208991E+02 -0.52858371697E+02  0.12971457209E+04  0.13003024817E+04  0.00000000000E+00 0. -1.
         22    1    3    3    0    0 -0.96505886124E+02  0.15096814481E+02  0.48879838219E+03  0.49846279529E+03  0.00000000000E+00 0. -1.
</event>
<event>
 7    1  0.5779468E-006  0.1208070E+03  0.7818608E-02  0.1319072E+00
          2   -1    0    0  502    0  0.00000000000E+00  0.00000000000E+00  0.73113327072E+03  0.73113327072E+03  0.00000000000E+00 0. -1.
          1   -1    0    0  501    0 -0.00000000000E+00 -0.00000000000E+00 -0.11791081893E+04  0.11791081893E+04  0.00000000000E+00 0. -1.
         25    2    1    2    0    0  0.15308201451E+02  0.10599092335E+03 -0.27347578456E+02  0.16685562403E+03  0.12499796942E+03 0.  0.
          2    1    1    2  501    0 -0.57191582213E+02  0.89307976300E+01 -0.10755663710E+04  0.10771228596E+04  0.00000000000E+00 0. -1.
          1    1    1    2  502    0  0.41883380762E+02 -0.11492172098E+03  0.65493903089E+03  0.66626297640E+03  0.00000000000E+00 0. -1.
         22    1    3    3    0    0  0.33526051200E+02 -0.11097662524E+02  0.18415893285E+02  0.39828373656E+02  0.00000000000E+00 0. -1.
         22    1    3    3    0    0 -0.18217849749E+02  0.11708858587E+03 -0.45763471741E+02  0.12702725037E+03  0.00000000000E+00 0. -1.
</event>
<event>
 7    1  0.5779468E-006  0.1559958E+03  0.7818608E-02  0.1318259E+00
          2   -1    0    0  502    0  0.00000000000E+00  0.00000000000E+00  0.35834910358E+04  0.35834910358E+04  0.00000000000E+00 0. -1.
          1   -1    0    0  501    0 -0.00000000000E+00 -0.00000000000E+00 -0.14110384860E+03  0.14110384860E+03  0.00000000000E+00 0. -1.
         25    2    1    2    0    0 -0.15750005829E+03  0.10894116047E+03  0.13942895317E+04  0.14129199494E+04  0.12500016206E+03 0.  0.
          2    1    1    2  501    0  0.34631786969E+02 -0.28975996956E+02 -0.12537774915E+03  0.13326120610E+03  0.00000000000E+00 0. -1.
          1    1    1    2  502    0  0.12286827132E+03 -0.79965163514E+02  0.21734754046E+04  0.21784137289E+04  0.00000000000E+00 0. -1.
         22    1    3    3    0    0 -0.54417508434E+02  0.90046437559E-02  0.72470838728E+03  0.72674858920E+03  0.00000000000E+00 0.  1.
         22    1    3    3    0    0 -0.10308254985E+03  0.10893215583E+03  0.66958114443E+03  0.68617136025E+03  0.00000000000E+00 0.  1.
</event>
<event>
 7    1  0.5779468E-006  0.5524101E+02  0.7818608E-02  0.1541390E+00
          2   -1    0    0  502    0  0.00000000000E+00  0.00000000000E+00  0.32106289057E+04  0.32106289057E+04  0.00000000000E+00 0. -1.
          1   -1    0    0  501    0 -0.00000000000E+00 -0.00000000000E+00 -0.37142759255E+03  0.37142759255E+03  0.00000000000E+00 0. -1.
         25    2    1    2    0    0  0.71031838024E+02 -0.29439264122E+02  0.11218494945E+04  0.11314096723E+04  0.12501746285E+03 0.  0.
          2    1    1    2  501    0 -0.21751863972E+02  0.81651852608E+01 -0.36593339927E+03  0.36667024223E+03  0.00000000000E+00 0. -1.
          1    1    1    2  502    0 -0.49279974051E+02  0.21274078861E+02  0.20832852179E+04  0.20839765837E+04  0.00000000000E+00 0. -1.
         22    1    3    3    0    0  0.88388789823E+02  0.15006669475E+02  0.52002802560E+03  0.52769965483E+03  0.00000000000E+00 0. -1.
         22    1    3    3    0    0 -0.17356951800E+02 -0.44445933597E+02  0.60182146892E+03  0.60371001751E+03  0.00000000000E+00 0. -1.
</event>
<event>
 7    1  0.5779468E-006  0.6923625E+02  0.7818608E-02  0.1404112E+00
          2   -1    0    0  502    0  0.00000000000E+00  0.00000000000E+00  0.16562442238E+04  0.16562442238E+04  0.00000000000E+00 0. -1.
          1   -1    0    0  501    0 -0.00000000000E+00 -0.00000000000E+00 -0.74304707214E+03  0.74304707214E+03  0.00000000000E+00 0. -1.
         25    2    1    2    0    0 -0.39677093512E+02 -0.23893956346E+02  0.75657874461E+03  0.76823258286E+03  0.12499884666E+03 0.  0.
          2    1    1    2  501    0  0.67129243217E+02 -0.17268851758E+02 -0.73490341877E+03  0.73816501100E+03  0.00000000000E+00 0. -1.
          1    1    1    2  502    0 -0.27452149705E+02  0.41162808105E+02  0.89152182584E+03  0.89289370210E+03  0.00000000000E+00 0. -1.
         22    1    3    3    0    0 -0.15798788328E+02  0.45016692961E+02  0.47397644723E+03  0.47637146943E+03  0.00000000000E+00 0. -1.
         22    1    3    3    0    0 -0.23878305184E+02 -0.68910649307E+02  0.28260229738E+03  0.29186111343E+03  0.00000000000E+00 0. -1.
</event>
<event>
 7    1  0.5779468E-006  0.1169314E+03  0.7818608E-02  0.1378913E+00
          2   -1    0    0  502    0  0.00000000000E+00  0.00000000000E+00  0.28305926264E+02  0.28305926264E+02  0.00000000000E+00 0. -1.
          1   -1    0    0  501    0 -0.00000000000E+00 -0.00000000000E+00 -0.14742507162E+04  0.14742507162E+04  0.00000000000E+00 0. -1.
         25    2    1    2    0    0  0.95298198627E+02  0.29085991653E+02 -0.11062965266E+04  0.11177852838E+04  0.12499677737E+03 0.  0.
          2    1    1    2  501    0  0.60823622328E+01  0.35335725790E+02 -0.18762800595E+03  0.19102323750E+03  0.00000000000E+00 0. -1.
          1    1    1    2  502    0 -0.10138056086E+03 -0.64421717443E+02 -0.15202025740E+03  0.19374812117E+03  0.00000000000E+00 0. -1.
         22    1    3    3    0    0  0.16090145470E+02 -0.30626149289E+02 -0.86288232474E+02  0.92965116388E+02  0.00000000000E+00 0.  1.
         22    1    3    3    0    0  0.79208053157E+02  0.59712140942E+02 -0.10200082941E+04  0.10248201674E+04  0.00000000000E+00 0.  1.
</event>
<event>
 7    1  0.5779468E-006  0.5390663E+02  0.7818608E-02  0.1444232E+00
          2   -1    0    0  502    0  0.00000000000E+00  0.00000000000E+00  0.40662985102E+03  0.40662985102E+03  0.00000000000E+00 0. -1.
          1   -1    0    0  501    0 -0.00000000000E+00 -0.00000000000E+00 -0.10374201929E+03  0.10374201929E+03  0.00000000000E+00 0. -1.
         25    2    1    2    0    0 -0.16721468392E+02 -0.22539600806E+01  0.30537654368E+03  0.33040201628E+03  0.12500388431E+03 0.  0.
          2    1    1    2  501    0  0.27614650114E+02  0.47727336596E+02 -0.75364551643E+02  0.93382456617E+02  0.00000000000E+00 0. -1.
          1    1    1    2  502    0 -0.10893181722E+02 -0.45473376516E+02  0.72875839694E+02  0.86587397414E+02  0.00000000000E+00 0. -1.
         22    1    3    3    0    0 -0.49775541175E+02 -0.54394997357E+01  0.28912963245E+03  0.29343336044E+03  0.00000000000E+00 0. -1.
         22    1    3    3    0    0  0.33054072782E+02  0.31855396551E+01  0.16246911228E+02  0.36968655843E+02  0.00000000000E+00 0. -1.
</event>
<event>
 7    1  0.5779468E-006  0.5978461E+02  0.7818608E-02  0.1441564E+00
          2   -1    0    0  502    0  0.00000000000E+00  0.00000000000E+00  0.18453854525E+03  0.18453854525E+03  0.00000000000E+00 0. -1.
          1   -1    0    0  501    0 -0.00000000000E+00 -0.00000000000E+00 -0.96377068913E+03  0.96377068913E+03  0.00000000000E+00 0. -1.
         25    2    1    2    0    0 -0.57656342408E+02  0.79792208582E+02 -0.12463693820E+03  0.20211534206E+03  0.12500077904E+03 0.  0.
          2    1    1    2  501    0  0.43930652915E+02 -0.39033273151E+02 -0.79611617516E+03  0.79828219511E+03  0.00000000000E+00 0. -1.
          1    1    1    2  502    0  0.13725689493E+02 -0.40758935431E+02  0.14152096949E+03  0.14791169722E+03  0.00000000000E+00 0. -1.
         22    1    3    3    0    0  0.12004819074E+02  0.27494803137E+00  0.19780677472E+02  0.23140148631E+02  0.00000000000E+00 0. -1.
         22    1    3    3    0    0 -0.69661161482E+02  0.79517260550E+02 -0.14441761568E+03  0.17897519343E+03  0.00000000000E+00 0. -1.
</event>
<event>
 7    1  0.5779468E-006  0.5683042E+02  0.7818608E-02  0.1496132E+00
          2   -1    0    0  502    0  0.00000000000E+00  0.00000000000E+00  0.29002909146E+04  0.29002909146E+04  0.00000000000E+00 0. -1.
          1   -1    0    0  501    0 -0.00000000000E+00 -0.00000000000E+00 -0.70796677196E+03  0.70796677196E+03  0.00000000000E+00 0. -1.
         25    2    1    2    0    0 -0.64899331908E+02 -0.47987796231E+02  0.13536511057E+04  0.13618042692E+04  0.12499919854E+03 0.  0.
          2    1    1    2  501    0  0.15025636257E+02  0.26637390040E+02 -0.70308066291E+03  0.70374550716E+03  0.00000000000E+00 0. -1.
          1    1    1    2  502    0  0.49873695651E+02  0.21350406191E+02  0.15417536998E+04  0.15427079102E+04  0.00000000000E+00 0. -1.
         22    1    3    3    0    0 -0.97944510875E+02 -0.58092345945E+02  0.99661897413E+03  0.10031037969E+04  0.00000000000E+00 0.  1.
         22    1    3    3    0    0  0.33045178967E+02  0.10104549714E+02  0.35703213159E+03  0.35870047221E+03  0.00000000000E+00 0.  1.
</event>
<event>
 7    1  0.5779468E-006  0.5658939E+02  0.7818608E-02  0.1433455E+00
          2   -1    0    0  502    0  0.00000000000E+00  0.00000000000E+00  0.80779602835E+03  0.80779602835E+03  0.00000000000E+00 0. -1.
          1   -1    0    0  501    0 -0.00000000000E+00 -0.00000000000E+00 -0.29383776950E+03  0.29383776950E+03  0.00000000000E+00 0. -1.
         25    2    1    2    0    0  0.23039526933E+02  0.31311815518E+02  0.24196303830E+03  0.27510279506E+03  0.12499674537E+03 0.  0.
          2    1    1    2  501    0 -0.56904762917E+02  0.31062612559E+01 -0.27326129784E+03  0.27914071326E+03  0.00000000000E+00 0. -1.
          1    1    1    2  502    0  0.33865235983E+02 -0.34418076774E+02  0.54525651839E+03  0.54739028953E+03  0.00000000000E+00 0. -1.
         22    1    3    3    0    0  0.52566856151E+02 -0.19175820474E+02  0.18569657862E+03  0.19394382117E+03  0.00000000000E+00 0.  1.
         22    1    3    3    0    0 -0.29527329218E+02  0.50487635992E+02  0.56266459676E+02  0.81158973893E+02  0.00000000000E+00 0.  1.
</event>
<event>
 7    1  0.5779468E-006  0.5159182E+02  0.7818608E-02  0.1478852E+00
          2   -1    0    0  502    0  0.00000000000E+00  0.00000000000E+00  0.23304945645E+04  0.23304945645E+04  0.00000000000E+00 0. -1.
          1   -1    0    0  501    0 -0.00000000000E+00 -0.00000000000E+00 -0.10312940293E+03  0.10312940293E+03  0.00000000000E+00 0. -1.
         25    2    1    2    0    0 -0.24731599781E+01 -0.68396363657E+02  0.11621658684E+04  0.11708711136E+04  0.12500191901E+03 0.  0.
          2    1    1    2  501    0 -0.26745746319E+02  0.44079385363E+02 -0.91715149627E+02  0.10521404769E+03  0.00000000000E+00 0. -1.
          1    1    1    2  502    0  0.29218906297E+02  0.24316978294E+02  0.11569144428E+04  0.11575388062E+04  0.00000000000E+00 0. -1.
         22    1    3    3    0    0 -0.57286096905E+02 -0.21312228110E+02  0.74413449493E+03  0.74664051223E+03  0.00000000000E+00 0. -1.
         22    1    3    3    0    0  0.54812936927E+02 -0.47084135547E+02  0.41803137350E+03  0.42423060133E+03  0.00000000000E+00 0. -1.
</event>
<event>
 7    1  0.5779468E-006  0.1275551E+03  0.7818608E-02  0.1322871E+00
          2   -1    0    0  502    0  0.00000000000E+00  0.00000000000E+00  0.19541391725E+04  0.19541391725E+04  0.00000000000E+00 0. -1.
          1   -1    0    0  501    0 -0.00000000000E+00 -0.00000000000E+00 -0.38945896106E+03  0.38945896106E+03  0.00000000000E+00 0. -1.
         25    2    1    2    0    0  0.14260098331E+03 -0.61718875292E+02  0.59895846149E+03  0.63128534516E+03  0.12500275360E+03 0.  0.
          2    1    1    2  501    0 -0.94865827942E+02  0.84738189230E+02 -0.36191552641E+03  0.38361821422E+03  0.00000000000E+00 0. -1.
          1    1    1    2  502    0 -0.47735155366E+02 -0.23019313937E+02  0.13276372763E+04  0.13286945742E+04  0.00000000000E+00 0. -1.
         22    1    3    3    0    0  0.37912086385E+01  0.18154238942E+02  0.20760132668E+03  0.20842807031E+03  0.00000000000E+00 0. -1.
         22    1    3    3    0    0  0.13880977467E+03 -0.79873114234E+02  0.39135713481E+03  0.42285727484E+03  0.00000000000E+00 0. -1.
</event>
<event>
 7    1  0.5779468E-006  0.4397106E+03  0.7818608E-02  0.1092799E+00
          2   -1    0    0  502    0  0.00000000000E+00  0.00000000000E+00  0.35644036616E+03  0.35644036616E+03  0.00000000000E+00 0. -1.
          1   -1    0    0  501    0 -0.00000000000E+00 -0.00000000000E+00 -0.17928899308E+04  0.17928899308E+04  0.00000000000E+00 0. -1.
         25    2    1    2    0    0  0.30149286836E+03 -0.46020535209E+03 -0.92249318457E+03  0.10813435789E+04  0.12499337697E+03 0.  0.
          2    1    1    2  501    0 -0.24779697781E+03  0.28297618090E+03 -0.70678282465E+03  0.80063775978E+03  0.00000000000E+00 0. -1.
          1    1    1    2  502    0 -0.53695890545E+02  0.17722917119E+03  0.19282644456E+03  0.26734895829E+03  0.00000000000E+00 0. -1.
         22    1    3    3    0    0  0.12990441354E+03 -0.26648466562E+03 -0.39589086617E+03  0.49458953849E+03  0.00000000000E+00 0.  1.
         22    1    3    3    0    0  0.17158845481E+03 -0.19372068647E+03 -0.52660231839E+03  0.58675404040E+03  0.00000000000E+00 0.  1.
</event>
<event>
 7    1  0.5779468E-006  0.1697083E+03  0.7818608E-02  0.1233432E+00
          2   -1    0    0  502    0  0.00000000000E+00  0.00000000000E+00  0.57748607994E+03  0.57748607994E+03  0.00000000000E+00 0. -1.
          1   -1    0    0  501    0 -0.00000000000E+00 -0.00000000000E+00 -0.13583772789E+04  0.13583772789E+04  0.00000000000E+00 0. -1.
         25    2    1    2    0    0 -0.59305557665E+02  0.73473191634E+02 -0.16427981771E+03  0.22698599558E+03  0.12497729643E+03 0.  0.
          2    1    1    2  501    0  0.12032161914E+03 -0.14448946949E+03 -0.11510464247E+04  0.11663028640E+04  0.00000000000E+00 0. -1.
          1    1    1    2  502    0 -0.61016061473E+02  0.71016277854E+02  0.53443504349E+03  0.54257449921E+03  0.00000000000E+00 0. -1.
         22    1    3    3    0    0 -0.12552093786E+02 -0.18898026858E+02  0.95874845404E+01  0.24629460761E+02  0.00000000000E+00 0. -1.
         22    1    3    3    0    0 -0.46753463879E+02  0.92371218492E+02 -0.17386730225E+03  0.20235653481E+03  0.00000000000E+00 0. -1.
</event>
<event>
 7    1  0.5779468E-006  0.2583270E+03  0.7818608E-02  0.1250651E+00
          2   -1    0    0  502    0  0.00000000000E+00  0.00000000000E+00  0.12298594534E+04  0.12298594534E+04  0.00000000000E+00 0. -1.
          1   -1    0    0  501    0 -0.00000000000E+00 -0.00000000000E+00 -0.10224829264E+04  0.10224829264E+04  0.00000000000E+00 0. -1.
         25    2    1    2    0    0  0.19231891042E+03 -0.14845645730E+03  0.38430337220E+03  0.47152864868E+03  0.12499720645E+03 0.  0.
          2    1    1    2  501    0 -0.17037429031E+03  0.19523711942E+03 -0.96085624131E+03  0.99518322337E+03  0.00000000000E+00 0. -1.
          1    1    1    2  502    0 -0.21944620106E+02 -0.46780662125E+02  0.78392939611E+03  0.78563050780E+03  0.00000000000E+00 0. -1.
         22    1    3    3    0    0  0.70066444768E+02 -0.11741810097E+03  0.13507875424E+03  0.19220454460E+03  0.00000000000E+00 0. -1.
         22    1    3    3    0    0  0.12225246565E+03 -0.31038356328E+02  0.24922461796E+03  0.27932410408E+03  0.00000000000E+00 0. -1.
</event>
<event>
 7    1  0.5779468E-006  0.1063187E+03  0.7818608E-02  0.1306830E+00
          2   -1    0    0  502    0  0.00000000000E+00  0.00000000000E+00  0.31468098528E+02  0.31468098528E+02  0.00000000000E+00 0. -1.
          1   -1    0    0  501    0 -0.00000000000E+00 -0.00000000000E+00 -0.25459816558E+04  0.25459816558E+04  0.00000000000E+00 0. -1.
         25    2    1    2    0    0  0.65030811109E+02  0.12956578446E+03 -0.84029535000E+03  0.86182218863E+03  0.12499964274E+03 0.  0.
          2    1    1    2  501    0  0.19115208916E+02 -0.70933062442E+02 -0.15615271034E+04  0.15632542292E+04  0.00000000000E+00 0. -1.
          1    1    1    2  502    0 -0.84146020024E+02 -0.58632722018E+02 -0.11269110391E+03  0.15237333650E+03  0.00000000000E+00 0. -1.
         22    1    3    3    0    0  0.32982804914E+02  0.85072116114E+02 -0.75452529574E+03  0.76002207354E+03  0.00000000000E+00 0. -1.
         22    1    3    3    0    0  0.32048006194E+02  0.44493668345E+02 -0.85770054263E+02  0.10180011509E+03  0.00000000000E+00 0. -1.
</event>
<event>
 7    1  0.5779468E-006  0.5098165E+02  0.7818608E-02  0.1481860E+00
          2   -1    0    0  502    0  0.00000000000E+00  0.00000000000E+00  0.53209155559E+02  0.53209155559E+02  0.00000000000E+00 0. -1.
          1   -1    0    0  501    0 -0.00000000000E+00 -0.00000000000E+00 -0.13211259351E+04  0.13211259351E+04  0.00000000000E+00 0. -1.
         25    2    1    2    0    0  0.51087671238E+02 -0.61747653083E+02 -0.41496853899E+03  0.44073396090E+03  0.12499925248E+03 0.  0.
          2    1    1    2  501    0 -0.16510339439E+02  0.46824013146E+02 -0.88363052762E+03  0.88502428716E+03  0.00000000000E+00 0. -1.
          1    1    1    2  502    0 -0.34577331799E+02  0.14923639936E+02  0.30682287035E+02  0.48576842641E+02  0.00000000000E+00 0. -1.
         22    1    3    3    0    0 -0.65200226060E+01 -0.82989568029E+02 -0.18797370320E+03  0.20558183819E+03  0.00000000000E+00 0.  1.
         22    1    3    3    0    0  0.57607693844E+02  0.21241914946E+02 -0.22699483579E+03  0.23515212271E+03  0.00000000000E+00 0.  1.
</event>
<event>
 7    1  0.5779468E-006  0.3575256E+02  0.7818608E-02  0.1634546E+00
          2   -1    0    0  502    0  0.00000000000E+00  0.00000000000E+00  0.25351844991E+02  0.25351844991E+02  0.00000000000E+00 0. -1.
          1   -1    0    0  501    0 -0.00000000000E+00 -0.00000000000E+00 -0.51884469913E+03  0.51884469913E+03  0.00000000000E+00 0. -1.
         25    2    1    2    0    0  0.27874613802E+02 -0.14189825887E+02 -0.17082272555E+03  0.21396896248E+03  0.12499587227E+03 0.  0.
          2    1    1    2  501    0  0.12533161226E+02  0.15977262696E+02 -0.20072571819E+03  0.20175025897E+03  0.00000000000E+00 0. -1.
          1    1    1    2  502    0 -0.40407775028E+02 -0.17874368087E+01 -0.12194441040E+03  0.12847732268E+03  0.00000000000E+00 0. -1.
         22    1    3    3    0    0  0.72822667404E+02  0.78475196867E+01 -0.69575291170E+02  0.10102200550E+03  0.00000000000E+00 0. -1.
         22    1    3    3    0    0 -0.44948053602E+02 -0.22037345574E+02 -0.10124743438E+03  0.11294695698E+03  0.00000000000E+00 0. -1.
</event>
<event>
 7    1  0.5779468E-006  0.1216191E+03  0.7818608E-02  0.1381056E+00
          2   -1    0    0  502    0  0.00000000000E+00  0.00000000000E+00  0.44867588756E+03  0.44867588756E+03  0.00000000000E+00 0. -1.
          1   -1    0    0  501    0 -0.00000000000E+00 -0.00000000000E+00 -0.94049138562E+02  0.94049138562E+02  0.00000000000E+00 0. -1.
         25    2    1    2    0    0  0.10070821684E+03 -0.52440091472E+02  0.11121945544E+03  0.20220637403E+03  0.12500216917E+03 0.  0.
          2    1    1    2  501    0 -0.90834259944E+01 -0.32635588516E+02 -0.26531563053E+02  0.43029223832E+02  0.00000000000E+00 0. -1.
          1    1    1    2  502    0 -0.91624790841E+02  0.85075679988E+02  0.26993885661E+03  0.29748942826E+03  0.00000000000E+00 0. -1.
         22    1    3    3    0    0  0.10559207848E+03 -0.82224968677E+02  0.69750655790E+02  0.15091648848E+03  0.00000000000E+00 0. -1.
         22    1    3    3    0    0 -0.48838616456E+01  0.29784877205E+02  0.41468799653E+02  0.51289885547E+02  0.00000000000E+00 0. -1.
</event>
<event>
 7    1  0.5779468E-006  0.3869891E+02  0.7818608E-02  0.1532453E+00
          2   -1    0    0  502    0  0.00000000000E+00  0.00000000000E+00  0.34946252978E+03  0.34946252978E+03  0.00000000000E+00 0. -1.
          1   -1    0    0  501    0 -0.00000000000E+00 -0.00000000000E+00 -0.10909192507E+04  0.10909192507E+04  0.00000000000E+00 0. -1.
         25    2    1    2    0    0 -0.12942051291E+02  0.12651702841E+02 -0.53789318843E+03  0.55252181406E+03  0.12499484220E+03 0.  0.
          2    1    1    2  501    0  0.25761886983E+02  0.23928424555E+02 -0.54404462786E+03  0.54517960474E+03  0.00000000000E+00 0. -1.
          1    1    1    2  502    0 -0.12819835692E+02 -0.36580127396E+02  0.34048109542E+03  0.34268036163E+03  0.00000000000E+00 0. -1.
         22    1    3    3    0    0 -0.24799586370E+02  0.46204459515E+02 -0.97622467355E+02  0.11081524126E+03  0.00000000000E+00 0.  1.
         22    1    3    3    0    0  0.11857535079E+02 -0.33552756674E+02 -0.44027072108E+03  0.44170657280E+03  0.00000000000E+00 0.  1.
</event>
<event>
 7    1  0.5779468E-006  0.4279747E+02  0.7818608E-02  0.1507807E+00
          2   -1    0    0  502    0  0.00000000000E+00  0.00000000000E+00  0.88171786483E+03  0.88171786483E+03  0.00000000000E+00 0. -1.
          1   -1    0    0  501    0 -0.00000000000E+00 -0.00000000000E+00 -0.51656744753E+02  0.51656744753E+02  0.00000000000E+00 0. -1.
         25    2    1    2    0    0  0.24588315075E+02  0.14802099863E+02  0.83321371960E+02  0.15294078930E+03  0.12499898643E+03 0.  0.
          2    1    1    2  501    0 -0.34626632660E+02  0.26801448536E+02  0.13322720234E+02  0.45769162188E+02  0.00000000000E+00 0. -1.
          1    1    1    2  502    0  0.10038317585E+02 -0.41603548399E+02  0.73341702788E+03  0.73466465809E+03  0.00000000000E+00 0. -1.
         22    1    3    3    0    0  0.65419654324E+02  0.33122597042E+01  0.88612692809E+02  0.11019487993E+03  0.00000000000E+00 0. -1.
         22    1    3    3    0    0 -0.40831339249E+02  0.11489840159E+02 -0.52913208489E+01  0.42745909373E+02  0.00000000000E+00 0. -1.
</event>
<event>
 7    1  0.5779468E-006  0.3442183E+03  0.7818608E-02  0.1217557E+00
          2   -1    0    0  502    0  0.00000000000E+00  0.00000000000E+00  0.98857726358E+03  0.98857726358E+03  0.00000000000E+00 0. -1.
          1   -1    0    0  501    0 -0.00000000000E+00 -0.00000000000E+00 -0.39572291517E+04  0.39572291517E+04  0.00000000000E+00 0. -1.
         25    2    1    2    0    0  0.17926411627E+03  0.26361531322E+03 -0.22417555399E+03  0.40927703202E+03  0.12499741272E+03 0.  0.
          2    1    1    2  501    0 -0.25896624341E+02  0.47897267487E+02 -0.36066517815E+04  0.36070627741E+04  0.00000000000E+00 0. -1.
          1    1    1    2  502    0 -0.15336749193E+03 -0.31151258071E+03  0.86217544736E+03  0.92946660916E+03  0.00000000000E+00 0. -1.
         22    1    3    3    0    0  0.19727716941E+03  0.23741215394E+03 -0.18938961308E+03  0.36214808843E+03  0.00000000000E+00 0.  1.
         22    1    3    3    0    0 -0.18013053137E+02  0.26203159282E+02 -0.34785940904E+02  0.47128943594E+02  0.00000000000E+00 0.  1.
</event>
<event>
 7    1  0.5779468E-006  0.8807656E+02  0.7818608E-02  0.1389414E+00
          2   -1    0    0  502    0  0.00000000000E+00  0.00000000000E+00  0.53039574900E+03  0.53039574900E+03  0.00000000000E+00 0. -1.
          1   -1    0    0  501    0 -0.00000000000E+00 -0.00000000000E+00 -0.11772080856E+03  0.11772080856E+03  0.00000000000E+00 0. -1.
         25    2    1    2    0    0  0.54792805253E+02  0.10450849112E+03  0.18757240307E+03  0.25442872009E+03  0.12500516385E+03 0.  0.
          2    1    1    2  501    0  0.24213542697E+01 -0.43650788593E+02 -0.72458312343E+02  0.84625417747E+02  0.00000000000E+00 0. -1.
          1    1    1    2  502    0 -0.57214159523E+02 -0.60857702531E+02  0.29756084971E+03  0.30906241972E+03  0.00000000000E+00 0. -1.
         22    1    3    3    0    0 -0.22955867665E+02  0.89811892078E+02  0.10500926144E+03  0.14007174164E+03  0.00000000000E+00 0. -1.
         22    1    3    3    0    0  0.77748672919E+02  0.14696599045E+02  0.82563141632E+02  0.11435697845E+03  0.00000000000E+00 0. -1.
</event>
<event>
 7    1  0.5779468E-006  0.2400304E+03  0.7818608E-02  0.1262168E+00
          2   -1    0    0  502    0  0.00000000000E+00  0.00000000000E+00  0.95583840060E+02  0.95583840060E+02  0.00000000000E+00 0. -1.
          1   -1    0    0  501    0 -0.00000000000E+00 -0.00000000000E+00 -0.11918293293E+04  0.11918293293E+04  0.00000000000E+00 0. -1.
         25    2    1    2    0    0 -0.11882862009E+03 -0.19568227013E+03 -0.74297424188E+03  0.78743220112E+03  0.12500782160E+03 0.  0.
          2    1    1    2  501    0  0.10210953115E+03  0.24240747165E+03 -0.36411342590E+03  0.44918406648E+03  0.00000000000E+00 0. -1.
          1    1    1    2  502    0  0.16719088948E+02 -0.46725201519E+02  0.10842178544E+02  0.50796901754E+02  0.00000000000E+00 0. -1.
         22    1    3    3    0    0 -0.19717973711E+02 -0.66619998191E+02 -0.85755963265E+02  0.11036805644E+03  0.00000000000E+00 0.  1.
         22    1    3    3    0    0 -0.99110646383E+02 -0.12906227194E+03 -0.65721827861E+03  0.67706414468E+03  0.00000000000E+00 0.  1.
</event>
<event>
 7    1  0.5779468E-006  0.6186875E+02  0.7818608E-02  0.1490471E+00
          2   -1    0    0  502    0  0.00000000000E+00  0.00000000000E+00  0.11788607950E+04  0.11788607950E+04  0.00000000000E+00 0. -1.
          1   -1    0    0  501    0 -0.00000000000E+00 -0.00000000000E+00 -0.77865266805E+02  0.77865266805E+02  0.00000000000E+00 0. -1.
         25    2    1    2    0    0  0.47393076531E+02  0.50977582181E+02  0.19592031025E+02  0.14440661020E+03  0.12499841519E+03 0.  0.
          2    1    1    2  501    0  0.98318085279E+01 -0.27513310100E+02  0.68682222840E-01  0.29217313512E+02  0.00000000000E+00 0. -1.
          1    1    1    2  502    0 -0.57224885059E+02 -0.23464272080E+02  0.10813348150E+04  0.10831021381E+04  0.00000000000E+00 0. -1.
         22    1    3    3    0    0 -0.34128360820E+02  0.51093059923E+02  0.11184494659E+02  0.62452691738E+02  0.00000000000E+00 0.  1.
         22    1    3    3    0    0  0.81521437351E+02 -0.11547774204E+00  0.84075363657E+01  0.81953918458E+02  0.00000000000E+00 0.  1.
</event>
<event>
 7    1  0.6215968E-006  0.7551113E+02  0.7818608E-02  0.1385274E+00
          2   -1    0    0  502    0  0.00000000000E+00  0.00000000000E+00  0.13761934489E+04  0.13761934489E+04  0.00000000000E+00 0. -1.
          1   -1    0    0  501    0 -0.00000000000E+00 -0.00000000000E+00 -0.84349568129E+03  0.84349568129E+03  0.00000000000E+00 0. -1.
         25    2    1    2    0    0  0.26067023340E+02  0.36619514382E+02 -0.73723338821E+02  0.15192535617E+03  0.12500281845E+03 0.  0.
          2    1    1    2  501    0 -0.35845179467E+02  0.38665442658E+02 -0.72864040983E+03  0.73054550863E+03  0.00000000000E+00 0. -1.
          1    1    1    2  502    0  0.97781561276E+01 -0.75284957040E+02  0.13350615162E+04  0.13372182653E+04  0.00000000000E+00 0. -1.
         22    1    3    3    0    0 -0.47543779106E+02  0.13853111322E+02 -0.70264650341E+01  0.50016905500E+02  0.00000000000E+00 0.  1.
         22    1    3    3    0    0  0.73610802445E+02  0.22766403060E+02 -0.66696873787E+02  0.10190845067E+03  0.00000000000E+00 0.  1.
</event>
<event>
 7    1  0.5779468E-006  0.4221140E+02  0.7818608E-02  0.1514934E+00
          2   -1    0    0  502    0  0.00000000000E+00  0.00000000000E+00  0.21866716062E+04  0.21866716062E+04  0.00000000000E+00 0. -1.
          1   -1    0    0  501    0 -0.00000000000E+00 -0.00000000000E+00 -0.13844605595E+02  0.13844605595E+02  0.00000000000E+00 0. -1.
         25    2    1    2    0    0 -0.15869860060E+02  0.41684236197E+02  0.10234910945E+04  0.10320563686E+04  0.12496759335E+03 0.  0.
          2    1    1    2  501    0  0.36065330911E+02 -0.33389671078E+01  0.26723313848E+02  0.45011024184E+02  0.00000000000E+00 0. -1.
          1    1    1    2  502    0 -0.20195470851E+02 -0.38345269089E+02  0.11226125922E+04  0.11234488190E+04  0.00000000000E+00 0. -1.
         22    1    3    3    0    0  0.31549574455E+02  0.28684061070E+02  0.86643355491E+03  0.86748213589E+03  0.00000000000E+00 0. -1.
         22    1    3    3    0    0 -0.47419434515E+02  0.13000175126E+02  0.15705753963E+03  0.16457423273E+03  0.00000000000E+00 0. -1.
</event>
<event>
 7    1  0.5779468E-006  0.7124921E+03  0.7818608E-02  0.1084313E+00
          2   -1    0    0  502    0  0.00000000000E+00  0.00000000000E+00  0.23583766288E+04  0.23583766288E+04  0.00000000000E+00 0. -1.
          1   -1    0    0  501    0 -0.00000000000E+00 -0.00000000000E+00 -0.70618604893E+03  0.70618604893E+03  0.00000000000E+00 0. -1.
         25    2    1    2    0    0 -0.53786048524E+03  0.41092117460E+03  0.71166355558E+02  0.69198227767E+03  0.12499883652E+03 0.  0.
          2    1    1    2  501    0 -0.10212696531E+03 -0.76982824229E+02 -0.31704855271E+03  0.34187140426E+03  0.00000000000E+00 0. -1.
          1    1    1    2  502    0  0.63998745055E+03 -0.33393835037E+03  0.18980727770E+04  0.20307089958E+04  0.00000000000E+00 0. -1.
         22    1    3    3    0    0 -0.50742007278E+03  0.41682529793E+03  0.74081994693E+02  0.66083780248E+03  0.00000000000E+00 0. -1.
         22    1    3    3    0    0 -0.30440412460E+02 -0.59041233327E+01 -0.29156391353E+01  0.31144475186E+02  0.00000000000E+00 0. -1.
</event>
<event>
 7    1  0.5779468E-006  0.8958950E+02  0.7818608E-02  0.1318872E+00
          2   -1    0    0  502    0  0.00000000000E+00  0.00000000000E+00  0.30622706012E+04  0.30622706012E+04  0.00000000000E+00 0. -1.
          1   -1    0    0  501    0 -0.00000000000E+00 -0.00000000000E+00 -0.15619383655E+03  0.15619383655E+03  0.00000000000E+00 0. -1.
         25    2    1    2    0    0  0.25646336009E+02 -0.84990516940E+02 -0.11829981763E+02  0.15377222274E+03  0.12499930199E+03 0.  0.
          2    1    1    2  501    0 -0.91172259667E+02  0.42320675661E+02 -0.38215974955E+02  0.10753548839E+03  0.00000000000E+00 0. -1.
          1    1    1    2  502    0  0.65525923658E+02  0.42669841279E+02  0.29561227214E+04  0.29571567266E+04  0.00000000000E+00 0. -1.
         22    1    3    3    0    0  0.65224561948E+02 -0.53161349440E+02 -0.42677614846E+02  0.94349093077E+02  0.00000000000E+00 0.  1.
         22    1    3    3    0    0 -0.39578225939E+02 -0.31829167500E+02  0.30847633084E+02  0.59423129664E+02  0.00000000000E+00 0.  1.
</event>
<event>
 7    1  0.5779468E-006  0.7567496E+02  0.7818608E-02  0.1350479E+00
          2   -1    0    0  502    0  0.00000000000E+00  0.00000000000E+00  0.13091976256E+04  0.13091976256E+04  0.00000000000E+00 0. -1.
          1   -1    0    0  501    0 -0.00000000000E+00 -0.00000000000E+00 -0.24367397388E+02  0.24367397388E+02  0.00000000000E+00 0. -1.
         25    2    1    2    0    0 -0.10108533708E+02  0.46227145940E+02  0.31866193036E+03  0.34555728099E+03  0.12500110843E+03 0.  0.
          2    1    1    2  501    0  0.41904894539E+01 -0.12167034485E+03  0.72790545805E+03  0.73801598145E+03  0.00000000000E+00 0. -1.
          1    1    1    2  502    0  0.59180442544E+01  0.75443198913E+02  0.23826283978E+03  0.24999176052E+03  0.00000000000E+00 0. -1.
         22    1    3    3    0    0  0.54470133555E+02  0.28858159524E+02  0.10590932622E+03  0.12254213235E+03  0.00000000000E+00 0.  1.
         22    1    3    3    0    0 -0.64578667264E+02  0.17368986416E+02  0.21275260414E+03  0.22301514864E+03  0.00000000000E+00 0.  1.
</event>
<event>
 7    1  0.9068960E-006  0.1534020E+03  0.7818608E-02  0.1203303E+00
          2   -1    0    0  502    0  0.00000000000E+00  0.00000000000E+00  0.17373597196E+04  0.17373597196E+04  0.00000000000E+00 0. -1.
          1   -1    0    0  501    0 -0.00000000000E+00 -0.00000000000E+00 -0.11546712559E+04  0.11546712559E+04  0.00000000000E+00 0. -1.
         25    2    1    2    0    0 -0.79366823390E+02 -0.15055168435E+03 -0.31527377526E+03  0.37945740821E+03  0.12500187585E+03 0.  0.
          2    1    1    2  501    0  0.14190047071E+03  0.99523125058E+01 -0.79752809862E+03  0.81011472039E+03  0.00000000000E+00 0. -1.
          1    1    1    2  502    0 -0.62533647325E+02  0.14059937184E+03  0.16954903376E+04  0.17024588469E+04  0.00000000000E+00 0. -1.
         22    1    3    3    0    0 -0.24394274245E+02 -0.67263047953E+02 -0.30636923978E+02  0.77833279172E+02  0.00000000000E+00 0. -1.
         22    1    3    3    0    0 -0.54972549145E+02 -0.83288636394E+02 -0.28463685128E+03  0.30162412904E+03  0.00000000000E+00 0. -1.
</event>
<event>
 7    1  0.5779468E-006  0.2090393E+03  0.7818608E-02  0.1323131E+00
          2   -1    0    0  502    0  0.00000000000E+00  0.00000000000E+00  0.18500942373E+04  0.18500942373E+04  0.00000000000E+00 0. -1.
          1   -1    0    0  501    0 -0.00000000000E+00 -0.00000000000E+00 -0.99510874402E+02  0.99510874402E+02  0.00000000000E+00 0. -1.
         25    2    1    2    0    0  0.11434510286E+02  0.20311318170E+03  0.11380804886E+04  0.11628571753E+04  0.12499559637E+03 0.  0.
          2    1    1    2  501    0  0.20303401522E+02 -0.20891168107E+03  0.40415542138E+02  0.21375157227E+03  0.00000000000E+00 0. -1.
          1    1    1    2  502    0 -0.31737911808E+02  0.57984993702E+01  0.57208733219E+03  0.57299636412E+03  0.00000000000E+00 0. -1.
         22    1    3    3    0    0 -0.25010185759E+02 -0.27408966098E+01  0.21119199275E+03  0.21268540079E+03  0.00000000000E+00 0.  1.
         22    1    3    3    0    0  0.36444696045E+02  0.20585407831E+03  0.92688849582E+03  0.95017177453E+03  0.00000000000E+00 0.  1.
</event>
<event>
 7    1  0.5779468E-006  0.5861818E+02  0.7818608E-02  0.1441432E+00
          2   -1    0    0  502    0  0.00000000000E+00  0.00000000000E+00  0.46363678286E+02  0.46363678286E+02  0.00000000000E+00 0. -1.
          1   -1    0    0  501    0 -0.00000000000E+00 -0.00000000000E+00 -0.39520925467E+03  0.39520925467E+03  0.00000000000E+00 0. -1.
         25    2    1    2    0    0 -0.16548433282E+02 -0.16434843201E+02 -0.14382952050E+03  0.19196039606E+03  0.12497162868E+03 0.  0.
          2    1    1    2  501    0  0.53094683894E+02  0.40769899772E+02 -0.19272153931E+03  0.20401671965E+03  0.00000000000E+00 0. -1.
          1    1    1    2  502    0 -0.36546250612E+02 -0.24335056571E+02 -0.12294516581E+02  0.45595817243E+02  0.00000000000E+00 0. -1.
         22    1    3    3    0    0  0.95222200853E+00  0.26249588008E+02  0.12411057092E+02  0.29051367188E+02  0.00000000000E+00 0. -1.
         22    1    3    3    0    0 -0.17500655291E+02 -0.42684431209E+02 -0.15624057759E+03  0.16290902887E+03  0.00000000000E+00 0. -1.
</event>
<event>
 7    1  0.5779468E-006  0.8667473E+02  0.7818608E-02  0.1375917E+00
          2   -1    0    0  502    0  0.00000000000E+00  0.00000000000E+00  0.16759145458E+03  0.16759145458E+03  0.00000000000E+00 0. -1.
          1   -1    0    0  501    0 -0.00000000000E+00 -0.00000000000E+00 -0.33020678611E+03  0.33020678611E+03  0.00000000000E+00 0. -1.
         25    2    1    2    0    0  0.57015643202E+02 -0.40026462343E+01 -0.14847404481E+03  0.20232526700E+03  0.12499666771E+03 0.  0.
          2    1    1    2  501    0  0.17233918643E+02 -0.46480794916E+02 -0.13563052626E+03  0.14440606602E+03  0.00000000000E+00 0. -1.
          1    1    1    2  502    0 -0.74249561845E+02  0.50483441150E+02  0.12148923955E+03  0.15106690766E+03  0.00000000000E+00 0. -1.
         22    1    3    3    0    0  0.89467386481E+02  0.20799202377E+02 -0.12531147888E+03  0.15537048241E+03  0.00000000000E+00 0. -1.
         22    1    3    3    0    0 -0.32451743279E+02 -0.24801848611E+02 -0.23162565929E+02  0.46954784600E+02  0.00000000000E+00 0. -1.
</event>
<event>
 7    1  0.5779468E-006  0.2532684E+03  0.7818608E-02  0.1352108E+00
          2   -1    0    0  502    0  0.00000000000E+00  0.00000000000E+00  0.72861071452E+03  0.72861071452E+03  0.00000000000E+00 0. -1.
          1   -1    0    0  501    0 -0.00000000000E+00 -0.00000000000E+00 -0.46673300469E+03  0.46673300469E+03  0.00000000000E+00 0. -1.
         25    2    1    2    0    0 -0.25699817761E+03  0.89286984071E+02 -0.23488571394E+03  0.38054759321E+03  0.12499977308E+03 0.  0.
          2    1    1    2  501    0  0.17865258230E+02 -0.10451953754E+02 -0.13402309443E+03  0.13561194870E+03  0.00000000000E+00 0. -1.
          1    1    1    2  502    0  0.23913291938E+03 -0.78835030317E+02  0.63078651820E+03  0.67918417729E+03  0.00000000000E+00 0. -1.
         22    1    3    3    0    0 -0.18030674586E+03  0.67983076679E+02 -0.23105067783E+03  0.30085982957E+03  0.00000000000E+00 0. -1.
         22    1    3    3    0    0 -0.76691431744E+02  0.21303907392E+02 -0.38350361035E+01  0.79687763647E+02  0.00000000000E+00 0. -1.
</event>
<event>
 7    1  0.5779468E-006  0.6824928E+02  0.7818608E-02  0.1493308E+00
          2   -1    0    0  502    0  0.00000000000E+00  0.00000000000E+00  0.32992612840E+03  0.32992612840E+03  0.00000000000E+00 0. -1.
          1   -1    0    0  501    0 -0.00000000000E+00 -0.00000000000E+00 -0.46418523499E+03  0.46418523499E+03  0.00000000000E+00 0. -1.
         25    2    1    2    0    0  0.68816466248E+02  0.29068610316E+02  0.95023570064E+02  0.17388320662E+03  0.12500080218E+03 0.  0.
          2    1    1    2  501    0 -0.49733665666E+02 -0.46681719901E+02 -0.42113658149E+03  0.42662470714E+03  0.00000000000E+00 0. -1.
          1    1    1    2  502    0 -0.19082800582E+02  0.17613109585E+02  0.19185390483E+03  0.19360344963E+03  0.00000000000E+00 0. -1.
         22    1    3    3    0    0  0.81349281436E+02  0.57688218097E+02  0.34066761160E+02  0.10538586392E+03  0.00000000000E+00 0.  1.
         22    1    3    3    0    0 -0.12532815188E+02 -0.28619607781E+02  0.60956808904E+02  0.68497342706E+02  0.00000000000E+00 0.  1.
</event>
<event>
 7    1  0.5779468E-006  0.5034229E+02  0.7818608E-02  0.1474559E+00
          2   -1    0    0  502    0  0.00000000000E+00  0.00000000000E+00  0.32356890532E+03  0.32356890532E+03  0.00000000000E+00 0. -1.
          1   -1    0    0  501    0 -0.00000000000E+00 -0.00000000000E+00 -0.12573307820E+04  0.12573307820E+04  0.00000000000E+00 0. -1.
         25    2    1    2    0    0  0.37571156267E+02  0.81432307588E+02 -0.29084456574E+03  0.32902626014E+03  0.12499962376E+03 0.  0.
          2    1    1    2  501    0 -0.12148142358E+02 -0.38281138049E+02 -0.94490635261E+03  0.94575950331E+03  0.00000000000E+00 0. -1.
          1    1    1    2  502    0 -0.25423013908E+02 -0.43151169539E+02  0.30198904169E+03  0.30611392385E+03  0.00000000000E+00 0. -1.
         22    1    3    3    0    0  0.48225008318E+02  0.10591746792E+03 -0.17514546697E+03  0.21028574854E+03  0.00000000000E+00 0.  1.
         22    1    3    3    0    0 -0.10653852051E+02 -0.24485160330E+02 -0.11569909877E+03  0.11874051160E+03  0.00000000000E+00 0.  1.
</event>
<event>
 7    1  0.5779468E-006  0.2705366E+02  0.7818608E-02  0.1654579E+00
          2   -1    0    0  502    0  0.00000000000E+00  0.00000000000E+00  0.14048924946E+04  0.14048924946E+04  0.00000000000E+00 0. -1.
          1   -1    0    0  501    0 -0.00000000000E+00 -0.00000000000E+00 -0.20668301234E+03  0.20668301234E+03  0.00000000000E+00 0. -1.
         25    2    1    2    0    0 -0.84824038150E+01 -0.60445059175E+01  0.27365819733E+03  0.30103794749E+03  0.12500619838E+03 0.  0.
          2    1    1    2  501    0 -0.16301074369E+02  0.17542483103E+02 -0.19208254864E+03  0.19356954624E+03  0.00000000000E+00 0. -1.
          1    1    1    2  502    0  0.24783478184E+02 -0.11497977185E+02  0.11166338335E+04  0.11169680132E+04  0.00000000000E+00 0. -1.
         22    1    3    3    0    0 -0.26130751457E+01 -0.58464870392E+02  0.21183379021E+03  0.21976925150E+03  0.00000000000E+00 0.  1.
         22    1    3    3    0    0 -0.58693286693E+01  0.52420364475E+02  0.61824407121E+02  0.81268695982E+02  0.00000000000E+00 0.  1.
</event>
<event>
 7    1  0.5779468E-006  0.2216501E+03  0.7818608E-02  0.1236685E+00
          2   -1    0    0  502    0  0.00000000000E+00  0.00000000000E+00  0.78239002175E+03  0.78239002175E+03  0.00000000000E+00 0. -1.
          1   -1    0    0  501    0 -0.00000000000E+00 -0.00000000000E+00 -0.43493937349E+03  0.43493937349E+03  0.00000000000E+00 0. -1.
         25    2    1    2    0    0  0.89912013646E+02 -0.17558535891E+03  0.61892152159E+01  0.23361651890E+03  0.12499593215E+03 0.  0.
          2    1    1    2  501    0 -0.44553139431E+02  0.22802988190E+03 -0.27701976320E+03  0.36155574740E+03  0.00000000000E+00 0. -1.
          1    1    1    2  502    0 -0.45358874215E+02 -0.52444522989E+02  0.61828119624E+03  0.62215712894E+03  0.00000000000E+00 0. -1.
         22    1    3    3    0    0 -0.83935693000E+01  0.29474481755E+01  0.27304365485E+02  0.28717030329E+02  0.00000000000E+00 0. -1.
         22    1    3    3    0    0  0.98305582946E+02 -0.17853280709E+03 -0.21115150270E+02  0.20489948857E+03  0.00000000000E+00 0. -1.
</event>
<event>
 7    1  0.5779468E-006  0.6639814E+02  0.7818608E-02  0.1532639E+00
          2   -1    0    0  502    0  0.00000000000E+00  0.00000000000E+00  0.28530267962E+04  0.28530267962E+04  0.00000000000E+00 0. -1.
          1   -1    0    0  501    0 -0.00000000000E+00 -0.00000000000E+00 -0.73292987364E+02  0.73292987364E+02  0.00000000000E+00 0. -1.
         25    2    1    2    0    0  0.54052357666E+02  0.78357041239E+00  0.99639884357E+02  0.16874666074E+03  0.12500023042E+03 0.  0.
          2    1    1    2  501    0  0.10338453528E+02 -0.17664580479E+02 -0.35599533018E+02  0.41063947399E+02  0.00000000000E+00 0. -1.
          1    1    1    2  502    0 -0.64390811194E+02  0.16881010066E+02  0.27156934575E+04  0.27165091755E+04  0.00000000000E+00 0. -1.
         22    1    3    3    0    0 -0.22769557713E+02  0.42665500701E+02  0.41165697385E+02  0.63509151700E+02  0.00000000000E+00 0.  1.
         22    1    3    3    0    0  0.76821915379E+02 -0.41881930288E+02  0.58474186972E+02  0.10523750904E+03  0.00000000000E+00 0.  1.
</event>
<event>
 7    1  0.5779468E-006  0.2809576E+02  0.7818608E-02  0.1629670E+00
          2   -1    0    0  502    0  0.00000000000E+00  0.00000000000E+00  0.14076310688E+04  0.14076310688E+04  0.00000000000E+00 0. -1.
          1   -1    0    0  501    0 -0.00000000000E+00 -0.00000000000E+00 -0.12722610236E+03  0.12722610236E+03  0.00000000000E+00 0. -1.
         25    2    1    2    0    0  0.15967557780E+01  0.22620095322E+02  0.74872721991E+03  0.75942840783E+03  0.12499935378E+03 0.  0.
          2    1    1    2  501    0 -0.25783776480E+02 -0.64509361807E+01 -0.12009807334E+03  0.12300392241E+03  0.00000000000E+00 0. -1.
          1    1    1    2  502    0  0.24187020702E+02 -0.16169159141E+02  0.65177581986E+03  0.65242484091E+03  0.00000000000E+00 0. -1.
         22    1    3    3    0    0  0.36901382228E+02 -0.56902769434E+01  0.64715552555E+03  0.64823172208E+03  0.00000000000E+00 0.  1.
         22    1    3    3    0    0 -0.35304626450E+02  0.28310372265E+02  0.10157169436E+03  0.11119668575E+03  0.00000000000E+00 0.  1.
</event>
<event>
 7    1  0.5779468E-006  0.3392577E+02  0.7818608E-02  0.1579991E+00
          2   -1    0    0  502    0  0.00000000000E+00  0.00000000000E+00  0.73518203842E+03  0.73518203842E+03  0.00000000000E+00 0. -1.
          1   -1    0    0  501    0 -0.00000000000E+00 -0.00000000000E+00 -0.67781161732E+02  0.67781161732E+02  0.00000000000E+00 0. -1.
         25    2    1    2    0    0 -0.38945619432E+02 -0.23876151731E+02  0.17332538095E+03  0.21852581340E+03  0.12500004618E+03 0.  0.
          2    1    1    2  501    0  0.33476521370E+02 -0.52409012001E+01 -0.38357667093E+02  0.51180613060E+02  0.00000000000E+00 0. -1.
          1    1    1    2  502    0  0.54690980625E+01  0.29117052931E+02  0.53243316284E+03  0.53325677370E+03  0.00000000000E+00 0. -1.
         22    1    3    3    0    0 -0.40916058959E+02 -0.23267967825E+02  0.19304405856E+03  0.19869959928E+03  0.00000000000E+00 0.  1.
         22    1    3    3    0    0  0.19704395264E+01 -0.60818390638E+00 -0.19718677612E+02  0.19826214121E+02  0.00000000000E+00 0.  1.
</event>
<event>
 7    1  0.5779468E-006  0.5560226E+02  0.7818608E-02  0.1517134E+00
          2   -1    0    0  502    0  0.00000000000E+00  0.00000000000E+00  0.97054290328E+03  0.97054290328E+03  0.00000000000E+00 0. -1.
          1   -1    0    0  501    0 -0.00000000000E+00 -0.00000000000E+00 -0.24796787051E+03  0.24796787051E+03  0.00000000000E+00 0. -1.
         25    2    1    2    0    0 -0.86236453176E+01 -0.34736498028E+02 -0.11260916445E+03  0.17200840697E+03  0.12500030638E+03 0.  0.
          2    1    1    2  501    0  0.24497843242E+02  0.56692010779E+02 -0.96420682029E+02  0.11450360838E+03  0.00000000000E+00 0. -1.
          1    1    1    2  502    0 -0.15874197925E+02 -0.21955512751E+02  0.93160487925E+03  0.93199875844E+03  0.00000000000E+00 0. -1.
         22    1    3    3    0    0  0.58120829980E+02 -0.16146598786E+02 -0.59296484912E+02  0.84586149297E+02  0.00000000000E+00 0. -1.
         22    1    3    3    0    0 -0.66744475298E+02 -0.18589899243E+02 -0.53312679538E+02  0.87422257670E+02  0.00000000000E+00 0. -1.
</event>
<event>
 7    1  0.6077385E-006  0.1126269E+03  0.7818608E-02  0.1422520E+00
          2   -1    0    0  502    0  0.00000000000E+00  0.00000000000E+00  0.17516776939E+04  0.17516776939E+04  0.00000000000E+00 0. -1.
          1   -1    0    0  501    0 -0.00000000000E+00 -0.00000000000E+00 -0.77599611032E+03  0.77599611032E+03  0.00000000000E+00 0. -1.
         25    2    1    2    0    0 -0.49029896884E+02 -0.12243855239E+03 -0.37084601059E+03  0.41297251604E+03  0.12499762210E+03 0.  0.
          2    1    1    2  501    0 -0.76724799558E+01  0.25222832106E+02 -0.38180208564E+03  0.38271123685E+03  0.00000000000E+00 0. -1.
          1    1    1    2  502    0  0.56702376840E+02  0.97215720288E+02  0.17283296798E+04  0.17319900513E+04  0.00000000000E+00 0. -1.
         22    1    3    3    0    0 -0.84191156103E+02 -0.48556413970E+02 -0.16553137982E+03  0.19195445765E+03  0.00000000000E+00 0. -1.
         22    1    3    3    0    0  0.35161259220E+02 -0.73882138424E+02 -0.20531463077E+03  0.22101805839E+03  0.00000000000E+00 0. -1.
</event>
<event>
 7    1  0.5779468E-006  0.3487291E+03  0.7818608E-02  0.1197776E+00
          2   -1    0    0  502    0  0.00000000000E+00  0.00000000000E+00  0.21880484799E+04  0.21880484799E+04  0.00000000000E+00 0. -1.
          1   -1    0    0  501    0 -0.00000000000E+00 -0.00000000000E+00 -0.24344683422E+04  0.24344683422E+04  0.00000000000E+00 0. -1.
         25    2    1    2    0    0 -0.39198399361E+03  0.97520374674E+02 -0.51205056869E+03  0.66406458912E+03  0.12499727560E+03 0.  0.
          2    1    1    2  501    0  0.32708244367E+03 -0.83303301203E+02 -0.18304551591E+04  0.18613136368E+04  0.00000000000E+00 0. -1.
          1    1    1    2  502    0  0.64901549939E+02 -0.14217073471E+02  0.20960858655E+04  0.20971385963E+04  0.00000000000E+00 0. -1.
         22    1    3    3    0    0 -0.20267735679E+03 -0.96074602134E+01 -0.21185264651E+03  0.29334614039E+03  0.00000000000E+00 0. -1.
         22    1    3    3    0    0 -0.18930663682E+03  0.10712783489E+03 -0.30019792217E+03  0.37071844873E+03  0.00000000000E+00 0. -1.
</event>
<event>
 7    1  0.5779468E-006  0.9119342E+02  0.7818608E-02  0.1483324E+00
          2   -1    0    0  502    0  0.00000000000E+00  0.00000000000E+00  0.63455108458E+03  0.63455108458E+03  0.00000000000E+00 0. -1.
          1   -1    0    0  501    0 -0.00000000000E+00 -0.00000000000E+00 -0.12397761116E+04  0.12397761116E+04  0.00000000000E+00 0. -1.
         25    2    1    2    0    0 -0.74897565228E+02  0.24151444543E+02  0.27909755869E+03  0.31577171016E+03  0.12499355232E+03 0.  0.
          2    1    1    2  501    0 -0.11820584830E+02  0.17161277351E+02 -0.12145054158E+04  0.12146841732E+04  0.00000000000E+00 0. -1.
          1    1    1    2  502    0  0.86718150058E+02 -0.41312721895E+02  0.33018283004E+03  0.34387131284E+03  0.00000000000E+00 0. -1.
         22    1    3    3    0    0 -0.92531363925E+02  0.50083424623E+02  0.15200436424E+03  0.18486678847E+03  0.00000000000E+00 0. -1.
         22    1    3    3    0    0  0.17633798697E+02 -0.25931980080E+02  0.12709319445E+03  0.13090492169E+03  0.00000000000E+00 0. -1.
</event>
<event>
 7    1  0.5779468E-006  0.1093179E+03  0.7818608E-02  0.1302084E+00
          2   -1    0    0  502    0  0.00000000000E+00  0.00000000000E+00  0.26696984081E+04  0.26696984081E+04  0.00000000000E+00 0. -1.
          1   -1    0    0  501    0 -0.00000000000E+00 -0.00000000000E+00 -0.38136993947E+03  0.38136993947E+03  0.00000000000E+00 0. -1.
         25    2    1    2    0    0 -0.65045995687E+02 -0.13934319471E+03 -0.37108005277E+02  0.20161692402E+03  0.12499949012E+03 0.  0.
          2    1    1    2  501    0  0.68172126362E+02  0.30343145979E+02 -0.25551979506E+03  0.26619262009E+03  0.00000000000E+00 0. -1.
          1    1    1    2  502    0 -0.31261306746E+01  0.10900004873E+03  0.25809562690E+04  0.25832588035E+04  0.00000000000E+00 0. -1.
         22    1    3    3    0    0 -0.23427911291E+02 -0.51044820967E+02 -0.77720945911E+02  0.95890490708E+02  0.00000000000E+00 0. -1.
         22    1    3    3    0    0 -0.41618084396E+02 -0.88298373740E+02  0.40612940634E+02  0.10572643331E+03  0.00000000000E+00 0. -1.
</event>
<event>
 7    1  0.5779468E-006  0.4893124E+02  0.7818608E-02  0.1475859E+00
          2   -1    0    0  502    0  0.00000000000E+00  0.00000000000E+00  0.44285498890E+03  0.44285498890E+03  0.00000000000E+00 0. -1.
          1   -1    0    0  501    0 -0.00000000000E+00 -0.00000000000E+00 -0.14982499870E+03  0.14982499870E+03  0.00000000000E+00 0. -1.
         25    2    1    2    0    0 -0.99874970073E+01  0.21492624373E+02  0.17434140048E+03  0.21582709470E+03  0.12499891155E+03 0.  0.
          2    1    1    2  501    0 -0.40698663469E+02 -0.44427522039E+01 -0.12283594560E+03  0.12947891252E+03  0.00000000000E+00 0. -1.
          1    1    1    2  502    0  0.50686160476E+02 -0.17049872169E+02  0.24152453532E+03  0.24737398038E+03  0.00000000000E+00 0. -1.
         22    1    3    3    0    0  0.55173099821E+02  0.26161352157E+02  0.96616802070E+02  0.11429476687E+03  0.00000000000E+00 0.  1.
         22    1    3    3    0    0 -0.65160596829E+02 -0.46687277843E+01  0.77724598409E+02  0.10153232784E+03  0.00000000000E+00 0.  1.
</event>
<event>
 7    1  0.5779468E-006  0.1151628E+03  0.7818608E-02  0.1334818E+00
          2   -1    0    0  502    0  0.00000000000E+00  0.00000000000E+00  0.90828603852E+03  0.90828603852E+03  0.00000000000E+00 0. -1.
          1   -1    0    0  501    0 -0.00000000000E+00 -0.00000000000E+00 -0.12096521924E+04  0.12096521924E+04  0.00000000000E+00 0. -1.
         25    2    1    2    0    0 -0.54392116257E+02 -0.64749239511E+02 -0.45939429461E+03  0.48355920581E+03  0.12504167816E+03 0.  0.
          2    1    1    2  501    0  0.10582905997E+03  0.76812789997E+02 -0.73159427062E+03  0.74318918953E+03  0.00000000000E+00 0. -1.
          1    1    1    2  502    0 -0.51436943709E+02 -0.12063550486E+02  0.88962241130E+03  0.89118983563E+03  0.00000000000E+00 0. -1.
         22    1    3    3    0    0  0.80067632674E+01  0.14271537715E+02 -0.25683099811E+03  0.25735179548E+03  0.00000000000E+00 0. -1.
         22    1    3    3    0    0 -0.62398879525E+02 -0.79020777226E+02 -0.20256329650E+03  0.22620741033E+03  0.00000000000E+00 0. -1.
</event>
<event>
 7    1  0.5779468E-006  0.1061699E+03  0.7818608E-02  0.1389979E+00
          2   -1    0    0  502    0  0.00000000000E+00  0.00000000000E+00  0.25436311760E+03  0.25436311760E+03  0.00000000000E+00 0. -1.
          1   -1    0    0  501    0 -0.00000000000E+00 -0.00000000000E+00 -0.15003320988E+04  0.15003320988E+04  0.00000000000E+00 0. -1.
         25    2    1    2    0    0  0.79634235103E+02 -0.17442949815E+02 -0.33400169500E+02  0.15292763243E+03  0.12500168615E+03 0.  0.
          2    1    1    2  501    0  0.31006253487E+02  0.18494818232E+02 -0.13911873270E+04  0.13916557134E+04  0.00000000000E+00 0. -1.
          1    1    1    2  502    0 -0.11064048859E+03 -0.10518684167E+01  0.17861851526E+03  0.21011187053E+03  0.00000000000E+00 0. -1.
         22    1    3    3    0    0  0.17161859128E+02  0.26229547000E+02  0.37466908732E+02  0.48849644773E+02  0.00000000000E+00 0.  1.
         22    1    3    3    0    0  0.62472375975E+02 -0.43672496815E+02 -0.70867078233E+02  0.10407798766E+03  0.00000000000E+00 0.  1.
</event>
<event>
 7    1  0.5779468E-006  0.1069789E+03  0.7818608E-02  0.1342482E+00
          2   -1    0    0  502    0  0.00000000000E+00  0.00000000000E+00  0.21904078054E+03  0.21904078054E+03  0.00000000000E+00 0. -1.
          1   -1    0    0  501    0 -0.00000000000E+00 -0.00000000000E+00 -0.14102853299E+04  0.14102853299E+04  0.00000000000E+00 0. -1.
         25    2    1    2    0    0  0.96278383102E+02  0.13677248595E+02  0.18180324519E+02  0.15941176118E+03  0.12499996489E+03 0.  0.
          2    1    1    2  501    0 -0.10003880975E+03  0.39403779833E+02 -0.13319760004E+04  0.13363085298E+04  0.00000000000E+00 0. -1.
          1    1    1    2  502    0  0.37604266469E+01 -0.53081028428E+02  0.12255112648E+03  0.13360581944E+03  0.00000000000E+00 0. -1.
         22    1    3    3    0    0  0.14284424720E+02  0.93820853763E+01 -0.49903911906E+02  0.52749111263E+02  0.00000000000E+00 0.  1.
         22    1    3    3    0    0  0.81993958382E+02  0.42951632186E+01  0.68084236425E+02  0.10666264992E+03  0.00000000000E+00 0.  1.
</event>
<event>
 7    1  0.5779468E-006  0.6004302E+02  0.7818608E-02  0.1416965E+00
          2   -1    0    0  502    0  0.00000000000E+00  0.00000000000E+00  0.17745345506E+03  0.17745345506E+03  0.00000000000E+00 0. -1.
          1   -1    0    0  501    0 -0.00000000000E+00 -0.00000000000E+00 -0.18751046744E+04  0.18751046744E+04  0.00000000000E+00 0. -1.
         25    2    1    2    0    0  0.69120998592E+02  0.81323075407E+02 -0.39931458558E+03  0.43181950229E+03  0.12499915704E+03 0.  0.
          2    1    1    2  501    0 -0.26619870250E+02 -0.52040519005E+02 -0.14548044074E+04  0.14559782611E+04  0.00000000000E+00 0. -1.
          1    1    1    2  502    0 -0.42501128341E+02 -0.29282556402E+02  0.15646777365E+03  0.16476036602E+03  0.00000000000E+00 0. -1.
         22    1    3    3    0    0  0.15747362580E+02 -0.17039249113E+02 -0.21458671478E+03  0.21583737767E+03  0.00000000000E+00 0.  1.
         22    1    3    3    0    0  0.53373636011E+02  0.98362324520E+02 -0.18472787080E+03  0.21598212462E+03  0.00000000000E+00 0.  1.
</event>
<event>
 7    1  0.5779468E-006  0.3005676E+03  0.7818608E-02  0.1235661E+00
          2   -1    0    0  502    0  0.00000000000E+00  0.00000000000E+00  0.40581548245E+03  0.40581548245E+03  0.00000000000E+00 0. -1.
          1   -1    0    0  501    0 -0.00000000000E+00 -0.00000000000E+00 -0.27700237423E+04  0.27700237423E+04  0.00000000000E+00 0. -1.
         25    2    1    2    0    0  0.21392038576E+03  0.20155009811E+03 -0.16304275525E+04  0.16614163257E+04  0.12500331920E+03 0.  0.
          2    1    1    2  501    0  0.37267975657E+02 -0.35791315032E+02 -0.10653715018E+04  0.10666238124E+04  0.00000000000E+00 0. -1.
          1    1    1    2  502    0 -0.25118836142E+03 -0.16575878308E+03  0.33159079445E+03  0.44779908670E+03  0.00000000000E+00 0. -1.
         22    1    3    3    0    0  0.20812205391E+03  0.18889044801E+03 -0.16195230444E+04  0.16437302948E+04  0.00000000000E+00 0. -1.
         22    1    3    3    0    0  0.57983318477E+01  0.12659650095E+02 -0.10904508170E+02  0.17686030962E+02  0.00000000000E+00 0. -1.
</event>
<event>
 7    1  0.5779468E-006  0.5815830E+02  0.7818608E-02  0.1441011E+00
          2   -1    0    0  502    0  0.00000000000E+00  0.00000000000E+00  0.11181729076E+04  0.11181729076E+04  0.00000000000E+00 0. -1.
          1   -1    0    0  501    0 -0.00000000000E+00 -0.00000000000E+00 -0.23766583244E+02  0.23766583244E+02  0.00000000000E+00 0. -1.
         25    2    1    2    0    0 -0.66276302520E+02 -0.34235945668E+02  0.90532386477E+03  0.91695200935E+03  0.12500015634E+03 0.  0.
          2    1    1    2  501    0  0.42712815139E+02 -0.12099189574E+02  0.21113022103E+02  0.49158261439E+02  0.00000000000E+00 0. -1.
          1    1    1    2  502    0  0.23563487381E+02  0.46335135242E+02  0.16796943751E+03  0.17582922008E+03  0.00000000000E+00 0. -1.
         22    1    3    3    0    0 -0.85630711889E+02  0.11442855347E+02  0.40137820952E+03  0.41057036527E+03  0.00000000000E+00 0.  1.
         22    1    3    3    0    0  0.19354409369E+02 -0.45678801015E+02  0.50394565524E+03  0.50638164408E+03  0.00000000000E+00 0.  1.
</event>
<event>
 7    1  0.5779468E-006  0.1117101E+03  0.7818608E-02  0.1377709E+00
          2   -1    0    0  502    0  0.00000000000E+00  0.00000000000E+00  0.73921802298E+03  0.73921802298E+03  0.00000000000E+00 0. -1.
          1   -1    0    0  501    0 -0.00000000000E+00 -0.00000000000E+00 -0.96077234857E+03  0.96077234857E+03  0.00000000000E+00 0. -1.
         25    2    1    2    0    0 -0.61860199857E+02 -0.86964745876E+02 -0.34444991073E+03  0.38165609000E+03  0.12500431465E+03 0.  0.
          2    1    1    2  501    0  0.93545783459E+02  0.66165324532E+02 -0.59172136036E+03  0.60271289358E+03  0.00000000000E+00 0. -1.
          1    1    1    2  502    0 -0.31685583602E+02  0.20799421344E+02  0.71461694550E+03  0.71562138798E+03  0.00000000000E+00 0. -1.
         22    1    3    3    0    0 -0.68857516233E+02 -0.93577956536E+02 -0.35118637436E+03  0.36990547580E+03  0.00000000000E+00 0.  1.
         22    1    3    3    0    0  0.69973163768E+01  0.66132106603E+01  0.67364636330E+01  0.11750614196E+02  0.00000000000E+00 0.  1.
</event>
<event>
 7    1  0.5779468E-006  0.1545603E+03  0.7818608E-02  0.1224882E+00
          2   -1    0    0  502    0  0.00000000000E+00  0.00000000000E+00  0.15853009413E+04  0.15853009413E+04  0.00000000000E+00 0. -1.
          1   -1    0    0  501    0 -0.00000000000E+00 -0.00000000000E+00 -0.39426421486E+03  0.39426421486E+03  0.00000000000E+00 0. -1.
         25    2    1    2    0    0  0.24053291760E+02 -0.10129786115E+03  0.88554121209E+02  0.18522070961E+03  0.12500024547E+03 0.  0.
          2    1    1    2  501    0  0.11156077815E+03  0.12911375928E+02 -0.33214268765E+03  0.35061556698E+03  0.00000000000E+00 0. -1.
          1    1    1    2  502    0 -0.13561406991E+03  0.88386485224E+02  0.14346252929E+04  0.14437288796E+04  0.00000000000E+00 0. -1.
         22    1    3    3    0    0 -0.15904518992E+02  0.20099682860E+02  0.41996385361E+02  0.49200074785E+02  0.00000000000E+00 0. -1.
         22    1    3    3    0    0  0.39957810752E+02 -0.12139754401E+03  0.46557735848E+02  0.13602063483E+03  0.00000000000E+00 0. -1.
</event>
<event>
 7    1  0.5779468E-006  0.2178375E+03  0.7818608E-02  0.1253049E+00
          2   -1    0    0  502    0  0.00000000000E+00  0.00000000000E+00  0.53935935660E+03  0.53935935660E+03  0.00000000000E+00 0. -1.
          1   -1    0    0  501    0 -0.00000000000E+00 -0.00000000000E+00 -0.24043535175E+04  0.24043535175E+04  0.00000000000E+00 0. -1.
         25    2    1    2    0    0 -0.11481668330E+02 -0.25866674828E+03 -0.60187496126E+03  0.66702251532E+03  0.12500100627E+03 0.  0.
          2    1    1    2  501    0  0.40654407758E+02  0.20643094276E+03 -0.17618578565E+04  0.17743758399E+04  0.00000000000E+00 0. -1.
          1    1    1    2  502    0 -0.29172739428E+02  0.52235805524E+02  0.49873865678E+03  0.50231451888E+03  0.00000000000E+00 0. -1.
         22    1    3    3    0    0  0.15549753972E+02 -0.20161566661E+03 -0.32288947651E+03  0.38098331448E+03  0.00000000000E+00 0.  1.
         22    1    3    3    0    0 -0.27031422302E+02 -0.57051081671E+02 -0.27898548476E+03  0.28603920084E+03  0.00000000000E+00 0.  1.
</event>
<event>
 7    1  0.5779468E-006  0.1301674E+03  0.7818608E-02  0.1374443E+00
          2   -1    0    0  502    0  0.00000000000E+00  0.00000000000E+00  0.22643970519E+04  0.22643970519E+04  0.00000000000E+00 0. -1.
          1   -1    0    0  501    0 -0.00000000000E+00 -0.00000000000E+00 -0.15011395231E+03  0.15011395231E+03  0.00000000000E+00 0. -1.
         25    2    1    2    0    0  0.11242139343E+03 -0.10567704016E+03  0.10523951484E+04  0.10709648017E+04  0.12499540583E+03 0.  0.
          2    1    1    2  501    0 -0.29207851328E+02  0.16223778192E+02 -0.13569485899E+03  0.13974764511E+03  0.00000000000E+00 0. -1.
          1    1    1    2  502    0 -0.83213542098E+02  0.89453261966E+02  0.11975828101E+04  0.12037985574E+04  0.00000000000E+00 0. -1.
         22    1    3    3    0    0  0.22193730824E+02 -0.26680588923E+02  0.65379429387E+03  0.65471474263E+03  0.00000000000E+00 0.  1.
         22    1    3    3    0    0  0.90227662602E+02 -0.78996451235E+02  0.39860085457E+03  0.41625005906E+03  0.00000000000E+00 0.  1.
</event>
<event>
 7    1  0.5779468E-006  0.1206293E+03  0.7818608E-02  0.1336940E+00
          2   -1    0    0  502    0  0.00000000000E+00  0.00000000000E+00  0.15177096865E+04  0.15177096865E+04  0.00000000000E+00 0. -1.
          1   -1    0    0  501    0 -0.00000000000E+00 -0.00000000000E+00 -0.29452493924E+03  0.29452493924E+03  0.00000000000E+00 0. -1.
         25    2    1    2    0    0  0.15350935746E+03  0.93338698760E+01  0.14988423271E+03  0.24847904450E+03  0.12499723352E+03 0.  0.
          2    1    1    2  501    0 -0.11258636359E+03 -0.37207920791E+02 -0.23039629715E+03  0.25911883833E+03  0.00000000000E+00 0. -1.
          1    1    1    2  502    0 -0.40922993866E+02  0.27874050915E+02  0.13036968117E+04  0.13046367429E+04  0.00000000000E+00 0. -1.
         22    1    3    3    0    0  0.10990932255E+03 -0.23972920879E+02  0.29676493031E+02  0.11634197161E+03  0.00000000000E+00 0. -1.
         22    1    3    3    0    0  0.43600034909E+02  0.33306790755E+02  0.12020773968E+03  0.13213707290E+03  0.00000000000E+00 0. -1.
</event>
<event>
 7    1  0.5779468E-006  0.1393155E+03  0.7818608E-02  0.1274062E+00
          2   -1    0    0  502    0  0.00000000000E+00  0.00000000000E+00  0.15604228875E+04  0.15604228875E+04  0.00000000000E+00 0. -1.
          1   -1    0    0  501    0 -0.00000000000E+00 -0.00000000000E+00 -0.20378448098E+04  0.20378448098E+04  0.00000000000E+00 0. -1.
         25    2    1    2    0    0  0.60778834463E+02  0.38018268914E+02  0.36663939901E+02  0.14869331164E+03  0.12500400373E+03 0.  0.
          2    1    1    2  501    0  0.75930561127E+02  0.62402087176E+01 -0.19775778546E+04  0.19790448608E+04  0.00000000000E+00 0. -1.
          1    1    1    2  502    0 -0.13670939559E+03 -0.44258477631E+02  0.14634919923E+04  0.14705295248E+04  0.00000000000E+00 0. -1.
         22    1    3    3    0    0  0.30298737991E+01  0.74079915656E+02  0.31041840854E+02  0.80377919371E+02  0.00000000000E+00 0.  1.
         22    1    3    3    0    0  0.57748960664E+02 -0.36061646742E+02  0.56220990469E+01  0.68315392272E+02  0.00000000000E+00 0.  1.
</event>
<event>
 7    1  0.5779468E-006  0.1201635E+03  0.7818608E-02  0.1261746E+00
          2   -1    0    0  502    0  0.00000000000E+00  0.00000000000E+00  0.12911027874E+04  0.12911027874E+04  0.00000000000E+00 0. -1.
          1   -1    0    0  501    0 -0.00000000000E+00 -0.00000000000E+00 -0.25465384236E+03  0.25465384236E+03  0.00000000000E+00 0. -1.
         25    2    1    2    0    0 -0.15109896795E+01  0.39331185770E+02 -0.97216496185E+02  0.16317175444E+03  0.12499899620E+03 0.  0.
          2    1    1    2  501    0  0.87247928618E+02  0.47918325652E+02 -0.10103928379E+03  0.14183548163E+03  0.00000000000E+00 0. -1.
          1    1    1    2  502    0 -0.85736938939E+02 -0.87249511423E+02  0.12347047251E+04  0.12407493937E+04  0.00000000000E+00 0. -1.
         22    1    3    3    0    0  0.19127492246E+02  0.81443738788E+02 -0.55413803294E+02  0.10034756172E+03  0.00000000000E+00 0.  1.
         22    1    3    3    0    0 -0.20638481926E+02 -0.42112553018E+02 -0.41802692891E+02  0.62824192719E+02  0.00000000000E+00 0.  1.
</event>
<event>
 7    1  0.5779468E-006  0.3877147E+03  0.7818608E-02  0.1202056E+00
          2   -1    0    0  502    0  0.00000000000E+00  0.00000000000E+00  0.91592001126E+03  0.91592001126E+03  0.00000000000E+00 0. -1.
          1   -1    0    0  501    0 -0.00000000000E+00 -0.00000000000E+00 -0.10579845616E+04  0.10579845616E+04  0.00000000000E+00 0. -1.
         25    2    1    2    0    0  0.31166872664E+03 -0.27781206846E+03 -0.47096593994E+02  0.43836269749E+03  0.12500729913E+03 0.  0.
          2    1    1    2  501    0 -0.40955956386E-02  0.57045549291E+02 -0.76348585686E+03  0.76561403353E+03  0.00000000000E+00 0. -1.
          1    1    1    2  502    0 -0.31166463104E+03  0.22076651917E+03  0.66851790055E+03  0.76992784180E+03  0.00000000000E+00 0. -1.
         22    1    3    3    0    0  0.15875615834E+03 -0.10617234691E+03  0.35193594368E+02  0.19420266255E+03  0.00000000000E+00 0. -1.
         22    1    3    3    0    0  0.15291256830E+03 -0.17163972156E+03 -0.82290188362E+02  0.24416003494E+03  0.00000000000E+00 0. -1.
</event>
<event>
 7    1  0.5779468E-006  0.1471641E+03  0.7818608E-02  0.1402672E+00
          2   -1    0    0  502    0  0.00000000000E+00  0.00000000000E+00  0.14611413704E+04  0.14611413704E+04  0.00000000000E+00 0. -1.
          1   -1    0    0  501    0 -0.00000000000E+00 -0.00000000000E+00 -0.12239371300E+03  0.12239371300E+03  0.00000000000E+00 0. -1.
         25    2    1    2    0    0 -0.22878910161E+02  0.15463009337E+03  0.88951022283E+03  0.91174975297E+03  0.12500106085E+03 0.  0.
          2    1    1    2  501    0  0.41831665663E+02 -0.14066330402E+03 -0.62500129745E+02  0.15950648754E+03  0.00000000000E+00 0. -1.
          1    1    1    2  502    0 -0.18952755502E+02 -0.13966789353E+02  0.51173756435E+03  0.51227884293E+03  0.00000000000E+00 0. -1.
         22    1    3    3    0    0  0.41890258269E+02  0.11087445130E+03  0.61555488791E+03  0.62686183304E+03  0.00000000000E+00 0. -1.
         22    1    3    3    0    0 -0.64769168429E+02  0.43755642074E+02  0.27395533493E+03  0.28488791994E+03  0.00000000000E+00 0. -1.
</event>
<event>
 7    1  0.5779468E-006  0.7424646E+02  0.7818608E-02  0.1397297E+00
          2   -1    0    0  502    0  0.00000000000E+00  0.00000000000E+00  0.44571836813E+03  0.44571836813E+03  0.00000000000E+00 0. -1.
          1   -1    0    0  501    0 -0.00000000000E+00 -0.00000000000E+00 -0.60056689053E+03  0.60056689053E+03  0.00000000000E+00 0. -1.
         25    2    1    2    0    0 -0.54770313159E+02  0.58569351600E+02  0.29333920844E+03  0.32879254870E+03  0.12500597075E+03 0.  0.
          2    1    1    2  501    0  0.85295115721E+01 -0.73829543299E+02 -0.57597092290E+03  0.58074612187E+03  0.00000000000E+00 0. -1.
          1    1    1    2  502    0  0.46240801587E+02  0.15260191699E+02  0.12778319206E+03  0.13674658810E+03  0.00000000000E+00 0. -1.
         22    1    3    3    0    0 -0.65926646578E+02 -0.16349835433E+02  0.18079099705E+03  0.19312955357E+03  0.00000000000E+00 0.  1.
         22    1    3    3    0    0  0.11156333419E+02  0.74919187033E+02  0.11254821139E+03  0.13566299513E+03  0.00000000000E+00 0.  1.
</event>
<event>
 7    1  0.5779468E-006  0.3209420E+02  0.7818608E-02  0.1597408E+00
          2   -1    0    0  502    0  0.00000000000E+00  0.00000000000E+00  0.81945359211E+02  0.81945359211E+02  0.00000000000E+00 0. -1.
          1   -1    0    0  501    0 -0.00000000000E+00 -0.00000000000E+00 -0.16101428507E+04  0.16101428507E+04  0.00000000000E+00 0. -1.
         25    2    1    2    0    0 -0.78806496375E+01  0.16444834811E+02 -0.58681401439E+03  0.60025601802E+03  0.12499624979E+03 0.  0.
          2    1    1    2  501    0 -0.24274715997E+02 -0.14269011805E+02 -0.10129511758E+04  0.10133424649E+04  0.00000000000E+00 0. -1.
          1    1    1    2  502    0  0.32155365634E+02 -0.21758230061E+01  0.71567698722E+02  0.78489727004E+02  0.00000000000E+00 0. -1.
         22    1    3    3    0    0  0.54033514458E+02  0.31541127963E+02 -0.29676509535E+03  0.30328861709E+03  0.00000000000E+00 0.  1.
         22    1    3    3    0    0 -0.61914164096E+02 -0.15096293152E+02 -0.29004891904E+03  0.29696740093E+03  0.00000000000E+00 0.  1.
</event>
<event>
 7    1  0.5779468E-006  0.4643805E+02  0.7818608E-02  0.1531631E+00
          2   -1    0    0  502    0  0.00000000000E+00  0.00000000000E+00  0.50337430410E+03  0.50337430410E+03  0.00000000000E+00 0. -1.
          1   -1    0    0  501    0 -0.00000000000E+00 -0.00000000000E+00 -0.11264803131E+03  0.11264803131E+03  0.00000000000E+00 0. -1.
         25    2    1    2    0    0 -0.51072480507E+02 -0.33059510368E+02  0.10611546181E+03  0.17489077951E+03  0.12499985613E+03 0.  0.
          2    1    1    2  501    0  0.51434360068E+01  0.29007112925E+02 -0.73958570824E+02  0.79609909763E+02  0.00000000000E+00 0. -1.
          1    1    1    2  502    0  0.45929044500E+02  0.40523974437E+01  0.35856938181E+03  0.36152164614E+03  0.00000000000E+00 0. -1.
         22    1    3    3    0    0 -0.17042946059E+02 -0.72162368662E+02  0.97264408856E+02  0.12230386213E+03  0.00000000000E+00 0. -1.
         22    1    3    3    0    0 -0.34029534448E+02  0.39102858294E+02  0.88510529503E+01  0.52586917383E+02  0.00000000000E+00 0. -1.
</event>
<event>
 7    1  0.5779468E-006  0.1338037E+03  0.7818608E-02  0.1343938E+00
          2   -1    0    0  502    0  0.00000000000E+00  0.00000000000E+00  0.87890118072E+03  0.87890118072E+03  0.00000000000E+00 0. -1.
          1   -1    0    0  501    0 -0.00000000000E+00 -0.00000000000E+00 -0.43040048866E+02  0.43040048866E+02  0.00000000000E+00 0. -1.
         25    2    1    2    0    0 -0.12186688921E+03 -0.45981086188E+01  0.35074907353E+03  0.39180493751E+03  0.12495405229E+03 0.  0.
          2    1    1    2  501    0  0.13969415101E+03 -0.33447154900E+02  0.22702203149E+03  0.26864878704E+03  0.00000000000E+00 0. -1.
          1    1    1    2  502    0 -0.17827261798E+02  0.38045263519E+02  0.25809002684E+03  0.26148750504E+03  0.00000000000E+00 0. -1.
         22    1    3    3    0    0 -0.12378369532E+03  0.18860277517E+02  0.34577593947E+03  0.36774870987E+03  0.00000000000E+00 0. -1.
         22    1    3    3    0    0  0.19168061064E+01 -0.23458386136E+02  0.49731340587E+01  0.24056227637E+02  0.00000000000E+00 0. -1.
</event>
<event>
 7    1  0.5779468E-006  0.3062310E+02  0.7818608E-02  0.1612146E+00
          2   -1    0    0  502    0  0.00000000000E+00  0.00000000000E+00  0.75666969731E+03  0.75666969731E+03  0.00000000000E+00 0. -1.
          1   -1    0    0  501    0 -0.00000000000E+00 -0.00000000000E+00 -0.13232249561E+03  0.13232249561E+03  0.00000000000E+00 0. -1.
         25    2    1    2    0    0 -0.67746327677E+01 -0.14010061446E+02  0.83069427790E+02  0.15088899268E+03  0.12499912323E+03 0.  0.
          2    1    1    2  501    0 -0.17618709526E+02  0.25633584317E+02 -0.95661324464E+02  0.10059119528E+03  0.00000000000E+00 0. -1.
          1    1    1    2  502    0  0.24393342294E+02 -0.11623522871E+02  0.63693909837E+03  0.63751200496E+03  0.00000000000E+00 0. -1.
         22    1    3    3    0    0 -0.52863474832E+01  0.41603882821E+02 -0.93950909242E+01  0.42977857892E+02  0.00000000000E+00 0.  1.
         22    1    3    3    0    0 -0.14882852845E+01 -0.55613944268E+02  0.92464518714E+02  0.10791113479E+03  0.00000000000E+00 0.  1.
</event>
<event>
 7    1  0.5779468E-006  0.5040495E+02  0.7818608E-02  0.1498100E+00
          2   -1    0    0  502    0  0.00000000000E+00  0.00000000000E+00  0.24927946376E+04  0.24927946376E+04  0.00000000000E+00 0. -1.
          1   -1    0    0  501    0 -0.00000000000E+00 -0.00000000000E+00 -0.17748305058E+04  0.17748305058E+04  0.00000000000E+00 0. -1.
         25    2    1    2    0    0  0.16495288634E+02  0.63162905876E+02  0.50979209404E+03  0.52893590630E+03  0.12499426627E+03 0.  0.
          2    1    1    2  501    0  0.14139724294E+02 -0.48377020344E+02 -0.17647521963E+04  0.17654717733E+04  0.00000000000E+00 0. -1.
          1    1    1    2  502    0 -0.30635012928E+02 -0.14785885532E+02  0.19729242340E+04  0.19732174638E+04  0.00000000000E+00 0. -1.
         22    1    3    3    0    0  0.52092284718E+02  0.71849638012E+02  0.45108668211E+03  0.45973380492E+03  0.00000000000E+00 0.  1.
         22    1    3    3    0    0 -0.35596996084E+02 -0.86867321366E+01  0.58705411934E+02  0.69202101382E+02  0.00000000000E+00 0.  1.
</event>
<event>
 7    1  0.5779468E-006  0.3707894E+02  0.7818608E-02  0.1565716E+00
          2   -1    0    0  502    0  0.00000000000E+00  0.00000000000E+00  0.10635180317E+04  0.10635180317E+04  0.00000000000E+00 0. -1.
          1   -1    0    0  501    0 -0.00000000000E+00 -0.00000000000E+00 -0.75057128735E+03  0.75057128735E+03  0.00000000000E+00 0. -1.
         25    2    1    2    0    0  0.56022540500E+02  0.16249702989E+01 -0.90157681103E+01  0.13728435702E+03  0.12499818013E+03 0.  0.
          2    1    1    2  501    0 -0.31862817424E+02 -0.18776566600E+02 -0.67669656587E+03  0.67770645626E+03  0.00000000000E+00 0. -1.
          1    1    1    2  502    0 -0.24159723076E+02  0.17151596301E+02  0.99865907831E+03  0.99909850574E+03  0.00000000000E+00 0. -1.
         22    1    3    3    0    0  0.65558899975E+01 -0.53715515054E+02 -0.27629995784E+02  0.60759796891E+02  0.00000000000E+00 0. -1.
         22    1    3    3    0    0  0.49466650502E+02  0.55340485353E+02  0.18614227674E+02  0.76524560129E+02  0.00000000000E+00 0. -1.
</event>
<event>
 7    1  0.5779468E-006  0.1085919E+03  0.7818608E-02  0.1362316E+00
          2   -1    0    0  502    0  0.00000000000E+00  0.00000000000E+00  0.17612351540E+04  0.17612351540E+04  0.00000000000E+00 0. -1.
          1   -1    0    0  501    0 -0.00000000000E+00 -0.00000000000E+00 -0.27950276953E+03  0.27950276953E+03  0.00000000000E+00 0. -1.
         25    2    1    2    0    0 -0.74448457315E+02  0.11868151265E+03  0.15598400557E+02  0.18839280272E+03  0.12498265390E+03 0.  0.
          2    1    1    2  501    0  0.73526641605E+02 -0.74401758080E+02 -0.17862001633E+03  0.20699492473E+03  0.00000000000E+00 0. -1.
          1    1    1    2  502    0  0.92181571058E+00 -0.44279754566E+02  0.16447540002E+04  0.16453501961E+04  0.00000000000E+00 0. -1.
         22    1    3    3    0    0 -0.10175321468E+03  0.12231913074E+03  0.59990083784E+01  0.15922209189E+03  0.00000000000E+00 0. -1.
         22    1    3    3    0    0  0.27304757367E+02 -0.36376180953E+01  0.95993921783E+01  0.29170710832E+02  0.00000000000E+00 0. -1.
</event>
<event>
 7    1  0.5779468E-006  0.1223468E+03  0.7818608E-02  0.1315564E+00
          2   -1    0    0  502    0  0.00000000000E+00  0.00000000000E+00  0.23788928350E+04  0.23788928350E+04  0.00000000000E+00 0. -1.
          1   -1    0    0  501    0 -0.00000000000E+00 -0.00000000000E+00 -0.16948768587E+04  0.16948768587E+04  0.00000000000E+00 0. -1.
         25    2    1    2    0    0  0.10991844653E+03 -0.67834496523E+02  0.15921463034E+03  0.24011963063E+03  0.12499821877E+03 0.  0.
          2    1    1    2  501    0 -0.63737136721E+02  0.10452699602E+03 -0.16517593967E+04  0.16562902584E+04  0.00000000000E+00 0. -1.
          1    1    1    2  502    0 -0.46181309811E+02 -0.36692499499E+02  0.21765607426E+04  0.21773598047E+04  0.00000000000E+00 0. -1.
         22    1    3    3    0    0  0.58293709307E+02 -0.11874035019E+02 -0.44047574117E+01  0.59653592853E+02  0.00000000000E+00 0. -1.
         22    1    3    3    0    0  0.51624737225E+02 -0.55960461504E+02  0.16361938775E+03  0.18046603778E+03  0.00000000000E+00 0. -1.
</event>
<event>
 7    1  0.5779468E-006  0.1931889E+03  0.7818608E-02  0.1247994E+00
          2   -1    0    0  502    0  0.00000000000E+00  0.00000000000E+00  0.54913745061E+03  0.54913745061E+03  0.00000000000E+00 0. -1.
          1   -1    0    0  501    0 -0.00000000000E+00 -0.00000000000E+00 -0.50537272337E+03  0.50537272337E+03  0.00000000000E+00 0. -1.
         25    2    1    2    0    0  0.68749724763E+01  0.13741830899E+03  0.14863793721E+03  0.23801093635E+03  0.12499965020E+03 0.  0.
          2    1    1    2  501    0 -0.50672698650E+02 -0.19324209374E+03 -0.43508092483E+03  0.47875425881E+03  0.00000000000E+00 0. -1.
          1    1    1    2  502    0  0.43797726174E+02  0.55823784754E+02  0.33020771487E+03  0.33774497882E+03  0.00000000000E+00 0. -1.
         22    1    3    3    0    0  0.21184576474E+02  0.15150150959E+03  0.93393442051E+02  0.17923121577E+03  0.00000000000E+00 0.  1.
         22    1    3    3    0    0 -0.14309603997E+02 -0.14083200602E+02  0.55244495159E+02  0.58779720577E+02  0.00000000000E+00 0.  1.
</event>
<event>
 7    1  0.5779468E-006  0.1419360E+03  0.7818608E-02  0.1356959E+00
          2   -1    0    0  502    0  0.00000000000E+00  0.00000000000E+00  0.41940677046E+03  0.41940677046E+03  0.00000000000E+00 0. -1.
          1   -1    0    0  501    0 -0.00000000000E+00 -0.00000000000E+00 -0.10003613121E+04  0.10003613121E+04  0.00000000000E+00 0. -1.
         25    2    1    2    0    0  0.13218389057E+03 -0.11162802401E+03 -0.20280953108E+03  0.29443231211E+03  0.12500113539E+03 0.  0.
          2    1    1    2  501    0 -0.10662812275E+03  0.87065459911E+02 -0.74457598372E+03  0.75719439142E+03  0.00000000000E+00 0. -1.
          1    1    1    2  502    0 -0.25555767823E+02  0.24562564099E+02  0.36643097318E+03  0.36814137900E+03  0.00000000000E+00 0. -1.
         22    1    3    3    0    0  0.12881229604E+03 -0.47629423959E+02 -0.17999468255E+03  0.22640506925E+03  0.00000000000E+00 0.  1.
         22    1    3    3    0    0  0.33715945360E+01 -0.63998600051E+02 -0.22814848532E+02  0.68027242864E+02  0.00000000000E+00 0.  1.
</event>
<event>
 7    1  0.5779468E-006  0.1434789E+03  0.7818608E-02  0.1393848E+00
          2   -1    0    0  502    0  0.00000000000E+00  0.00000000000E+00  0.16573825434E+04  0.16573825434E+04  0.00000000000E+00 0. -1.
          1   -1    0    0  501    0 -0.00000000000E+00 -0.00000000000E+00 -0.13782130232E+04  0.13782130232E+04  0.00000000000E+00 0. -1.
         25    2    1    2    0    0 -0.11403055682E+03 -0.89195847970E+02 -0.25267382107E+03  0.31690298471E+03  0.12499829871E+03 0.  0.
          2    1    1    2  501    0  0.18632767038E+02 -0.17989484340E+02 -0.10901034203E+04  0.10904110548E+04  0.00000000000E+00 0. -1.
          1    1    1    2  502    0  0.95397789785E+02  0.10718533231E+03  0.16219467616E+04  0.16282815271E+04  0.00000000000E+00 0. -1.
         22    1    3    3    0    0 -0.47007993126E+02 -0.10588331456E+03 -0.19547050688E+03  0.22722180084E+03  0.00000000000E+00 0.  1.
         22    1    3    3    0    0 -0.67022563697E+02  0.16687466586E+02 -0.57203314194E+02  0.89681183871E+02  0.00000000000E+00 0.  1.
</event>
<event>
 7    1  0.5779468E-006  0.5000194E+02  0.7818608E-02  0.1561385E+00
          2   -1    0    0  502    0  0.00000000000E+00  0.00000000000E+00  0.12037355203E+04  0.12037355203E+04  0.00000000000E+00 0. -1.
          1   -1    0    0  501    0 -0.00000000000E+00 -0.00000000000E+00 -0.98104253693E+03  0.98104253693E+03  0.00000000000E+00 0. -1.
         25    2    1    2    0    0 -0.35454876502E+01 -0.27988216440E+02  0.14396334550E+03  0.19273495647E+03  0.12500163141E+03 0.  0.
          2    1    1    2  501    0  0.15335349821E+01 -0.22527812597E+02 -0.95590618653E+03  0.95617283558E+03  0.00000000000E+00 0. -1.
          1    1    1    2  502    0  0.20119526681E+01  0.50516029037E+02  0.10346358244E+04  0.10358702652E+04  0.00000000000E+00 0. -1.
         22    1    3    3    0    0  0.52235712231E+02 -0.87608979628E+01  0.11583764466E+03  0.12737222180E+03  0.00000000000E+00 0.  1.
         22    1    3    3    0    0 -0.55781199881E+02 -0.19227318478E+02  0.28125700841E+02  0.65362734672E+02  0.00000000000E+00 0.  1.
</event>
<event>
 7    1  0.5779468E-006  0.3366676E+02  0.7818608E-02  0.1643982E+00
          2   -1    0    0  502    0  0.00000000000E+00  0.00000000000E+00  0.15385940671E+04  0.15385940671E+04  0.00000000000E+00 0. -1.
          1   -1    0    0  501    0 -0.00000000000E+00 -0.00000000000E+00 -0.31228693316E+03  0.31228693316E+03  0.00000000000E+00 0. -1.
         25    2    1    2    0    0 -0.14694176389E+02 -0.77339108169E+01 -0.12450590364E+03  0.17720698795E+03  0.12499945736E+03 0.  0.
          2    1    1    2  501    0 -0.45530031268E+01 -0.19917182416E+02 -0.16059556779E+03  0.16188996383E+03  0.00000000000E+00 0. -1.
          1    1    1    2  502    0  0.19247179515E+02  0.27651093233E+02  0.15114086054E+04  0.15117840485E+04  0.00000000000E+00 0. -1.
         22    1    3    3    0    0 -0.32767776449E+02  0.64341636696E+01 -0.14354383952E+03  0.14737693001E+03  0.00000000000E+00 0.  1.
         22    1    3    3    0    0  0.18073600061E+02 -0.14168074486E+02  0.19037935881E+02  0.29830057936E+02  0.00000000000E+00 0.  1.
</event>
<event>
 7    1  0.5779468E-006  0.1091499E+03  0.7818608E-02  0.1342336E+00
          2   -1    0    0  502    0  0.00000000000E+00  0.00000000000E+00  0.81528861303E+03  0.81528861303E+03  0.00000000000E+00 0. -1.
          1   -1    0    0  501    0 -0.00000000000E+00 -0.00000000000E+00 -0.15076855804E+03  0.15076855804E+03  0.00000000000E+00 0. -1.
         25    2    1    2    0    0  0.12497730750E+03  0.47588763655E+02  0.42005170197E+03  0.45820541554E+03  0.12499901072E+03 0.  0.
          2    1    1    2  501    0 -0.48265262412E+02  0.19938097061E+02 -0.11917813200E+03  0.13011721799E+03  0.00000000000E+00 0. -1.
          1    1    1    2  502    0 -0.76712045093E+02 -0.67526860716E+02  0.36364648503E+03  0.37773453754E+03  0.00000000000E+00 0. -1.
         22    1    3    3    0    0  0.29808477966E+02 -0.37332949802E+02  0.63067094422E+02  0.79118600205E+02  0.00000000000E+00 0. -1.
         22    1    3    3    0    0  0.95168829538E+02  0.84921713457E+02  0.35698460755E+03  0.37908681533E+03  0.00000000000E+00 0. -1.
</event>
<event>
 7    1  0.5779468E-006  0.1124491E+03  0.7818608E-02  0.1259278E+00
          2   -1    0    0  502    0  0.00000000000E+00  0.00000000000E+00  0.67645454532E+03  0.67645454532E+03  0.00000000000E+00 0. -1.
          1   -1    0    0  501    0 -0.00000000000E+00 -0.00000000000E+00 -0.10081489989E+04  0.10081489989E+04  0.00000000000E+00 0. -1.
         25    2    1    2    0    0 -0.10421094085E+03  0.16307825409E+03 -0.47963627474E+03  0.53210284819E+03  0.12501219085E+03 0.  0.
          2    1    1    2  501    0  0.96051025096E+02 -0.51485565344E+02 -0.49145221424E+03  0.50339034729E+03  0.00000000000E+00 0. -1.
          1    1    1    2  502    0  0.81599157521E+01 -0.11159268875E+03  0.63939403537E+03  0.64911034877E+03  0.00000000000E+00 0. -1.
         22    1    3    3    0    0 -0.72374766863E+02  0.18014768470E+03 -0.39769275803E+03  0.44255036433E+03  0.00000000000E+00 0.  1.
         22    1    3    3    0    0 -0.31836173985E+02 -0.17069430607E+02 -0.81943516707E+02  0.89552483861E+02  0.00000000000E+00 0.  1.
</event>
<event>
 7    1  0.5779468E-006  0.1834057E+03  0.7818608E-02  0.1238817E+00
          2   -1    0    0  502    0  0.00000000000E+00  0.00000000000E+00  0.58030685800E+03  0.58030685800E+03  0.00000000000E+00 0. -1.
          1   -1    0    0  501    0 -0.00000000000E+00 -0.00000000000E+00 -0.13371912514E+03  0.13371912514E+03  0.00000000000E+00 0. -1.
         25    2    1    2    0    0  0.11341494747E+03 -0.18177329657E+03  0.39663977160E+03  0.46781702687E+03  0.12500072223E+03 0.  0.
          2    1    1    2  501    0 -0.64337186708E+01  0.81743548020E+02 -0.19246678676E+02  0.84224907355E+02  0.00000000000E+00 0. -1.
          1    1    1    2  502    0 -0.10698122880E+03  0.10002974855E+03  0.69194639937E+02  0.16198404893E+03  0.00000000000E+00 0. -1.
         22    1    3    3    0    0  0.56692646373E+02 -0.62487976138E+02  0.52929591389E+02  0.99600928505E+02  0.00000000000E+00 0.  1.
         22    1    3    3    0    0  0.56722301096E+02 -0.11928532043E+03  0.34371018021E+03  0.36821609836E+03  0.00000000000E+00 0.  1.
</event>
<event>
 7    1  0.5779468E-006  0.2442617E+03  0.7818608E-02  0.1323484E+00
          2   -1    0    0  502    0  0.00000000000E+00  0.00000000000E+00  0.19210232725E+04  0.19210232725E+04  0.00000000000E+00 0. -1.
          1   -1    0    0  501    0 -0.00000000000E+00 -0.00000000000E+00 -0.20548605827E+04  0.20548605827E+04  0.00000000000E+00 0. -1.
         25    2    1    2    0    0 -0.26270690146E+03 -0.31812445824E+00 -0.51615808759E+03  0.59250294550E+03  0.12500220701E+03 0.  0.
          2    1    1    2  501    0  0.19449721314E+02  0.19475418996E+02 -0.14924969399E+04  0.14927507157E+04  0.00000000000E+00 0. -1.
          1    1    1    2  502    0  0.24325718014E+03 -0.19157294538E+02  0.18748177172E+04  0.18906301940E+04  0.00000000000E+00 0. -1.
         22    1    3    3    0    0 -0.24637014936E+03 -0.38498424356E+02 -0.44593744100E+03  0.51092130555E+03  0.00000000000E+00 0.  1.
         22    1    3    3    0    0 -0.16336752097E+02  0.38180299897E+02 -0.70220646592E+02  0.81581639951E+02  0.00000000000E+00 0.  1.
</event>
<event>
 7    1  0.6366894E-006  0.9254984E+02  0.7818608E-02  0.1341851E+00
          2   -1    0    0  502    0  0.00000000000E+00  0.00000000000E+00  0.12051828045E+04  0.12051828045E+04  0.00000000000E+00 0. -1.
          1   -1    0    0  501    0 -0.00000000000E+00 -0.00000000000E+00 -0.87827609928E+03  0.87827609928E+03  0.00000000000E+00 0. -1.
         25    2    1    2    0    0 -0.11667800144E+03 -0.72016466619E+01 -0.10014652755E+03  0.19829050449E+03  0.12499670977E+03 0.  0.
          2    1    1    2  501    0  0.75220156789E+02  0.53094982646E+02 -0.72531818397E+03  0.73113857590E+03  0.00000000000E+00 0. -1.
          1    1    1    2  502    0  0.41457844652E+02 -0.45893335984E+02  0.11523714167E+04  0.11540298234E+04  0.00000000000E+00 0. -1.
         22    1    3    3    0    0 -0.94343928152E+02 -0.35163006080E+02 -0.12057464223E+03  0.15708423895E+03  0.00000000000E+00 0. -1.
         22    1    3    3    0    0 -0.22334073290E+02  0.27961359418E+02  0.20428114685E+02  0.41206265540E+02  0.00000000000E+00 0. -1.
</event>
<event>
 7    1  0.5779468E-006  0.7052466E+02  0.7818608E-02  0.1388446E+00
          2   -1    0    0  502    0  0.00000000000E+00  0.00000000000E+00  0.48015160841E+02  0.48015160841E+02  0.00000000000E+00 0. -1.
          1   -1    0    0  501    0 -0.00000000000E+00 -0.00000000000E+00 -0.77134313530E+03  0.77134313530E+03  0.00000000000E+00 0. -1.
         25    2    1    2    0    0 -0.37397348562E+02 -0.26202671546E+02 -0.31114509062E+03  0.33841079443E+03  0.12500182674E+03 0.  0.
          2    1    1    2  501    0  0.25830187703E+02 -0.48586202493E+02 -0.40063177808E+03  0.40439292684E+03  0.00000000000E+00 0. -1.
          1    1    1    2  502    0  0.11567160859E+02  0.74788874040E+02 -0.11551105755E+02  0.76554574877E+02  0.00000000000E+00 0. -1.
         22    1    3    3    0    0  0.30076740108E+02  0.21082365821E+02 -0.17864876149E+03  0.18238546111E+03  0.00000000000E+00 0.  1.
         22    1    3    3    0    0 -0.67474088670E+02 -0.47285037368E+02 -0.13249632914E+03  0.15602533331E+03  0.00000000000E+00 0.  1.
</event>
<event>
 7    1  0.5779468E-006  0.1363551E+03  0.7818608E-02  0.1378236E+00
          2   -1    0    0  502    0  0.00000000000E+00  0.00000000000E+00  0.68725490297E+03  0.68725490297E+03  0.00000000000E+00 0. -1.
          1   -1    0    0  501    0 -0.00000000000E+00 -0.00000000000E+00 -0.64835645843E+02  0.64835645843E+02  0.00000000000E+00 0. -1.
         25    2    1    2    0    0 -0.11429149499E+03  0.91061456776E+02  0.27457618681E+03  0.33523284153E+03  0.12503695829E+03 0.  0.
          2    1    1    2  501    0  0.11847343589E+03 -0.60427276917E+02  0.98231473222E+02  0.16533854100E+03  0.00000000000E+00 0. -1.
          1    1    1    2  502    0 -0.41819409036E+01 -0.30634179859E+02  0.24961159709E+03  0.25151916628E+03  0.00000000000E+00 0. -1.
         22    1    3    3    0    0 -0.13501298361E+03  0.10098395106E+03  0.23117860753E+03  0.28612901408E+03  0.00000000000E+00 0.  1.
         22    1    3    3    0    0  0.20721488616E+02 -0.99224942860E+01  0.43397579275E+02  0.49103827450E+02  0.00000000000E+00 0.  1.
</event>
<event>
 7    1  0.5779468E-006  0.9227425E+02  0.7818608E-02  0.1406918E+00
          2   -1    0    0  502    0  0.00000000000E+00  0.00000000000E+00  0.33442501290E+03  0.33442501290E+03  0.00000000000E+00 0. -1.
          1   -1    0    0  501    0 -0.00000000000E+00 -0.00000000000E+00 -0.49023430169E+03  0.49023430169E+03  0.00000000000E+00 0. -1.
         25    2    1    2    0    0  0.19505553533E+02  0.96507533401E+02 -0.20860424935E+02  0.16047574347E+03  0.12499254494E+03 0.  0.
          2    1    1    2  501    0  0.16363104280E+02 -0.90830931740E+02 -0.39294803813E+03  0.40364114014E+03  0.00000000000E+00 0. -1.
          1    1    1    2  502    0 -0.35868657813E+02 -0.56766016612E+01  0.25799917427E+03  0.26054243098E+03  0.00000000000E+00 0. -1.
         22    1    3    3    0    0  0.21669286678E+02  0.88048710830E+02  0.39917834204E+02  0.99073543145E+02  0.00000000000E+00 0. -1.
         22    1    3    3    0    0 -0.21637331450E+01  0.84588225718E+01 -0.60778259139E+02  0.61402200322E+02  0.00000000000E+00 0. -1.
</event>
<event>
 7    1  0.5779468E-006  0.4363406E+02  0.7818608E-02  0.1550214E+00
          2   -1    0    0  502    0  0.00000000000E+00  0.00000000000E+00  0.14388722975E+04  0.14388722975E+04  0.00000000000E+00 0. -1.
          1   -1    0    0  501    0 -0.00000000000E+00 -0.00000000000E+00 -0.55514656198E+03  0.55514656198E+03  0.00000000000E+00 0. -1.
         25    2    1    2    0    0  0.20169998520E+02 -0.15384789975E+02 -0.46004033720E+03  0.47739410760E+03  0.12499800605E+03 0.  0.
          2    1    1    2  501    0  0.23477462856E+02  0.14859262051E+02 -0.83854096410E+02  0.88337412321E+02  0.00000000000E+00 0. -1.
          1    1    1    2  502    0 -0.43647461375E+02  0.52552792364E+00  0.14276201692E+04  0.14282873396E+04  0.00000000000E+00 0. -1.
         22    1    3    3    0    0  0.56154916347E+01 -0.45271575945E+02 -0.43053834018E+03  0.43294839380E+03  0.00000000000E+00 0. -1.
         22    1    3    3    0    0  0.14554506885E+02  0.29886785970E+02 -0.29501997020E+02  0.44445713792E+02  0.00000000000E+00 0. -1.
</event>
<event>
 7    1  0.5779468E-006  0.1384514E+03  0.7818608E-02  0.1301465E+00
          2   -1    0    0  502    0  0.00000000000E+00  0.00000000000E+00  0.13662289459E+03  0.13662289459E+03  0.00000000000E+00 0. -1.
          1   -1    0    0  501    0 -0.00000000000E+00 -0.00000000000E+00 -0.14159286372E+04  0.14159286372E+04  0.00000000000E+00 0. -1.
         25    2    1    2    0    0  0.14671128866E+03 -0.36906097255E+02 -0.20599482296E+03  0.28451029559E+03  0.12500391585E+03 0.  0.
          2    1    1    2  501    0 -0.36850322677E+02 -0.46401883468E+02 -0.11206876281E+04  0.11222530200E+04  0.00000000000E+00 0. -1.
          1    1    1    2  502    0 -0.10986096598E+03  0.83307980724E+02  0.47376708421E+02  0.14578821626E+03  0.00000000000E+00 0. -1.
         22    1    3    3    0    0  0.11884426257E+03 -0.35291077866E+02 -0.63467131345E+02  0.13927489251E+03  0.00000000000E+00 0. -1.
         22    1    3    3    0    0  0.27867026082E+02 -0.16150193889E+01 -0.14252769161E+03  0.14523540308E+03  0.00000000000E+00 0. -1.
</event>
<event>
 7    1  0.5779468E-006  0.1349208E+03  0.7818608E-02  0.1265782E+00
          2   -1    0    0  502    0  0.00000000000E+00  0.00000000000E+00  0.48486919384E+03  0.48486919384E+03  0.00000000000E+00 0. -1.
          1   -1    0    0  501    0 -0.00000000000E+00 -0.00000000000E+00 -0.30882321976E+03  0.30882321976E+03  0.00000000000E+00 0. -1.
         25    2    1    2    0    0 -0.24496761842E+02 -0.76397062735E+02  0.88650534583E+02  0.17297551090E+03  0.12500003021E+03 0.  0.
          2    1    1    2  501    0  0.17903901773E+02 -0.83325260908E+02 -0.24092054588E+03  0.25555108732E+03  0.00000000000E+00 0. -1.
          1    1    1    2  502    0  0.65928600691E+01  0.15972232364E+03  0.32831598537E+03  0.36516581538E+03  0.00000000000E+00 0. -1.
         22    1    3    3    0    0  0.67803361774E+01 -0.39817698743E+02 -0.26407350725E+02  0.48257333786E+02  0.00000000000E+00 0. -1.
         22    1    3    3    0    0 -0.31277098019E+02 -0.36579363992E+02  0.11505788531E+03  0.12471817711E+03  0.00000000000E+00 0. -1.
</event>
<event>
 7    1  0.5779468E-006  0.3448249E+02  0.7818608E-02  0.1595640E+00
          2   -1    0    0  502    0  0.00000000000E+00  0.00000000000E+00  0.49545976827E+03  0.49545976827E+03  0.00000000000E+00 0. -1.
          1   -1    0    0  501    0 -0.00000000000E+00 -0.00000000000E+00 -0.18734689201E+04  0.18734689201E+04  0.00000000000E+00 0. -1.
         25    2    1    2    0    0  0.51417477781E+02 -0.23111660353E+02  0.77893151484E+02  0.15770637128E+03  0.12500420244E+03 0.  0.
          2    1    1    2  501    0 -0.26488526995E+02 -0.17941645137E+00 -0.18326959178E+04  0.18328873401E+04  0.00000000000E+00 0. -1.
          1    1    1    2  502    0 -0.24928950786E+02  0.23291076805E+02  0.37679361454E+03  0.37833497698E+03  0.00000000000E+00 0. -1.
         22    1    3    3    0    0  0.13123515979E+02 -0.57057192916E+00  0.10489212093E+03  0.10571144336E+03  0.00000000000E+00 0. -1.
         22    1    3    3    0    0  0.38293961803E+02 -0.22541088424E+02 -0.26998969446E+02  0.51994927917E+02  0.00000000000E+00 0. -1.
</event>
<event>
 7    1  0.5779468E-006  0.1627892E+03  0.7818608E-02  0.1242280E+00
          2   -1    0    0  502    0  0.00000000000E+00  0.00000000000E+00  0.24152120259E+04  0.24152120259E+04  0.00000000000E+00 0. -1.
          1   -1    0    0  501    0 -0.00000000000E+00 -0.00000000000E+00 -0.39888489750E+03  0.39888489750E+03  0.00000000000E+00 0. -1.
         25    2    1    2    0    0  0.50995665297E+02  0.11200870804E+03  0.13733084343E+02  0.17595262370E+03  0.12499687847E+03 0.  0.
          2    1    1    2  501    0  0.86636222471E+02 -0.21195640389E+02 -0.30852087035E+03  0.32115450745E+03  0.00000000000E+00 0. -1.
          1    1    1    2  502    0 -0.13763188777E+03 -0.90813067653E+02  0.23111149144E+04  0.23169897922E+04  0.00000000000E+00 0. -1.
         22    1    3    3    0    0  0.17697449970E+02  0.13107489826E+03  0.27673529755E+02  0.13512828327E+03  0.00000000000E+00 0. -1.
         22    1    3    3    0    0  0.33298215327E+02 -0.19066190222E+02 -0.13940445412E+02  0.40824340434E+02  0.00000000000E+00 0. -1.
</event>
<event>
 7    1  0.5779468E-006  0.5828762E+02  0.7818608E-02  0.1464921E+00
          2   -1    0    0  502    0  0.00000000000E+00  0.00000000000E+00  0.27498106003E+04  0.27498106003E+04  0.00000000000E+00 0. -1.
          1   -1    0    0  501    0 -0.00000000000E+00 -0.00000000000E+00 -0.15359483745E+03  0.15359483745E+03  0.00000000000E+00 0. -1.
         25    2    1    2    0    0  0.17815549411E+02  0.76168491179E+02  0.34162121974E+03  0.37208775727E+03  0.12500083393E+03 0.  0.
          2    1    1    2  501    0 -0.37308396527E+02 -0.44522067189E+02 -0.13211390830E+03  0.14431983815E+03  0.00000000000E+00 0. -1.
          1    1    1    2  502    0  0.19492847117E+02 -0.31646423990E+02  0.23867084514E+04  0.23869978423E+04  0.00000000000E+00 0. -1.
         22    1    3    3    0    0  0.64745757307E+02  0.54663712157E+02  0.27528902524E+03  0.28803503595E+03  0.00000000000E+00 0. -1.
         22    1    3    3    0    0 -0.46930207896E+02  0.21504779022E+02  0.66332194498E+02  0.84052721317E+02  0.00000000000E+00 0. -1.
</event>
<event>
 7    1  0.5779468E-006  0.6251264E+02  0.7818608E-02  0.1488542E+00
          2   -1    0    0  502    0  0.00000000000E+00  0.00000000000E+00  0.76930631385E+02  0.76930631385E+02  0.00000000000E+00 0. -1.
          1   -1    0    0  501    0 -0.00000000000E+00 -0.00000000000E+00 -0.27092912671E+03  0.27092912671E+03  0.00000000000E+00 0. -1.
         25    2    1    2    0    0  0.58608569921E+02  0.21972562114E+02 -0.68013054911E+02  0.15546438462E+03  0.12500256514E+03 0.  0.
          2    1    1    2  501    0 -0.15183367204E+02  0.25067991015E+02 -0.12497702109E+03  0.12836742037E+03  0.00000000000E+00 0. -1.
          1    1    1    2  502    0 -0.43425202717E+02 -0.47040553130E+02 -0.10084193323E+01  0.64027953109E+02  0.00000000000E+00 0. -1.
         22    1    3    3    0    0  0.41750123950E+02 -0.18663735695E+02  0.25326281083E+02  0.52276461179E+02  0.00000000000E+00 0.  1.
         22    1    3    3    0    0  0.16858445971E+02  0.40636297809E+02 -0.93339335994E+02  0.10318792344E+03  0.00000000000E+00 0.  1.
</event>
<event>
 7    1  0.5779468E-006  0.2638170E+03  0.7818608E-02  0.1298745E+00
          2   -1    0    0  502    0  0.00000000000E+00  0.00000000000E+00  0.98691663337E+03  0.98691663337E+03  0.00000000000E+00 0. -1.
          1   -1    0    0  501    0 -0.00000000000E+00 -0.00000000000E+00 -0.23657750676E+04  0.23657750676E+04  0.00000000000E+00 0. -1.
         25    2    1    2    0    0  0.26537550705E+03  0.47614576438E+02  0.56997669500E+03  0.64279802815E+03  0.12499825807E+03 0.  0.
          2    1    1    2  501    0 -0.25236287379E+03 -0.76724641806E+02 -0.23212138500E+04  0.23361522699E+04  0.00000000000E+00 0. -1.
          1    1    1    2  502    0 -0.13012633260E+02  0.29110065368E+02  0.37237872080E+03  0.37374140289E+03  0.00000000000E+00 0. -1.
         22    1    3    3    0    0  0.20804390277E+03  0.87625254536E+02  0.46133288399E+03  0.51360342732E+03  0.00000000000E+00 0.  1.
         22    1    3    3    0    0  0.57331604282E+02 -0.40010678099E+02  0.10864381101E+03  0.12919460083E+03  0.00000000000E+00 0.  1.
</event>
<event>
 7    1  0.5779468E-006  0.5689129E+02  0.7818608E-02  0.1412115E+00
          2   -1    0    0  502    0  0.00000000000E+00  0.00000000000E+00  0.73320865428E+03  0.73320865428E+03  0.00000000000E+00 0. -1.
          1   -1    0    0  501    0 -0.00000000000E+00 -0.00000000000E+00 -0.22691196200E+04  0.22691196200E+04  0.00000000000E+00 0. -1.
         25    2    1    2    0    0  0.57987582922E+02  0.10677798188E+02  0.25705636456E+03  0.29185484032E+03  0.12499879243E+03 0.  0.
          2    1    1    2  501    0 -0.17868717267E+02 -0.54012293767E+02 -0.22494587588E+04  0.22501780655E+04  0.00000000000E+00 0. -1.
          1    1    1    2  502    0 -0.40118865654E+02  0.43334495580E+02  0.45649142853E+03  0.46029536844E+03  0.00000000000E+00 0. -1.
         22    1    3    3    0    0  0.54819295699E+02  0.10790089025E+02  0.27492207818E+02  0.62268793893E+02  0.00000000000E+00 0.  1.
         22    1    3    3    0    0  0.31682872223E+01 -0.11229083713E+00  0.22956415675E+03  0.22958604643E+03  0.00000000000E+00 0.  1.
</event>
<event>
 7    1  0.5779468E-006  0.8251976E+02  0.7818608E-02  0.1366449E+00
          2   -1    0    0  502    0  0.00000000000E+00  0.00000000000E+00  0.38308737906E+03  0.38308737906E+03  0.00000000000E+00 0. -1.
          1   -1    0    0  501    0 -0.00000000000E+00 -0.00000000000E+00 -0.21131562216E+03  0.21131562216E+03  0.00000000000E+00 0. -1.
         25    2    1    2    0    0  0.40067026478E+02 -0.12153147420E+02 -0.68629257899E+02  0.14862042576E+03  0.12499996124E+03 0.  0.
          2    1    1    2  501    0  0.11832347823E+02 -0.55048814228E+02 -0.89164512594E+02  0.10545466661E+03  0.00000000000E+00 0. -1.
          1    1    1    2  502    0 -0.51899374301E+02  0.67201961647E+02  0.32956552739E+03  0.34032790886E+03  0.00000000000E+00 0. -1.
         22    1    3    3    0    0 -0.75061703658E+01  0.17630179098E+02  0.29732205947E+02  0.35371879779E+02  0.00000000000E+00 0.  1.
         22    1    3    3    0    0  0.47573196844E+02 -0.29783326518E+02 -0.98361463846E+02  0.11324854598E+03  0.00000000000E+00 0.  1.
</event>
<event>
 7    1  0.5779468E-006  0.8606929E+02  0.7818608E-02  0.1341828E+00
          2   -1    0    0  502    0  0.00000000000E+00  0.00000000000E+00  0.70136873716E+03  0.70136873716E+03  0.00000000000E+00 0. -1.
          1   -1    0    0  501    0 -0.00000000000E+00 -0.00000000000E+00 -0.11022568822E+03  0.11022568822E+03  0.00000000000E+00 0. -1.
         25    2    1    2    0    0 -0.11991346039E+03  0.72422404886E+02  0.20699318706E+03  0.27945132745E+03  0.12499048849E+03 0.  0.
          2    1    1    2  501    0  0.54473377156E+02 -0.60505439341E+02 -0.48262812972E+02  0.94644366576E+02  0.00000000000E+00 0. -1.
          1    1    1    2  502    0  0.65440083232E+02 -0.11916965545E+02  0.43241267486E+03  0.43749873135E+03  0.00000000000E+00 0. -1.
         22    1    3    3    0    0 -0.88230250838E+02  0.75072858553E+02  0.62758649284E+02  0.13175416242E+03  0.00000000000E+00 0.  1.
         22    1    3    3    0    0 -0.31683209550E+02 -0.26504536669E+01  0.14423453778E+03  0.14769716503E+03  0.00000000000E+00 0.  1.
</event>
<event>
 7    1  0.5779468E-006  0.8609466E+02  0.7818608E-02  0.1439134E+00
          2   -1    0    0  502    0  0.00000000000E+00  0.00000000000E+00  0.12286476457E+04  0.12286476457E+04  0.00000000000E+00 0. -1.
          1   -1    0    0  501    0 -0.00000000000E+00 -0.00000000000E+00 -0.43744892971E+03  0.43744892971E+03  0.00000000000E+00 0. -1.
         25    2    1    2    0    0 -0.73342514786E+02  0.65293668204E+02  0.27695081687E+03  0.31932590073E+03  0.12499955331E+03 0.  0.
          2    1    1    2  501    0  0.78397839904E+02 -0.35304653527E+02 -0.41156913624E+03  0.42045427072E+03  0.00000000000E+00 0. -1.
          1    1    1    2  502    0 -0.50553251183E+01 -0.29989014677E+02  0.92581703539E+03  0.92631640401E+03  0.00000000000E+00 0. -1.
         22    1    3    3    0    0 -0.34659563161E-01  0.71043870977E+02  0.70151223540E+02  0.99842010040E+02  0.00000000000E+00 0. -1.
         22    1    3    3    0    0 -0.73307855223E+02 -0.57502027733E+01  0.20679959333E+03  0.21948389069E+03  0.00000000000E+00 0. -1.
</event>
<event>
 7    1  0.5779468E-006  0.1214340E+03  0.7818608E-02  0.1271196E+00
          2   -1    0    0  502    0  0.00000000000E+00  0.00000000000E+00  0.24878629845E+04  0.24878629845E+04  0.00000000000E+00 0. -1.
          1   -1    0    0  501    0 -0.00000000000E+00 -0.00000000000E+00 -0.81141590794E+02  0.81141590794E+02  0.00000000000E+00 0. -1.
         25    2    1    2    0    0 -0.31663180817E+01  0.73506202334E+01  0.71397797100E+03  0.72488195082E+03  0.12500096941E+03 0.  0.
          2    1    1    2  501    0 -0.12003494208E+03  0.18380057571E+02 -0.23148821554E+02  0.12362071742E+03  0.00000000000E+00 0. -1.
          1    1    1    2  502    0  0.12320126016E+03 -0.25730677805E+02  0.17158922443E+04  0.17205019071E+04  0.00000000000E+00 0. -1.
         22    1    3    3    0    0 -0.62931013905E+00  0.66223023996E+02  0.36304145065E+03  0.36903249157E+03  0.00000000000E+00 0.  1.
         22    1    3    3    0    0 -0.25370079426E+01 -0.58872403762E+02  0.35093652035E+03  0.35584945925E+03  0.00000000000E+00 0.  1.
</event>
<event>
 7    1  0.5779468E-006  0.1097885E+03  0.7818608E-02  0.1331806E+00
          2   -1    0    0  502    0  0.00000000000E+00  0.00000000000E+00  0.30720472825E+04  0.30720472825E+04  0.00000000000E+00 0. -1.
          1   -1    0    0  501    0 -0.00000000000E+00 -0.00000000000E+00 -0.91592004564E+02  0.91592004564E+02  0.00000000000E+00 0. -1.
         25    2    1    2    0    0  0.14970732001E+03  0.68549405515E+02  0.96821871499E+03  0.99004201702E+03  0.12499765099E+03 0.  0.
          2    1    1    2  501    0 -0.98265468088E+02 -0.44233779152E+02 -0.44126700804E+02  0.11644696286E+03  0.00000000000E+00 0. -1.
          1    1    1    2  502    0 -0.51441851927E+02 -0.24315626363E+02  0.20563632638E+04  0.20571503072E+04  0.00000000000E+00 0. -1.
         22    1    3    3    0    0  0.59876394582E+02  0.77389259487E+02  0.70541157703E+03  0.71216555177E+03  0.00000000000E+00 0. -1.
         22    1    3    3    0    0  0.89830925433E+02 -0.88398539723E+01  0.26280713796E+03  0.27787646526E+03  0.00000000000E+00 0. -1.
</event>
<event>
 7    1  0.5779468E-006  0.7076651E+02  0.7818608E-02  0.1363729E+00
          2   -1    0    0  502    0  0.00000000000E+00  0.00000000000E+00  0.22753626766E+04  0.22753626766E+04  0.00000000000E+00 0. -1.
          1   -1    0    0  501    0 -0.00000000000E+00 -0.00000000000E+00 -0.31141295093E+03  0.31141295093E+03  0.00000000000E+00 0. -1.
         25    2    1    2    0    0  0.13803362092E+02  0.17436124684E+02 -0.10418830845E+03  0.16423718621E+03  0.12499639382E+03 0.  0.
          2    1    1    2  501    0 -0.66183782720E+02 -0.59475426418E+02 -0.16549306588E+03  0.18789777619E+03  0.00000000000E+00 0. -1.
          1    1    1    2  502    0  0.52380420629E+02  0.42039301734E+02  0.22336311000E+04  0.22346406651E+04  0.00000000000E+00 0. -1.
         22    1    3    3    0    0  0.47535596404E+01 -0.21583608188E+01 -0.13027483627E+03  0.13037939951E+03  0.00000000000E+00 0.  1.
         22    1    3    3    0    0  0.90498024513E+01  0.19594485503E+02  0.26086527822E+02  0.33857786702E+02  0.00000000000E+00 0.  1.
</event>
<event>
 7    1  0.5779468E-006  0.5585183E+02  0.7818608E-02  0.1502732E+00
          2   -1    0    0  502    0  0.00000000000E+00  0.00000000000E+00  0.15457151341E+04  0.15457151341E+04  0.00000000000E+00 0. -1.
          1   -1    0    0  501    0 -0.00000000000E+00 -0.00000000000E+00 -0.65076355465E+03  0.65076355465E+03  0.00000000000E+00 0. -1.
         25    2    1    2    0    0 -0.27384221463E+02  0.33113051414E+02  0.82929794726E+02  0.15604159813E+03  0.12500103893E+03 0.  0.
          2    1    1    2  501    0  0.78200591227E+01 -0.55509219756E+02 -0.61277311895E+03  0.61533187965E+03  0.00000000000E+00 0. -1.
          1    1    1    2  502    0  0.19564162340E+02  0.22396168342E+02  0.14247949036E+04  0.14251052109E+04  0.00000000000E+00 0. -1.
         22    1    3    3    0    0 -0.66804525264E+02  0.26214538835E+01  0.98374134782E+01  0.67575819049E+02  0.00000000000E+00 0. -1.
         22    1    3    3    0    0  0.39420303801E+02  0.30491597530E+02  0.73092381248E+02  0.88465779080E+02  0.00000000000E+00 0. -1.
</event>
<event>
 7    1  0.5779468E-006  0.1184020E+03  0.7818608E-02  0.1313963E+00
          2   -1    0    0  502    0  0.00000000000E+00  0.00000000000E+00  0.94252125203E+02  0.94252125203E+02  0.00000000000E+00 0. -1.
          1   -1    0    0  501    0 -0.00000000000E+00 -0.00000000000E+00 -0.16738262362E+04  0.16738262362E+04  0.00000000000E+00 0. -1.
         25    2    1    2    0    0  0.10037300940E+03  0.19423248894E+01 -0.42170290011E+02  0.16577680027E+03  0.12500040202E+03 0.  0.
          2    1    1    2  501    0  0.46863414051E+02  0.40339634499E+02 -0.13844394322E+04  0.13858196157E+04  0.00000000000E+00 0. -1.
          1    1    1    2  502    0 -0.14723642345E+03 -0.42281959389E+02 -0.15296438876E+03  0.21648194545E+03  0.00000000000E+00 0. -1.
         22    1    3    3    0    0  0.75923065437E+02  0.57558003546E+02 -0.68908788892E+01  0.95523399486E+02  0.00000000000E+00 0.  1.
         22    1    3    3    0    0  0.24449943963E+02 -0.55615678657E+02 -0.35279411121E+02  0.70253400781E+02  0.00000000000E+00 0.  1.
</event>
<event>
 7    1  0.5779468E-006  0.5978007E+02  0.7818608E-02  0.1447561E+00
          2   -1    0    0  502    0  0.00000000000E+00  0.00000000000E+00  0.92424247037E+03  0.92424247037E+03  0.00000000000E+00 0. -1.
          1   -1    0    0  501    0 -0.00000000000E+00 -0.00000000000E+00 -0.84021219061E+03  0.84021219061E+03  0.00000000000E+00 0. -1.
         25    2    1    2    0    0 -0.28641188248E+02  0.42869687590E+02 -0.48731025927E+02  0.14372957215E+03  0.12500139697E+03 0.  0.
          2    1    1    2  501    0  0.37705030272E+02  0.16452824579E+02 -0.74238485185E+03  0.74352379451E+03  0.00000000000E+00 0. -1.
          1    1    1    2  502    0 -0.90638420248E+01 -0.59322512168E+02  0.87514615755E+03  0.87720129432E+03  0.00000000000E+00 0. -1.
         22    1    3    3    0    0 -0.14385518072E+02  0.79390239285E+02  0.64072099075E+00  0.80685585746E+02  0.00000000000E+00 0. -1.
         22    1    3    3    0    0 -0.14255670176E+02 -0.36520551695E+02 -0.49371746918E+02  0.63043986406E+02  0.00000000000E+00 0. -1.
</event>
<event>
 7    1  0.5779468E-006  0.6220192E+02  0.7818608E-02  0.1436560E+00
          2   -1    0    0  502    0  0.00000000000E+00  0.00000000000E+00  0.27031004761E+03  0.27031004761E+03  0.00000000000E+00 0. -1.
          1   -1    0    0  501    0 -0.00000000000E+00 -0.00000000000E+00 -0.43078883161E+03  0.43078883161E+03  0.00000000000E+00 0. -1.
         25    2    1    2    0    0  0.42277742195E+02 -0.24247459196E+01  0.22742179497E+02  0.13392191519E+03  0.12499834303E+03 0.  0.
          2    1    1    2  501    0 -0.44150915055E+02  0.45297734877E+02 -0.37008333363E+03  0.37545021230E+03  0.00000000000E+00 0. -1.
          1    1    1    2  502    0  0.18731728603E+01 -0.42872988957E+02  0.18686237013E+03  0.19172675173E+03  0.00000000000E+00 0. -1.
         22    1    3    3    0    0 -0.21784497128E+02 -0.28377213870E+02 -0.30231230802E+02  0.46837569300E+02  0.00000000000E+00 0.  1.
         22    1    3    3    0    0  0.64062239323E+02  0.25952467950E+02  0.52973410299E+02  0.87084345887E+02  0.00000000000E+00 0.  1.
</event>
<event>
 7    1  0.5779468E-006  0.9339042E+02  0.7818608E-02  0.1313762E+00
          2   -1    0    0  502    0  0.00000000000E+00  0.00000000000E+00  0.46663792556E+03  0.46663792556E+03  0.00000000000E+00 0. -1.
          1   -1    0    0  501    0 -0.00000000000E+00 -0.00000000000E+00 -0.69752381247E+03  0.69752381247E+03  0.00000000000E+00 0. -1.
         25    2    1    2    0    0 -0.11604881604E+03 -0.81842538720E+01 -0.43254470354E+03  0.46503161224E+03  0.12500068042E+03 0.  0.
          2    1    1    2  501    0  0.42595878672E+02  0.65981819777E+02 -0.23749316190E+03  0.25014198243E+03  0.00000000000E+00 0. -1.
          1    1    1    2  502    0  0.73452937369E+02 -0.57797565905E+02  0.43915197853E+03  0.44898814337E+03  0.00000000000E+00 0. -1.
         22    1    3    3    0    0 -0.19422508606E+02 -0.51429511732E+02 -0.23013238075E+03  0.23660756790E+03  0.00000000000E+00 0.  1.
         22    1    3    3    0    0 -0.96626307436E+02  0.43245257860E+02 -0.20241232279E+03  0.22842404434E+03  0.00000000000E+00 0.  1.
</event>
<event>
 7    1  0.5779468E-006  0.1329497E+03  0.7818608E-02  0.1363582E+00
          2   -1    0    0  502    0  0.00000000000E+00  0.00000000000E+00  0.10099364051E+04  0.10099364051E+04  0.00000000000E+00 0. -1.
          1   -1    0    0  501    0 -0.00000000000E+00 -0.00000000000E+00 -0.59489674256E+03  0.59489674256E+03  0.00000000000E+00 0. -1.
         25    2    1    2    0    0 -0.16584451582E+03  0.50555853316E+01 -0.29649480651E+01  0.20776497843E+03  0.12501013149E+03 0.  0.
          2    1    1    2  501    0  0.13013719848E+03 -0.25653223438E+01 -0.48051685586E+03  0.49783402864E+03  0.00000000000E+00 0. -1.
          1    1    1    2  502    0  0.35707317345E+02 -0.24902629879E+01  0.89852146646E+03  0.89923414059E+03  0.00000000000E+00 0. -1.
         22    1    3    3    0    0 -0.11406045167E+03  0.60149698328E+02  0.15654929562E+02  0.12989553365E+03  0.00000000000E+00 0.  1.
         22    1    3    3    0    0 -0.51784064154E+02 -0.55094112996E+02 -0.18619877627E+02  0.77869444777E+02  0.00000000000E+00 0.  1.
</event>
<event>
 7    1  0.5779468E-006  0.5053188E+02  0.7818608E-02  0.1518653E+00
          2   -1    0    0  502    0  0.00000000000E+00  0.00000000000E+00  0.53376064476E+03  0.53376064476E+03  0.00000000000E+00 0. -1.
          1   -1    0    0  501    0 -0.00000000000E+00 -0.00000000000E+00 -0.89542839651E+02  0.89542839651E+02  0.00000000000E+00 0. -1.
         25    2    1    2    0    0 -0.21736050219E+02 -0.91889482903E+01  0.68805142338E+02  0.14462321187E+03  0.12499933260E+03 0.  0.
          2    1    1    2  501    0 -0.19104020945E+02 -0.22491010070E+02 -0.45704384503E+02  0.54403124111E+02  0.00000000000E+00 0. -1.
          1    1    1    2  502    0  0.40840071164E+02  0.31679958360E+02  0.42111704727E+03  0.42427714843E+03  0.00000000000E+00 0. -1.
         22    1    3    3    0    0  0.39842769738E+02 -0.30565181777E+02  0.51701489904E+00  0.50218959983E+02  0.00000000000E+00 0. -1.
         22    1    3    3    0    0 -0.61578819957E+02  0.21376233486E+02  0.68288127439E+02  0.94404251888E+02  0.00000000000E+00 0. -1.
</event>
<event>
 7    1  0.5779468E-006  0.8450285E+02  0.7818608E-02  0.1431270E+00
          2   -1    0    0  502    0  0.00000000000E+00  0.00000000000E+00  0.17777502669E+04  0.17777502669E+04  0.00000000000E+00 0. -1.
          1   -1    0    0  501    0 -0.00000000000E+00 -0.00000000000E+00 -0.75698748859E+03  0.75698748859E+03  0.00000000000E+00 0. -1.
         25    2    1    2    0    0 -0.48522680864E+02 -0.23690467617E+02 -0.50884785899E+02  0.14535925879E+03  0.12499745543E+03 0.  0.
          2    1    1    2  501    0  0.74044804405E+02  0.44409848954E+02 -0.65587974294E+03  0.66153843799E+03  0.00000000000E+00 0. -1.
          1    1    1    2  502    0 -0.25522123541E+02 -0.20719381337E+02  0.17275273071E+04  0.17278400587E+04  0.00000000000E+00 0. -1.
         22    1    3    3    0    0 -0.74505562001E+02 -0.21856216343E+02 -0.76376439816E+02  0.10891342213E+03  0.00000000000E+00 0.  1.
         22    1    3    3    0    0  0.25982881137E+02 -0.18342512734E+01  0.25491653917E+02  0.36445836653E+02  0.00000000000E+00 0.  1.
</event>
<event>
 7    1  0.5779468E-006  0.7171845E+02  0.7818608E-02  0.1394788E+00
          2   -1    0    0  502    0  0.00000000000E+00  0.00000000000E+00  0.43494831648E+04  0.43494831648E+04  0.00000000000E+00 0. -1.
          1   -1    0    0  501    0 -0.00000000000E+00 -0.00000000000E+00 -0.32308484389E+02  0.32308484389E+02  0.00000000000E+00 0. -1.
         25    2    1    2    0    0  0.95549244399E+01  0.21195181925E+02  0.12222105997E+03  0.17638397705E+03  0.12503114629E+03 0.  0.
          2    1    1    2  501    0 -0.62707727710E+01  0.51043615523E+02  0.12988187074E+03  0.13969278300E+03  0.00000000000E+00 0. -1.
          1    1    1    2  502    0 -0.32841516688E+01 -0.72238797448E+02  0.40650717497E+04  0.40657148891E+04  0.00000000000E+00 0. -1.
         22    1    3    3    0    0 -0.83341029352E+01 -0.51525377935E+02  0.53491448450E+02  0.74737252427E+02  0.00000000000E+00 0.  1.
         22    1    3    3    0    0  0.17889027375E+02  0.72720559861E+02  0.68729611521E+02  0.10164672462E+03  0.00000000000E+00 0.  1.
</event>
<event>
 7    1  0.5779468E-006  0.1251142E+03  0.7818608E-02  0.1364003E+00
          2   -1    0    0  502    0  0.00000000000E+00  0.00000000000E+00  0.37465704383E+03  0.37465704383E+03  0.00000000000E+00 0. -1.
          1   -1    0    0  501    0 -0.00000000000E+00 -0.00000000000E+00 -0.36055680366E+03  0.36055680366E+03  0.00000000000E+00 0. -1.
         25    2    1    2    0    0 -0.75487619369E+02 -0.49706269402E+02  0.10798697483E+03  0.18829803609E+03  0.12500347903E+03 0.  0.
          2    1    1    2  501    0  0.10915957883E+03  0.67106740666E+02 -0.30584121274E+03  0.33159911897E+03  0.00000000000E+00 0. -1.
          1    1    1    2  502    0 -0.33671959465E+02 -0.17400471264E+02  0.21195447809E+03  0.21531669242E+03  0.00000000000E+00 0. -1.
         22    1    3    3    0    0  0.39328676074E+01  0.36314196356E+02  0.18542460902E+02  0.40963534527E+02  0.00000000000E+00 0. -1.
         22    1    3    3    0    0 -0.79420486977E+02 -0.86020465759E+02  0.89444513925E+02  0.14733450157E+03  0.00000000000E+00 0. -1.
</event>
<event>
 7    1  0.5779468E-006  0.9980075E+02  0.7818608E-02  0.1380833E+00
          2   -1    0    0  502    0  0.00000000000E+00  0.00000000000E+00  0.71612483367E+03  0.71612483367E+03  0.00000000000E+00 0. -1.
          1   -1    0    0  501    0 -0.00000000000E+00 -0.00000000000E+00 -0.66788399579E+03  0.66788399579E+03  0.00000000000E+00 0. -1.
         25    2    1    2    0    0  0.86744918366E+02 -0.10848678381E+03  0.38958646728E+03  0.43208491176E+03  0.12500276940E+03 0.  0.
          2    1    1    2  501    0 -0.69928718568E+02  0.70703022453E+02 -0.64138469530E+03  0.64904797236E+03  0.00000000000E+00 0. -1.
          1    1    1    2  502    0 -0.16816199798E+02  0.37783761353E+02  0.30003906590E+03  0.30287594534E+03  0.00000000000E+00 0. -1.
         22    1    3    3    0    0  0.15667127194E+02 -0.11206777045E+03  0.20335786974E+03  0.23272100729E+03  0.00000000000E+00 0. -1.
         22    1    3    3    0    0  0.71077791173E+02  0.35809866415E+01  0.18622859754E+03  0.19936390447E+03  0.00000000000E+00 0. -1.
</event>
<event>
 7    1  0.5779468E-006  0.5078974E+02  0.7818608E-02  0.1511077E+00
          2   -1    0    0  502    0  0.00000000000E+00  0.00000000000E+00  0.79948563356E+03  0.79948563356E+03  0.00000000000E+00 0. -1.
          1   -1    0    0  501    0 -0.00000000000E+00 -0.00000000000E+00 -0.32577067012E+03  0.32577067012E+03  0.00000000000E+00 0. -1.
         25    2    1    2    0    0 -0.12961437327E+02 -0.38945501859E+02  0.40161905726E+03  0.42261767839E+03  0.12499233561E+03 0.  0.
          2    1    1    2  501    0  0.28245414042E+02 -0.12520679015E+02 -0.31264602094E+03  0.31416891193E+03  0.00000000000E+00 0. -1.
          1    1    1    2  502    0 -0.15283976716E+02  0.51466180874E+02  0.38474192712E+03  0.38846971336E+03  0.00000000000E+00 0. -1.
         22    1    3    3    0    0 -0.65790331559E+02 -0.37800766693E+02  0.19220662016E+03  0.20664135724E+03  0.00000000000E+00 0.  1.
         22    1    3    3    0    0  0.52828894233E+02 -0.11447351666E+01  0.20941243710E+03  0.21597632115E+03  0.00000000000E+00 0.  1.
</event>
<event>
 7    1  0.5779468E-006  0.1702340E+03  0.7818608E-02  0.1279402E+00
          2   -1    0    0  502    0  0.00000000000E+00  0.00000000000E+00  0.10739063233E+04  0.10739063233E+04  0.00000000000E+00 0. -1.
          1   -1    0    0  501    0 -0.00000000000E+00 -0.00000000000E+00 -0.81107386067E+03  0.81107386067E+03  0.00000000000E+00 0. -1.
         25    2    1    2    0    0  0.32736657052E+02  0.11959154541E+03 -0.97231150552E+02  0.20112916173E+03  0.12500086644E+03 0.  0.
          2    1    1    2  501    0 -0.64570609679E+02 -0.16955693357E+03 -0.64857452193E+03  0.67347444484E+03  0.00000000000E+00 0. -1.
          1    1    1    2  502    0  0.31833952627E+02  0.49965388153E+02  0.10086381351E+04  0.10103765774E+04  0.00000000000E+00 0. -1.
         22    1    3    3    0    0  0.22722622565E+02  0.16345365799E+02 -0.93208324467E+02  0.97320503026E+02  0.00000000000E+00 0.  1.
         22    1    3    3    0    0  0.10014034487E+02  0.10324617962E+03 -0.40228260848E+01  0.10380865870E+03  0.00000000000E+00 0.  1.
</event>
<event>
 7    1  0.5779468E-006  0.1679823E+03  0.7818608E-02  0.1318498E+00
          2   -1    0    0  502    0  0.00000000000E+00  0.00000000000E+00  0.50137513785E+03  0.50137513785E+03  0.00000000000E+00 0. -1.
          1   -1    0    0  501    0 -0.00000000000E+00 -0.00000000000E+00 -0.58383634512E+03  0.58383634512E+03  0.00000000000E+00 0. -1.
         25    2    1    2    0    0 -0.10338058756E+03 -0.84922126727E+02  0.11252942219E+03  0.21491176879E+03  0.12499953607E+03 0.  0.
          2    1    1    2  501    0  0.11723253064E+03  0.12440586401E+03 -0.51754422877E+03  0.54504340559E+03  0.00000000000E+00 0. -1.
          1    1    1    2  502    0 -0.13851943080E+02 -0.39483737282E+02  0.32255359933E+03  0.32525630859E+03  0.00000000000E+00 0. -1.
         22    1    3    3    0    0 -0.64339459273E+01  0.14278951973E+02 -0.18405656685E+02  0.24167174590E+02  0.00000000000E+00 0. -1.
         22    1    3    3    0    0 -0.96946641629E+02 -0.99201078700E+02  0.13093507887E+03  0.19074459420E+03  0.00000000000E+00 0. -1.
</event>
<event>
 7    1  0.6943107E-006  0.1198685E+03  0.7818608E-02  0.1301154E+00
          2   -1    0    0  502    0  0.00000000000E+00  0.00000000000E+00  0.26651956311E+04  0.26651956311E+04  0.00000000000E+00 0. -1.
          1   -1    0    0  501    0 -0.00000000000E+00 -0.00000000000E+00 -0.18808928162E+04  0.18808928162E+04  0.00000000000E+00 0. -1.
         25    2    1    2    0    0  0.16680510480E+03  0.72765799282E+02 -0.46196306939E+03  0.51200964699E+03  0.12500078638E+03 0.  0.
          2    1    1    2  501    0 -0.10754507022E+03 -0.38136293290E+02 -0.13911240096E+04  0.13957959483E+04  0.00000000000E+00 0. -1.
          1    1    1    2  502    0 -0.59260034578E+02 -0.34629505992E+02  0.26373898939E+04  0.26382828520E+04  0.00000000000E+00 0. -1.
         22    1    3    3    0    0  0.90953476661E+01 -0.20953617199E+02 -0.13654293342E+03  0.13844042795E+03  0.00000000000E+00 0. -1.
         22    1    3    3    0    0  0.15770975713E+03  0.93719416481E+02 -0.32542013597E+03  0.37356921904E+03  0.00000000000E+00 0. -1.
</event>
<event>
 7    1  0.5779468E-006  0.9024954E+02  0.7818608E-02  0.1379056E+00
          2   -1    0    0  502    0  0.00000000000E+00  0.00000000000E+00  0.13429135775E+04  0.13429135775E+04  0.00000000000E+00 0. -1.
          1   -1    0    0  501    0 -0.00000000000E+00 -0.00000000000E+00 -0.50388819056E+03  0.50388819056E+03  0.00000000000E+00 0. -1.
         25    2    1    2    0    0  0.59201641727E+02 -0.84569661086E+02  0.10134280722E+03  0.19117972361E+03  0.12498984033E+03 0.  0.
          2    1    1    2  501    0 -0.13034991326E+02  0.89231554400E+02 -0.45408429716E+03  0.46295219000E+03  0.00000000000E+00 0. -1.
          1    1    1    2  502    0 -0.46166650401E+02 -0.46618933139E+01  0.11917668769E+04  0.11926698544E+04  0.00000000000E+00 0. -1.
         22    1    3    3    0    0  0.55215425450E+02 -0.78265370773E+02  0.13005225414E+03  0.16151718260E+03  0.00000000000E+00 0. -1.
         22    1    3    3    0    0  0.39862162773E+01 -0.63042903139E+01 -0.28709446919E+02  0.29662541007E+02  0.00000000000E+00 0. -1.
</event>
<event>
 7    1  0.5779468E-006  0.2348677E+03  0.7818608E-02  0.1226563E+00
          2   -1    0    0  502    0  0.00000000000E+00  0.00000000000E+00  0.13231875713E+04  0.13231875713E+04  0.00000000000E+00 0. -1.
          1   -1    0    0  501    0 -0.00000000000E+00 -0.00000000000E+00 -0.37932863859E+03  0.37932863859E+03  0.00000000000E+00 0. -1.
         25    2    1    2    0    0 -0.14580952227E+03 -0.24508354682E+03  0.59156615996E+03  0.66850795727E+03  0.12500402240E+03 0.  0.
          2    1    1    2  501    0  0.28877678962E+02  0.66636585254E+02 -0.32027900790E+03  0.32840980152E+03  0.00000000000E+00 0. -1.
          1    1    1    2  502    0  0.11693184331E+03  0.17844696156E+03  0.67257178067E+03  0.70559845112E+03  0.00000000000E+00 0. -1.
         22    1    3    3    0    0 -0.10743788064E+03 -0.10275752771E+03  0.19344393841E+03  0.24397246772E+03  0.00000000000E+00 0. -1.
         22    1    3    3    0    0 -0.38371641635E+02 -0.14232601911E+03  0.39812222154E+03  0.42453548955E+03  0.00000000000E+00 0. -1.
</event>
<event>
 7    1  0.5779468E-006  0.4039502E+02  0.7818608E-02  0.1596073E+00
          2   -1    0    0  502    0  0.00000000000E+00  0.00000000000E+00  0.24584785802E+04  0.24584785802E+04  0.00000000000E+00 0. -1.
          1   -1    0    0  501    0 -0.00000000000E+00 -0.00000000000E+00 -0.30939157357E+03  0.30939157357E+03  0.00000000000E+00 0. -1.
         25    2    1    2    0    0 -0.28676222110E+02  0.24850211448E+02  0.83969942956E+03  0.84980000423E+03  0.12500022584E+03 0.  0.
          2    1    1    2  501    0 -0.11757641682E+02 -0.19245504389E+02 -0.30366490513E+03  0.30450124168E+03  0.00000000000E+00 0. -1.
          1    1    1    2  502    0  0.40433863792E+02 -0.56047070589E+01  0.16130524822E+04  0.16135689079E+04  0.00000000000E+00 0. -1.
         22    1    3    3    0    0  0.74006855953E+01  0.16482199528E+02  0.77530396260E+03  0.77551445343E+03  0.00000000000E+00 0. -1.
         22    1    3    3    0    0 -0.36076907705E+02  0.83680119193E+01  0.64395466959E+02  0.74285550802E+02  0.00000000000E+00 0. -1.
</event>
<event>
 7    1  0.5779468E-006  0.7901819E+02  0.7818608E-02  0.1372213E+00
          2   -1    0    0  502    0  0.00000000000E+00  0.00000000000E+00  0.16637388395E+04  0.16637388395E+04  0.00000000000E+00 0. -1.
          1   -1    0    0  501    0 -0.00000000000E+00 -0.00000000000E+00 -0.38907354676E+03  0.38907354676E+03  0.00000000000E+00 0. -1.
         25    2    1    2    0    0 -0.82789629640E+02  0.99242318918E+02 -0.96264535235E+01  0.18006325787E+03  0.12500779010E+03 0.  0.
          2    1    1    2  501    0  0.48109126394E+02 -0.28777299827E+02 -0.29057102734E+03  0.29592928709E+03  0.00000000000E+00 0. -1.
          1    1    1    2  502    0  0.34680503246E+02 -0.70465019091E+02  0.15748627736E+04  0.15768198413E+04  0.00000000000E+00 0. -1.
         22    1    3    3    0    0  0.28023825845E+02  0.35305922300E+02  0.19078196341E+02  0.48947119835E+02  0.00000000000E+00 0.  1.
         22    1    3    3    0    0 -0.11081345549E+03  0.63936396618E+02 -0.28704649865E+02  0.13111613803E+03  0.00000000000E+00 0.  1.
</event>
<event>
 7    1  0.5779468E-006  0.9419757E+02  0.7818608E-02  0.1394299E+00
          2   -1    0    0  502    0  0.00000000000E+00  0.00000000000E+00  0.12637626744E+04  0.12637626744E+04  0.00000000000E+00 0. -1.
          1   -1    0    0  501    0 -0.00000000000E+00 -0.00000000000E+00 -0.31151171346E+02  0.31151171346E+02  0.00000000000E+00 0. -1.
         25    2    1    2    0    0  0.35483140217E+01  0.11666480942E+03  0.26421003900E+03  0.31472846810E+03  0.12499518244E+03 0.  0.
          2    1    1    2  501    0 -0.28053404538E+02 -0.27533889061E+02  0.10983266711E+03  0.11665471837E+03  0.00000000000E+00 0. -1.
          1    1    1    2  502    0  0.24505090517E+02 -0.89130920363E+02  0.85856879689E+03  0.86353065923E+03  0.00000000000E+00 0. -1.
         22    1    3    3    0    0  0.35937899880E+02  0.37146171820E+01  0.13644093785E+03  0.14114340420E+03  0.00000000000E+00 0.  1.
         22    1    3    3    0    0 -0.32389585858E+02  0.11295019224E+03  0.12776910115E+03  0.17358506390E+03  0.00000000000E+00 0.  1.
</event>
<event>
 7    1  0.5779468E-006  0.8310245E+02  0.7818608E-02  0.1360992E+00
          2   -1    0    0  502    0  0.00000000000E+00  0.00000000000E+00  0.16299866430E+03  0.16299866430E+03  0.00000000000E+00 0. -1.
          1   -1    0    0  501    0 -0.00000000000E+00 -0.00000000000E+00 -0.78733728437E+03  0.78733728437E+03  0.00000000000E+00 0. -1.
         25    2    1    2    0    0  0.18058448326E+02  0.25376308358E+02 -0.28689710494E+01  0.12884824785E+03  0.12499430146E+03 0.  0.
          2    1    1    2  501    0 -0.15777905644E+02 -0.83852020548E+02 -0.71013986787E+03  0.71524732477E+03  0.00000000000E+00 0. -1.
          1    1    1    2  502    0 -0.22805426823E+01  0.58475712190E+02  0.88670218850E+02  0.10624037604E+03  0.00000000000E+00 0. -1.
         22    1    3    3    0    0  0.35649594755E+02 -0.16756077784E+02 -0.49717742206E+02  0.63431172455E+02  0.00000000000E+00 0.  1.
         22    1    3    3    0    0 -0.17591146429E+02  0.42132386142E+02  0.46848771157E+02  0.65417075398E+02  0.00000000000E+00 0.  1.
</event>
<event>
 7    1  0.5779468E-006  0.6470069E+02  0.7818608E-02  0.1518957E+00
          2   -1    0    0  502    0  0.00000000000E+00  0.00000000000E+00  0.10640830550E+04  0.10640830550E+04  0.00000000000E+00 0. -1.
          1   -1    0    0  501    0 -0.00000000000E+00 -0.00000000000E+00 -0.47877409655E+03  0.47877409655E+03  0.00000000000E+00 0. -1.
         25    2    1    2    0    0 -0.71603296915E+02 -0.44908501314E+02 -0.32358156280E+03  0.35703283464E+03  0.12499444631E+03 0.  0.
          2    1    1    2  501    0  0.12147106277E+02  0.19531132760E+02 -0.13650638802E+03  0.13843052881E+03  0.00000000000E+00 0. -1.
          1    1    1    2  502    0  0.59456190639E+02  0.25377368554E+02  0.10453969093E+04  0.10473937881E+04  0.00000000000E+00 0. -1.
         22    1    3    3    0    0 -0.81021960678E+02 -0.79756020572E+02 -0.26283747039E+03  0.28637233939E+03  0.00000000000E+00 0.  1.
         22    1    3    3    0    0  0.94186637631E+01  0.34847519258E+02 -0.60744092415E+02  0.70660495249E+02  0.00000000000E+00 0.  1.
</event>
<event>
 7    1  0.5779468E-006  0.3496708E+02  0.7818608E-02  0.1606913E+00
          2   -1    0    0  502    0  0.00000000000E+00  0.00000000000E+00  0.72723219988E+03  0.72723219988E+03  0.00000000000E+00 0. -1.
          1   -1    0    0  501    0 -0.00000000000E+00 -0.00000000000E+00 -0.58634494023E+02  0.58634494023E+02  0.00000000000E+00 0. -1.
         25    2    1    2    0    0  0.10856711823E+02  0.19858842219E+00  0.33183624852E+02  0.12978581059E+03  0.12500118416E+03 0.  0.
          2    1    1    2  501    0  0.24276163855E+02 -0.25703969251E+01  0.52960696002E+01  0.24979740292E+02  0.00000000000E+00 0. -1.
          1    1    1    2  502    0 -0.35132875678E+02  0.23718085029E+01  0.63011801141E+03  0.63110114303E+03  0.00000000000E+00 0. -1.
         22    1    3    3    0    0  0.53398181832E+02 -0.15457821398E+02  0.56111661945E+02  0.78986256219E+02  0.00000000000E+00 0.  1.
         22    1    3    3    0    0 -0.42541470009E+02  0.15656409820E+02 -0.22928037094E+02  0.50799554367E+02  0.00000000000E+00 0.  1.
</event>
<event>
 7    1  0.5779468E-006  0.1328492E+03  0.7818608E-02  0.1370406E+00
          2   -1    0    0  502    0  0.00000000000E+00  0.00000000000E+00  0.36516777361E+03  0.36516777361E+03  0.00000000000E+00 0. -1.
          1   -1    0    0  501    0 -0.00000000000E+00 -0.00000000000E+00 -0.13863846662E+04  0.13863846662E+04  0.00000000000E+00 0. -1.
         25    2    1    2    0    0 -0.74860487914E+02  0.74784976229E+02  0.36834291579E+01  0.16381664492E+03  0.12500176071E+03 0.  0.
          2    1    1    2  501    0 -0.16429673740E+02  0.29589946886E+02 -0.12890010507E+04  0.12894453102E+04  0.00000000000E+00 0. -1.
          1    1    1    2  502    0  0.91290161654E+02 -0.10437492311E+03  0.26410072901E+03  0.29829048469E+03  0.00000000000E+00 0. -1.
         22    1    3    3    0    0 -0.59752319428E+02  0.75684079432E+02  0.54520741110E+02  0.11077423332E+03  0.00000000000E+00 0.  1.
         22    1    3    3    0    0 -0.15108168486E+02 -0.89910320363E+00 -0.50837311952E+02  0.53042411597E+02  0.00000000000E+00 0.  1.
</event>
<event>
 7    1  0.5779468E-006  0.3680428E+03  0.7818608E-02  0.1217930E+00
          2   -1    0    0  502    0  0.00000000000E+00  0.00000000000E+00  0.19583278272E+04  0.19583278272E+04  0.00000000000E+00 0. -1.
          1   -1    0    0  501    0 -0.00000000000E+00 -0.00000000000E+00 -0.86019178183E+03  0.86019178183E+03  0.00000000000E+00 0. -1.
         25    2    1    2    0    0 -0.32218160634E+03 -0.21890015898E+02 -0.35285217668E+03  0.49437845684E+03  0.12500095894E+03 0.  0.
          2    1    1    2  501    0 -0.47781904502E+02  0.17028536404E+02 -0.41689296104E+03  0.41996764448E+03  0.00000000000E+00 0. -1.
          1    1    1    2  502    0  0.36996351084E+03  0.48614794942E+01  0.18678811831E+04  0.19041735077E+04  0.00000000000E+00 0. -1.
         22    1    3    3    0    0 -0.26439886128E+03  0.12884381033E+02 -0.21541371642E+03  0.34128556129E+03  0.00000000000E+00 0.  1.
         22    1    3    3    0    0 -0.57782745058E+02 -0.34774396930E+02 -0.13743846026E+03  0.15309289555E+03  0.00000000000E+00 0.  1.
</event>
<event>
 7    1  0.5779468E-006  0.2144945E+03  0.7818608E-02  0.1197037E+00
          2   -1    0    0  502    0  0.00000000000E+00  0.00000000000E+00  0.72530948218E+03  0.72530948218E+03  0.00000000000E+00 0. -1.
          1   -1    0    0  501    0 -0.00000000000E+00 -0.00000000000E+00 -0.68837419682E+03  0.68837419682E+03  0.00000000000E+00 0. -1.
         25    2    1    2    0    0 -0.22197201334E+03  0.19203592182E+02  0.33149151248E+03  0.41851127154E+03  0.12499883559E+03 0.  0.
          2    1    1    2  501    0  0.38383185504E+02  0.10190545795E+03 -0.60499635485E+03  0.61471829375E+03  0.00000000000E+00 0. -1.
          1    1    1    2  502    0  0.18358882783E+03 -0.12110905014E+03  0.31044012773E+03  0.38045411370E+03  0.00000000000E+00 0. -1.
         22    1    3    3    0    0 -0.19700505143E+02  0.67402985679E+01  0.13376990531E+03  0.13538068214E+03  0.00000000000E+00 0.  1.
         22    1    3    3    0    0 -0.20227150819E+03  0.12463293614E+02  0.19772160717E+03  0.28313058940E+03  0.00000000000E+00 0.  1.
</event>
<event>
 7    1  0.5779468E-006  0.7089967E+02  0.7818608E-02  0.1453206E+00
          2   -1    0    0  502    0  0.00000000000E+00  0.00000000000E+00  0.10418559872E+04  0.10418559872E+04  0.00000000000E+00 0. -1.
          1   -1    0    0  501    0 -0.00000000000E+00 -0.00000000000E+00 -0.33258981334E+02  0.33258981334E+02  0.00000000000E+00 0. -1.
         25    2    1    2    0    0  0.30714592663E+02 -0.29856794025E+02  0.35956729657E+03  0.38307721038E+03  0.12499877597E+03 0.  0.
          2    1    1    2  501    0 -0.55270875546E+02  0.52310362132E+02  0.47755090149E+02  0.89843153913E+02  0.00000000000E+00 0. -1.
          1    1    1    2  502    0  0.24556282883E+02 -0.22453568107E+02  0.60127461918E+03  0.60219460428E+03  0.00000000000E+00 0. -1.
         22    1    3    3    0    0  0.19910990766E+02  0.31622389711E+02  0.30769011681E+02  0.48406148000E+02  0.00000000000E+00 0.  1.
         22    1    3    3    0    0  0.10803601896E+02 -0.61479183735E+02  0.32879828489E+03  0.33467106238E+03  0.00000000000E+00 0.  1.
</event>
<event>
 7    1  0.5779468E-006  0.4029028E+02  0.7818608E-02  0.1506761E+00
          2   -1    0    0  502    0  0.00000000000E+00  0.00000000000E+00  0.31939810113E+03  0.31939810113E+03  0.00000000000E+00 0. -1.
          1   -1    0    0  501    0 -0.00000000000E+00 -0.00000000000E+00 -0.98283921347E+03  0.98283921347E+03  0.00000000000E+00 0. -1.
         25    2    1    2    0    0 -0.12948783919E+02 -0.14324190483E+01  0.53325961389E+02  0.13649902790E+03  0.12497441191E+03 0.  0.
          2    1    1    2  501    0  0.49176609304E+01 -0.39802979398E+02 -0.93885537079E+03  0.93971158757E+03  0.00000000000E+00 0. -1.
          1    1    1    2  502    0  0.80311229887E+01  0.41235398446E+02  0.22208829706E+03  0.22602669912E+03  0.00000000000E+00 0. -1.
         22    1    3    3    0    0  0.52025032398E+02  0.22114098123E+02  0.24962293450E+02  0.61796063193E+02  0.00000000000E+00 0.  1.
         22    1    3    3    0    0 -0.64973816317E+02 -0.23546517171E+02  0.28363667940E+02  0.74702964712E+02  0.00000000000E+00 0.  1.
</event>
<event>
 7    1  0.5779468E-006  0.1420180E+03  0.7818608E-02  0.1265375E+00
          2   -1    0    0  502    0  0.00000000000E+00  0.00000000000E+00  0.13606030988E+04  0.13606030988E+04  0.00000000000E+00 0. -1.
          1   -1    0    0  501    0 -0.00000000000E+00 -0.00000000000E+00 -0.73895850826E+02  0.73895850826E+02  0.00000000000E+00 0. -1.
         25    2    1    2    0    0  0.92029985670E+02  0.40719219482E+02  0.43407686793E+03  0.46279011329E+03  0.12499755434E+03 0.  0.
          2    1    1    2  501    0 -0.93983503701E+02 -0.12198476136E+03  0.45608070360E+02  0.16060285506E+03  0.00000000000E+00 0. -1.
          1    1    1    2  502    0  0.19535180304E+01  0.81265541877E+02  0.80702230968E+03  0.81110598127E+03  0.00000000000E+00 0. -1.
         22    1    3    3    0    0 -0.26894156511E+01 -0.35344954251E+02  0.14408977379E+03  0.14838585397E+03  0.00000000000E+00 0.  1.
         22    1    3    3    0    0  0.94719401321E+02  0.76064173733E+02  0.28998709414E+03  0.31440425932E+03  0.00000000000E+00 0.  1.
</event>
<event>
 7    1  0.5779468E-006  0.6621643E+02  0.7818608E-02  0.1407867E+00
          2   -1    0    0  502    0  0.00000000000E+00  0.00000000000E+00  0.31583417759E+03  0.31583417759E+03  0.00000000000E+00 0. -1.
          1   -1    0    0  501    0 -0.00000000000E+00 -0.00000000000E+00 -0.23620486087E+03  0.23620486087E+03  0.00000000000E+00 0. -1.
         25    2    1    2    0    0  0.12205902628E+02  0.21210485055E+02 -0.21150154454E+02  0.12911379040E+03  0.12499669237E+03 0.  0.
          2    1    1    2  501    0 -0.15682948945E+02  0.47719932866E+02 -0.15242211521E+03  0.16048566317E+03  0.00000000000E+00 0. -1.
          1    1    1    2  502    0  0.34770463174E+01 -0.68930417920E+02  0.25320158639E+03  0.26243958488E+03  0.00000000000E+00 0. -1.
         22    1    3    3    0    0  0.49733668455E+02  0.27060136591E-01 -0.55120375468E+02  0.74240785973E+02  0.00000000000E+00 0. -1.
         22    1    3    3    0    0 -0.37527765827E+02  0.21183424918E+02  0.33970221014E+02  0.54873004428E+02  0.00000000000E+00 0. -1.
</event>
<event>
 7    1  0.5779468E-006  0.8485697E+02  0.7818608E-02  0.1327923E+00
          2   -1    0    0  502    0  0.00000000000E+00  0.00000000000E+00  0.88944010449E+03  0.88944010449E+03  0.00000000000E+00 0. -1.
          1   -1    0    0  501    0 -0.00000000000E+00 -0.00000000000E+00 -0.80628420743E+03  0.80628420743E+03  0.00000000000E+00 0. -1.
         25    2    1    2    0    0  0.13392119830E+02  0.11614302065E+02  0.13817480735E+03  0.18716592986E+03  0.12499826809E+03 0.  0.
          2    1    1    2  501    0  0.70576060130E+02  0.28664434556E+02 -0.77693487322E+03  0.78066025088E+03  0.00000000000E+00 0. -1.
          1    1    1    2  502    0 -0.83968179959E+02 -0.40278736621E+02  0.72191596292E+03  0.72789813119E+03  0.00000000000E+00 0. -1.
         22    1    3    3    0    0 -0.10818063437E+02  0.45131252310E+02  0.37897899938E+01  0.46564180867E+02  0.00000000000E+00 0.  1.
         22    1    3    3    0    0  0.24210183267E+02 -0.33516950245E+02  0.13438501736E+03  0.14060174899E+03  0.00000000000E+00 0.  1.
</event>
<event>
 7    1  0.5779469E-006  0.1319193E+03  0.7818608E-02  0.1312922E+00
          2   -1    0    0  502    0  0.00000000000E+00  0.00000000000E+00  0.14464505129E+04  0.14464505129E+04  0.00000000000E+00 0. -1.
          1   -1    0    0  501    0 -0.00000000000E+00 -0.00000000000E+00 -0.85670186707E+03  0.85670186707E+03  0.00000000000E+00 0. -1.
         25    2    1    2    0    0  0.70500657731E+02 -0.16512355892E+03 -0.15520884419E+03  0.26823942474E+03  0.12500588474E+03 0.  0.
          2    1    1    2  501    0 -0.34840537291E+02  0.12191676608E+03 -0.63817337693E+03  0.65064800001E+03  0.00000000000E+00 0. -1.
          1    1    1    2  502    0 -0.35660120441E+02  0.43206792841E+02  0.13831308669E+04  0.13842649552E+04  0.00000000000E+00 0. -1.
         22    1    3    3    0    0  0.10179125625E+03 -0.10853768504E+03 -0.13384365378E+03  0.20013998246E+03  0.00000000000E+00 0. -1.
         22    1    3    3    0    0 -0.31290598515E+02 -0.56585873882E+02 -0.21365190417E+02  0.68099442288E+02  0.00000000000E+00 0. -1.
</event>
<event>
 7    1  0.5779468E-006  0.6761381E+02  0.7818608E-02  0.1386961E+00
          2   -1    0    0  502    0  0.00000000000E+00  0.00000000000E+00  0.25930302788E+04  0.25930302788E+04  0.00000000000E+00 0. -1.
          1   -1    0    0  501    0 -0.00000000000E+00 -0.00000000000E+00 -0.35230383982E+04  0.35230383982E+04  0.00000000000E+00 0. -1.
         25    2    1    2    0    0 -0.16088330519E+02 -0.16940475519E+02 -0.50395792793E+03  0.51974803269E+03  0.12497443849E+03 0.  0.
          2    1    1    2  501    0 -0.77356584151E+01  0.69915480809E+02 -0.30104482365E+04  0.30112699314E+04  0.00000000000E+00 0. -1.
          1    1    1    2  502    0  0.23823988934E+02 -0.52975005290E+02  0.25843980450E+04  0.25850507130E+04  0.00000000000E+00 0. -1.
         22    1    3    3    0    0 -0.23680562700E+02 -0.25745252600E+02 -0.50661581840E+03  0.50782199099E+03  0.00000000000E+00 0.  1.
         22    1    3    3    0    0  0.75922321816E+01  0.88047770808E+01  0.26578904698E+01  0.11926041703E+02  0.00000000000E+00 0.  1.
</event>
<event>
 7    1  0.5779468E-006  0.1199727E+03  0.7818608E-02  0.1312147E+00
          2   -1    0    0  502    0  0.00000000000E+00  0.00000000000E+00  0.28208582770E+03  0.28208582770E+03  0.00000000000E+00 0. -1.
          1   -1    0    0  501    0 -0.00000000000E+00 -0.00000000000E+00 -0.19737175867E+04  0.19737175867E+04  0.00000000000E+00 0. -1.
         25    2    1    2    0    0 -0.13496669360E+03  0.91554557559E+02 -0.27730054866E+03  0.34513627404E+03  0.12500083191E+03 0.  0.
          2    1    1    2  501    0  0.72939339034E+02 -0.92437277661E+02 -0.16564998256E+04  0.16606795204E+04  0.00000000000E+00 0. -1.
          1    1    1    2  502    0  0.62027354563E+02  0.88272010163E+00  0.24216861524E+03  0.24998761992E+03  0.00000000000E+00 0. -1.
         22    1    3    3    0    0 -0.59000488001E+02  0.92126746590E+02 -0.23247252227E+03  0.25692774983E+03  0.00000000000E+00 0. -1.
         22    1    3    3    0    0 -0.75966205596E+02 -0.57218903128E+00 -0.44828026390E+02  0.88208524208E+02  0.00000000000E+00 0. -1.
</event>
<event>
 7    1  0.5779468E-006  0.1026165E+03  0.7818608E-02  0.1313415E+00
          2   -1    0    0  502    0  0.00000000000E+00  0.00000000000E+00  0.18837179173E+03  0.18837179173E+03  0.00000000000E+00 0. -1.
          1   -1    0    0  501    0 -0.00000000000E+00 -0.00000000000E+00 -0.56505143488E+03  0.56505143488E+03  0.00000000000E+00 0. -1.
         25    2    1    2    0    0 -0.88059049244E+02 -0.69325285766E+02  0.10414945732E+03  0.19756838593E+03  0.12500306499E+03 0.  0.
          2    1    1    2  501    0  0.23461412780E+02  0.10043729572E+03 -0.47255450986E+03  0.48367949414E+03  0.00000000000E+00 0. -1.
          1    1    1    2  502    0  0.64597636463E+02 -0.31112009954E+02 -0.82745906109E+01  0.72175346551E+02  0.00000000000E+00 0. -1.
         22    1    3    3    0    0 -0.61331855616E+02 -0.60271274082E+02  0.13224789775E+03  0.15774577475E+03  0.00000000000E+00 0.  1.
         22    1    3    3    0    0 -0.26727193627E+02 -0.90540116843E+01 -0.28098440424E+02  0.39822611178E+02  0.00000000000E+00 0.  1.
</event>
<event>
 7    1  0.5779468E-006  0.1021276E+03  0.7818608E-02  0.1333188E+00
          2   -1    0    0  502    0  0.00000000000E+00  0.00000000000E+00  0.14965725994E+04  0.14965725994E+04  0.00000000000E+00 0. -1.
          1   -1    0    0  501    0 -0.00000000000E+00 -0.00000000000E+00 -0.22419062033E+03  0.22419062033E+03  0.00000000000E+00 0. -1.
         25    2    1    2    0    0 -0.15520009892E+03 -0.24442598581E+02  0.33799181352E+03  0.39314057939E+03  0.12504614279E+03 0.  0.
          2    1    1    2  501    0  0.57426921754E+02  0.18816221255E+02 -0.18979306489E+03  0.19918159806E+03  0.00000000000E+00 0. -1.
          1    1    1    2  502    0  0.97773177170E+02  0.56263773266E+01  0.11241832305E+04  0.11284410423E+04  0.00000000000E+00 0. -1.
         22    1    3    3    0    0 -0.15748335219E+03  0.17764687679E+02  0.27035027737E+03  0.31337814668E+03  0.00000000000E+00 0.  1.
         22    1    3    3    0    0  0.22832532631E+01 -0.42207286260E+02  0.67641536150E+02  0.79762432709E+02  0.00000000000E+00 0.  1.
</event>
<event>
 7    1  0.5779468E-006  0.2373483E+03  0.7818608E-02  0.1169554E+00
          2   -1    0    0  502    0  0.00000000000E+00  0.00000000000E+00  0.51624890693E+03  0.51624890693E+03  0.00000000000E+00 0. -1.
          1   -1    0    0  501    0 -0.00000000000E+00 -0.00000000000E+00 -0.21824698916E+04  0.21824698916E+04  0.00000000000E+00 0. -1.
         25    2    1    2    0    0  0.13035361601E+03  0.31910117122E+03 -0.79120524471E+02  0.37509587621E+03  0.12497694299E+03 0.  0.
          2    1    1    2  501    0 -0.81268475218E+01 -0.13354791157E+03 -0.19193043016E+04  0.19239620819E+04  0.00000000000E+00 0. -1.
          1    1    1    2  502    0 -0.12222676849E+03 -0.18555325965E+03  0.33220384143E+03  0.39966084042E+03  0.00000000000E+00 0. -1.
         22    1    3    3    0    0  0.22151908521E+02  0.18765679757E+03 -0.39818795212E+01  0.18900168277E+03  0.00000000000E+00 0.  1.
         22    1    3    3    0    0  0.10820170749E+03  0.13144437364E+03 -0.75138644949E+02  0.18609419344E+03  0.00000000000E+00 0.  1.
</event>
<event>
 7    1  0.5779468E-006  0.6075609E+02  0.7818608E-02  0.1455016E+00
          2   -1    0    0  502    0  0.00000000000E+00  0.00000000000E+00  0.16193679214E+03  0.16193679214E+03  0.00000000000E+00 0. -1.
          1   -1    0    0  501    0 -0.00000000000E+00 -0.00000000000E+00 -0.45766188049E+03  0.45766188049E+03  0.00000000000E+00 0. -1.
         25    2    1    2    0    0 -0.78945013720E+01 -0.44217092975E+02 -0.93172175256E+02  0.16224577744E+03  0.12500065437E+03 0.  0.
          2    1    1    2  501    0  0.36717745601E+02 -0.10958090380E+02 -0.32114117527E+03  0.32341911978E+03  0.00000000000E+00 0. -1.
          1    1    1    2  502    0 -0.28823244229E+02  0.55175183355E+02  0.11858826218E+03  0.13393377540E+03  0.00000000000E+00 0. -1.
         22    1    3    3    0    0  0.61644972114E+00 -0.73987030288E+01  0.31297514189E+02  0.32166056817E+02  0.00000000000E+00 0. -1.
         22    1    3    3    0    0 -0.85109510932E+01 -0.36818389946E+02 -0.12446968944E+03  0.13007972062E+03  0.00000000000E+00 0. -1.
</event>
<event>
 7    1  0.5779468E-006  0.3058457E+02  0.7818608E-02  0.1619553E+00
          2   -1    0    0  502    0  0.00000000000E+00  0.00000000000E+00  0.51067886325E+03  0.51067886325E+03  0.00000000000E+00 0. -1.
          1   -1    0    0  501    0 -0.00000000000E+00 -0.00000000000E+00 -0.19821564935E+02  0.19821564935E+02  0.00000000000E+00 0. -1.
         25    2    1    2    0    0  0.30345425872E+01  0.22792132449E+02  0.24101009525E+03  0.27247273604E+03  0.12500734427E+03 0.  0.
          2    1    1    2  501    0 -0.28924073046E+02 -0.22085630992E+02  0.11185838332E+03  0.11762939691E+03  0.00000000000E+00 0. -1.
          1    1    1    2  502    0  0.25889530458E+02 -0.70650145665E+00  0.13798881974E+03  0.14039829524E+03  0.00000000000E+00 0. -1.
         22    1    3    3    0    0  0.52277505141E+02  0.24132336992E+02  0.53491629836E+02  0.78591740628E+02  0.00000000000E+00 0. -1.
         22    1    3    3    0    0 -0.49242962554E+02 -0.13402045425E+01  0.18751846542E+03  0.19388099541E+03  0.00000000000E+00 0. -1.
</event>
<event>
 7    1  0.5779468E-006  0.5202672E+02  0.7818608E-02  0.1476269E+00
          2   -1    0    0  502    0  0.00000000000E+00  0.00000000000E+00  0.75387047926E+03  0.75387047926E+03  0.00000000000E+00 0. -1.
          1   -1    0    0  501    0 -0.00000000000E+00 -0.00000000000E+00 -0.32113114558E+03  0.32113114558E+03  0.00000000000E+00 0. -1.
         25    2    1    2    0    0  0.58947150677E+02  0.33412942075E+01 -0.28930471521E+02  0.14123583393E+03  0.12499863113E+03 0.  0.
          2    1    1    2  501    0 -0.20872244171E+02  0.32223449830E+02 -0.23350555099E+03  0.23664074805E+03  0.00000000000E+00 0. -1.
          1    1    1    2  502    0 -0.38074906506E+02 -0.35564744037E+02  0.69517535619E+03  0.69712504286E+03  0.00000000000E+00 0. -1.
         22    1    3    3    0    0  0.31770354386E+01  0.61182399664E+01  0.46710685852E+02  0.47216677003E+02  0.00000000000E+00 0. -1.
         22    1    3    3    0    0  0.55770115238E+02 -0.27769457589E+01 -0.75641157372E+02  0.94019156931E+02  0.00000000000E+00 0. -1.
</event>
<event>
 7    1  0.5779468E-006  0.8962604E+02  0.7818608E-02  0.1345589E+00
          2   -1    0    0  502    0  0.00000000000E+00  0.00000000000E+00  0.44144254125E+03  0.44144254125E+03  0.00000000000E+00 0. -1.
          1   -1    0    0  501    0 -0.00000000000E+00 -0.00000000000E+00 -0.15513986250E+03  0.15513986250E+03  0.00000000000E+00 0. -1.
         25    2    1    2    0    0 -0.12120215600E+03  0.73282887894E+02  0.11057405531E+03  0.21888870491E+03  0.12500119660E+03 0.  0.
          2    1    1    2  501    0  0.61388513857E+02 -0.57581673402E+02 -0.79079264145E+02  0.11548908504E+03  0.00000000000E+00 0. -1.
          1    1    1    2  502    0  0.59813642148E+02 -0.15701214492E+02  0.25480788759E+03  0.26220461381E+03  0.00000000000E+00 0. -1.
         22    1    3    3    0    0 -0.10133109897E+00 -0.30676920032E+01 -0.22932363527E+02  0.23136860184E+02  0.00000000000E+00 0.  1.
         22    1    3    3    0    0 -0.12110082491E+03  0.76350579897E+02  0.13350641883E+03  0.19575184473E+03  0.00000000000E+00 0.  1.
</event>
<event>
 7    1  0.5779468E-006  0.1122322E+03  0.7818608E-02  0.1331329E+00
          2   -1    0    0  502    0  0.00000000000E+00  0.00000000000E+00  0.81651962912E+03  0.81651962912E+03  0.00000000000E+00 0. -1.
          1   -1    0    0  501    0 -0.00000000000E+00 -0.00000000000E+00 -0.68298565297E+03  0.68298565297E+03  0.00000000000E+00 0. -1.
         25    2    1    2    0    0 -0.10609489358E+03  0.10588890829E+03 -0.44626833828E+03  0.48708237914E+03  0.12500090790E+03 0.  0.
          2    1    1    2  501    0  0.60646881462E+01 -0.55563988220E+02 -0.20867658835E+03  0.21603253402E+03  0.00000000000E+00 0. -1.
          1    1    1    2  502    0  0.10003020544E+03 -0.50324920073E+02  0.78847890278E+03  0.79639036892E+03  0.00000000000E+00 0. -1.
         22    1    3    3    0    0 -0.12379431396E+03  0.10922763845E+03 -0.32545499334E+03  0.36493377736E+03  0.00000000000E+00 0. -1.
         22    1    3    3    0    0  0.17699420381E+02 -0.33387301557E+01 -0.12081334494E+03  0.12214860178E+03  0.00000000000E+00 0. -1.
</event>
<event>
 7    1  0.5779468E-006  0.6664014E+02  0.7818608E-02  0.1381429E+00
          2   -1    0    0  502    0  0.00000000000E+00  0.00000000000E+00  0.13786797573E+04  0.13786797573E+04  0.00000000000E+00 0. -1.
          1   -1    0    0  501    0 -0.00000000000E+00 -0.00000000000E+00 -0.13152060435E+03  0.13152060435E+03  0.00000000000E+00 0. -1.
         25    2    1    2    0    0 -0.30751405414E+02 -0.50779570937E+02  0.23833655659E+03  0.27559754335E+03  0.12500191172E+03 0.  0.
          2    1    1    2  501    0  0.60670097687E+02 -0.10874471626E+02 -0.10334278854E+03  0.12032807997E+03  0.00000000000E+00 0. -1.
          1    1    1    2  502    0 -0.29918692273E+02  0.61654042563E+02  0.11121653849E+04  0.11142747383E+04  0.00000000000E+00 0. -1.
         22    1    3    3    0    0 -0.73991093500E+02 -0.29629414869E+02  0.19564877681E+03  0.21126056899E+03  0.00000000000E+00 0. -1.
         22    1    3    3    0    0  0.43239688085E+02 -0.21150156068E+02  0.42687779789E+02  0.64336974367E+02  0.00000000000E+00 0. -1.
</event>
<event>
 7    1  0.5779468E-006  0.5737562E+02  0.7818608E-02  0.1434351E+00
          2   -1    0    0  502    0  0.00000000000E+00  0.00000000000E+00  0.62930123673E+02  0.62930123673E+02  0.00000000000E+00 0. -1.
          1   -1    0    0  501    0 -0.00000000000E+00 -0.00000000000E+00 -0.87392302471E+03  0.87392302471E+03  0.00000000000E+00 0. -1.
         25    2    1    2    0    0 -0.11541553566E+02 -0.77740295765E+01 -0.12384782663E+03  0.17651299575E+03  0.12499964205E+03 0.  0.
          2    1    1    2  501    0  0.58830790391E+02  0.89130601279E+01 -0.70666664765E+03  0.70916729721E+03  0.00000000000E+00 0. -1.
          1    1    1    2  502    0 -0.47289236824E+02 -0.11390305514E+01  0.19521573240E+02  0.51172855420E+02  0.00000000000E+00 0. -1.
         22    1    3    3    0    0 -0.63114703001E+02  0.18143078421E+02 -0.82826255189E+02  0.10570158740E+03  0.00000000000E+00 0. -1.
         22    1    3    3    0    0  0.51573149434E+02 -0.25917107997E+02 -0.41021571437E+02  0.70811408351E+02  0.00000000000E+00 0. -1.
</event>
<event>
 7    1  0.5779468E-006  0.9767184E+02  0.7818608E-02  0.1308720E+00
          2   -1    0    0  502    0  0.00000000000E+00  0.00000000000E+00  0.30521497256E+02  0.30521497256E+02  0.00000000000E+00 0. -1.
          1   -1    0    0  501    0 -0.00000000000E+00 -0.00000000000E+00 -0.25117876272E+04  0.25117876272E+04  0.00000000000E+00 0. -1.
         25    2    1    2    0    0  0.11141550735E+03  0.61082563931E+02 -0.13163663578E+04  0.13283775029E+04  0.12498762919E+03 0.  0.
          2    1    1    2  501    0 -0.93043082456E+02  0.15342501370E+02 -0.11188832933E+04  0.11228500486E+04  0.00000000000E+00 0. -1.
          1    1    1    2  502    0 -0.18372424893E+02 -0.76425065301E+02 -0.46016478792E+02  0.91081572907E+02  0.00000000000E+00 0. -1.
         22    1    3    3    0    0 -0.12102032318E+02  0.16425727509E+02 -0.58204796899E+03  0.58240544461E+03  0.00000000000E+00 0.  1.
         22    1    3    3    0    0  0.12351753967E+03  0.44656836422E+02 -0.73431838882E+03  0.74597205833E+03  0.00000000000E+00 0.  1.
</event>
<event>
 7    1  0.5779468E-006  0.6228453E+02  0.7818608E-02  0.1537347E+00
          2   -1    0    0  502    0  0.00000000000E+00  0.00000000000E+00  0.43299525870E+03  0.43299525870E+03  0.00000000000E+00 0. -1.
          1   -1    0    0  501    0 -0.00000000000E+00 -0.00000000000E+00 -0.24148204112E+03  0.24148204112E+03  0.00000000000E+00 0. -1.
         25    2    1    2    0    0  0.75268554787E+02  0.33167103039E+02  0.37052657689E+03  0.39960240319E+03  0.12500689736E+03 0.  0.
          2    1    1    2  501    0 -0.58788622833E+02 -0.19900392373E+02 -0.22008796170E+03  0.22867190181E+03  0.00000000000E+00 0. -1.
          1    1    1    2  502    0 -0.16479931954E+02 -0.13266710666E+02  0.41074602387E+02  0.46202994820E+02  0.00000000000E+00 0. -1.
         22    1    3    3    0    0 -0.14456163213E+02  0.41685667744E+02  0.50179106822E+02  0.66817799362E+02  0.00000000000E+00 0. -1.
         22    1    3    3    0    0  0.89724718001E+02 -0.85185647053E+01  0.32034747007E+03  0.33278460383E+03  0.00000000000E+00 0. -1.
</event>
<event>
 7    1  0.5779468E-006  0.6472044E+02  0.7818608E-02  0.1380640E+00
          2   -1    0    0  502    0  0.00000000000E+00  0.00000000000E+00  0.93833765793E+03  0.93833765793E+03  0.00000000000E+00 0. -1.
          1   -1    0    0  501    0 -0.00000000000E+00 -0.00000000000E+00 -0.24307508277E+04  0.24307508277E+04  0.00000000000E+00 0. -1.
         25    2    1    2    0    0  0.10871194814E+03  0.56557692417E+02 -0.11560981714E+03  0.20978390168E+03  0.12500638122E+03 0.  0.
          2    1    1    2  501    0 -0.62842391381E+02 -0.11432141637E+02 -0.22664420593E+04  0.22673419390E+04  0.00000000000E+00 0. -1.
          1    1    1    2  502    0 -0.45869556757E+02 -0.45125550780E+02  0.88963870669E+03  0.89196264496E+03  0.00000000000E+00 0. -1.
         22    1    3    3    0    0  0.68548586033E+02 -0.30009386863E+02 -0.75397036458E+02  0.10622704483E+03  0.00000000000E+00 0.  1.
         22    1    3    3    0    0  0.40163362105E+02  0.86567079280E+02 -0.40212780680E+02  0.10355685685E+03  0.00000000000E+00 0.  1.
</event>
<event>
 7    1  0.5779468E-006  0.8834037E+02  0.7818608E-02  0.1418478E+00
          2   -1    0    0  502    0  0.00000000000E+00  0.00000000000E+00  0.85306113270E+03  0.85306113270E+03  0.00000000000E+00 0. -1.
          1   -1    0    0  501    0 -0.00000000000E+00 -0.00000000000E+00 -0.49954030288E+03  0.49954030288E+03  0.00000000000E+00 0. -1.
         25    2    1    2    0    0 -0.56097381476E+02  0.56744572153E+02 -0.65739441163E+02  0.16221466084E+03  0.12500023756E+03 0.  0.
          2    1    1    2  501    0  0.23341207649E+02  0.25639329709E+02 -0.38233484455E+03  0.38390379076E+03  0.00000000000E+00 0. -1.
          1    1    1    2  502    0  0.32756173827E+02 -0.82383901861E+02  0.80159511554E+03  0.80648298399E+03  0.00000000000E+00 0. -1.
         22    1    3    3    0    0 -0.31420490279E+01 -0.20808521369E+02  0.24278866684E+02  0.32129898866E+02  0.00000000000E+00 0. -1.
         22    1    3    3    0    0 -0.52955332448E+02  0.77553093521E+02 -0.90018307848E+02  0.13008476197E+03  0.00000000000E+00 0. -1.
</event>
<event>
 7    1  0.5779468E-006  0.6126944E+02  0.7818608E-02  0.1435541E+00
          2   -1    0    0  502    0  0.00000000000E+00  0.00000000000E+00  0.56073378174E+02  0.56073378174E+02  0.00000000000E+00 0. -1.
          1   -1    0    0  501    0 -0.00000000000E+00 -0.00000000000E+00 -0.41543719096E+03  0.41543719096E+03  0.00000000000E+00 0. -1.
         25    2    1    2    0    0  0.30157333303E+02  0.46203562298E+02 -0.33395675416E+03  0.36082898657E+03  0.12500483981E+03 0.  0.
          2    1    1    2  501    0  0.31522000839E+02 -0.30557222843E+02 -0.71412951103E+01  0.44478966946E+02  0.00000000000E+00 0. -1.
          1    1    1    2  502    0 -0.61679334141E+02 -0.15646339455E+02 -0.18265763514E+02  0.66202615622E+02  0.00000000000E+00 0. -1.
         22    1    3    3    0    0  0.46388891900E+02 -0.18061926046E+02 -0.24435913410E+03  0.24937832480E+03  0.00000000000E+00 0. -1.
         22    1    3    3    0    0 -0.16231558597E+02  0.64265488344E+02 -0.89597620069E+02  0.11145066177E+03  0.00000000000E+00 0. -1.
</event>
<event>
 7    1  0.5779468E-006  0.3963526E+02  0.7818608E-02  0.1533725E+00
          2   -1    0    0  502    0  0.00000000000E+00  0.00000000000E+00  0.12947990722E+04  0.12947990722E+04  0.00000000000E+00 0. -1.
          1   -1    0    0  501    0 -0.00000000000E+00 -0.00000000000E+00 -0.26681587950E+03  0.26681587950E+03  0.00000000000E+00 0. -1.
         25    2    1    2    0    0 -0.17943570645E+02 -0.18831789245E+02  0.34894571996E+03  0.37157087146E+03  0.12500075609E+03 0.  0.
          2    1    1    2  501    0 -0.98376066145E+01  0.38509415649E+02 -0.25364513512E+03  0.25674035166E+03  0.00000000000E+00 0. -1.
          1    1    1    2  502    0  0.27781177259E+02 -0.19677626404E+02  0.93268260789E+03  0.93330372862E+03  0.00000000000E+00 0. -1.
         22    1    3    3    0    0 -0.55818991204E+02 -0.45136890241E+02  0.27671814058E+03  0.28587764509E+03  0.00000000000E+00 0. -1.
         22    1    3    3    0    0  0.37875420559E+02  0.26305100996E+02  0.72227579387E+02  0.85693226366E+02  0.00000000000E+00 0. -1.
</event>
<event>
 7    1  0.5779468E-006  0.6624537E+02  0.7818608E-02  0.1509396E+00
          2   -1    0    0  502    0  0.00000000000E+00  0.00000000000E+00  0.43457598837E+03  0.43457598837E+03  0.00000000000E+00 0. -1.
          1   -1    0    0  501    0 -0.00000000000E+00 -0.00000000000E+00 -0.56799883930E+03  0.56799883930E+03  0.00000000000E+00 0. -1.
         25    2    1    2    0    0  0.34235905764E+02 -0.81705230922E+02  0.41299249121E+02  0.15867696944E+03  0.12499964260E+03 0.  0.
          2    1    1    2  501    0 -0.31125420839E+02  0.57948795522E+02 -0.50675263614E+03  0.51100400092E+03  0.00000000000E+00 0. -1.
          1    1    1    2  502    0 -0.31104849246E+01  0.23756435399E+02  0.33203053609E+03  0.33289385731E+03  0.00000000000E+00 0. -1.
         22    1    3    3    0    0 -0.14670949267E+02  0.24281290702E+02 -0.11440285163E+02  0.30589180361E+02  0.00000000000E+00 0.  1.
         22    1    3    3    0    0  0.48906855031E+02 -0.10598652162E+03  0.52739534284E+02  0.12808778908E+03  0.00000000000E+00 0.  1.
</event>
<event>
 7    1  0.5779468E-006  0.1580059E+03  0.7818608E-02  0.1262295E+00
          2   -1    0    0  502    0  0.00000000000E+00  0.00000000000E+00  0.18413074879E+04  0.18413074879E+04  0.00000000000E+00 0. -1.
          1   -1    0    0  501    0 -0.00000000000E+00 -0.00000000000E+00 -0.35152507859E+04  0.35152507859E+04  0.00000000000E+00 0. -1.
         25    2    1    2    0    0  0.84481061019E+02  0.20983733797E+03  0.14923034174E+02  0.25887190005E+03  0.12499282223E+03 0.  0.
          2    1    1    2  501    0 -0.47873282618E+02 -0.58116010594E+02 -0.33892843388E+04  0.33901205954E+04  0.00000000000E+00 0. -1.
          1    1    1    2  502    0 -0.36607778401E+02 -0.15172132737E+03  0.17004180065E+04  0.17075657784E+04  0.00000000000E+00 0. -1.
         22    1    3    3    0    0  0.35656948543E+02  0.77489228659E+00 -0.20717088492E+02  0.41245802126E+02  0.00000000000E+00 0.  1.
         22    1    3    3    0    0  0.48824112476E+02  0.20906244568E+03  0.35640122666E+02  0.21762609792E+03  0.00000000000E+00 0.  1.
</event>
<event>
 7    1  0.5779468E-006  0.7059057E+02  0.7818608E-02  0.1504253E+00
          2   -1    0    0  502    0  0.00000000000E+00  0.00000000000E+00  0.82626682626E+03  0.82626682626E+03  0.00000000000E+00 0. -1.
          1   -1    0    0  501    0 -0.00000000000E+00 -0.00000000000E+00 -0.11047965942E+04  0.11047965942E+04  0.00000000000E+00 0. -1.
         25    2    1    2    0    0  0.59628963700E+02  0.29851510108E+02 -0.22393465830E+03  0.26498616707E+03  0.12499684630E+03 0.  0.
          2    1    1    2  501    0 -0.70511185789E+02 -0.92652772000E+01 -0.85869767177E+03  0.86163760607E+03  0.00000000000E+00 0. -1.
          1    1    1    2  502    0  0.10882222089E+02 -0.20586232908E+02  0.80410256213E+03  0.80443964732E+03  0.00000000000E+00 0. -1.
         22    1    3    3    0    0  0.58389386533E+02  0.60342829727E+02 -0.73826801597E+02  0.11180775551E+03  0.00000000000E+00 0.  1.
         22    1    3    3    0    0  0.12395771664E+01 -0.30491319620E+02 -0.15010785670E+03  0.15317841156E+03  0.00000000000E+00 0.  1.
</event>
<event>
 7    1  0.5779468E-006  0.1997560E+03  0.7818608E-02  0.1232978E+00
          2   -1    0    0  502    0  0.00000000000E+00  0.00000000000E+00  0.45806873291E+04  0.45806873291E+04  0.00000000000E+00 0. -1.
          1   -1    0    0  501    0 -0.00000000000E+00 -0.00000000000E+00 -0.90946645172E+02  0.90946645172E+02  0.00000000000E+00 0. -1.
         25    2    1    2    0    0 -0.25324125597E+03  0.13546778511E+02  0.48775031713E+03  0.56377618713E+03  0.12501427270E+03 0.  0.
          2    1    1    2  501    0  0.18259635208E+03  0.23814473016E+02  0.10887302698E+03  0.21392029572E+03  0.00000000000E+00 0. -1.
          1    1    1    2  502    0  0.70644903893E+02 -0.37361251527E+02  0.38931173398E+04  0.38939374914E+04  0.00000000000E+00 0. -1.
         22    1    3    3    0    0 -0.23385701846E+03 -0.21671861809E+02  0.35987832601E+03  0.42973385276E+03  0.00000000000E+00 0. -1.
         22    1    3    3    0    0 -0.19384237512E+02  0.35218640320E+02  0.12787199113E+03  0.13404233437E+03  0.00000000000E+00 0. -1.
</event>
<event>
 7    1  0.5779468E-006  0.1050659E+03  0.7818608E-02  0.1362355E+00
          2   -1    0    0  502    0  0.00000000000E+00  0.00000000000E+00  0.12119917590E+03  0.12119917590E+03  0.00000000000E+00 0. -1.
          1   -1    0    0  501    0 -0.00000000000E+00 -0.00000000000E+00 -0.11675151572E+04  0.11675151572E+04  0.00000000000E+00 0. -1.
         25    2    1    2    0    0  0.20467586520E+02 -0.81598115251E+02 -0.70610929794E+03  0.72200598360E+03  0.12500050082E+03 0.  0.
          2    1    1    2  501    0  0.45743446654E+02 -0.12592101573E+01 -0.42713189288E+03  0.42957618933E+03  0.00000000000E+00 0. -1.
          1    1    1    2  502    0 -0.66211033174E+02  0.82857325408E+02  0.86925209562E+02  0.13713216014E+03  0.00000000000E+00 0. -1.
         22    1    3    3    0    0 -0.49879525018E+02 -0.57860930231E+02 -0.35019050354E+03  0.35842606355E+03  0.00000000000E+00 0.  1.
         22    1    3    3    0    0  0.70347111538E+02 -0.23737185020E+02 -0.35591879440E+03  0.36357992004E+03  0.00000000000E+00 0.  1.
</event>
<event>
 7    1  0.5779468E-006  0.7545957E+02  0.7818608E-02  0.1471074E+00
          2   -1    0    0  502    0  0.00000000000E+00  0.00000000000E+00  0.10633301674E+04  0.10633301674E+04  0.00000000000E+00 0. -1.
          1   -1    0    0  501    0 -0.00000000000E+00 -0.00000000000E+00 -0.24437122364E+03  0.24437122364E+03  0.00000000000E+00 0. -1.
         25    2    1    2    0    0  0.69849676387E+02 -0.71252227956E+02  0.23501796393E+03  0.28428022603E+03  0.12500378499E+03 0.  0.
          2    1    1    2  501    0 -0.12950038416E+02  0.24224465992E+02 -0.21717808381E+03  0.21890831034E+03  0.00000000000E+00 0. -1.
          1    1    1    2  502    0 -0.56899637970E+02  0.47027761964E+02  0.80111906360E+03  0.80451285462E+03  0.00000000000E+00 0. -1.
         22    1    3    3    0    0  0.78244969240E+02  0.19885985788E+01  0.16492983147E+03  0.18255979581E+03  0.00000000000E+00 0.  1.
         22    1    3    3    0    0 -0.83952928537E+01 -0.73240826534E+02  0.70088132462E+02  0.10172043023E+03  0.00000000000E+00 0.  1.
</event>
<event>
 7    1  0.5779468E-006  0.9750630E+02  0.7818608E-02  0.1333055E+00
          2   -1    0    0  502    0  0.00000000000E+00  0.00000000000E+00  0.83836509916E+03  0.83836509916E+03  0.00000000000E+00 0. -1.
          1   -1    0    0  501    0 -0.00000000000E+00 -0.00000000000E+00 -0.75561787108E+03  0.75561787108E+03  0.00000000000E+00 0. -1.
         25    2    1    2    0    0  0.74327836514E+02  0.75821077487E+02 -0.10886070027E+03  0.19684679246E+03  0.12499817825E+03 0.  0.
          2    1    1    2  501    0  0.22012116780E+02 -0.59423156464E+02 -0.59807829504E+03  0.60142604850E+03  0.00000000000E+00 0. -1.
          1    1    1    2  502    0 -0.96339953294E+02 -0.16397921023E+02  0.78968622340E+03  0.79571012928E+03  0.00000000000E+00 0. -1.
         22    1    3    3    0    0 -0.24219365971E+02  0.57507448562E+02 -0.29615768582E+02  0.69070819286E+02  0.00000000000E+00 0.  1.
         22    1    3    3    0    0  0.98547202484E+02  0.18313628925E+02 -0.79244931688E+02  0.12777597317E+03  0.00000000000E+00 0.  1.
</event>
<event>
 7    1  0.5779468E-006  0.1181273E+03  0.7818608E-02  0.1387578E+00
          2   -1    0    0  502    0  0.00000000000E+00  0.00000000000E+00  0.22239384081E+04  0.22239384081E+04  0.00000000000E+00 0. -1.
          1   -1    0    0  501    0 -0.00000000000E+00 -0.00000000000E+00 -0.12282573889E+03  0.12282573889E+03  0.00000000000E+00 0. -1.
         25    2    1    2    0    0  0.60520143865E+02 -0.12823296599E+03  0.54486307135E+03  0.57672110683E+03  0.12500034867E+03 0.  0.
          2    1    1    2  501    0 -0.28033617732E+02  0.17565075144E+02 -0.10228555694E+03  0.10750232903E+03  0.00000000000E+00 0. -1.
          1    1    1    2  502    0 -0.32486526133E+02  0.11066789085E+03  0.16585351548E+04  0.16625407111E+04  0.00000000000E+00 0. -1.
         22    1    3    3    0    0 -0.11490387623E+02  0.20960103471E+01 -0.20415745897E+00  0.11681778434E+02  0.00000000000E+00 0. -1.
         22    1    3    3    0    0  0.72010531488E+02 -0.13032897634E+03  0.54506722881E+03  0.56503932840E+03  0.00000000000E+00 0. -1.
</event>
<event>
 7    1  0.5779468E-006  0.1371960E+03  0.7818608E-02  0.1340903E+00
          2   -1    0    0  502    0  0.00000000000E+00  0.00000000000E+00  0.65211766270E+03  0.65211766270E+03  0.00000000000E+00 0. -1.
          1   -1    0    0  501    0 -0.00000000000E+00 -0.00000000000E+00 -0.54985761216E+03  0.54985761216E+03  0.00000000000E+00 0. -1.
         25    2    1    2    0    0 -0.16679616913E+02 -0.96731529918E+02  0.11522674730E+03  0.19630987465E+03  0.12500066036E+03 0.  0.
          2    1    1    2  501    0  0.32090383295E+02  0.13587052149E+03 -0.49882317681E+03  0.51799146038E+03  0.00000000000E+00 0. -1.
          1    1    1    2  502    0 -0.15410766382E+02 -0.39138991570E+02  0.48585648005E+03  0.48767393983E+03  0.00000000000E+00 0. -1.
         22    1    3    3    0    0  0.51842142862E+01 -0.12198781227E+03  0.10590485017E+03  0.16162840007E+03  0.00000000000E+00 0.  1.
         22    1    3    3    0    0 -0.21863831199E+02  0.25256282350E+02  0.93218971358E+01  0.34681474580E+02  0.00000000000E+00 0.  1.
</event>
<event>
 7    1  0.5779468E-006  0.6957209E+02  0.7818608E-02  0.1411901E+00
          2   -1    0    0  502    0  0.00000000000E+00  0.00000000000E+00  0.72447127909E+02  0.72447127909E+02  0.00000000000E+00 0. -1.
          1   -1    0    0  501    0 -0.00000000000E+00 -0.00000000000E+00 -0.13011024682E+04  0.13011024682E+04  0.00000000000E+00 0. -1.
         25    2    1    2    0    0 -0.96551562240E+02  0.40539877987E+02 -0.17224276851E+03  0.23718915634E+03  0.12500175478E+03 0.  0.
          2    1    1    2  501    0  0.46306734251E+02  0.13596430188E+01 -0.10687762980E+04  0.10697798546E+04  0.00000000000E+00 0. -1.
          1    1    1    2  502    0  0.50244827989E+02 -0.41899521005E+02  0.12363726148E+02  0.66580585191E+02  0.00000000000E+00 0. -1.
         22    1    3    3    0    0 -0.10478443968E+03  0.66850073476E+02 -0.16847865010E+03  0.20936515150E+03  0.00000000000E+00 0.  1.
         22    1    3    3    0    0  0.82328774439E+01 -0.26310195489E+02 -0.37641184175E+01  0.27824004837E+02  0.00000000000E+00 0.  1.
</event>
<event>
 7    1  0.5779468E-006  0.5171247E+02  0.7818608E-02  0.1481618E+00
          2   -1    0    0  502    0  0.00000000000E+00  0.00000000000E+00  0.48376339027E+03  0.48376339027E+03  0.00000000000E+00 0. -1.
          1   -1    0    0  501    0 -0.00000000000E+00 -0.00000000000E+00 -0.99008964877E+03  0.99008964877E+03  0.00000000000E+00 0. -1.
         25    2    1    2    0    0 -0.49811970455E+02  0.48422729741E+02 -0.22206294974E+03  0.26412654271E+03  0.12499953504E+03 0.  0.
          2    1    1    2  501    0 -0.61932116389E+00 -0.37186569342E+02 -0.74508734256E+03  0.74601499485E+03  0.00000000000E+00 0. -1.
          1    1    1    2  502    0  0.50431291619E+02 -0.11236160399E+02  0.46082403380E+03  0.46371150148E+03  0.00000000000E+00 0. -1.
         22    1    3    3    0    0 -0.88437953516E+02  0.54484248151E+02 -0.15874913017E+03  0.18971318154E+03  0.00000000000E+00 0.  1.
         22    1    3    3    0    0  0.38625983060E+02 -0.60615184097E+01 -0.63313819566E+02  0.74413361172E+02  0.00000000000E+00 0.  1.
</event>
<event>
 7    1  0.5779468E-006  0.7114886E+02  0.7818608E-02  0.1430533E+00
          2   -1    0    0  502    0  0.00000000000E+00  0.00000000000E+00  0.52791804090E+02  0.52791804090E+02  0.00000000000E+00 0. -1.
          1   -1    0    0  501    0 -0.00000000000E+00 -0.00000000000E+00 -0.62333674991E+03  0.62333674991E+03  0.00000000000E+00 0. -1.
         25    2    1    2    0    0 -0.15183123657E+02  0.41320116402E+02 -0.29104377341E+03  0.31979538270E+03  0.12499891796E+03 0.  0.
          2    1    1    2  501    0  0.20543932705E+02  0.33458244007E+02 -0.27860466334E+03  0.28135754068E+03  0.00000000000E+00 0. -1.
          1    1    1    2  502    0 -0.53608090481E+01 -0.74778360409E+02 -0.89650907410E+00  0.74975630625E+02  0.00000000000E+00 0. -1.
         22    1    3    3    0    0  0.14179542441E+02  0.70440130714E+02 -0.25502749992E+03  0.26495640614E+03  0.00000000000E+00 0. -1.
         22    1    3    3    0    0 -0.29362666098E+02 -0.29120014312E+02 -0.36016273490E+02  0.54838976558E+02  0.00000000000E+00 0. -1.
</event>
<event>
 7    1  0.5779468E-006  0.1062934E+03  0.7818608E-02  0.1362435E+00
          2   -1    0    0  502    0  0.00000000000E+00  0.00000000000E+00  0.13041595705E+03  0.13041595705E+03  0.00000000000E+00 0. -1.
          1   -1    0    0  501    0 -0.00000000000E+00 -0.00000000000E+00 -0.91099339201E+03  0.91099339201E+03  0.00000000000E+00 0. -1.
         25    2    1    2    0    0  0.11162749369E+03 -0.22578572241E+02 -0.28726894516E+03  0.33334566049E+03  0.12500157294E+03 0.  0.
          2    1    1    2  501    0 -0.87300058306E+02  0.60675777842E+02 -0.59096569355E+03  0.60045258027E+03  0.00000000000E+00 0. -1.
          1    1    1    2  502    0 -0.24327435388E+02 -0.38097205600E+02  0.97657203753E+02  0.10761110831E+03  0.00000000000E+00 0. -1.
         22    1    3    3    0    0  0.99551490842E+02  0.31404259921E+01 -0.28819169031E+03  0.30491771343E+03  0.00000000000E+00 0.  1.
         22    1    3    3    0    0  0.12076002852E+02 -0.25718998233E+02  0.92274514329E+00  0.28427947052E+02  0.00000000000E+00 0.  1.
</event>
<event>
 7    1  0.5779468E-006  0.7020428E+02  0.7818608E-02  0.1436242E+00
          2   -1    0    0  502    0  0.00000000000E+00  0.00000000000E+00  0.20222210392E+04  0.20222210392E+04  0.00000000000E+00 0. -1.
          1   -1    0    0  501    0 -0.00000000000E+00 -0.00000000000E+00 -0.10167591397E+04  0.10167591397E+04  0.00000000000E+00 0. -1.
         25    2    1    2    0    0 -0.32865553102E+02 -0.28172865191E+01  0.64509724704E+03  0.65792297900E+03  0.12499642585E+03 0.  0.
          2    1    1    2  501    0  0.68099835932E+02  0.17348761149E+02 -0.10088587789E+04  0.10113034178E+04  0.00000000000E+00 0. -1.
          1    1    1    2  502    0 -0.35234282830E+02 -0.14531474630E+02  0.13692234314E+04  0.13697537821E+04  0.00000000000E+00 0. -1.
         22    1    3    3    0    0 -0.80458701197E+02  0.67031484602E+01  0.40472989660E+03  0.41270428154E+03  0.00000000000E+00 0. -1.
         22    1    3    3    0    0  0.47593148095E+02 -0.95204349793E+01  0.24036735044E+03  0.24521869746E+03  0.00000000000E+00 0. -1.
</event>
<event>
 7    1  0.5779468E-006  0.8830305E+02  0.7818608E-02  0.1471537E+00
          2   -1    0    0  502    0  0.00000000000E+00  0.00000000000E+00  0.51700867041E+03  0.51700867041E+03  0.00000000000E+00 0. -1.
          1   -1    0    0  501    0 -0.00000000000E+00 -0.00000000000E+00 -0.15848572836E+03  0.15848572836E+03  0.00000000000E+00 0. -1.
         25    2    1    2    0    0 -0.66567197878E+02 -0.78238934156E+02 -0.29872492594E+02  0.16452914807E+03  0.12499980840E+03 0.  0.
          2    1    1    2  501    0  0.61120685539E+02  0.55485876404E+02 -0.33014354897E+02  0.88906514442E+02  0.00000000000E+00 0. -1.
          1    1    1    2  502    0  0.54465123390E+01  0.22753057752E+02  0.42140978954E+03  0.42205873626E+03  0.00000000000E+00 0. -1.
         22    1    3    3    0    0 -0.46600010228E+01 -0.20081177963E+02 -0.68269102040E+02  0.71313670578E+02  0.00000000000E+00 0.  1.
         22    1    3    3    0    0 -0.61907196855E+02 -0.58157756193E+02  0.38396609446E+02  0.93215477496E+02  0.00000000000E+00 0.  1.
</event>
<event>
 7    1  0.5779468E-006  0.1371787E+03  0.7818608E-02  0.1240359E+00
          2   -1    0    0  502    0  0.00000000000E+00  0.00000000000E+00  0.59683828093E+03  0.59683828093E+03  0.00000000000E+00 0. -1.
          1   -1    0    0  501    0 -0.00000000000E+00 -0.00000000000E+00 -0.23345638964E+04  0.23345638964E+04  0.00000000000E+00 0. -1.
         25    2    1    2    0    0  0.19159794094E+02  0.44263442651E+02 -0.41808832654E+03  0.43903453970E+03  0.12500851249E+03 0.  0.
          2    1    1    2  501    0  0.10694233652E+03  0.14518202768E+02 -0.18961934420E+04  0.18992622281E+04  0.00000000000E+00 0. -1.
          1    1    1    2  502    0 -0.12610213062E+03 -0.58781645419E+02  0.57655615307E+03  0.59310540954E+03  0.00000000000E+00 0. -1.
         22    1    3    3    0    0  0.27568251417E+02 -0.40360749978E+02 -0.14571173384E+03  0.15369094965E+03  0.00000000000E+00 0. -1.
         22    1    3    3    0    0 -0.84084573226E+01  0.84624192629E+02 -0.27237659270E+03  0.28534359005E+03  0.00000000000E+00 0. -1.
</event>
<event>
 7    1  0.5779468E-006  0.1259286E+03  0.7818608E-02  0.1373642E+00
          2   -1    0    0  502    0  0.00000000000E+00  0.00000000000E+00  0.32354985325E+03  0.32354985325E+03  0.00000000000E+00 0. -1.
          1   -1    0    0  501    0 -0.00000000000E+00 -0.00000000000E+00 -0.92594745877E+03  0.92594745877E+03  0.00000000000E+00 0. -1.
         25    2    1    2    0    0 -0.68334234255E+02 -0.68118761159E+02 -0.12744022485E+03  0.20292102272E+03  0.12500478935E+03 0.  0.
          2    1    1    2  501    0 -0.32958062508E+02 -0.11059959914E+02 -0.74588306084E+03  0.74669277286E+03  0.00000000000E+00 0. -1.
          1    1    1    2  502    0  0.10129229676E+03  0.79178721074E+02  0.27092568017E+03  0.29988351644E+03  0.00000000000E+00 0. -1.
         22    1    3    3    0    0 -0.20607415752E+02  0.13269336759E+02  0.17401962875E+02  0.30059427704E+02  0.00000000000E+00 0. -1.
         22    1    3    3    0    0 -0.47726818503E+02 -0.81388097918E+02 -0.14484218772E+03  0.17286159502E+03  0.00000000000E+00 0. -1.
</event>
<event>
 7    1  0.5779468E-006  0.8323720E+02  0.7818608E-02  0.1363909E+00
          2   -1    0    0  502    0  0.00000000000E+00  0.00000000000E+00  0.16022764540E+04  0.16022764540E+04  0.00000000000E+00 0. -1.
          1   -1    0    0  501    0 -0.00000000000E+00 -0.00000000000E+00 -0.33087677050E+03  0.33087677050E+03  0.00000000000E+00 0. -1.
         25    2    1    2    0    0  0.35123777021E+02  0.84144642646E+02 -0.10427111421E+03  0.18657694792E+03  0.12499796653E+03 0.  0.
          2    1    1    2  501    0  0.37366970726E+02 -0.43063830967E+02 -0.17992907254E+03  0.18874653688E+03  0.00000000000E+00 0. -1.
          1    1    1    2  502    0 -0.72490747748E+02 -0.41080811679E+02  0.15555998703E+04  0.15578297397E+04  0.00000000000E+00 0. -1.
         22    1    3    3    0    0 -0.29426610770E+02 -0.10100145952E+01 -0.67380399475E+02  0.73532739540E+02  0.00000000000E+00 0.  1.
         22    1    3    3    0    0  0.64550387791E+02  0.85154657241E+02 -0.36890714730E+02  0.11304420838E+03  0.00000000000E+00 0.  1.
</event>
<event>
 7    1  0.5779468E-006  0.3919264E+02  0.7818608E-02  0.1557945E+00
          2   -1    0    0  502    0  0.00000000000E+00  0.00000000000E+00  0.13799146841E+04  0.13799146841E+04  0.00000000000E+00 0. -1.
          1   -1    0    0  501    0 -0.00000000000E+00 -0.00000000000E+00 -0.48182958770E+02  0.48182958770E+02  0.00000000000E+00 0. -1.
         25    2    1    2    0    0  0.20662876464E+02 -0.28761815542E+02  0.11418963871E+03  0.17296940254E+03  0.12499977652E+03 0.  0.
          2    1    1    2  501    0  0.18274194012E+02  0.23085310564E+02 -0.67478406410E+01  0.30206143149E+02  0.00000000000E+00 0. -1.
          1    1    1    2  502    0 -0.38937070477E+02  0.56765049779E+01  0.12242899273E+04  0.12249220972E+04  0.00000000000E+00 0. -1.
         22    1    3    3    0    0  0.42529329934E+02 -0.66939264046E+02  0.45600221597E+02  0.91482179606E+02  0.00000000000E+00 0.  1.
         22    1    3    3    0    0 -0.21866453470E+02  0.38177448504E+02  0.68589417109E+02  0.81487222931E+02  0.00000000000E+00 0.  1.
</event>
<event>
 7    1  0.5779468E-006  0.4636696E+02  0.7818608E-02  0.1559082E+00
          2   -1    0    0  502    0  0.00000000000E+00  0.00000000000E+00  0.57527722412E+03  0.57527722412E+03  0.00000000000E+00 0. -1.
          1   -1    0    0  501    0 -0.00000000000E+00 -0.00000000000E+00 -0.12163895562E+04  0.12163895562E+04  0.00000000000E+00 0. -1.
         25    2    1    2    0    0 -0.54954386157E+02  0.39456064617E+02 -0.11013735826E+03  0.17981006701E+03  0.12499862768E+03 0.  0.
          2    1    1    2  501    0  0.24212173594E+02 -0.49250365463E+01 -0.10702842380E+04  0.10705693978E+04  0.00000000000E+00 0. -1.
          1    1    1    2  502    0  0.30742212563E+02 -0.34531028071E+02  0.53930926418E+03  0.54128731554E+03  0.00000000000E+00 0. -1.
         22    1    3    3    0    0  0.13110795591E+01  0.14803522448E+02  0.26284863374E+02  0.30195318331E+02  0.00000000000E+00 0. -1.
         22    1    3    3    0    0 -0.56265465716E+02  0.24652542169E+02 -0.13642222164E+03  0.14961474868E+03  0.00000000000E+00 0. -1.
</event>
<event>
 7    1  0.5779468E-006  0.5874393E+02  0.7818608E-02  0.1484293E+00
          2   -1    0    0  502    0  0.00000000000E+00  0.00000000000E+00  0.53821715887E+03  0.53821715887E+03  0.00000000000E+00 0. -1.
          1   -1    0    0  501    0 -0.00000000000E+00 -0.00000000000E+00 -0.39430264253E+03  0.39430264253E+03  0.00000000000E+00 0. -1.
         25    2    1    2    0    0  0.21825387011E+02 -0.83681283939E+02  0.20983257299E+03  0.25910171283E+03  0.12500033640E+03 0.  0.
          2    1    1    2  501    0 -0.16218329126E+00  0.32129218786E+02 -0.36638547300E+03  0.36779155486E+03  0.00000000000E+00 0. -1.
          1    1    1    2  502    0 -0.21663203719E+02  0.51552065153E+02  0.30046741635E+03  0.30562653371E+03  0.00000000000E+00 0. -1.
         22    1    3    3    0    0  0.38149502613E+02 -0.82565004343E+02  0.61325225671E+02  0.10969570546E+03  0.00000000000E+00 0. -1.
         22    1    3    3    0    0 -0.16324115602E+02 -0.11162795962E+01  0.14850734732E+03  0.14940600737E+03  0.00000000000E+00 0. -1.
</event>
<event>
 7    1  0.5779468E-006  0.2192244E+03  0.7818608E-02  0.1361844E+00
          2   -1    0    0  502    0  0.00000000000E+00  0.00000000000E+00  0.95968952774E+03  0.95968952774E+03  0.00000000000E+00 0. -1.
          1   -1    0    0  501    0 -0.00000000000E+00 -0.00000000000E+00 -0.93992552689E+03  0.93992552689E+03  0.00000000000E+00 0. -1.
         25    2    1    2    0    0  0.46327959631E+02 -0.23638210637E+03  0.74193851010E+03  0.79001316146E+03  0.12500104979E+03 0.  0.
          2    1    1    2  501    0 -0.41913282458E+02  0.21480359746E+03 -0.90213317507E+03  0.92830036857E+03  0.00000000000E+00 0. -1.
          1    1    1    2  502    0 -0.44146771735E+01  0.21578508913E+02  0.17995866582E+03  0.18130152461E+03  0.00000000000E+00 0. -1.
         22    1    3    3    0    0  0.23033418310E+02 -0.23689965912E+03  0.71877223717E+03  0.75715620302E+03  0.00000000000E+00 0. -1.
         22    1    3    3    0    0  0.23294541321E+02  0.51755274601E+00  0.23166272936E+02  0.32856958440E+02  0.00000000000E+00 0. -1.
</event>
<event>
 7    1  0.5779468E-006  0.6866820E+02  0.7818608E-02  0.1511136E+00
          2   -1    0    0  502    0  0.00000000000E+00  0.00000000000E+00  0.30437536267E+04  0.30437536267E+04  0.00000000000E+00 0. -1.
          1   -1    0    0  501    0 -0.00000000000E+00 -0.00000000000E+00 -0.83801885336E+02  0.83801885336E+02  0.00000000000E+00 0. -1.
         25    2    1    2    0    0  0.78773395264E+02  0.25699760986E+00  0.73861432325E+03  0.75324804561E+03  0.12500474333E+03 0.  0.
          2    1    1    2  501    0 -0.13269824909E+02  0.18593295692E+02 -0.74262247538E+02  0.77696076524E+02  0.00000000000E+00 0. -1.
          1    1    1    2  502    0 -0.65503570355E+02 -0.18850293302E+02  0.22955996656E+04  0.22966113899E+04  0.00000000000E+00 0. -1.
         22    1    3    3    0    0  0.17350073766E+02  0.58328601945E+02  0.24474312678E+03  0.25219525962E+03  0.00000000000E+00 0. -1.
         22    1    3    3    0    0  0.61423321499E+02 -0.58071604335E+02  0.49387119646E+03  0.50105278599E+03  0.00000000000E+00 0. -1.
</event>
<event>
 7    1  0.5779468E-006  0.7877057E+02  0.7818608E-02  0.1502218E+00
          2   -1    0    0  502    0  0.00000000000E+00  0.00000000000E+00  0.14500764995E+04  0.14500764995E+04  0.00000000000E+00 0. -1.
          1   -1    0    0  501    0 -0.00000000000E+00 -0.00000000000E+00 -0.87787447511E+03  0.87787447511E+03  0.00000000000E+00 0. -1.
         25    2    1    2    0    0 -0.45383231695E+02 -0.56964295658E+02  0.29169505997E+03  0.32560343435E+03  0.12500807873E+03 0.  0.
          2    1    1    2  501    0  0.13880596291E+02 -0.15971036579E+02 -0.85940742670E+03  0.85966788357E+03  0.00000000000E+00 0. -1.
          1    1    1    2  502    0  0.31502635404E+02  0.72935332237E+02  0.11399143912E+04  0.11426796567E+04  0.00000000000E+00 0. -1.
         22    1    3    3    0    0 -0.60018322568E+02  0.21245930192E+02  0.10718942990E+03  0.12467222014E+03  0.00000000000E+00 0.  1.
         22    1    3    3    0    0  0.14635090873E+02 -0.78210225850E+02  0.18450563008E+03  0.20093121421E+03  0.00000000000E+00 0.  1.
</event>
<event>
 7    1  0.5779468E-006  0.1190202E+03  0.7818608E-02  0.1288752E+00
          2   -1    0    0  502    0  0.00000000000E+00  0.00000000000E+00  0.23784246973E+04  0.23784246973E+04  0.00000000000E+00 0. -1.
          1   -1    0    0  501    0 -0.00000000000E+00 -0.00000000000E+00 -0.10004700461E+04  0.10004700461E+04  0.00000000000E+00 0. -1.
         25    2    1    2    0    0  0.70481398377E+02  0.14327354343E+03  0.12190157599E+03  0.23661910768E+03  0.12503468369E+03 0.  0.
          2    1    1    2  501    0  0.25078437258E+02 -0.73402631713E+02 -0.93991940529E+03  0.94311471349E+03  0.00000000000E+00 0. -1.
          1    1    1    2  502    0 -0.95559835635E+02 -0.69870911714E+02  0.21959724805E+04  0.21991609222E+04  0.00000000000E+00 0. -1.
         22    1    3    3    0    0 -0.86114352805E+01 -0.52627921614E+01 -0.16090990257E+02  0.18994045551E+02  0.00000000000E+00 0. -1.
         22    1    3    3    0    0  0.79092833657E+02  0.14853633559E+03  0.13799256625E+03  0.21762506213E+03  0.00000000000E+00 0. -1.
</event>
<event>
 7    1  0.5779468E-006  0.9433351E+02  0.7818608E-02  0.1341782E+00
          2   -1    0    0  502    0  0.00000000000E+00  0.00000000000E+00  0.27382945895E+03  0.27382945895E+03  0.00000000000E+00 0. -1.
          1   -1    0    0  501    0 -0.00000000000E+00 -0.00000000000E+00 -0.17756503970E+04  0.17756503970E+04  0.00000000000E+00 0. -1.
         25    2    1    2    0    0 -0.49982618309E+02 -0.91784290699E+02  0.18910519468E+03  0.24961676159E+03  0.12500053944E+03 0.  0.
          2    1    1    2  501    0 -0.10697834666E+02  0.93776367997E+02 -0.17267773782E+04  0.17293549563E+04  0.00000000000E+00 0. -1.
          1    1    1    2  502    0  0.60680452975E+02 -0.19920772980E+01  0.35851245429E+02  0.70508138140E+02  0.00000000000E+00 0. -1.
         22    1    3    3    0    0 -0.74673201709E+02 -0.75464741819E+02  0.19249148544E+03  0.21982717366E+03  0.00000000000E+00 0.  1.
         22    1    3    3    0    0  0.24690583400E+02 -0.16319548880E+02 -0.33862907606E+01  0.29789587936E+02  0.00000000000E+00 0.  1.
</event>
<event>
 7    1  0.5779468E-006  0.2135324E+03  0.7818608E-02  0.1253977E+00
          2   -1    0    0  502    0  0.00000000000E+00  0.00000000000E+00  0.20760344006E+04  0.20760344006E+04  0.00000000000E+00 0. -1.
          1   -1    0    0  501    0 -0.00000000000E+00 -0.00000000000E+00 -0.33750196536E+03  0.33750196536E+03  0.00000000000E+00 0. -1.
         25    2    1    2    0    0  0.12503942953E+03 -0.11653223422E+03  0.41421621579E+03  0.46520249540E+03  0.12499467092E+03 0.  0.
          2    1    1    2  501    0 -0.12639149660E+03  0.17699324965E+03 -0.27346645050E+03  0.34940709836E+03  0.00000000000E+00 0. -1.
          1    1    1    2  502    0  0.13520670751E+01 -0.60461015430E+02  0.15977826700E+04  0.15989267722E+04  0.00000000000E+00 0. -1.
         22    1    3    3    0    0  0.63598704761E+02 -0.47391978709E+02  0.33234522758E+03  0.34167842365E+03  0.00000000000E+00 0. -1.
         22    1    3    3    0    0  0.61440724766E+02 -0.69140255508E+02  0.81870988202E+02  0.12352407175E+03  0.00000000000E+00 0. -1.
</event>
<event>
 7    1  0.5779468E-006  0.1373684E+03  0.7818608E-02  0.1397853E+00
          2   -1    0    0  502    0  0.00000000000E+00  0.00000000000E+00  0.16684132492E+04  0.16684132492E+04  0.00000000000E+00 0. -1.
          1   -1    0    0  501    0 -0.00000000000E+00 -0.00000000000E+00 -0.88908902673E+03  0.88908902673E+03  0.00000000000E+00 0. -1.
         25    2    1    2    0    0  0.13224977698E+03 -0.21805576488E+02  0.96544831483E+03  0.98269047206E+03  0.12499851439E+03 0.  0.
          2    1    1    2  501    0  0.89146184394E+01  0.24639429930E+02 -0.87309157788E+03  0.87348467376E+03  0.00000000000E+00 0. -1.
          1    1    1    2  502    0 -0.14116439542E+03 -0.28338534416E+01  0.68696748548E+03  0.70132713007E+03  0.00000000000E+00 0. -1.
         22    1    3    3    0    0  0.87663365667E+02  0.48378763716E+02  0.52792489364E+03  0.53733608085E+03  0.00000000000E+00 0. -1.
         22    1    3    3    0    0  0.44586411317E+02 -0.70184340204E+02  0.43752342119E+03  0.44535439121E+03  0.00000000000E+00 0. -1.
</event>
<event>
 7    1  0.5779468E-006  0.8392224E+02  0.7818608E-02  0.1407533E+00
          2   -1    0    0  502    0  0.00000000000E+00  0.00000000000E+00  0.13598152942E+04  0.13598152942E+04  0.00000000000E+00 0. -1.
          1   -1    0    0  501    0 -0.00000000000E+00 -0.00000000000E+00 -0.75069778076E+03  0.75069778076E+03  0.00000000000E+00 0. -1.
         25    2    1    2    0    0  0.12294352808E+03 -0.71095045903E+00  0.21620362512E+02  0.17665772140E+03  0.12499957563E+03 0.  0.
          2    1    1    2  501    0 -0.39715201893E+02  0.13196988912E+01 -0.67121711799E+03  0.67239233960E+03  0.00000000000E+00 0. -1.
          1    1    1    2  502    0 -0.83228326184E+02 -0.60874843213E+00  0.12587142689E+04  0.12614630140E+04  0.00000000000E+00 0. -1.
         22    1    3    3    0    0  0.44640474953E+02  0.60847020666E+02  0.45554781518E+01  0.75603467574E+02  0.00000000000E+00 0. -1.
         22    1    3    3    0    0  0.78303053125E+02 -0.61557971126E+02  0.17064884360E+02  0.10105425382E+03  0.00000000000E+00 0. -1.
</event>
<event>
 7    1  0.5779468E-006  0.5792203E+02  0.7818608E-02  0.1521869E+00
          2   -1    0    0  502    0  0.00000000000E+00  0.00000000000E+00  0.25046403521E+03  0.25046403521E+03  0.00000000000E+00 0. -1.
          1   -1    0    0  501    0 -0.00000000000E+00 -0.00000000000E+00 -0.65902717018E+03  0.65902717018E+03  0.00000000000E+00 0. -1.
         25    2    1    2    0    0  0.19900999587E+02  0.55635877691E+02  0.24380342957E+02  0.14039593131E+03  0.12500086293E+03 0.  0.
          2    1    1    2  501    0  0.20909039158E+02 -0.14060489528E+02 -0.59569676341E+03  0.59622941828E+03  0.00000000000E+00 0. -1.
          1    1    1    2  502    0 -0.40810038745E+02 -0.41575388164E+02  0.16275328549E+03  0.17286585580E+03  0.00000000000E+00 0. -1.
         22    1    3    3    0    0 -0.20924784769E+02 -0.14014904847E+02  0.49757032580E+02  0.55767611269E+02  0.00000000000E+00 0. -1.
         22    1    3    3    0    0  0.40825784355E+02  0.69650782539E+02 -0.25376689624E+02  0.84628320040E+02  0.00000000000E+00 0. -1.
</event>
<event>
 7    1  0.5779468E-006  0.1458541E+03  0.7818608E-02  0.1330907E+00
          2   -1    0    0  502    0  0.00000000000E+00  0.00000000000E+00  0.58476153958E+03  0.58476153958E+03  0.00000000000E+00 0. -1.
          1   -1    0    0  501    0 -0.00000000000E+00 -0.00000000000E+00 -0.57967736023E+03  0.57967736023E+03  0.00000000000E+00 0. -1.
         25    2    1    2    0    0 -0.12920360865E+03 -0.46331491885E+02  0.17013883566E+03  0.25181775163E+03  0.12499910803E+03 0.  0.
          2    1    1    2  501    0  0.75718334812E+01 -0.42499702137E+02 -0.52273922412E+03  0.52451868773E+03  0.00000000000E+00 0. -1.
          1    1    1    2  502    0  0.12163177517E+03  0.88831194021E+02  0.35768456780E+03  0.38810246045E+03  0.00000000000E+00 0. -1.
         22    1    3    3    0    0 -0.28675487281E+02 -0.28617244446E+02 -0.12664470906E+02  0.42445483550E+02  0.00000000000E+00 0.  1.
         22    1    3    3    0    0 -0.10052812137E+03 -0.17714247439E+02  0.18280330657E+03  0.20937226808E+03  0.00000000000E+00 0.  1.
</event>
<event>
 7    1  0.5779468E-006  0.5016123E+02  0.7818608E-02  0.1549246E+00
          2   -1    0    0  502    0  0.00000000000E+00  0.00000000000E+00  0.36045224945E+03  0.36045224945E+03  0.00000000000E+00 0. -1.
          1   -1    0    0  501    0 -0.00000000000E+00 -0.00000000000E+00 -0.19327714182E+03  0.19327714182E+03  0.00000000000E+00 0. -1.
         25    2    1    2    0    0  0.67111409357E+01 -0.67148474913E+02  0.34096966806E+02  0.14608663807E+03  0.12499898232E+03 0.  0.
          2    1    1    2  501    0 -0.18455844736E+02  0.45852274509E+02 -0.13225914713E+03  0.14119324092E+03  0.00000000000E+00 0. -1.
          1    1    1    2  502    0  0.11744703800E+02  0.21296200404E+02  0.26533728795E+03  0.26644951228E+03  0.00000000000E+00 0. -1.
         22    1    3    3    0    0  0.55242550617E+02 -0.45933428138E+02  0.53608929650E+02  0.89641154374E+02  0.00000000000E+00 0. -1.
         22    1    3    3    0    0 -0.48531409681E+02 -0.21215046775E+02 -0.19511962844E+02  0.56445483693E+02  0.00000000000E+00 0. -1.
</event>
<event>
 7    1  0.5779468E-006  0.1199586E+03  0.7818608E-02  0.1248489E+00
          2   -1    0    0  502    0  0.00000000000E+00  0.00000000000E+00  0.52097359150E+03  0.52097359150E+03  0.00000000000E+00 0. -1.
          1   -1    0    0  501    0 -0.00000000000E+00 -0.00000000000E+00 -0.98048997218E+03  0.98048997218E+03  0.00000000000E+00 0. -1.
         25    2    1    2    0    0  0.29769564320E+02 -0.10998614789E+02 -0.60197888113E+01  0.12910403141E+03  0.12499766631E+03 0.  0.
          2    1    1    2  501    0  0.52706792983E+02  0.10775925803E+03 -0.90007571639E+03  0.90803433798E+03  0.00000000000E+00 0. -1.
          1    1    1    2  502    0 -0.82476357303E+02 -0.96760643245E+02  0.44657912452E+03  0.46432519429E+03  0.00000000000E+00 0. -1.
         22    1    3    3    0    0  0.63052768498E+01  0.47751357960E+02 -0.34980269144E+02  0.59527875256E+02  0.00000000000E+00 0.  1.
         22    1    3    3    0    0  0.23464287470E+02 -0.58749972749E+02  0.28960480333E+02  0.69576156157E+02  0.00000000000E+00 0.  1.
</event>
<event>
 7    1  0.5779468E-006  0.1024399E+03  0.7818608E-02  0.1322948E+00
          2   -1    0    0  502    0  0.00000000000E+00  0.00000000000E+00  0.11306415528E+04  0.11306415528E+04  0.00000000000E+00 0. -1.
          1   -1    0    0  501    0 -0.00000000000E+00 -0.00000000000E+00 -0.20484029196E+03  0.20484029196E+03  0.00000000000E+00 0. -1.
         25    2    1    2    0    0  0.65310767959E+02 -0.62810278503E+02  0.17500368232E+03  0.23337399388E+03  0.12500601863E+03 0.  0.
          2    1    1    2  501    0  0.39739333427E+02  0.52624295068E+02 -0.16633114743E+03  0.17892619053E+03  0.00000000000E+00 0. -1.
          1    1    1    2  502    0 -0.10505010139E+03  0.10185983435E+02  0.91712872592E+03  0.92318166033E+03  0.00000000000E+00 0. -1.
         22    1    3    3    0    0 -0.10563976053E+01  0.25217787048E+02 -0.14845659041E+01  0.25283526167E+02  0.00000000000E+00 0. -1.
         22    1    3    3    0    0  0.66367165564E+02 -0.88028065551E+02  0.17648824822E+03  0.20809046771E+03  0.00000000000E+00 0. -1.
</event>
<event>
 7    1  0.5779468E-006  0.7194057E+02  0.7818608E-02  0.1384590E+00
          2   -1    0    0  502    0  0.00000000000E+00  0.00000000000E+00  0.91175476570E+03  0.91175476570E+03  0.00000000000E+00 0. -1.
          1   -1    0    0  501    0 -0.00000000000E+00 -0.00000000000E+00 -0.20994176945E+03  0.20994176945E+03  0.00000000000E+00 0. -1.
         25    2    1    2    0    0 -0.10832342069E+02 -0.23121796595E+02  0.21319279129E+03  0.24845064513E+03  0.12499839876E+03 0.  0.
          2    1    1    2  501    0 -0.47741652804E+02 -0.28592357665E+02 -0.18598436366E+03  0.19413132631E+03  0.00000000000E+00 0. -1.
          1    1    1    2  502    0  0.58573994872E+02  0.51714154260E+02  0.67460456862E+03  0.67911456370E+03  0.00000000000E+00 0. -1.
         22    1    3    3    0    0 -0.23408923725E+02  0.11735394585E+01 -0.86080109439E+01  0.24969035969E+02  0.00000000000E+00 0.  1.
         22    1    3    3    0    0  0.12576581656E+02 -0.24295336053E+02  0.22180080224E+03  0.22348160916E+03  0.00000000000E+00 0.  1.
</event>
<event>
 7    1  0.5779468E-006  0.6581146E+02  0.7818608E-02  0.1392945E+00
          2   -1    0    0  502    0  0.00000000000E+00  0.00000000000E+00  0.20683338650E+04  0.20683338650E+04  0.00000000000E+00 0. -1.
          1   -1    0    0  501    0 -0.00000000000E+00 -0.00000000000E+00 -0.16902270299E+03  0.16902270299E+03  0.00000000000E+00 0. -1.
         25    2    1    2    0    0 -0.24341800281E+02  0.78105526273E+02  0.37057601970E+03  0.39954934437E+03  0.12498038139E+03 0.  0.
          2    1    1    2  501    0 -0.33408716346E+02 -0.46028029727E+02 -0.14863078812E+03  0.15914092190E+03  0.00000000000E+00 0. -1.
          1    1    1    2  502    0  0.57750516626E+02 -0.32077496546E+02  0.16773659304E+04  0.16786663017E+04  0.00000000000E+00 0. -1.
         22    1    3    3    0    0  0.15097676646E+02  0.57927115877E+02  0.34115729586E+03  0.34636944310E+03  0.00000000000E+00 0. -1.
         22    1    3    3    0    0 -0.39439476927E+02  0.20178410396E+02  0.29418723839E+02  0.53179901266E+02  0.00000000000E+00 0. -1.
</event>
<event>
 7    1  0.5779468E-006  0.7492834E+02  0.7818608E-02  0.1431211E+00
          2   -1    0    0  502    0  0.00000000000E+00  0.00000000000E+00  0.48512696442E+03  0.48512696442E+03  0.00000000000E+00 0. -1.
          1   -1    0    0  501    0 -0.00000000000E+00 -0.00000000000E+00 -0.31917440731E+03  0.31917440731E+03  0.00000000000E+00 0. -1.
         25    2    1    2    0    0  0.92555083859E+02 -0.21132152686E+02 -0.18738121375E+03  0.24443791324E+03  0.12500065094E+03 0.  0.
          2    1    1    2  501    0 -0.18626914403E+02  0.32074554887E+02 -0.96750637744E+02  0.10361672121E+03  0.00000000000E+00 0. -1.
          1    1    1    2  502    0 -0.73928169456E+02 -0.10942402201E+02  0.45008440861E+03  0.45624673728E+03  0.00000000000E+00 0. -1.
         22    1    3    3    0    0  0.44871251434E+02  0.32371761795E+02 -0.15723681832E+03  0.16668766362E+03  0.00000000000E+00 0.  1.
         22    1    3    3    0    0  0.47683832425E+02 -0.53503914481E+02 -0.30144395430E+02  0.77750249617E+02  0.00000000000E+00 0.  1.
</event>
<event>
 7    1  0.5779468E-006  0.2685096E+02  0.7818608E-02  0.1639509E+00
          2   -1    0    0  502    0  0.00000000000E+00  0.00000000000E+00  0.20274632132E+04  0.20274632132E+04  0.00000000000E+00 0. -1.
          1   -1    0    0  501    0 -0.00000000000E+00 -0.00000000000E+00 -0.18341206439E+03  0.18341206439E+03  0.00000000000E+00 0. -1.
         25    2    1    2    0    0  0.11783434018E+02 -0.23241785282E+01  0.45169321722E+03  0.46882395584E+03  0.12499955186E+03 0.  0.
          2    1    1    2  501    0 -0.12254727647E+02 -0.23950860211E+02 -0.17370086691E+03  0.17577204903E+03  0.00000000000E+00 0. -1.
          1    1    1    2  502    0  0.47129362874E+00  0.26275038739E+02  0.15660587985E+04  0.15662792727E+04  0.00000000000E+00 0. -1.
         22    1    3    3    0    0  0.58638467497E+02 -0.35088744880E+02  0.25346111409E+03  0.26251138307E+03  0.00000000000E+00 0. -1.
         22    1    3    3    0    0 -0.46855033479E+02  0.32764566352E+02  0.19823210313E+03  0.20631257276E+03  0.00000000000E+00 0. -1.
</event>
<event>
 7    1  0.5779468E-006  0.1103514E+03  0.7818608E-02  0.1435429E+00
          2   -1    0    0  502    0  0.00000000000E+00  0.00000000000E+00  0.22629458643E+03  0.22629458643E+03  0.00000000000E+00 0. -1.
          1   -1    0    0  501    0 -0.00000000000E+00 -0.00000000000E+00 -0.22246334892E+03  0.22246334892E+03  0.00000000000E+00 0. -1.
         25    2    1    2    0    0 -0.39717356502E+02  0.90220266899E+02 -0.81184001148E+02  0.17869769169E+03  0.12499943202E+03 0.  0.
          2    1    1    2  501    0  0.15015162933E+02  0.19227652435E+02 -0.72599127731E+02  0.76588452676E+02  0.00000000000E+00 0. -1.
          1    1    1    2  502    0  0.24702193568E+02 -0.10944791933E+03  0.15761436639E+03  0.19347179098E+03  0.00000000000E+00 0. -1.
         22    1    3    3    0    0 -0.18815785355E+02 -0.84366819615E+01  0.24899201778E+02  0.32329268940E+02  0.00000000000E+00 0.  1.
         22    1    3    3    0    0 -0.20901571146E+02  0.98656948861E+02 -0.10608320293E+03  0.14636842275E+03  0.00000000000E+00 0.  1.
</event>
<event>
 7    1  0.5779468E-006  0.4683117E+02  0.7818608E-02  0.1474959E+00
          2   -1    0    0  502    0  0.00000000000E+00  0.00000000000E+00  0.14466747641E+04  0.14466747641E+04  0.00000000000E+00 0. -1.
          1   -1    0    0  501    0 -0.00000000000E+00 -0.00000000000E+00 -0.63467448799E+03  0.63467448799E+03  0.00000000000E+00 0. -1.
         25    2    1    2    0    0 -0.18684241663E+02 -0.20743860626E-02  0.49182580917E+02  0.13563728703E+03  0.12501778464E+03 0.  0.
          2    1    1    2  501    0  0.19434830329E+02  0.43046530932E+02 -0.59016130492E+03  0.59204820942E+03  0.00000000000E+00 0. -1.
          1    1    1    2  502    0 -0.75058866630E+00 -0.43044456546E+02  0.13529790001E+04  0.13536637556E+04  0.00000000000E+00 0. -1.
         22    1    3    3    0    0  0.21343921052E+02 -0.54414347606E+02  0.17409945305E+02  0.60988444699E+02  0.00000000000E+00 0. -1.
         22    1    3    3    0    0 -0.40028162714E+02  0.54412273220E+02  0.31772635612E+02  0.74648842329E+02  0.00000000000E+00 0. -1.
</event>
<event>
 7    1  0.5779468E-006  0.8644506E+02  0.7818608E-02  0.1376802E+00
          2   -1    0    0  502    0  0.00000000000E+00  0.00000000000E+00  0.11905477742E+04  0.11905477742E+04  0.00000000000E+00 0. -1.
          1   -1    0    0  501    0 -0.00000000000E+00 -0.00000000000E+00 -0.65577665153E+03  0.65577665153E+03  0.00000000000E+00 0. -1.
         25    2    1    2    0    0 -0.56076364631E+02 -0.42693058247E+02 -0.39157899118E+03  0.41704450530E+03  0.12499902868E+03 0.  0.
          2    1    1    2  501    0  0.10091938638E+03  0.22100153633E+02 -0.24031033912E+03  0.26157637207E+03  0.00000000000E+00 0. -1.
          1    1    1    2  502    0 -0.44843021746E+02  0.20592904614E+02  0.11666604530E+04  0.11677035484E+04  0.00000000000E+00 0. -1.
         22    1    3    3    0    0  0.16878085487E+01 -0.39227396413E+02 -0.26411409426E+02  0.47320184646E+02  0.00000000000E+00 0.  1.
         22    1    3    3    0    0 -0.57764173179E+02 -0.34656618335E+01 -0.36516758176E+03  0.36972432065E+03  0.00000000000E+00 0.  1.
</event>
<event>
 7    1  0.5779468E-006  0.1531308E+03  0.7818608E-02  0.1219709E+00
          2   -1    0    0  502    0  0.00000000000E+00  0.00000000000E+00  0.65617858852E+03  0.65617858852E+03  0.00000000000E+00 0. -1.
          1   -1    0    0  501    0 -0.00000000000E+00 -0.00000000000E+00 -0.56091842708E+03  0.56091842708E+03  0.00000000000E+00 0. -1.
         25    2    1    2    0    0  0.54455220265E+02 -0.26056310882E+02  0.14115890253E+02  0.13952783049E+03  0.12499781907E+03 0.  0.
          2    1    1    2  501    0 -0.17223642253E+03  0.49624174483E+01 -0.47677870065E+03  0.50695950551E+03  0.00000000000E+00 0. -1.
          1    1    1    2  502    0  0.11778120226E+03  0.21093893433E+02  0.55792297183E+03  0.57060967959E+03  0.00000000000E+00 0. -1.
         22    1    3    3    0    0  0.94902923996E+02 -0.12624758942E+02  0.45444459804E+01  0.95846760564E+02  0.00000000000E+00 0.  1.
         22    1    3    3    0    0 -0.40447703731E+02 -0.13431551940E+02  0.95714442730E+01  0.43681069928E+02  0.00000000000E+00 0.  1.
</event>
<event>
 7    1  0.5779468E-006  0.4902552E+02  0.7818608E-02  0.1470475E+00
          2   -1    0    0  502    0  0.00000000000E+00  0.00000000000E+00  0.37298322437E+02  0.37298322437E+02  0.00000000000E+00 0. -1.
          1   -1    0    0  501    0 -0.00000000000E+00 -0.00000000000E+00 -0.64788359252E+03  0.64788359252E+03  0.00000000000E+00 0. -1.
         25    2    1    2    0    0 -0.17172381299E+01  0.14445627438E+02 -0.12786873536E+03  0.17940891545E+03  0.12500208159E+03 0.  0.
          2    1    1    2  501    0 -0.32479787805E+02 -0.39615144075E+02 -0.44801869230E+03  0.45093796126E+03  0.00000000000E+00 0. -1.
          1    1    1    2  502    0  0.34197025935E+02  0.25169516637E+02 -0.34697842424E+02  0.54835038246E+02  0.00000000000E+00 0. -1.
         22    1    3    3    0    0  0.46899373891E+02 -0.32455243773E+02 -0.46028533081E+02  0.73290654093E+02  0.00000000000E+00 0. -1.
         22    1    3    3    0    0 -0.48616612021E+02  0.46900871211E+02 -0.81840202281E+02  0.10611826136E+03  0.00000000000E+00 0. -1.
</event>
<event>
 7    1  0.5779468E-006  0.5308546E+02  0.7818608E-02  0.1473237E+00
          2   -1    0    0  502    0  0.00000000000E+00  0.00000000000E+00  0.95486893111E+02  0.95486893111E+02  0.00000000000E+00 0. -1.
          1   -1    0    0  501    0 -0.00000000000E+00 -0.00000000000E+00 -0.47750816060E+03  0.47750816060E+03  0.00000000000E+00 0. -1.
         25    2    1    2    0    0 -0.55388632275E+02 -0.67251695638E+02 -0.79776901778E+02  0.17199425607E+03  0.12500791540E+03 0.  0.
          2    1    1    2  501    0  0.29189574742E+02  0.25023459482E+02 -0.33774595969E+03  0.33992725411E+03  0.00000000000E+00 0. -1.
          1    1    1    2  502    0  0.26199057533E+02  0.42228236156E+02  0.35501593979E+02  0.61073543532E+02  0.00000000000E+00 0. -1.
         22    1    3    3    0    0  0.31407121672E+02  0.97312043966E+01 -0.33142364662E+01  0.33046751641E+02  0.00000000000E+00 0.  1.
         22    1    3    3    0    0 -0.86795753947E+02 -0.76982900035E+02 -0.76462665312E+02  0.13894750443E+03  0.00000000000E+00 0.  1.
</event>
<event>
 7    1  0.5779468E-006  0.1482542E+03  0.7818608E-02  0.1273963E+00
          2   -1    0    0  502    0  0.00000000000E+00  0.00000000000E+00  0.16446373218E+04  0.16446373218E+04  0.00000000000E+00 0. -1.
          1   -1    0    0  501    0 -0.00000000000E+00 -0.00000000000E+00 -0.40295679393E+03  0.40295679393E+03  0.00000000000E+00 0. -1.
         25    2    1    2    0    0 -0.18884467015E+02 -0.17383071958E+03  0.62059809661E+03  0.65676616068E+03  0.12500420046E+03 0.  0.
          2    1    1    2  501    0  0.74069373401E+02  0.12811415961E+03 -0.36930497533E+03  0.39785132245E+03  0.00000000000E+00 0. -1.
          1    1    1    2  502    0 -0.55184906386E+02  0.45716559973E+02  0.99038740663E+03  0.99297663263E+03  0.00000000000E+00 0. -1.
         22    1    3    3    0    0  0.92610618218E+01 -0.12132295544E+03  0.21691746564E+03  0.24871311522E+03  0.00000000000E+00 0.  1.
         22    1    3    3    0    0 -0.28145528837E+02 -0.52507764140E+02  0.40368063097E+03  0.40805304546E+03  0.00000000000E+00 0.  1.
</event>
<event>
 7    1  0.5779468E-006  0.7967378E+02  0.7818608E-02  0.1391923E+00
          2   -1    0    0  502    0  0.00000000000E+00  0.00000000000E+00  0.13673713975E+04  0.13673713975E+04  0.00000000000E+00 0. -1.
          1   -1    0    0  501    0 -0.00000000000E+00 -0.00000000000E+00 -0.19971196320E+03  0.19971196320E+03  0.00000000000E+00 0. -1.
         25    2    1    2    0    0 -0.38609364965E+02  0.15266491583E+02 -0.56753544692E+01  0.13183707452E+03  0.12500022297E+03 0.  0.
          2    1    1    2  501    0 -0.41475704126E+02 -0.22874440353E+02 -0.12538721847E+03  0.13403517677E+03  0.00000000000E+00 0. -1.
          1    1    1    2  502    0  0.80085069091E+02  0.76079487698E+01  0.12987220073E+04  0.13012111095E+04  0.00000000000E+00 0. -1.
         22    1    3    3    0    0  0.25249800146E+02  0.25427614036E+02 -0.43941152043E+02  0.56700448022E+02  0.00000000000E+00 0.  1.
         22    1    3    3    0    0 -0.63859165111E+02 -0.10161122453E+02  0.38265797574E+02  0.75136626502E+02  0.00000000000E+00 0.  1.
</event>
<event>
 7    1  0.5779468E-006  0.7785732E+02  0.7818608E-02  0.1451692E+00
          2   -1    0    0  502    0  0.00000000000E+00  0.00000000000E+00  0.19547574957E+03  0.19547574957E+03  0.00000000000E+00 0. -1.
          1   -1    0    0  501    0 -0.00000000000E+00 -0.00000000000E+00 -0.46640439616E+03  0.46640439616E+03  0.00000000000E+00 0. -1.
         25    2    1    2    0    0  0.39764968856E+02 -0.58145266026E+02 -0.16674488952E+03  0.21998230902E+03  0.12500493348E+03 0.  0.
          2    1    1    2  501    0 -0.67147350454E+02  0.44398740858E+02 -0.26563535990E+03  0.27756469388E+03  0.00000000000E+00 0. -1.
          1    1    1    2  502    0  0.27382381598E+02  0.13746525168E+02  0.16145160282E+03  0.16433314283E+03  0.00000000000E+00 0. -1.
         22    1    3    3    0    0  0.50282861213E+02 -0.53738479663E+02 -0.18463773845E+03  0.19876439517E+03  0.00000000000E+00 0.  1.
         22    1    3    3    0    0 -0.10517892357E+02 -0.44067863626E+01  0.17892848926E+02  0.21217913855E+02  0.00000000000E+00 0.  1.
</event>
<event>
 7    1  0.5779468E-006  0.8380652E+02  0.7818608E-02  0.1416964E+00
          2   -1    0    0  502    0  0.00000000000E+00  0.00000000000E+00  0.15882362980E+04  0.15882362980E+04  0.00000000000E+00 0. -1.
          1   -1    0    0  501    0 -0.00000000000E+00 -0.00000000000E+00 -0.18142421647E+02  0.18142421647E+02  0.00000000000E+00 0. -1.
         25    2    1    2    0    0 -0.40690465629E+02  0.71671266488E+02  0.41438231197E+03  0.44060166892E+03  0.12499858299E+03 0.  0.
          2    1    1    2  501    0  0.34607133380E+02  0.13027150229E+02  0.99357995782E+02  0.10601590281E+03  0.00000000000E+00 0. -1.
          1    1    1    2  502    0  0.60833322496E+01 -0.84698416718E+02  0.10563535686E+04  0.10597611479E+04  0.00000000000E+00 0. -1.
         22    1    3    3    0    0 -0.47965530785E+02  0.10508173321E+03  0.31677227406E+03  0.33717582418E+03  0.00000000000E+00 0.  1.
         22    1    3    3    0    0  0.72750651551E+01 -0.33410466721E+02  0.97610037910E+02  0.10342584474E+03  0.00000000000E+00 0.  1.
</event>
<event>
 7    1  0.5779468E-006  0.8134899E+02  0.7818608E-02  0.1337424E+00
          2   -1    0    0  502    0  0.00000000000E+00  0.00000000000E+00  0.47923986394E+03  0.47923986394E+03  0.00000000000E+00 0. -1.
          1   -1    0    0  501    0 -0.00000000000E+00 -0.00000000000E+00 -0.17403538094E+04  0.17403538094E+04  0.00000000000E+00 0. -1.
         25    2    1    2    0    0 -0.12898107123E+02 -0.19739409454E+02 -0.50147218686E+03  0.51735436642E+03  0.12500072325E+03 0.  0.
          2    1    1    2  501    0  0.50329531361E+02 -0.53034365098E+02 -0.12262909729E+04  0.12284686630E+04  0.00000000000E+00 0. -1.
          1    1    1    2  502    0 -0.37431424238E+02  0.72773774552E+02  0.46664921435E+03  0.47377064392E+03  0.00000000000E+00 0. -1.
         22    1    3    3    0    0 -0.38453796914E+02  0.15781950934E+02 -0.43966034394E+03  0.44162085832E+03  0.00000000000E+00 0. -1.
         22    1    3    3    0    0  0.25555689791E+02 -0.35521360388E+02 -0.61811842917E+02  0.75733508101E+02  0.00000000000E+00 0. -1.
</event>
<event>
 7    1  0.5779468E-006  0.4950544E+02  0.7818608E-02  0.1490338E+00
          2   -1    0    0  502    0  0.00000000000E+00  0.00000000000E+00  0.15452774109E+03  0.15452774109E+03  0.00000000000E+00 0. -1.
          1   -1    0    0  501    0 -0.00000000000E+00 -0.00000000000E+00 -0.17390208146E+04  0.17390208146E+04  0.00000000000E+00 0. -1.
         25    2    1    2    0    0 -0.41995531657E+02 -0.11519058969E+01 -0.30514741143E+03  0.33242236083E+03  0.12499892682E+03 0.  0.
          2    1    1    2  501    0  0.36013249345E+02 -0.34902803736E+02 -0.14174148059E+04  0.14183017633E+04  0.00000000000E+00 0. -1.
          1    1    1    2  502    0  0.59822823128E+01  0.36054709633E+02  0.13806914379E+03  0.14282443158E+03  0.00000000000E+00 0. -1.
         22    1    3    3    0    0  0.27526358006E+02 -0.23289084152E+02 -0.27495425273E+02  0.45344020958E+02  0.00000000000E+00 0.  1.
         22    1    3    3    0    0 -0.69521889663E+02  0.22137178255E+02 -0.27765198616E+03  0.28707833987E+03  0.00000000000E+00 0.  1.
</event>
<event>
 7    1  0.5779468E-006  0.8159549E+02  0.7818608E-02  0.1350964E+00
          2   -1    0    0  502    0  0.00000000000E+00  0.00000000000E+00  0.66903730878E+02  0.66903730878E+02  0.00000000000E+00 0. -1.
          1   -1    0    0  501    0 -0.00000000000E+00 -0.00000000000E+00 -0.27471381393E+04  0.27471381393E+04  0.00000000000E+00 0. -1.
         25    2    1    2    0    0 -0.11197209438E+02  0.40557983659E+02 -0.10698937095E+04  0.10779928744E+04  0.12500304002E+03 0.  0.
          2    1    1    2  501    0 -0.25642885853E+02 -0.93956855915E+02 -0.16546329970E+04  0.16574968486E+04  0.00000000000E+00 0. -1.
          1    1    1    2  502    0  0.36840095291E+02  0.53398872256E+02  0.44292298010E+02  0.78552147280E+02  0.00000000000E+00 0. -1.
         22    1    3    3    0    0 -0.26768069067E+02  0.66827234186E+02 -0.34374126481E+03  0.35119861316E+03  0.00000000000E+00 0. -1.
         22    1    3    3    0    0  0.15570859629E+02 -0.26269250527E+02 -0.72615244468E+03  0.72679426120E+03  0.00000000000E+00 0. -1.
</event>
<event>
 7    1  0.5779468E-006  0.1085588E+03  0.7818608E-02  0.1317494E+00
          2   -1    0    0  502    0  0.00000000000E+00  0.00000000000E+00  0.22356135569E+04  0.22356135569E+04  0.00000000000E+00 0. -1.
          1   -1    0    0  501    0 -0.00000000000E+00 -0.00000000000E+00 -0.35631921178E+02  0.35631921178E+02  0.00000000000E+00 0. -1.
         25    2    1    2    0    0 -0.70804885819E+02  0.78937974568E+02  0.39673675988E+03  0.42927311000E+03  0.12502324042E+03 0.  0.
          2    1    1    2  501    0 -0.37013541635E+02 -0.53836191357E+02  0.42918658745E+02  0.78168721575E+02  0.00000000000E+00 0. -1.
          1    1    1    2  502    0  0.10781842745E+03 -0.25101783211E+02  0.17603262171E+04  0.17638036465E+04  0.00000000000E+00 0. -1.
         22    1    3    3    0    0 -0.84767227636E+02  0.64497559981E+01  0.15847139903E+03  0.17983399719E+03  0.00000000000E+00 0. -1.
         22    1    3    3    0    0  0.13962341817E+02  0.72488218569E+02  0.23826536085E+03  0.24943911281E+03  0.00000000000E+00 0. -1.
</event>
<event>
 7    1  0.5779468E-006  0.2232936E+03  0.7818608E-02  0.1144873E+00
          2   -1    0    0  502    0  0.00000000000E+00  0.00000000000E+00  0.12649277439E+03  0.12649277439E+03  0.00000000000E+00 0. -1.
          1   -1    0    0  501    0 -0.00000000000E+00 -0.00000000000E+00 -0.20570397806E+04  0.20570397806E+04  0.00000000000E+00 0. -1.
         25    2    1    2    0    0  0.63631175458E+02  0.11575618550E+03 -0.46027815179E+03  0.49490339883E+03  0.12499990474E+03 0.  0.
          2    1    1    2  501    0 -0.21805992851E+03 -0.22613396214E+03 -0.14654556951E+04  0.14987485098E+04  0.00000000000E+00 0. -1.
          1    1    1    2  502    0  0.15442875305E+03  0.11037777664E+03 -0.48131592520E+01  0.18988064632E+03  0.00000000000E+00 0. -1.
         22    1    3    3    0    0  0.94581154950E+02  0.11200868522E+03 -0.41322558873E+03  0.43845972177E+03  0.00000000000E+00 0.  1.
         22    1    3    3    0    0 -0.30949979493E+02  0.37475002744E+01 -0.47052563063E+02  0.56443677057E+02  0.00000000000E+00 0.  1.
</event>
<event>
 7    1  0.5779468E-006  0.2538394E+02  0.7818608E-02  0.1664344E+00
          2   -1    0    0  502    0  0.00000000000E+00  0.00000000000E+00  0.27411573662E+03  0.27411573662E+03  0.00000000000E+00 0. -1.
          1   -1    0    0  501    0 -0.00000000000E+00 -0.00000000000E+00 -0.29030226142E+03  0.29030226142E+03  0.00000000000E+00 0. -1.
         25    2    1    2    0    0 -0.14535666452E+02  0.48654988361E+01  0.14064421709E+03  0.18879005466E+03  0.12500372098E+03 0.  0.
          2    1    1    2  501    0  0.16708726406E+02  0.19205313142E+02 -0.26427537475E+03  0.26549858623E+03  0.00000000000E+00 0. -1.
          1    1    1    2  502    0 -0.21730599539E+01 -0.24070811979E+02  0.10744463286E+03  0.11012935716E+03  0.00000000000E+00 0. -1.
         22    1    3    3    0    0 -0.19499050443E+02  0.63700277731E+02  0.80803642284E+02  0.10472424245E+03  0.00000000000E+00 0. -1.
         22    1    3    3    0    0  0.49633839911E+01 -0.58834778895E+02  0.59840574807E+02  0.84065812204E+02  0.00000000000E+00 0. -1.
</event>
<event>
 7    1  0.5779468E-006  0.7825475E+02  0.7818608E-02  0.1452017E+00
          2   -1    0    0  502    0  0.00000000000E+00  0.00000000000E+00  0.33655873511E+03  0.33655873511E+03  0.00000000000E+00 0. -1.
          1   -1    0    0  501    0 -0.00000000000E+00 -0.00000000000E+00 -0.26046033836E+03  0.26046033836E+03  0.00000000000E+00 0. -1.
         25    2    1    2    0    0 -0.43172685563E+02 -0.50252354724E+02 -0.53348039221E+02  0.15119436970E+03  0.12499817682E+03 0.  0.
          2    1    1    2  501    0  0.71545448284E+02  0.39306036090E+02 -0.14676749002E+03  0.16794169158E+03  0.00000000000E+00 0. -1.
          1    1    1    2  502    0 -0.28372762721E+02  0.10946318633E+02  0.27621392599E+03  0.27788301220E+03  0.00000000000E+00 0. -1.
         22    1    3    3    0    0  0.14582982668E+02  0.26334246338E+02 -0.46021281695E+02  0.54991947434E+02  0.00000000000E+00 0. -1.
         22    1    3    3    0    0 -0.57755668231E+02 -0.76586601062E+02 -0.73267575255E+01  0.96202422271E+02  0.00000000000E+00 0. -1.
</event>
<event>
 7    1  0.5779468E-006  0.7188928E+02  0.7818608E-02  0.1415637E+00
          2   -1    0    0  502    0  0.00000000000E+00  0.00000000000E+00  0.90534644394E+03  0.90534644394E+03  0.00000000000E+00 0. -1.
          1   -1    0    0  501    0 -0.00000000000E+00 -0.00000000000E+00 -0.51478045098E+03  0.51478045098E+03  0.00000000000E+00 0. -1.
         25    2    1    2    0    0  0.16449169838E+02 -0.11077173327E+03  0.25182989395E+02  0.16970465816E+03  0.12499814385E+03 0.  0.
          2    1    1    2  501    0  0.55229513667E+01  0.43200482635E+02 -0.43987988048E+03  0.44203064820E+03  0.00000000000E+00 0. -1.
          1    1    1    2  502    0 -0.21972121205E+02  0.67571250637E+02  0.80526288405E+03  0.80839158856E+03  0.00000000000E+00 0. -1.
         22    1    3    3    0    0 -0.20887450840E+02 -0.10209851968E+03 -0.24401545309E+02  0.10703190523E+03  0.00000000000E+00 0.  1.
         22    1    3    3    0    0  0.37336620678E+02 -0.86732135875E+01  0.49584534704E+02  0.62672752927E+02  0.00000000000E+00 0.  1.
</event>
<event>
 7    1  0.5779468E-006  0.5684165E+02  0.7818608E-02  0.1422873E+00
          2   -1    0    0  502    0  0.00000000000E+00  0.00000000000E+00  0.23180803288E+04  0.23180803288E+04  0.00000000000E+00 0. -1.
          1   -1    0    0  501    0 -0.00000000000E+00 -0.00000000000E+00 -0.69988277218E+02  0.69988277218E+02  0.00000000000E+00 0. -1.
         25    2    1    2    0    0 -0.26215137950E+02 -0.20362449247E+02  0.93443893748E+03  0.94334827658E+03  0.12501192050E+03 0.  0.
          2    1    1    2  501    0 -0.33585495123E+02  0.39826129479E+02 -0.54341950400E+02  0.75280499767E+02  0.00000000000E+00 0. -1.
          1    1    1    2  502    0  0.59800633073E+02 -0.19463680232E+02  0.13679950645E+04  0.13694398297E+04  0.00000000000E+00 0. -1.
         22    1    3    3    0    0  0.30802282170E+02 -0.21506684356E+02  0.97788111395E+02  0.10475606326E+03  0.00000000000E+00 0. -1.
         22    1    3    3    0    0 -0.57017420120E+02  0.11442351084E+01  0.83665082608E+03  0.83859221333E+03  0.00000000000E+00 0. -1.
</event>
<event>
 7    1  0.5779468E-006  0.1011800E+03  0.7818608E-02  0.1375185E+00
          2   -1    0    0  502    0  0.00000000000E+00  0.00000000000E+00  0.59151103021E+03  0.59151103021E+03  0.00000000000E+00 0. -1.
          1   -1    0    0  501    0 -0.00000000000E+00 -0.00000000000E+00 -0.20209090355E+03  0.20209090355E+03  0.00000000000E+00 0. -1.
         25    2    1    2    0    0 -0.70716771294E+02 -0.12113398355E+03 -0.46191038839E+02  0.19347515153E+03  0.12499887391E+03 0.  0.
          2    1    1    2  501    0  0.11207889600E+02  0.41225824267E+02 -0.71516088301E+02  0.83305079447E+02  0.00000000000E+00 0. -1.
          1    1    1    2  502    0  0.59508881694E+02  0.79908159279E+02  0.50712725380E+03  0.51682170278E+03  0.00000000000E+00 0. -1.
         22    1    3    3    0    0 -0.10626429591E+03 -0.80048541290E+02 -0.39215805134E+02  0.13870021240E+03  0.00000000000E+00 0. -1.
         22    1    3    3    0    0  0.35547524614E+02 -0.41085442256E+02 -0.69752337053E+01  0.54774939130E+02  0.00000000000E+00 0. -1.
</event>
<event>
 7    1  0.5779468E-006  0.6075232E+02  0.7818608E-02  0.1434374E+00
          2   -1    0    0  502    0  0.00000000000E+00  0.00000000000E+00  0.82829533037E+03  0.82829533037E+03  0.00000000000E+00 0. -1.
          1   -1    0    0  501    0 -0.00000000000E+00 -0.00000000000E+00 -0.49007333898E+02  0.49007333898E+02  0.00000000000E+00 0. -1.
         25    2    1    2    0    0  0.77578184279E+02 -0.47534480470E+02  0.28658726002E+03  0.32562725345E+03  0.12499179603E+03 0.  0.
          2    1    1    2  501    0 -0.44652551102E+02 -0.11024737612E+01 -0.98208858197E+01  0.45733090499E+02  0.00000000000E+00 0. -1.
          1    1    1    2  502    0 -0.32925633177E+02  0.48636954232E+02  0.50252162227E+03  0.50594232031E+03  0.00000000000E+00 0. -1.
         22    1    3    3    0    0 -0.18442630317E+02  0.13403087215E+02  0.13065497497E+03  0.13262916665E+03  0.00000000000E+00 0.  1.
         22    1    3    3    0    0  0.96020814596E+02 -0.60937567686E+02  0.15593228505E+03  0.19299808681E+03  0.00000000000E+00 0.  1.
</event>
<event>
 7    1  0.5779468E-006  0.1465684E+03  0.7818608E-02  0.1207082E+00
          2   -1    0    0  502    0  0.00000000000E+00  0.00000000000E+00  0.11722870573E+04  0.11722870573E+04  0.00000000000E+00 0. -1.
          1   -1    0    0  501    0 -0.00000000000E+00 -0.00000000000E+00 -0.31059910117E+03  0.31059910117E+03  0.00000000000E+00 0. -1.
         25    2    1    2    0    0  0.42148772211E+02 -0.10333220552E+03  0.15778825821E+03  0.23017792380E+03  0.12502271186E+03 0.  0.
          2    1    1    2  501    0  0.11880675130E+03  0.79488188537E+02 -0.24840761857E+03  0.28660035108E+03  0.00000000000E+00 0. -1.
          1    1    1    2  502    0 -0.16095552351E+03  0.23844016982E+02  0.95230731654E+03  0.96610788364E+03  0.00000000000E+00 0. -1.
         22    1    3    3    0    0  0.25983802476E+02  0.70378561521E+01 -0.99802074872E+01  0.28710519881E+02  0.00000000000E+00 0.  1.
         22    1    3    3    0    0  0.16164969735E+02 -0.11037006167E+03  0.16776846570E+03  0.20146740392E+03  0.00000000000E+00 0.  1.
</event>
<event>
 7    1  0.5779468E-006  0.1046975E+03  0.7818608E-02  0.1290429E+00
          2   -1    0    0  502    0  0.00000000000E+00  0.00000000000E+00  0.64398932862E+03  0.64398932862E+03  0.00000000000E+00 0. -1.
          1   -1    0    0  501    0 -0.00000000000E+00 -0.00000000000E+00 -0.45998533521E+03  0.45998533521E+03  0.00000000000E+00 0. -1.
         25    2    1    2    0    0 -0.79217100940E+02 -0.37269612924E+02 -0.34683907693E+01  0.15264859556E+03  0.12500076345E+03 0.  0.
          2    1    1    2  501    0  0.99029083196E+02 -0.47244054339E+02 -0.37062153181E+03  0.38652177149E+03  0.00000000000E+00 0. -1.
          1    1    1    2  502    0 -0.19811982257E+02  0.84513667263E+02  0.55809391599E+03  0.56480429678E+03  0.00000000000E+00 0. -1.
         22    1    3    3    0    0 -0.62736074805E+02  0.36893224450E+02 -0.18746516919E+02  0.75155551949E+02  0.00000000000E+00 0.  1.
         22    1    3    3    0    0 -0.16481026135E+02 -0.74162837374E+02  0.15278126150E+02  0.77493043613E+02  0.00000000000E+00 0.  1.
</event>
<event>
 7    1  0.5779468E-006  0.1063967E+03  0.7818608E-02  0.1408680E+00
          2   -1    0    0  502    0  0.00000000000E+00  0.00000000000E+00  0.58288213794E+03  0.58288213794E+03  0.00000000000E+00 0. -1.
          1   -1    0    0  501    0 -0.00000000000E+00 -0.00000000000E+00 -0.14646447212E+04  0.14646447212E+04  0.00000000000E+00 0. -1.
         25    2    1    2    0    0  0.20027387359E+02  0.74347240741E+02 -0.44743270908E+02  0.15348412977E+03  0.12500723719E+03 0.  0.
          2    1    1    2  501    0  0.66329083226E+01  0.30346842502E+02 -0.13598308065E+04  0.13601855567E+04  0.00000000000E+00 0. -1.
          1    1    1    2  502    0 -0.26660295682E+02 -0.10469408324E+03  0.52281149414E+03  0.53385717269E+03  0.00000000000E+00 0. -1.
         22    1    3    3    0    0 -0.34696112619E+02 -0.12074690057E+01  0.19871353379E+02  0.40001861174E+02  0.00000000000E+00 0.  1.
         22    1    3    3    0    0  0.54723499979E+02  0.75554709747E+02 -0.64614624287E+02  0.11348226860E+03  0.00000000000E+00 0.  1.
</event>
<event>
 7    1  0.5779468E-006  0.5219671E+02  0.7818608E-02  0.1474047E+00
          2   -1    0    0  502    0  0.00000000000E+00  0.00000000000E+00  0.21951966584E+04  0.21951966584E+04  0.00000000000E+00 0. -1.
          1   -1    0    0  501    0 -0.00000000000E+00 -0.00000000000E+00 -0.10052115769E+02  0.10052115769E+02  0.00000000000E+00 0. -1.
         25    2    1    2    0    0 -0.15862386337E+02  0.93190255661E+01  0.81228391453E+03  0.82205207960E+03  0.12500401687E+03 0.  0.
          2    1    1    2  501    0 -0.38216003682E+02  0.71390295428E+01  0.78472927535E+02  0.87575276398E+02  0.00000000000E+00 0. -1.
          1    1    1    2  502    0  0.54078390019E+02 -0.16458055109E+02  0.12943877006E+04  0.12956214182E+04  0.00000000000E+00 0. -1.
         22    1    3    3    0    0  0.35000330338E+02  0.39725577633E+02  0.57686580918E+03  0.57929034728E+03  0.00000000000E+00 0.  1.
         22    1    3    3    0    0 -0.50862716675E+02 -0.30406552067E+02  0.23541810534E+03  0.24276173232E+03  0.00000000000E+00 0.  1.
</event>
<event>
 7    1  0.5779468E-006  0.1240967E+03  0.7818608E-02  0.1272940E+00
          2   -1    0    0  502    0  0.00000000000E+00  0.00000000000E+00  0.70644773687E+03  0.70644773687E+03  0.00000000000E+00 0. -1.
          1   -1    0    0  501    0 -0.00000000000E+00 -0.00000000000E+00 -0.31891693990E+03  0.31891693990E+03  0.00000000000E+00 0. -1.
         25    2    1    2    0    0 -0.16619286277E+03 -0.94381688481E+00  0.54822964161E+03  0.58634629088E+03  0.12500109786E+03 0.  0.
          2    1    1    2  501    0  0.79770460995E+02  0.33339828851E+02 -0.27721064934E+03  0.29038012112E+03  0.00000000000E+00 0. -1.
          1    1    1    2  502    0  0.86422401771E+02 -0.32396011966E+02  0.11651180470E+03  0.14863826477E+03  0.00000000000E+00 0. -1.
         22    1    3    3    0    0 -0.32379637503E+02  0.11621323351E+02  0.16989939404E+02  0.38368660678E+02  0.00000000000E+00 0.  1.
         22    1    3    3    0    0 -0.13381322526E+03 -0.12565140236E+02  0.53123970220E+03  0.54797763020E+03  0.00000000000E+00 0.  1.
</event>
<event>
 7    1  0.5779468E-006  0.9252312E+02  0.7818608E-02  0.1317116E+00
          2   -1    0    0  502    0  0.00000000000E+00  0.00000000000E+00  0.60167796994E+03  0.60167796994E+03  0.00000000000E+00 0. -1.
          1   -1    0    0  501    0 -0.00000000000E+00 -0.00000000000E+00 -0.15027706380E+03  0.15027706380E+03  0.00000000000E+00 0. -1.
         25    2    1    2    0    0 -0.14454824853E+03 -0.69579766608E+01  0.27739347375E+03  0.33691897657E+03  0.12499859162E+03 0.  0.
          2    1    1    2  501    0  0.78038683030E+02  0.45591461820E+02 -0.97439333180E+02  0.13290237428E+03  0.00000000000E+00 0. -1.
          1    1    1    2  502    0  0.66509565496E+02 -0.38633485159E+02  0.27144676557E+03  0.28213368288E+03  0.00000000000E+00 0. -1.
         22    1    3    3    0    0 -0.91097902051E+02 -0.44213092341E+02  0.24298135020E+03  0.26323670306E+03  0.00000000000E+00 0. -1.
         22    1    3    3    0    0 -0.53450346475E+02  0.37255115680E+02  0.34412123541E+02  0.73682273507E+02  0.00000000000E+00 0. -1.
</event>
<event>
 7    1  0.5779468E-006  0.1059566E+03  0.7818608E-02  0.1312397E+00
          2   -1    0    0  502    0  0.00000000000E+00  0.00000000000E+00  0.11798803234E+03  0.11798803234E+03  0.00000000000E+00 0. -1.
          1   -1    0    0  501    0 -0.00000000000E+00 -0.00000000000E+00 -0.90220489733E+03  0.90220489733E+03  0.00000000000E+00 0. -1.
         25    2    1    2    0    0  0.15882428802E+03  0.27841910067E+02 -0.42582859763E+03  0.47218172407E+03  0.12500103826E+03 0.  0.
          2    1    1    2  501    0 -0.56830565594E+02 -0.41007555695E+02 -0.42154214599E+03  0.42732787606E+03  0.00000000000E+00 0. -1.
          1    1    1    2  502    0 -0.10199372243E+03  0.13165645628E+02  0.63153878641E+02  0.12068332953E+03  0.00000000000E+00 0. -1.
         22    1    3    3    0    0  0.17132993413E+03  0.45943298371E+02 -0.33893757254E+03  0.38254857348E+03  0.00000000000E+00 0.  1.
         22    1    3    3    0    0 -0.12505646108E+02 -0.18101388305E+02 -0.86891025098E+02  0.89633150596E+02  0.00000000000E+00 0.  1.
</event>
<event>
 7    1  0.5779468E-006  0.3290584E+02  0.7818608E-02  0.1620617E+00
          2   -1    0    0  502    0  0.00000000000E+00  0.00000000000E+00  0.24476622917E+04  0.24476622917E+04  0.00000000000E+00 0. -1.
          1   -1    0    0  501    0 -0.00000000000E+00 -0.00000000000E+00 -0.65796083383E+01  0.65796083383E+01  0.00000000000E+00 0. -1.
         25    2    1    2    0    0 -0.17993513953E+02  0.53063628503E+02  0.81895371679E+03  0.83033120003E+03  0.12500078514E+03 0.  0.
          2    1    1    2  501    0  0.88690497217E+01 -0.22217656086E+02  0.20112727520E+03  0.20254497059E+03  0.00000000000E+00 0. -1.
          1    1    1    2  502    0  0.91244642313E+01 -0.30845972417E+02  0.14210016914E+04  0.14213657294E+04  0.00000000000E+00 0. -1.
         22    1    3    3    0    0 -0.48749543673E+02  0.46838443143E+02  0.21094631987E+03  0.22151457656E+03  0.00000000000E+00 0. -1.
         22    1    3    3    0    0  0.30756029720E+02  0.62251853604E+01  0.60800739692E+03  0.60881662347E+03  0.00000000000E+00 0. -1.
</event>
<event>
 7    1  0.5779468E-006  0.1019977E+03  0.7818608E-02  0.1408975E+00
          2   -1    0    0  502    0  0.00000000000E+00  0.00000000000E+00  0.13551318073E+04  0.13551318073E+04  0.00000000000E+00 0. -1.
          1   -1    0    0  501    0 -0.00000000000E+00 -0.00000000000E+00 -0.37685367710E+02  0.37685367710E+02  0.00000000000E+00 0. -1.
         25    2    1    2    0    0  0.36324771876E+02 -0.11148140846E+03  0.10307955595E+04  0.10449461796E+04  0.12500175704E+03 0.  0.
          2    1    1    2  501    0  0.33546061145E+01  0.32153903929E+02 -0.13391927457E+02  0.34992436913E+02  0.00000000000E+00 0. -1.
          1    1    1    2  502    0 -0.39679377991E+02  0.79327504534E+02  0.30004280746E+03  0.31287855843E+03  0.00000000000E+00 0. -1.
         22    1    3    3    0    0 -0.31381842998E+02 -0.31351773250E+02  0.59702337013E+03  0.59866907239E+03  0.00000000000E+00 0.  1.
         22    1    3    3    0    0  0.67706614875E+02 -0.80129635213E+02  0.43377218940E+03  0.44627710723E+03  0.00000000000E+00 0.  1.
</event>
<event>
 7    1  0.5779468E-006  0.9125774E+02  0.7818608E-02  0.1409213E+00
          2   -1    0    0  502    0  0.00000000000E+00  0.00000000000E+00  0.47844470111E+03  0.47844470111E+03  0.00000000000E+00 0. -1.
          1   -1    0    0  501    0 -0.00000000000E+00 -0.00000000000E+00 -0.10681279175E+03  0.10681279175E+03  0.00000000000E+00 0. -1.
         25    2    1    2    0    0  0.42198604151E+02 -0.50987970500E+02  0.33330203726E+02  0.14531721207E+03  0.12500277723E+03 0.  0.
          2    1    1    2  501    0  0.36041280099E+02 -0.13323166862E+01 -0.37796864774E+02  0.52243199803E+02  0.00000000000E+00 0. -1.
          1    1    1    2  502    0 -0.78239884250E+02  0.52320287186E+02  0.37609857041E+03  0.38769708098E+03  0.00000000000E+00 0. -1.
         22    1    3    3    0    0  0.82697399910E+02 -0.50009926796E+02  0.39378380427E+02  0.10435760430E+03  0.00000000000E+00 0.  1.
         22    1    3    3    0    0 -0.40498795759E+02 -0.97804370413E+00 -0.60481767003E+01  0.40959607772E+02  0.00000000000E+00 0.  1.
</event>
<event>
 7    1  0.5779468E-006  0.8224559E+02  0.7818608E-02  0.1446477E+00
          2   -1    0    0  502    0  0.00000000000E+00  0.00000000000E+00  0.27542308226E+04  0.27542308226E+04  0.00000000000E+00 0. -1.
          1   -1    0    0  501    0 -0.00000000000E+00 -0.00000000000E+00 -0.91394451885E+02  0.91394451885E+02  0.00000000000E+00 0. -1.
         25    2    1    2    0    0  0.11039709636E+03 -0.96929677470E+01  0.39152443193E+03  0.42567371684E+03  0.12500103961E+03 0.  0.
          2    1    1    2  501    0 -0.30102518181E+02 -0.15451231702E+01 -0.70532936448E+02  0.76703612238E+02  0.00000000000E+00 0. -1.
          1    1    1    2  502    0 -0.80294578182E+02  0.11238090917E+02  0.23418448752E+04  0.23432479454E+04  0.00000000000E+00 0. -1.
         22    1    3    3    0    0  0.13788485091E+03 -0.10131802347E+02  0.30467161967E+03  0.33457388027E+03  0.00000000000E+00 0.  1.
         22    1    3    3    0    0 -0.27487754545E+02  0.43883459953E+00  0.86852812256E+02  0.91099836567E+02  0.00000000000E+00 0.  1.
</event>
<event>
 7    1  0.5779468E-006  0.9422402E+02  0.7818608E-02  0.1360748E+00
          2   -1    0    0  502    0  0.00000000000E+00  0.00000000000E+00  0.74426877696E+03  0.74426877696E+03  0.00000000000E+00 0. -1.
          1   -1    0    0  501    0 -0.00000000000E+00 -0.00000000000E+00 -0.72693389337E+03  0.72693389337E+03  0.00000000000E+00 0. -1.
         25    2    1    2    0    0  0.10779082433E+03  0.12394934847E+01  0.76009842391E+02  0.18172078755E+03  0.12499820132E+03 0.  0.
          2    1    1    2  501    0 -0.83170397846E+02  0.44242720659E+02 -0.66968919025E+03  0.67628274039E+03  0.00000000000E+00 0. -1.
          1    1    1    2  502    0 -0.24620426488E+02 -0.45482214144E+02  0.61101423145E+03  0.61319914240E+03  0.00000000000E+00 0. -1.
         22    1    3    3    0    0  0.49181184348E+02 -0.60190618030E+01  0.10487219080E+03  0.11598790628E+03  0.00000000000E+00 0. -1.
         22    1    3    3    0    0  0.58609639986E+02  0.72585552878E+01 -0.28862348413E+02  0.65732881269E+02  0.00000000000E+00 0. -1.
</event>
<event>
 7    1  0.5779468E-006  0.1764580E+03  0.7818608E-02  0.1205587E+00
          2   -1    0    0  502    0  0.00000000000E+00  0.00000000000E+00  0.49904265468E+03  0.49904265468E+03  0.00000000000E+00 0. -1.
          1   -1    0    0  501    0 -0.00000000000E+00 -0.00000000000E+00 -0.14084741347E+04  0.14084741347E+04  0.00000000000E+00 0. -1.
         25    2    1    2    0    0  0.65558473424E+02  0.14991281022E+03 -0.36950900690E+03  0.42300471190E+03  0.12499726398E+03 0.  0.
          2    1    1    2  501    0 -0.16902575561E+03 -0.87845583411E+02 -0.99532888954E+03  0.10133933841E+04  0.00000000000E+00 0. -1.
          1    1    1    2  502    0  0.10346728218E+03 -0.62067226812E+02  0.45540641643E+03  0.47111869338E+03  0.00000000000E+00 0. -1.
         22    1    3    3    0    0  0.75009444149E+02  0.26765638813E+02 -0.11224600071E+03  0.13762986888E+03  0.00000000000E+00 0. -1.
         22    1    3    3    0    0 -0.94509707257E+01  0.12314717141E+03 -0.25726300619E+03  0.28537484302E+03  0.00000000000E+00 0. -1.
</event>
<event>
 7    1  0.5779468E-006  0.9627775E+02  0.7818608E-02  0.1330127E+00
          2   -1    0    0  502    0  0.00000000000E+00  0.00000000000E+00  0.18814916952E+04  0.18814916952E+04  0.00000000000E+00 0. -1.
          1   -1    0    0  501    0 -0.00000000000E+00 -0.00000000000E+00 -0.64614746002E+02  0.64614746002E+02  0.00000000000E+00 0. -1.
         25    2    1    2    0    0  0.12717092529E+03  0.77028525639E+02  0.21609610311E+03  0.29056572363E+03  0.12500030388E+03 0.  0.
          2    1    1    2  501    0 -0.65640206540E+02 -0.52252996135E+01  0.15767726988E+02  0.67709391409E+02  0.00000000000E+00 0. -1.
          1    1    1    2  502    0 -0.61530718747E+02 -0.71803226025E+02  0.15850131191E+04  0.15878313262E+04  0.00000000000E+00 0. -1.
         22    1    3    3    0    0 -0.21194648274E+02  0.31747396344E+02  0.54776317987E+02  0.66764925690E+02  0.00000000000E+00 0. -1.
         22    1    3    3    0    0  0.14836557356E+03  0.45281129295E+02  0.16131978512E+03  0.22380079794E+03  0.00000000000E+00 0. -1.
</event>
<event>
 7    1  0.5779468E-006  0.6835391E+02  0.7818608E-02  0.1383773E+00
          2   -1    0    0  502    0  0.00000000000E+00  0.00000000000E+00  0.18365901587E+04  0.18365901587E+04  0.00000000000E+00 0. -1.
          1   -1    0    0  501    0 -0.00000000000E+00 -0.00000000000E+00 -0.80993999250E+03  0.80993999250E+03  0.00000000000E+00 0. -1.
         25    2    1    2    0    0 -0.80476437747E+02 -0.88251711730E+02 -0.28819139778E+02  0.17527025574E+03  0.12499719227E+03 0.  0.
          2    1    1    2  501    0  0.58381180502E+02  0.33590773467E+02 -0.70579873871E+03  0.70900533274E+03  0.00000000000E+00 0. -1.
          1    1    1    2  502    0  0.22095257245E+02  0.54660938263E+02  0.17612680447E+04  0.17622545627E+04  0.00000000000E+00 0. -1.
         22    1    3    3    0    0 -0.48054485801E+02 -0.10494754048E+03 -0.57424424027E+02  0.12892162089E+03  0.00000000000E+00 0. -1.
         22    1    3    3    0    0 -0.32421951947E+02  0.16695828751E+02  0.28605284249E+02  0.46348634852E+02  0.00000000000E+00 0. -1.
</event>
<event>
 7    1  0.5779468E-006  0.3485449E+02  0.7818608E-02  0.1593828E+00
          2   -1    0    0  502    0  0.00000000000E+00  0.00000000000E+00  0.64489083772E+03  0.64489083772E+03  0.00000000000E+00 0. -1.
          1   -1    0    0  501    0 -0.00000000000E+00 -0.00000000000E+00 -0.13520247700E+03  0.13520247700E+03  0.00000000000E+00 0. -1.
         25    2    1    2    0    0 -0.25458883171E+01  0.31748782204E+02  0.41200384221E+03  0.43172289167E+03  0.12499208967E+03 0.  0.
          2    1    1    2  501    0  0.26214998374E+02 -0.38462293590E+01 -0.12241539143E+03  0.12524994083E+03  0.00000000000E+00 0. -1.
          1    1    1    2  502    0 -0.23669110057E+02 -0.27902552845E+02  0.22009990994E+03  0.22312048221E+03  0.00000000000E+00 0. -1.
         22    1    3    3    0    0 -0.31676202119E+02  0.89895138435E+01  0.21171573227E+02  0.39146246981E+02  0.00000000000E+00 0. -1.
         22    1    3    3    0    0  0.29130313802E+02  0.22759268360E+02  0.39083226898E+03  0.39257664469E+03  0.00000000000E+00 0. -1.
</event>
<event>
 7    1  0.5779468E-006  0.5211012E+03  0.7818608E-02  0.1131298E+00
          2   -1    0    0  502    0  0.00000000000E+00  0.00000000000E+00  0.13396472527E+04  0.13396472527E+04  0.00000000000E+00 0. -1.
          1   -1    0    0  501    0 -0.00000000000E+00 -0.00000000000E+00 -0.18581825578E+04  0.18581825578E+04  0.00000000000E+00 0. -1.
         25    2    1    2    0    0  0.38601451244E+03  0.27925478692E+03 -0.89075885441E+03  0.10178737862E+04  0.12500107207E+03 0.  0.
          2    1    1    2  501    0 -0.18359138169E+02  0.94086821251E+02 -0.84726096371E+03  0.85266671597E+03  0.00000000000E+00 0. -1.
          1    1    1    2  502    0 -0.36765537427E+03 -0.37334160817E+03  0.12194845130E+04  0.13272893084E+04  0.00000000000E+00 0. -1.
         22    1    3    3    0    0  0.38481622285E+03  0.27814213953E+03 -0.82337328962E+03  0.95046838412E+03  0.00000000000E+00 0.  1.
         22    1    3    3    0    0  0.11982895823E+01  0.11126473866E+01 -0.67385564792E+02  0.67405402042E+02  0.00000000000E+00 0.  1.
</event>
<event>
 7    1  0.5779468E-006  0.1492646E+03  0.7818608E-02  0.1282937E+00
          2   -1    0    0  502    0  0.00000000000E+00  0.00000000000E+00  0.12481536712E+04  0.12481536712E+04  0.00000000000E+00 0. -1.
          1   -1    0    0  501    0 -0.00000000000E+00 -0.00000000000E+00 -0.18770857028E+03  0.18770857028E+03  0.00000000000E+00 0. -1.
         25    2    1    2    0    0 -0.73937047446E+02  0.13158623469E+03  0.99416943859E+02  0.21975054140E+03  0.12499979030E+03 0.  0.
          2    1    1    2  501    0  0.11704850452E+02 -0.15148763641E+03 -0.80901633563E+02  0.17213535901E+03  0.00000000000E+00 0. -1.
          1    1    1    2  502    0  0.62232196994E+02  0.19901401714E+02  0.10419297906E+04  0.10439763411E+04  0.00000000000E+00 0. -1.
         22    1    3    3    0    0  0.20185241744E+02  0.56891503845E+02  0.76459873139E+02  0.97417654429E+02  0.00000000000E+00 0. -1.
         22    1    3    3    0    0 -0.94122289190E+02  0.74694730849E+02  0.22957070720E+02  0.12233288697E+03  0.00000000000E+00 0. -1.
</event>
<event>
 7    1  0.5779468E-006  0.1326472E+03  0.7818608E-02  0.1286702E+00
          2   -1    0    0  502    0  0.00000000000E+00  0.00000000000E+00  0.33545694257E+03  0.33545694257E+03  0.00000000000E+00 0. -1.
          1   -1    0    0  501    0 -0.00000000000E+00 -0.00000000000E+00 -0.11902819476E+04  0.11902819476E+04  0.00000000000E+00 0. -1.
         25    2    1    2    0    0 -0.76933797278E+02 -0.11023665199E+03  0.68082031549E+02  0.19578160747E+03  0.12499738477E+03 0.  0.
          2    1    1    2  501    0 -0.47415563144E+02  0.52784995686E+02 -0.11021133277E+04  0.11043949830E+04  0.00000000000E+00 0. -1.
          1    1    1    2  502    0  0.12434936042E+03  0.57451656303E+02  0.17920629114E+03  0.22556229968E+03  0.00000000000E+00 0. -1.
         22    1    3    3    0    0 -0.31239595301E+02 -0.12990688778E+03  0.45468649526E+02  0.14113507678E+03  0.00000000000E+00 0. -1.
         22    1    3    3    0    0 -0.45694201977E+02  0.19670235791E+02  0.22613382023E+02  0.54646530694E+02  0.00000000000E+00 0. -1.
</event>
<event>
 7    1  0.5779468E-006  0.5477823E+02  0.7818608E-02  0.1447506E+00
          2   -1    0    0  502    0  0.00000000000E+00  0.00000000000E+00  0.17248406756E+04  0.17248406756E+04  0.00000000000E+00 0. -1.
          1   -1    0    0  501    0 -0.00000000000E+00 -0.00000000000E+00 -0.61007561909E+03  0.61007561909E+03  0.00000000000E+00 0. -1.
         25    2    1    2    0    0 -0.63015172609E+02 -0.19334190867E+02  0.39319225831E+02  0.14668202154E+03  0.12499956403E+03 0.  0.
          2    1    1    2  501    0  0.49567322575E+02 -0.23518261946E+02 -0.55473170737E+03  0.55743815377E+03  0.00000000000E+00 0. -1.
          1    1    1    2  502    0  0.13447850034E+02  0.42852452813E+02  0.16301775381E+04  0.16307961194E+04  0.00000000000E+00 0. -1.
         22    1    3    3    0    0  0.10036523116E+02 -0.56483079226E+02  0.28368742869E+02  0.63998871921E+02  0.00000000000E+00 0.  1.
         22    1    3    3    0    0 -0.73051695724E+02  0.37148888359E+02  0.10950482962E+02  0.82683149624E+02  0.00000000000E+00 0.  1.
</event>
<event>
 7    1  0.5779468E-006  0.4028158E+03  0.7818608E-02  0.1196464E+00
          2   -1    0    0  502    0  0.00000000000E+00  0.00000000000E+00  0.19329408031E+04  0.19329408031E+04  0.00000000000E+00 0. -1.
          1   -1    0    0  501    0 -0.00000000000E+00 -0.00000000000E+00 -0.12603908941E+04  0.12603908941E+04  0.00000000000E+00 0. -1.
         25    2    1    2    0    0  0.28164506287E+03 -0.22873369387E+03 -0.80283027480E+03  0.88983408124E+03  0.12500079136E+03 0.  0.
          2    1    1    2  501    0  0.25055058830E+01 -0.58295075223E+02 -0.39028104301E+03  0.39461865882E+03  0.00000000000E+00 0. -1.
          1    1    1    2  502    0 -0.28415056875E+03  0.28702876910E+03  0.18656612268E+04  0.19088789572E+04  0.00000000000E+00 0. -1.
         22    1    3    3    0    0  0.27874572694E+03 -0.17739510785E+03 -0.72236487022E+03  0.79434199833E+03  0.00000000000E+00 0.  1.
         22    1    3    3    0    0  0.28993359270E+01 -0.51338586028E+02 -0.80465404579E+02  0.95492082908E+02  0.00000000000E+00 0.  1.
</event>
<event>
 7    1  0.5779468E-006  0.6576998E+02  0.7818608E-02  0.1458094E+00
          2   -1    0    0  502    0  0.00000000000E+00  0.00000000000E+00  0.13230983955E+04  0.13230983955E+04  0.00000000000E+00 0. -1.
          1   -1    0    0  501    0 -0.00000000000E+00 -0.00000000000E+00 -0.91646686837E+02  0.91646686837E+02  0.00000000000E+00 0. -1.
         25    2    1    2    0    0 -0.46900862362E+02 -0.31821180983E+00  0.20948973340E+02  0.13513608665E+03  0.12499244090E+03 0.  0.
          2    1    1    2  501    0  0.74040945982E+02 -0.21159746813E+02  0.89111589375E+01  0.77519064241E+02  0.00000000000E+00 0. -1.
          1    1    1    2  502    0 -0.27140083621E+02  0.21477958623E+02  0.12015915764E+04  0.12020899314E+04  0.00000000000E+00 0. -1.
         22    1    3    3    0    0 -0.75867267934E+02 -0.37470780588E+02  0.23920501482E+02  0.87932315634E+02  0.00000000000E+00 0.  1.
         22    1    3    3    0    0  0.28966405572E+02  0.37152568778E+02 -0.29715281416E+01  0.47203771016E+02  0.00000000000E+00 0.  1.
</event>
<event>
 7    1  0.5779468E-006  0.8779356E+02  0.7818608E-02  0.1480652E+00
          2   -1    0    0  502    0  0.00000000000E+00  0.00000000000E+00  0.31159234863E+02  0.31159234863E+02  0.00000000000E+00 0. -1.
          1   -1    0    0  501    0 -0.00000000000E+00 -0.00000000000E+00 -0.10515850889E+04  0.10515850889E+04  0.00000000000E+00 0. -1.
         25    2    1    2    0    0  0.67079019870E+02  0.41751287656E+02 -0.36913334656E+03  0.39765187692E+03  0.12499929098E+03 0.  0.
          2    1    1    2  501    0 -0.85198318059E+02 -0.29174275435E+02 -0.65632058284E+03  0.66247007420E+03  0.00000000000E+00 0. -1.
          1    1    1    2  502    0  0.18119298189E+02 -0.12577012221E+02  0.50280753478E+01  0.22622372665E+02  0.00000000000E+00 0. -1.
         22    1    3    3    0    0  0.41981224906E+02  0.85325060024E+02 -0.20486493870E+03  0.22585931954E+03  0.00000000000E+00 0.  1.
         22    1    3    3    0    0  0.25097794964E+02 -0.43573772367E+02 -0.16426840786E+03  0.17179255738E+03  0.00000000000E+00 0.  1.
</event>
<event>
 7    1  0.5779468E-006  0.1087833E+03  0.7818608E-02  0.1360529E+00
          2   -1    0    0  502    0  0.00000000000E+00  0.00000000000E+00  0.48652787521E+03  0.48652787521E+03  0.00000000000E+00 0. -1.
          1   -1    0    0  501    0 -0.00000000000E+00 -0.00000000000E+00 -0.13813635879E+04  0.13813635879E+04  0.00000000000E+00 0. -1.
         25    2    1    2    0    0 -0.65754354022E+02 -0.85984979888E+02 -0.11362899133E+04  0.11482580445E+04  0.12499887157E+03 0.  0.
          2    1    1    2  501    0  0.40263489660E+02 -0.19823819969E+02 -0.23073729930E+03  0.23506134035E+03  0.00000000000E+00 0. -1.
          1    1    1    2  502    0  0.25490864363E+02  0.10580879986E+03  0.47219149998E+03  0.48457207817E+03  0.00000000000E+00 0. -1.
         22    1    3    3    0    0  0.27713798923E+02  0.11057873912E+02 -0.16637562837E+03  0.16903011845E+03  0.00000000000E+00 0.  1.
         22    1    3    3    0    0 -0.93468152945E+02 -0.97042853800E+02 -0.96991428495E+03  0.97922792609E+03  0.00000000000E+00 0.  1.
</event>
<event>
 7    1  0.5779468E-006  0.1531391E+03  0.7818608E-02  0.1233511E+00
          2   -1    0    0  502    0  0.00000000000E+00  0.00000000000E+00  0.15967721886E+04  0.15967721886E+04  0.00000000000E+00 0. -1.
          1   -1    0    0  501    0 -0.00000000000E+00 -0.00000000000E+00 -0.27048779628E+04  0.27048779628E+04  0.00000000000E+00 0. -1.
         25    2    1    2    0    0  0.20083050189E+03  0.15242798301E+03  0.30667661985E+02  0.28307627544E+03  0.12499796691E+03 0.  0.
          2    1    1    2  501    0 -0.13197921140E+03 -0.74917338433E+02 -0.25745701195E+04  0.25790390497E+04  0.00000000000E+00 0. -1.
          1    1    1    2  502    0 -0.68851290491E+02 -0.77510644573E+02  0.14357966833E+04  0.14395348262E+04  0.00000000000E+00 0. -1.
         22    1    3    3    0    0  0.16020374958E+03  0.76657069338E+02 -0.26875058584E+02  0.17962131397E+03  0.00000000000E+00 0. -1.
         22    1    3    3    0    0  0.40626752310E+02  0.75770913669E+02  0.57542720569E+02  0.10345496147E+03  0.00000000000E+00 0. -1.
</event>
<event>
 7    1  0.5779468E-006  0.5887844E+02  0.7818608E-02  0.1473407E+00
          2   -1    0    0  502    0  0.00000000000E+00  0.00000000000E+00  0.15358738690E+04  0.15358738690E+04  0.00000000000E+00 0. -1.
          1   -1    0    0  501    0 -0.00000000000E+00 -0.00000000000E+00 -0.28252506150E+03  0.28252506150E+03  0.00000000000E+00 0. -1.
         25    2    1    2    0    0 -0.83172718042E+02  0.37313928826E+02 -0.21014445472E+01  0.15472906948E+03  0.12500655407E+03 0.  0.
          2    1    1    2  501    0  0.49775382820E+02 -0.28184157433E+02 -0.19989229958E+03  0.20791552827E+03  0.00000000000E+00 0. -1.
          1    1    1    2  502    0  0.33397335222E+02 -0.91297713924E+01  0.14553425516E+04  0.14557543327E+04  0.00000000000E+00 0. -1.
         22    1    3    3    0    0 -0.25615282443E+02 -0.32738957316E+02 -0.38851595807E+02  0.56898405228E+02  0.00000000000E+00 0.  1.
         22    1    3    3    0    0 -0.57557435600E+02  0.70052886142E+02  0.36750151260E+02  0.97830664248E+02  0.00000000000E+00 0.  1.
</event>
<event>
 7    1  0.5779468E-006  0.3669863E+02  0.7818608E-02  0.1555192E+00
          2   -1    0    0  502    0  0.00000000000E+00  0.00000000000E+00  0.23718380820E+03  0.23718380820E+03  0.00000000000E+00 0. -1.
          1   -1    0    0  501    0 -0.00000000000E+00 -0.00000000000E+00 -0.10186490308E+04  0.10186490308E+04  0.00000000000E+00 0. -1.
         25    2    1    2    0    0  0.23876082701E+02  0.10610729582E+01  0.29141556167E+02  0.13055901028E+03  0.12500092667E+03 0.  0.
          2    1    1    2  501    0 -0.49614382697E+01  0.31612688810E+02 -0.96540655052E+03  0.96593674003E+03  0.00000000000E+00 0. -1.
          1    1    1    2  502    0 -0.18914644431E+02 -0.32673761768E+02  0.15479977177E+03  0.15933708866E+03  0.00000000000E+00 0. -1.
         22    1    3    3    0    0  0.68399554533E+02 -0.28190599713E+02  0.16088725818E+02  0.75710343223E+02  0.00000000000E+00 0. -1.
         22    1    3    3    0    0 -0.44523471832E+02  0.29251672671E+02  0.13052830349E+02  0.54848667059E+02  0.00000000000E+00 0. -1.
</event>
<event>
 7    1  0.5779468E-006  0.5654282E+02  0.7818608E-02  0.1527620E+00
          2   -1    0    0  502    0  0.00000000000E+00  0.00000000000E+00  0.46578518906E+03  0.46578518906E+03  0.00000000000E+00 0. -1.
          1   -1    0    0  501    0 -0.00000000000E+00 -0.00000000000E+00 -0.30253975752E+04  0.30253975752E+04  0.00000000000E+00 0. -1.
         25    2    1    2    0    0 -0.13019287002E+02 -0.58631460612E+02 -0.83860131197E+03  0.84999001181E+03  0.12499483885E+03 0.  0.
          2    1    1    2  501    0  0.33988548551E+02  0.45308172452E+02 -0.21803984990E+04  0.21811340322E+04  0.00000000000E+00 0. -1.
          1    1    1    2  502    0 -0.20969261549E+02  0.13323288160E+02  0.45938742486E+03  0.46005872023E+03  0.00000000000E+00 0. -1.
         22    1    3    3    0    0 -0.60599943420E+01  0.30324007873E+02 -0.45910311793E+03  0.46014339273E+03  0.00000000000E+00 0.  1.
         22    1    3    3    0    0 -0.69592926598E+01 -0.88955468485E+02 -0.37949819404E+03  0.38984661908E+03  0.00000000000E+00 0.  1.
</event>
<event>
 7    1  0.5779468E-006  0.8752404E+02  0.7818608E-02  0.1396035E+00
          2   -1    0    0  502    0  0.00000000000E+00  0.00000000000E+00  0.97918125361E+02  0.97918125361E+02  0.00000000000E+00 0. -1.
          1   -1    0    0  501    0 -0.00000000000E+00 -0.00000000000E+00 -0.15060328479E+04  0.15060328479E+04  0.00000000000E+00 0. -1.
         25    2    1    2    0    0  0.75098929277E+02 -0.15162916163E+02 -0.88035548372E+03  0.89248016979E+03  0.12500125023E+03 0.  0.
          2    1    1    2  501    0 -0.79129406887E+02  0.56691413640E+02 -0.61081565098E+03  0.61852335356E+03  0.00000000000E+00 0. -1.
          1    1    1    2  502    0  0.40304776103E+01 -0.41528497477E+02  0.83056412134E+02  0.92947449933E+02  0.00000000000E+00 0. -1.
         22    1    3    3    0    0 -0.63463558394E+01  0.44643813956E+02 -0.30586922240E+03  0.30917523764E+03  0.00000000000E+00 0. -1.
         22    1    3    3    0    0  0.81445285117E+02 -0.59806730119E+02 -0.57448626131E+03  0.58330493215E+03  0.00000000000E+00 0. -1.
</event>
<event>
 7    1  0.5779468E-006  0.9747145E+02  0.7818608E-02  0.1289521E+00
          2   -1    0    0  502    0  0.00000000000E+00  0.00000000000E+00  0.89289870964E+02  0.89289870964E+02  0.00000000000E+00 0. -1.
          1   -1    0    0  501    0 -0.00000000000E+00 -0.00000000000E+00 -0.25380000386E+04  0.25380000386E+04  0.00000000000E+00 0. -1.
         25    2    1    2    0    0  0.22809499960E+02  0.15016164540E+02 -0.53955959306E+03  0.55452170335E+03  0.12499602607E+03 0.  0.
          2    1    1    2  501    0 -0.36614652066E+02  0.86615947593E+02 -0.19572336067E+04  0.19594913489E+04  0.00000000000E+00 0. -1.
          1    1    1    2  502    0  0.13805152107E+02 -0.10163211213E+03  0.48083032092E+02  0.11327685737E+03  0.00000000000E+00 0. -1.
         22    1    3    3    0    0  0.56541987534E+02  0.39562702505E+01 -0.11233217468E+03  0.12582196111E+03  0.00000000000E+00 0. -1.
         22    1    3    3    0    0 -0.33732487575E+02  0.11059894290E+02 -0.42722741838E+03  0.42869974224E+03  0.00000000000E+00 0. -1.
</event>
<event>
 7    1  0.5779468E-006  0.9489748E+02  0.7818608E-02  0.1354611E+00
          2   -1    0    0  502    0  0.00000000000E+00  0.00000000000E+00  0.42086799333E+03  0.42086799333E+03  0.00000000000E+00 0. -1.
          1   -1    0    0  501    0 -0.00000000000E+00 -0.00000000000E+00 -0.96897987177E+03  0.96897987177E+03  0.00000000000E+00 0. -1.
         25    2    1    2    0    0  0.66498974678E+02  0.13179079107E+03  0.66004836250E+02  0.20438265507E+03  0.12499882016E+03 0.  0.
          2    1    1    2  501    0 -0.37556257754E+02 -0.86108925919E+02 -0.89475035796E+03  0.89966850712E+03  0.00000000000E+00 0. -1.
          1    1    1    2  502    0 -0.28942716925E+02 -0.45681865149E+02  0.28063364327E+03  0.28579670292E+03  0.00000000000E+00 0. -1.
         22    1    3    3    0    0  0.22752425390E+02 -0.22398770599E+02  0.26414330396E+01  0.32036775025E+02  0.00000000000E+00 0. -1.
         22    1    3    3    0    0  0.43746549288E+02  0.15418956167E+03  0.63363403210E+02  0.17234588004E+03  0.00000000000E+00 0. -1.
</event>
<event>
 7    1  0.5779468E-006  0.5964392E+02  0.7818608E-02  0.1470676E+00
          2   -1    0    0  502    0  0.00000000000E+00  0.00000000000E+00  0.15724637069E+03  0.15724637069E+03  0.00000000000E+00 0. -1.
          1   -1    0    0  501    0 -0.00000000000E+00 -0.00000000000E+00 -0.37129691703E+03  0.37129691703E+03  0.00000000000E+00 0. -1.
         25    2    1    2    0    0  0.33184883166E+02 -0.10545009363E+02  0.25226851973E+02  0.13218945215E+03  0.12500089402E+03 0.  0.
          2    1    1    2  501    0  0.21689212238E+02 -0.27280300804E+02 -0.30249325843E+03  0.30449434828E+03  0.00000000000E+00 0. -1.
          1    1    1    2  502    0 -0.54874095404E+02  0.37825310167E+02  0.63215860116E+02  0.91859487294E+02  0.00000000000E+00 0. -1.
         22    1    3    3    0    0  0.13543055072E+02  0.44447147822E+02  0.50444000042E+02  0.68582508196E+02  0.00000000000E+00 0.  1.
         22    1    3    3    0    0  0.19641828093E+02 -0.54992157185E+02 -0.25217148069E+02  0.63606943956E+02  0.00000000000E+00 0.  1.
</event>
<event>
 7    1  0.5779468E-006  0.5435612E+02  0.7818608E-02  0.1474842E+00
          2   -1    0    0  502    0  0.00000000000E+00  0.00000000000E+00  0.17893920484E+04  0.17893920484E+04  0.00000000000E+00 0. -1.
          1   -1    0    0  501    0 -0.00000000000E+00 -0.00000000000E+00 -0.14812074870E+04  0.14812074870E+04  0.00000000000E+00 0. -1.
         25    2    1    2    0    0  0.17085020150E+02 -0.35554921911E+01  0.46369280190E+03  0.48056295660E+03  0.12500080514E+03 0.  0.
          2    1    1    2  501    0 -0.54187672578E+02  0.47505976448E+01 -0.14720084248E+04  0.14730131278E+04  0.00000000000E+00 0. -1.
          1    1    1    2  502    0  0.37102652427E+02 -0.11951054537E+01  0.13165001843E+04  0.13170234510E+04  0.00000000000E+00 0. -1.
         22    1    3    3    0    0 -0.63379360474E+01 -0.60801682671E+02  0.17655039032E+03  0.18683429656E+03  0.00000000000E+00 0.  1.
         22    1    3    3    0    0  0.23422956198E+02  0.57246190480E+02  0.28714241158E+03  0.29372866005E+03  0.00000000000E+00 0.  1.
</event>
<event>
 7    1  0.5779468E-006  0.8272801E+02  0.7818608E-02  0.1363102E+00
          2   -1    0    0  502    0  0.00000000000E+00  0.00000000000E+00  0.59484026520E+02  0.59484026520E+02  0.00000000000E+00 0. -1.
          1   -1    0    0  501    0 -0.00000000000E+00 -0.00000000000E+00 -0.23481165464E+04  0.23481165464E+04  0.00000000000E+00 0. -1.
         25    2    1    2    0    0  0.24445272332E+02 -0.47915619031E+02 -0.87775336379E+03  0.88823994387E+03  0.12500300938E+03 0.  0.
          2    1    1    2  501    0  0.12156170540E+02  0.92591648869E+02 -0.14478028849E+04  0.14508115589E+04  0.00000000000E+00 0. -1.
          1    1    1    2  502    0 -0.36601442872E+02 -0.44676029838E+02  0.36923728840E+02  0.68549070117E+02  0.00000000000E+00 0. -1.
         22    1    3    3    0    0  0.24559355565E+02 -0.56196744610E+01 -0.28926465619E+02  0.38359915277E+02  0.00000000000E+00 0.  1.
         22    1    3    3    0    0 -0.11408323327E+00 -0.42295944570E+02 -0.84882689817E+03  0.84988002859E+03  0.00000000000E+00 0.  1.
</event>
<event>
 7    1  0.5779468E-006  0.1122948E+03  0.7818608E-02  0.1307807E+00
          2   -1    0    0  502    0  0.00000000000E+00  0.00000000000E+00  0.92252403986E+03  0.92252403986E+03  0.00000000000E+00 0. -1.
          1   -1    0    0  501    0 -0.00000000000E+00 -0.00000000000E+00 -0.79647510638E+03  0.79647510638E+03  0.00000000000E+00 0. -1.
         25    2    1    2    0    0 -0.17331095476E+03  0.24053443109E+02  0.56087383565E+03  0.60068293988E+03  0.12500111828E+03 0.  0.
          2    1    1    2  501    0  0.10559557265E+03 -0.36974301060E+02 -0.76900429156E+03  0.77710045961E+03  0.00000000000E+00 0. -1.
          1    1    1    2  502    0  0.67715382112E+02  0.12920857952E+02  0.33417938938E+03  0.34121574675E+03  0.00000000000E+00 0. -1.
         22    1    3    3    0    0 -0.67521834369E+02 -0.15506160279E+01  0.40485186780E+03  0.41044687524E+03  0.00000000000E+00 0.  1.
         22    1    3    3    0    0 -0.10578912039E+03  0.25604059137E+02  0.15602196785E+03  0.19023606464E+03  0.00000000000E+00 0.  1.
</event>
<event>
 7    1  0.5779468E-006  0.1208473E+03  0.7818608E-02  0.1291997E+00
          2   -1    0    0  502    0  0.00000000000E+00  0.00000000000E+00  0.90079553947E+02  0.90079553947E+02  0.00000000000E+00 0. -1.
          1   -1    0    0  501    0 -0.00000000000E+00 -0.00000000000E+00 -0.66905330269E+03  0.66905330269E+03  0.00000000000E+00 0. -1.
         25    2    1    2    0    0 -0.11721642878E+03  0.62693556382E+02 -0.29878969778E+03  0.35009611120E+03  0.12498732090E+03 0.  0.
          2    1    1    2  501    0 -0.43286080735E+01 -0.73984151515E+02 -0.27719577955E+03  0.28693185902E+03  0.00000000000E+00 0. -1.
          1    1    1    2  502    0  0.12154503685E+03  0.11290595133E+02 -0.29882714157E+01  0.12210488642E+03  0.00000000000E+00 0. -1.
         22    1    3    3    0    0 -0.30545598069E+02  0.48128404214E+02 -0.24455121758E+02  0.62027653782E+02  0.00000000000E+00 0. -1.
         22    1    3    3    0    0 -0.86670830711E+02  0.14565152168E+02 -0.27433457603E+03  0.28806845741E+03  0.00000000000E+00 0. -1.
</event>
<event>
 7    1  0.5779468E-006  0.7363527E+02  0.7818608E-02  0.1403128E+00
          2   -1    0    0  502    0  0.00000000000E+00  0.00000000000E+00  0.12001470644E+03  0.12001470644E+03  0.00000000000E+00 0. -1.
          1   -1    0    0  501    0 -0.00000000000E+00 -0.00000000000E+00 -0.54530508055E+03  0.54530508055E+03  0.00000000000E+00 0. -1.
         25    2    1    2    0    0  0.18595291350E+02 -0.49459601642E+02  0.25058517601E+02  0.13800467009E+03  0.12500129042E+03 0.  0.
          2    1    1    2  501    0  0.31430795382E+02 -0.34787260161E+02 -0.42299896001E+03  0.42558920162E+03  0.00000000000E+00 0. -1.
          1    1    1    2  502    0 -0.50026086732E+02  0.84246861803E+02 -0.27349931700E+02  0.10172591529E+03  0.00000000000E+00 0. -1.
         22    1    3    3    0    0  0.46134467985E+02 -0.80993138837E+02  0.11082825481E+02  0.93867495416E+02  0.00000000000E+00 0. -1.
         22    1    3    3    0    0 -0.27539176636E+02  0.31533537195E+02  0.13975692120E+02  0.44137174672E+02  0.00000000000E+00 0. -1.
</event>
<event>
 7    1  0.5779468E-006  0.9017132E+02  0.7818608E-02  0.1443129E+00
          2   -1    0    0  502    0  0.00000000000E+00  0.00000000000E+00  0.12152376643E+04  0.12152376643E+04  0.00000000000E+00 0. -1.
          1   -1    0    0  501    0 -0.00000000000E+00 -0.00000000000E+00 -0.51862806582E+03  0.51862806582E+03  0.00000000000E+00 0. -1.
         25    2    1    2    0    0  0.63791983770E+02 -0.96850163421E+02  0.21838987227E+02  0.17190411941E+03  0.12499885424E+03 0.  0.
          2    1    1    2  501    0 -0.21980647094E+02  0.17641176251E+02 -0.44135198090E+03  0.44225098190E+03  0.00000000000E+00 0. -1.
          1    1    1    2  502    0 -0.41811336676E+02  0.79208987170E+02  0.11161225922E+04  0.11197106288E+04  0.00000000000E+00 0. -1.
         22    1    3    3    0    0 -0.19375259237E+02  0.95014072629E+01 -0.21150193066E+02  0.30216023518E+02  0.00000000000E+00 0. -1.
         22    1    3    3    0    0  0.83167243007E+02 -0.10635157068E+03  0.42989180293E+02  0.14168809590E+03  0.00000000000E+00 0. -1.
</event>
<event>
 7    1  0.5779468E-006  0.5430903E+02  0.7818608E-02  0.1561034E+00
          2   -1    0    0  502    0  0.00000000000E+00  0.00000000000E+00  0.20280808661E+04  0.20280808661E+04  0.00000000000E+00 0. -1.
          1   -1    0    0  501    0 -0.00000000000E+00 -0.00000000000E+00 -0.17261824777E+03  0.17261824777E+03  0.00000000000E+00 0. -1.
         25    2    1    2    0    0  0.41757436512E+02  0.33144162243E+02  0.64603808910E+03  0.66017563712E+03  0.12499776115E+03 0.  0.
          2    1    1    2  501    0  0.10731538503E+02 -0.17859175538E+02 -0.16434807067E+03  0.16566352767E+03  0.00000000000E+00 0. -1.
          1    1    1    2  502    0 -0.52488975016E+02 -0.15284986705E+02  0.13737725999E+04  0.13748599491E+04  0.00000000000E+00 0. -1.
         22    1    3    3    0    0  0.41079999321E+02 -0.39263902539E+02  0.38914359016E+03  0.39327084071E+03  0.00000000000E+00 0. -1.
         22    1    3    3    0    0  0.67743719151E+00  0.72408064783E+02  0.25689449893E+03  0.26690479642E+03  0.00000000000E+00 0. -1.
</event>
<event>
 7    1  0.5779468E-006  0.2105367E+03  0.7818608E-02  0.1261473E+00
          2   -1    0    0  502    0  0.00000000000E+00  0.00000000000E+00  0.40610616749E+03  0.40610616749E+03  0.00000000000E+00 0. -1.
          1   -1    0    0  501    0 -0.00000000000E+00 -0.00000000000E+00 -0.48513635419E+03  0.48513635419E+03  0.00000000000E+00 0. -1.
         25    2    1    2    0    0 -0.21371774963E+03  0.64631799972E+02 -0.16633889056E+03  0.30519728002E+03  0.12499682853E+03 0.  0.
          2    1    1    2  501    0  0.17538543129E+03 -0.10677016102E+03 -0.20386856362E+03  0.28934807417E+03  0.00000000000E+00 0. -1.
          1    1    1    2  502    0  0.38332318335E+02  0.42138361049E+02  0.29117726748E+03  0.29669716749E+03  0.00000000000E+00 0. -1.
         22    1    3    3    0    0 -0.77731927336E+02  0.78026123892E+02 -0.11498309916E+03  0.15922136047E+03  0.00000000000E+00 0.  1.
         22    1    3    3    0    0 -0.13598582229E+03 -0.13394323920E+02 -0.51355791397E+02  0.14597591955E+03  0.00000000000E+00 0.  1.
</event>
<event>
 7    1  0.5779468E-006  0.1281829E+03  0.7818608E-02  0.1321213E+00
          2   -1    0    0  502    0  0.00000000000E+00  0.00000000000E+00  0.67159932935E+03  0.67159932935E+03  0.00000000000E+00 0. -1.
          1   -1    0    0  501    0 -0.00000000000E+00 -0.00000000000E+00 -0.96732855723E+03  0.96732855723E+03  0.00000000000E+00 0. -1.
         25    2    1    2    0    0  0.12506868646E+03 -0.70828958950E+02 -0.13027824473E+03  0.23077242719E+03  0.12499829737E+03 0.  0.
          2    1    1    2  501    0 -0.12634380162E+03  0.17323453157E+02 -0.78046600090E+03  0.79081605750E+03  0.00000000000E+00 0. -1.
          1    1    1    2  502    0  0.12751151592E+01  0.53505505793E+02  0.61501501774E+03  0.61733940188E+03  0.00000000000E+00 0. -1.
         22    1    3    3    0    0  0.33730782417E+02 -0.66471906110E+02 -0.37163618089E+01  0.74633044487E+02  0.00000000000E+00 0.  1.
         22    1    3    3    0    0  0.91337904043E+02 -0.43570528401E+01 -0.12656188292E+03  0.15613938271E+03  0.00000000000E+00 0.  1.
</event>
<event>
 7    1  0.5779468E-006  0.5184718E+02  0.7818608E-02  0.1532722E+00
          2   -1    0    0  502    0  0.00000000000E+00  0.00000000000E+00  0.15346943927E+03  0.15346943927E+03  0.00000000000E+00 0. -1.
          1   -1    0    0  501    0 -0.00000000000E+00 -0.00000000000E+00 -0.55148144267E+03  0.55148144267E+03  0.00000000000E+00 0. -1.
         25    2    1    2    0    0  0.56637035686E+01  0.59218433876E+02 -0.14918523219E+03  0.20352754617E+03  0.12501331168E+03 0.  0.
          2    1    1    2  501    0 -0.23894790922E+02 -0.10739785229E+02 -0.36933154603E+03  0.37025949672E+03  0.00000000000E+00 0. -1.
          1    1    1    2  502    0  0.18231087353E+02 -0.48478648646E+02  0.12050477481E+03  0.13116383905E+03  0.00000000000E+00 0. -1.
         22    1    3    3    0    0 -0.23393955368E+02 -0.17295565952E+02  0.44691390254E+01  0.29434451804E+02  0.00000000000E+00 0. -1.
         22    1    3    3    0    0  0.29057658937E+02  0.76513999828E+02 -0.15365437122E+03  0.17409309437E+03  0.00000000000E+00 0. -1.
</event>
<event>
 7    1  0.5779468E-006  0.1945539E+03  0.7818608E-02  0.1225443E+00
          2   -1    0    0  502    0  0.00000000000E+00  0.00000000000E+00  0.29810575913E+04  0.29810575913E+04  0.00000000000E+00 0. -1.
          1   -1    0    0  501    0 -0.00000000000E+00 -0.00000000000E+00 -0.93222506241E+03  0.93222506241E+03  0.00000000000E+00 0. -1.
         25    2    1    2    0    0  0.66508218810E+02  0.94429621784E+02  0.31511415398E+02  0.17308446971E+03  0.12499987086E+03 0.  0.
          2    1    1    2  501    0 -0.12520740930E+03 -0.16092936675E+03 -0.84867715624E+03  0.87282763015E+03  0.00000000000E+00 0. -1.
          1    1    1    2  502    0  0.58699190492E+02  0.66499744965E+02  0.28659982697E+04  0.28673705539E+04  0.00000000000E+00 0. -1.
         22    1    3    3    0    0  0.79183468355E+02  0.45627860650E+01  0.11445835871E+02  0.80136432639E+02  0.00000000000E+00 0.  1.
         22    1    3    3    0    0 -0.12675249545E+02  0.89866835719E+02  0.20065579527E+02  0.92948037069E+02  0.00000000000E+00 0.  1.
</event>
<event>
 7    1  0.5779468E-006  0.1145861E+03  0.7818608E-02  0.1363351E+00
          2   -1    0    0  502    0  0.00000000000E+00  0.00000000000E+00  0.80254767306E+03  0.80254767306E+03  0.00000000000E+00 0. -1.
          1   -1    0    0  501    0 -0.00000000000E+00 -0.00000000000E+00 -0.14093391855E+04  0.14093391855E+04  0.00000000000E+00 0. -1.
         25    2    1    2    0    0 -0.34547140807E+02 -0.66134041806E+02 -0.10724223271E+03  0.18081437496E+03  0.12500290114E+03 0.  0.
          2    1    1    2  501    0 -0.25459391590E+02 -0.32912880465E+02 -0.12605872863E+04  0.12612738579E+04  0.00000000000E+00 0. -1.
          1    1    1    2  502    0  0.60006532397E+02  0.99046922271E+02  0.76103800654E+03  0.76979862571E+03  0.00000000000E+00 0. -1.
         22    1    3    3    0    0  0.11912125403E+02  0.33512349981E+02 -0.23886847467E+02  0.42843410401E+02  0.00000000000E+00 0. -1.
         22    1    3    3    0    0 -0.46459266210E+02 -0.99646391787E+02 -0.83355385242E+02  0.13797096456E+03  0.00000000000E+00 0. -1.
</event>
<event>
 7    1  0.5779468E-006  0.4242078E+02  0.7818608E-02  0.1547598E+00
          2   -1    0    0  502    0  0.00000000000E+00  0.00000000000E+00  0.47679752853E+02  0.47679752853E+02  0.00000000000E+00 0. -1.
          1   -1    0    0  501    0 -0.00000000000E+00 -0.00000000000E+00 -0.17624470148E+04  0.17624470148E+04  0.00000000000E+00 0. -1.
         25    2    1    2    0    0 -0.25300560340E+02 -0.65820299286E+02 -0.37834077321E+03  0.40464713092E+03  0.12500051894E+03 0.  0.
          2    1    1    2  501    0  0.11869786770E+02  0.26530085775E+02 -0.13582572228E+04  0.13585681509E+04  0.00000000000E+00 0. -1.
          1    1    1    2  502    0  0.13430773570E+02  0.39290213511E+02  0.21830734057E+02  0.46911485863E+02  0.00000000000E+00 0. -1.
         22    1    3    3    0    0 -0.62460920305E+02 -0.80827516488E+02 -0.29468303973E+03  0.31188547239E+03  0.00000000000E+00 0. -1.
         22    1    3    3    0    0  0.37160359965E+02  0.15007217202E+02 -0.83657733480E+02  0.92761658522E+02  0.00000000000E+00 0. -1.
</event>
<event>
 7    1  0.5779468E-006  0.7047172E+02  0.7818608E-02  0.1368670E+00
          2   -1    0    0  502    0  0.00000000000E+00  0.00000000000E+00  0.23116711310E+04  0.23116711310E+04  0.00000000000E+00 0. -1.
          1   -1    0    0  501    0 -0.00000000000E+00 -0.00000000000E+00 -0.16986397012E+03  0.16986397012E+03  0.00000000000E+00 0. -1.
         25    2    1    2    0    0 -0.16824073944E+02  0.28721863810E+02  0.64880518658E+03  0.66157458245E+03  0.12499905238E+03 0.  0.
          2    1    1    2  501    0  0.66883004825E+02  0.22201943899E+02 -0.15507541382E+03  0.17033686219E+03  0.00000000000E+00 0. -1.
          1    1    1    2  502    0 -0.50058930881E+02 -0.50923807709E+02  0.16480773882E+04  0.16496236565E+04  0.00000000000E+00 0. -1.
         22    1    3    3    0    0  0.58243374404E+01  0.73963135219E+02  0.46717324386E+03  0.47302780897E+03  0.00000000000E+00 0.  1.
         22    1    3    3    0    0 -0.22648411384E+02 -0.45241271409E+02  0.18163194271E+03  0.18854677348E+03  0.00000000000E+00 0.  1.
</event>
<event>
 7    1  0.5779468E-006  0.8427877E+02  0.7818608E-02  0.1369601E+00
          2   -1    0    0  502    0  0.00000000000E+00  0.00000000000E+00  0.19713374286E+04  0.19713374286E+04  0.00000000000E+00 0. -1.
          1   -1    0    0  501    0 -0.00000000000E+00 -0.00000000000E+00 -0.98725671955E+03  0.98725671955E+03  0.00000000000E+00 0. -1.
         25    2    1    2    0    0 -0.58305044360E+02 -0.99887442285E+02  0.46204091537E+03  0.49242208959E+03  0.12498290890E+03 0.  0.
          2    1    1    2  501    0  0.70304424086E+01  0.83907590699E+02 -0.96975858629E+03  0.97340722546E+03  0.00000000000E+00 0. -1.
          1    1    1    2  502    0  0.51274601952E+02  0.15979851586E+02  0.14917983799E+04  0.14927648331E+04  0.00000000000E+00 0. -1.
         22    1    3    3    0    0 -0.90608019526E+02 -0.98134201516E+02  0.40937840125E+03  0.43061677873E+03  0.00000000000E+00 0. -1.
         22    1    3    3    0    0  0.32302975166E+02 -0.17532407685E+01  0.52662514120E+02  0.61805310866E+02  0.00000000000E+00 0. -1.
</event>
<event>
 7    1  0.5779468E-006  0.2576724E+02  0.7818608E-02  0.1652982E+00
          2   -1    0    0  502    0  0.00000000000E+00  0.00000000000E+00  0.16238007005E+03  0.16238007005E+03  0.00000000000E+00 0. -1.
          1   -1    0    0  501    0 -0.00000000000E+00 -0.00000000000E+00 -0.10510770143E+04  0.10510770143E+04  0.00000000000E+00 0. -1.
         25    2    1    2    0    0 -0.16942023547E+02 -0.19878477794E+02 -0.46245643296E+03  0.47976409801E+03  0.12500180524E+03 0.  0.
          2    1    1    2  501    0  0.25877583272E+02 -0.38650601809E+01 -0.57862243405E+03  0.57921369907E+03  0.00000000000E+00 0. -1.
          1    1    1    2  502    0 -0.89355597245E+01  0.23743537974E+02  0.15238192273E+03  0.15447928728E+03  0.00000000000E+00 0. -1.
         22    1    3    3    0    0 -0.25451902473E+02 -0.36790276924E+02 -0.45817502025E+03  0.46035385629E+03  0.00000000000E+00 0. -1.
         22    1    3    3    0    0  0.85098789260E+01  0.16911799130E+02 -0.42814127129E+01  0.19410241729E+02  0.00000000000E+00 0. -1.
</event>
<event>
 7    1  0.5779468E-006  0.2629480E+02  0.7818608E-02  0.1679482E+00
          2   -1    0    0  502    0  0.00000000000E+00  0.00000000000E+00  0.43864334597E+03  0.43864334597E+03  0.00000000000E+00 0. -1.
          1   -1    0    0  501    0 -0.00000000000E+00 -0.00000000000E+00 -0.15182188678E+04  0.15182188678E+04  0.00000000000E+00 0. -1.
         25    2    1    2    0    0 -0.20814307905E+01 -0.44347592011E+02  0.12556351604E+03  0.18265467910E+03  0.12500197585E+03 0.  0.
          2    1    1    2  501    0  0.98931957812E+01  0.24350045339E+02 -0.14891521756E+04  0.14893841017E+04  0.00000000000E+00 0. -1.
          1    1    1    2  502    0 -0.78117649907E+01  0.19997546672E+02  0.28401313780E+03  0.28482343300E+03  0.00000000000E+00 0. -1.
         22    1    3    3    0    0  0.27655961584E+02 -0.63038632147E+02  0.13014926045E+03  0.14723298323E+03  0.00000000000E+00 0. -1.
         22    1    3    3    0    0 -0.29737392374E+02  0.18691040137E+02 -0.45857444117E+01  0.35421695872E+02  0.00000000000E+00 0. -1.
</event>
<event>
 7    1  0.5779468E-006  0.2272212E+03  0.7818608E-02  0.1138121E+00
          2   -1    0    0  502    0  0.00000000000E+00  0.00000000000E+00  0.79460818749E+03  0.79460818749E+03  0.00000000000E+00 0. -1.
          1   -1    0    0  501    0 -0.00000000000E+00 -0.00000000000E+00 -0.83978389828E+03  0.83978389828E+03  0.00000000000E+00 0. -1.
         25    2    1    2    0    0 -0.69910374449E+02  0.41366741919E+02  0.94275114804E+00  0.14908734985E+03  0.12500992486E+03 0.  0.
          2    1    1    2  501    0 -0.28302001838E+02 -0.24626625751E+03 -0.72668889108E+03  0.76780519490E+03  0.00000000000E+00 0. -1.
          1    1    1    2  502    0  0.98212376287E+02  0.20489951559E+03  0.68057042914E+03  0.71749954102E+03  0.00000000000E+00 0. -1.
         22    1    3    3    0    0 -0.33018153613E+02 -0.26215808738E+02 -0.43176623347E+02  0.60346399226E+02  0.00000000000E+00 0. -1.
         22    1    3    3    0    0 -0.36892220836E+02  0.67582550657E+02  0.44119374496E+02  0.88740950623E+02  0.00000000000E+00 0. -1.
</event>
<event>
 7    1  0.5779468E-006  0.6797622E+02  0.7818608E-02  0.1450793E+00
          2   -1    0    0  502    0  0.00000000000E+00  0.00000000000E+00  0.50033557447E+03  0.50033557447E+03  0.00000000000E+00 0. -1.
          1   -1    0    0  501    0 -0.00000000000E+00 -0.00000000000E+00 -0.20469873911E+04  0.20469873911E+04  0.00000000000E+00 0. -1.
         25    2    1    2    0    0 -0.56129696941E+02  0.19275632286E+02 -0.86120155938E+02  0.16298543204E+03  0.12500190766E+03 0.  0.
          2    1    1    2  501    0  0.43763256774E+02 -0.52366332329E+02 -0.19211524003E+04  0.19223641696E+04  0.00000000000E+00 0. -1.
          1    1    1    2  502    0  0.12366440167E+02  0.33090700043E+02  0.46062073958E+03  0.46197336395E+03  0.00000000000E+00 0. -1.
         22    1    3    3    0    0  0.19231825644E+02 -0.23252941562E+01 -0.82242754797E+02  0.84493436591E+02  0.00000000000E+00 0.  1.
         22    1    3    3    0    0 -0.75361522585E+02  0.21600926443E+02 -0.38774011411E+01  0.78491995446E+02  0.00000000000E+00 0.  1.
</event>
<event>
 7    1  0.5779468E-006  0.6767047E+02  0.7818608E-02  0.1392036E+00
          2   -1    0    0  502    0  0.00000000000E+00  0.00000000000E+00  0.30879112171E+03  0.30879112171E+03  0.00000000000E+00 0. -1.
          1   -1    0    0  501    0 -0.00000000000E+00 -0.00000000000E+00 -0.21632574245E+03  0.21632574245E+03  0.00000000000E+00 0. -1.
         25    2    1    2    0    0  0.88372927804E+01  0.13511554411E+02 -0.99931581215E+02  0.16084840758E+03  0.12500091780E+03 0.  0.
          2    1    1    2  501    0 -0.21456548042E+01  0.55674885680E+02 -0.71913044196E+02  0.90971328756E+02  0.00000000000E+00 0. -1.
          1    1    1    2  502    0 -0.66916379762E+01 -0.69186440091E+02  0.26431000466E+03  0.27329712782E+03  0.00000000000E+00 0. -1.
         22    1    3    3    0    0  0.53893068301E+02  0.12196886698E+02 -0.10169693207E+03  0.11573889946E+03  0.00000000000E+00 0. -1.
         22    1    3    3    0    0 -0.45055775520E+02  0.13146677127E+01  0.17653508545E+01  0.45109508117E+02  0.00000000000E+00 0. -1.
</event>
<event>
 7    1  0.5779468E-006  0.7469433E+02  0.7818608E-02  0.1383887E+00
          2   -1    0    0  502    0  0.00000000000E+00  0.00000000000E+00  0.10208593013E+04  0.10208593013E+04  0.00000000000E+00 0. -1.
          1   -1    0    0  501    0 -0.00000000000E+00 -0.00000000000E+00 -0.99893661714E+03  0.99893661714E+03  0.00000000000E+00 0. -1.
         25    2    1    2    0    0 -0.65148823437E+01 -0.85199348969E+02  0.12195179607E+03  0.19442174367E+03  0.12500480426E+03 0.  0.
          2    1    1    2  501    0 -0.42053308118E+02  0.61817387616E+02 -0.96040530953E+03  0.96331107577E+03  0.00000000000E+00 0. -1.
          1    1    1    2  502    0  0.48568190462E+02  0.23381961353E+02  0.86037619762E+03  0.86206309901E+03  0.00000000000E+00 0. -1.
         22    1    3    3    0    0  0.44212654805E+02 -0.87319199824E+02  0.61998700160E+02  0.11585870845E+03  0.00000000000E+00 0. -1.
         22    1    3    3    0    0 -0.50727537149E+02  0.21198508547E+01  0.59953095910E+02  0.78563035214E+02  0.00000000000E+00 0. -1.
</event>
<event>
 7    1  0.5779468E-006  0.1278475E+03  0.7818608E-02  0.1245405E+00
          2   -1    0    0  502    0  0.00000000000E+00  0.00000000000E+00  0.37546029868E+02  0.37546029868E+02  0.00000000000E+00 0. -1.
          1   -1    0    0  501    0 -0.00000000000E+00 -0.00000000000E+00 -0.20034864231E+04  0.20034864231E+04  0.00000000000E+00 0. -1.
         25    2    1    2    0    0 -0.70699608460E+01  0.72663581751E+02 -0.11194093443E+04  0.11287305364E+04  0.12500145346E+03 0.  0.
          2    1    1    2  501    0 -0.10995641176E+03  0.43681601923E+01 -0.70360990704E+03  0.71216317976E+03  0.00000000000E+00 0. -1.
          1    1    1    2  502    0  0.11702637260E+03 -0.77031741943E+02 -0.14292114190E+03  0.20013873676E+03  0.00000000000E+00 0. -1.
         22    1    3    3    0    0 -0.27557240595E+02  0.49348085375E+02 -0.17689639136E+03  0.18570667278E+03  0.00000000000E+00 0. -1.
         22    1    3    3    0    0  0.20487279749E+02  0.23315496376E+02 -0.94251295291E+03  0.94302386365E+03  0.00000000000E+00 0. -1.
</event>
<event>
 7    1  0.5779468E-006  0.9202402E+03  0.7818608E-02  0.1145804E+00
          2   -1    0    0  502    0  0.00000000000E+00  0.00000000000E+00  0.13511713535E+04  0.13511713535E+04  0.00000000000E+00 0. -1.
          1   -1    0    0  501    0 -0.00000000000E+00 -0.00000000000E+00 -0.11913710155E+04  0.11913710155E+04  0.00000000000E+00 0. -1.
         25    2    1    2    0    0  0.88535873754E+03 -0.26748821553E+03 -0.22685269847E+03  0.96046849525E+03  0.12501017548E+03 0.  0.
          2    1    1    2  501    0  0.61848875355E+01  0.45128081005E+02 -0.38163424096E+03  0.38434293334E+03  0.00000000000E+00 0. -1.
          1    1    1    2  502    0 -0.89154362508E+03  0.22236013452E+03  0.76828727749E+03  0.11977309404E+04  0.00000000000E+00 0. -1.
         22    1    3    3    0    0  0.81515324309E+02 -0.48795872908E+02  0.68401979018E+01  0.95250058359E+02  0.00000000000E+00 0. -1.
         22    1    3    3    0    0  0.80384341323E+03 -0.21869234262E+03 -0.23369289637E+03  0.86521843689E+03  0.00000000000E+00 0. -1.
</event>
<event>
 7    1  0.5779468E-006  0.2698318E+02  0.7818608E-02  0.1651839E+00
          2   -1    0    0  502    0  0.00000000000E+00  0.00000000000E+00  0.80363169572E+03  0.80363169572E+03  0.00000000000E+00 0. -1.
          1   -1    0    0  501    0 -0.00000000000E+00 -0.00000000000E+00 -0.41767274741E+02  0.41767274741E+02  0.00000000000E+00 0. -1.
         25    2    1    2    0    0 -0.31472602385E+01  0.32228565230E+01  0.41666582855E+03  0.43504063454E+03  0.12501859448E+03 0.  0.
          2    1    1    2  501    0 -0.54664040340E+01  0.23761875793E+02 -0.27403825366E+02  0.36680757339E+02  0.00000000000E+00 0. -1.
          1    1    1    2  502    0  0.86136642725E+01 -0.26984732316E+02  0.37260241779E+03  0.37367757858E+03  0.00000000000E+00 0. -1.
         22    1    3    3    0    0 -0.62784568119E+02  0.11757770551E+02  0.24147749933E+03  0.24978296549E+03  0.00000000000E+00 0.  1.
         22    1    3    3    0    0  0.59637307881E+02 -0.85349140283E+01  0.17518832922E+03  0.18525766905E+03  0.00000000000E+00 0.  1.
</event>
<event>
 7    1  0.5779468E-006  0.4095362E+03  0.7818608E-02  0.1089846E+00
          2   -1    0    0  502    0  0.00000000000E+00  0.00000000000E+00  0.18224008497E+04  0.18224008497E+04  0.00000000000E+00 0. -1.
          1   -1    0    0  501    0 -0.00000000000E+00 -0.00000000000E+00 -0.13422843029E+04  0.13422843029E+04  0.00000000000E+00 0. -1.
         25    2    1    2    0    0  0.12816676435E+03 -0.39563266800E+03 -0.53187353712E+03  0.68663360489E+03  0.12499728159E+03 0.  0.
          2    1    1    2  501    0 -0.30890736553E+03  0.29529287157E+03 -0.66385218646E+03  0.78950703984E+03  0.00000000000E+00 0. -1.
          1    1    1    2  502    0  0.18074060118E+03  0.10033979643E+03  0.16758422704E+04  0.16885445079E+04  0.00000000000E+00 0. -1.
         22    1    3    3    0    0  0.55440670541E+02 -0.29718904332E+03 -0.43884792188E+03  0.53290007878E+03  0.00000000000E+00 0.  1.
         22    1    3    3    0    0  0.72726093813E+02 -0.98443624677E+02 -0.93025615234E+02  0.15373352611E+03  0.00000000000E+00 0.  1.
</event>
<event>
 7    1  0.5779468E-006  0.5093415E+02  0.7818608E-02  0.1563345E+00
          2   -1    0    0  502    0  0.00000000000E+00  0.00000000000E+00  0.26863011229E+04  0.26863011229E+04  0.00000000000E+00 0. -1.
          1   -1    0    0  501    0 -0.00000000000E+00 -0.00000000000E+00 -0.70896064627E+03  0.70896064627E+03  0.00000000000E+00 0. -1.
         25    2    1    2    0    0 -0.25113302068E+02  0.16406213453E+02  0.97117767242E+02  0.16111171086E+03  0.12500112352E+03 0.  0.
          2    1    1    2  501    0 -0.13055410798E+02  0.17575450551E+02 -0.67653125146E+03  0.67688542193E+03  0.00000000000E+00 0. -1.
          1    1    1    2  502    0  0.38168712866E+02 -0.33981664004E+02  0.25567539608E+04  0.25572646364E+04  0.00000000000E+00 0. -1.
         22    1    3    3    0    0  0.44217506413E+02  0.32439566221E+02  0.26684167270E+02  0.60988180108E+02  0.00000000000E+00 0.  1.
         22    1    3    3    0    0 -0.69330808481E+02 -0.16033352768E+02  0.70433599973E+02  0.10012353075E+03  0.00000000000E+00 0.  1.
</event>
<event>
 7    1  0.5779468E-006  0.7138748E+02  0.7818608E-02  0.1370792E+00
          2   -1    0    0  502    0  0.00000000000E+00  0.00000000000E+00  0.53886876766E+03  0.53886876766E+03  0.00000000000E+00 0. -1.
          1   -1    0    0  501    0 -0.00000000000E+00 -0.00000000000E+00 -0.29802961724E+03  0.29802961724E+03  0.00000000000E+00 0. -1.
         25    2    1    2    0    0 -0.84453069932E+02 -0.94099675010E+02 -0.48261149558E+02  0.18422943324E+03  0.12499710260E+03 0.  0.
          2    1    1    2  501    0  0.33324118228E+02  0.57662948236E+02 -0.17349180261E+03  0.18583572861E+03  0.00000000000E+00 0. -1.
          1    1    1    2  502    0  0.51128951703E+02  0.36436726774E+02  0.46259210259E+03  0.46683322304E+03  0.00000000000E+00 0. -1.
         22    1    3    3    0    0 -0.52138132704E+02 -0.28813112089E+02  0.38510281077E+02  0.70933927417E+02  0.00000000000E+00 0. -1.
         22    1    3    3    0    0 -0.32314937227E+02 -0.65286562921E+02 -0.86771430635E+02  0.11329550583E+03  0.00000000000E+00 0. -1.
</event>
<event>
 7    1  0.5779468E-006  0.4371078E+02  0.7818608E-02  0.1576301E+00
          2   -1    0    0  502    0  0.00000000000E+00  0.00000000000E+00  0.11401826915E+04  0.11401826915E+04  0.00000000000E+00 0. -1.
          1   -1    0    0  501    0 -0.00000000000E+00 -0.00000000000E+00 -0.24369226205E+03  0.24369226205E+03  0.00000000000E+00 0. -1.
         25    2    1    2    0    0  0.42310408388E+02  0.39767661575E+02  0.46905696048E+03  0.48888662684E+03  0.12499625657E+03 0.  0.
          2    1    1    2  501    0 -0.26164195212E+01 -0.23379426892E+02 -0.23248590530E+03  0.23367314655E+03  0.00000000000E+00 0. -1.
          1    1    1    2  502    0 -0.39693988867E+02 -0.16388234682E+02  0.65991937432E+03  0.66131518022E+03  0.00000000000E+00 0. -1.
         22    1    3    3    0    0  0.77918230463E+02  0.53866447044E+02  0.38556051258E+03  0.39702613719E+03  0.00000000000E+00 0. -1.
         22    1    3    3    0    0 -0.35607822075E+02 -0.14098785469E+02  0.83496447907E+02  0.91860489644E+02  0.00000000000E+00 0. -1.
</event>
<event>
 7    1  0.5779468E-006  0.6352635E+02  0.7818608E-02  0.1464456E+00
          2   -1    0    0  502    0  0.00000000000E+00  0.00000000000E+00  0.10510842627E+04  0.10510842627E+04  0.00000000000E+00 0. -1.
          1   -1    0    0  501    0 -0.00000000000E+00 -0.00000000000E+00 -0.14478434097E+03  0.14478434097E+03  0.00000000000E+00 0. -1.
         25    2    1    2    0    0  0.96719336080E+01 -0.62243576632E+02  0.56600034953E+03  0.58305200309E+03  0.12500173402E+03 0.  0.
          2    1    1    2  501    0 -0.34187588270E+02  0.14288774201E+01 -0.13180815089E+03  0.13617716961E+03  0.00000000000E+00 0. -1.
          1    1    1    2  502    0  0.24515654662E+02  0.60814699212E+02  0.47210772305E+03  0.47663943094E+03  0.00000000000E+00 0. -1.
         22    1    3    3    0    0 -0.34730372511E+02 -0.59983625915E+02  0.49096899235E+03  0.49583745886E+03  0.00000000000E+00 0. -1.
         22    1    3    3    0    0  0.44402306119E+02 -0.22599507172E+01  0.75031357172E+02  0.87214544229E+02  0.00000000000E+00 0. -1.
</event>
<event>
 7    1  0.5779468E-006  0.5665652E+02  0.7818608E-02  0.1471977E+00
          2   -1    0    0  502    0  0.00000000000E+00  0.00000000000E+00  0.17166319999E+04  0.17166319999E+04  0.00000000000E+00 0. -1.
          1   -1    0    0  501    0 -0.00000000000E+00 -0.00000000000E+00 -0.12998140929E+03  0.12998140929E+03  0.00000000000E+00 0. -1.
         25    2    1    2    0    0  0.32809345103E+02 -0.78773794498E+02  0.21571013740E+03  0.26350877061E+03  0.12499697990E+03 0.  0.
          2    1    1    2  501    0 -0.28267676666E+02  0.22852067451E+02 -0.10241859200E+03  0.10867771859E+03  0.00000000000E+00 0. -1.
          1    1    1    2  502    0 -0.45416684372E+01  0.55921727047E+02  0.14733590452E+04  0.14744269200E+04  0.00000000000E+00 0. -1.
         22    1    3    3    0    0  0.72088777468E+02 -0.84647189423E+02  0.14971638743E+03  0.18648575061E+03  0.00000000000E+00 0.  1.
         22    1    3    3    0    0 -0.39279432365E+02  0.58733949250E+01  0.65993749971E+02  0.77023020002E+02  0.00000000000E+00 0.  1.
</event>
<event>
 7    1  0.5779468E-006  0.1119255E+03  0.7818608E-02  0.1355733E+00
          2   -1    0    0  502    0  0.00000000000E+00  0.00000000000E+00  0.66623803399E+03  0.66623803399E+03  0.00000000000E+00 0. -1.
          1   -1    0    0  501    0 -0.00000000000E+00 -0.00000000000E+00 -0.40824814316E+03  0.40824814316E+03  0.00000000000E+00 0. -1.
         25    2    1    2    0    0  0.42040317924E+02  0.14267244518E+03 -0.43522417193E+02  0.19910168945E+03  0.12499786798E+03 0.  0.
          2    1    1    2  501    0 -0.45187775344E+02 -0.97363643269E+02 -0.27597468645E+03  0.29611423747E+03  0.00000000000E+00 0. -1.
          1    1    1    2  502    0  0.31474574193E+01 -0.45308801907E+02  0.57748699447E+03  0.57927025023E+03  0.00000000000E+00 0. -1.
         22    1    3    3    0    0  0.12471261583E+02  0.23029571302E+02  0.41714831215E+02  0.49254651183E+02  0.00000000000E+00 0. -1.
         22    1    3    3    0    0  0.29569056341E+02  0.11964287387E+03 -0.85237248409E+02  0.14984703827E+03  0.00000000000E+00 0. -1.
</event>
<event>
 7    1  0.5779468E-006  0.4868571E+02  0.7818608E-02  0.1454359E+00
          2   -1    0    0  502    0  0.00000000000E+00  0.00000000000E+00  0.38991367229E+03  0.38991367229E+03  0.00000000000E+00 0. -1.
          1   -1    0    0  501    0 -0.00000000000E+00 -0.00000000000E+00 -0.12421546314E+03  0.12421546314E+03  0.00000000000E+00 0. -1.
         25    2    1    2    0    0  0.37571368299E+02  0.18758891793E+01  0.89303202074E+02  0.15814943762E+03  0.12498422317E+03 0.  0.
          2    1    1    2  501    0 -0.24325235899E+02  0.44310785655E+02 -0.80267756994E+02  0.94858186993E+02  0.00000000000E+00 0. -1.
          1    1    1    2  502    0 -0.13246132400E+02 -0.46186674834E+02  0.25666276407E+03  0.26112151082E+03  0.00000000000E+00 0. -1.
         22    1    3    3    0    0 -0.41661535911E+02  0.15433132322E+02  0.10651363784E+02  0.45687161197E+02  0.00000000000E+00 0. -1.
         22    1    3    3    0    0  0.79232904210E+02 -0.13557243143E+02  0.78651838290E+02  0.11246227642E+03  0.00000000000E+00 0. -1.
</event>
<event>
 7    1  0.5779468E-006  0.1016836E+03  0.7818608E-02  0.1322618E+00
          2   -1    0    0  502    0  0.00000000000E+00  0.00000000000E+00  0.19091757329E+04  0.19091757329E+04  0.00000000000E+00 0. -1.
          1   -1    0    0  501    0 -0.00000000000E+00 -0.00000000000E+00 -0.16771673396E+03  0.16771673396E+03  0.00000000000E+00 0. -1.
         25    2    1    2    0    0  0.99082085790E+02  0.47327239957E+02 -0.45273168798E+02  0.17243126439E+03  0.12500301500E+03 0.  0.
          2    1    1    2  501    0  0.92791882850E+00 -0.66622804879E+02 -0.38123682080E+02  0.76765059100E+02  0.00000000000E+00 0. -1.
          1    1    1    2  502    0 -0.10001000462E+03  0.19295564922E+02  0.18248558498E+04  0.18276961434E+04  0.00000000000E+00 0. -1.
         22    1    3    3    0    0  0.73873784807E+02  0.87612927915E+02 -0.13793334534E+02  0.11542797450E+03  0.00000000000E+00 0.  1.
         22    1    3    3    0    0  0.25208300982E+02 -0.40285687958E+02 -0.31479834264E+02  0.57003289887E+02  0.00000000000E+00 0.  1.
</event>
<event>
 7    1  0.5779468E-006  0.1689321E+03  0.7818608E-02  0.1294473E+00
          2   -1    0    0  502    0  0.00000000000E+00  0.00000000000E+00  0.68026844176E+03  0.68026844176E+03  0.00000000000E+00 0. -1.
          1   -1    0    0  501    0 -0.00000000000E+00 -0.00000000000E+00 -0.67943079636E+03  0.67943079636E+03  0.00000000000E+00 0. -1.
         25    2    1    2    0    0 -0.12774904430E+03  0.20248836363E+02 -0.13542226363E+02  0.18038322716E+03  0.12499953221E+03 0.  0.
          2    1    1    2  501    0 -0.37320012684E+02  0.35932818371E+02 -0.56852980434E+03  0.57088535557E+03  0.00000000000E+00 0. -1.
          1    1    1    2  502    0  0.16506905699E+03 -0.56181654734E+02  0.58290967611E+03  0.60843065538E+03  0.00000000000E+00 0. -1.
         22    1    3    3    0    0 -0.54410495794E+02  0.59682555652E+02 -0.43694132705E+02  0.91824216493E+02  0.00000000000E+00 0. -1.
         22    1    3    3    0    0 -0.73338548508E+02 -0.39433719289E+02  0.30151906342E+02  0.88559010667E+02  0.00000000000E+00 0. -1.
</event>
<event>
 7    1  0.5779468E-006  0.7562815E+02  0.7818608E-02  0.1371956E+00
          2   -1    0    0  502    0  0.00000000000E+00  0.00000000000E+00  0.20840018053E+04  0.20840018053E+04  0.00000000000E+00 0. -1.
          1   -1    0    0  501    0 -0.00000000000E+00 -0.00000000000E+00 -0.53698547088E+03  0.53698547088E+03  0.00000000000E+00 0. -1.
         25    2    1    2    0    0  0.97086934147E+01  0.13016124175E+03  0.29879614404E+03  0.34920311516E+03  0.12500988905E+03 0.  0.
          2    1    1    2  501    0 -0.20213686958E+02 -0.72412934670E+02 -0.50852813950E+03  0.51405553680E+03  0.00000000000E+00 0. -1.
          1    1    1    2  502    0  0.10504993543E+02 -0.57748307085E+02  0.17567483299E+04  0.17577286242E+04  0.00000000000E+00 0. -1.
         22    1    3    3    0    0 -0.24475264757E+02  0.93807075496E+02  0.82726749091E+02  0.12744614946E+03  0.00000000000E+00 0. -1.
         22    1    3    3    0    0  0.34183958172E+02  0.36354166259E+02  0.21606939495E+03  0.22175696570E+03  0.00000000000E+00 0. -1.
</event>
<event>
 7    1  0.5779468E-006  0.1715794E+03  0.7818608E-02  0.1321354E+00
          2   -1    0    0  502    0  0.00000000000E+00  0.00000000000E+00  0.37218130818E+03  0.37218130818E+03  0.00000000000E+00 0. -1.
          1   -1    0    0  501    0 -0.00000000000E+00 -0.00000000000E+00 -0.67938692966E+03  0.67938692966E+03  0.00000000000E+00 0. -1.
         25    2    1    2    0    0  0.12843985756E+03  0.80978906763E+02  0.14215515502E+03  0.24266790463E+03  0.12500097395E+03 0.  0.
          2    1    1    2  501    0  0.32909454021E+02  0.22620151860E+02 -0.57711377791E+03  0.57849374766E+03  0.00000000000E+00 0. -1.
          1    1    1    2  502    0 -0.16134931158E+03 -0.10359905862E+03  0.12775300140E+03  0.23040658555E+03  0.00000000000E+00 0. -1.
         22    1    3    3    0    0  0.94183112586E+02 -0.13978735505E+02  0.77727900702E+02  0.12291253105E+03  0.00000000000E+00 0.  1.
         22    1    3    3    0    0  0.34256744974E+02  0.94957642268E+02  0.64427254322E+02  0.11975537358E+03  0.00000000000E+00 0.  1.
</event>
<event>
 7    1  0.5779468E-006  0.8744321E+02  0.7818608E-02  0.1354639E+00
          2   -1    0    0  502    0  0.00000000000E+00  0.00000000000E+00  0.14510871103E+04  0.14510871103E+04  0.00000000000E+00 0. -1.
          1   -1    0    0  501    0 -0.00000000000E+00 -0.00000000000E+00 -0.57914402303E+03  0.57914402303E+03  0.00000000000E+00 0. -1.
         25    2    1    2    0    0  0.78624379942E+02 -0.54308166394E+02 -0.15736762072E+02  0.15813022058E+03  0.12500540357E+03 0.  0.
          2    1    1    2  501    0  0.89154729643E+01  0.57993655253E+02 -0.48906434746E+03  0.49257150310E+03  0.00000000000E+00 0. -1.
          1    1    1    2  502    0 -0.87539852906E+02 -0.36854888592E+01  0.13767441968E+04  0.13795294097E+04  0.00000000000E+00 0. -1.
         22    1    3    3    0    0 -0.25120109653E+02  0.16728042334E+02 -0.11585676170E+02  0.32327622888E+02  0.00000000000E+00 0.  1.
         22    1    3    3    0    0  0.10374448959E+03 -0.71036208728E+02 -0.41510859020E+01  0.12580259769E+03  0.00000000000E+00 0.  1.
</event>
<event>
 7    1  0.5779468E-006  0.1610209E+03  0.7818608E-02  0.1350905E+00
          2   -1    0    0  502    0  0.00000000000E+00  0.00000000000E+00  0.11766056348E+04  0.11766056348E+04  0.00000000000E+00 0. -1.
          1   -1    0    0  501    0 -0.00000000000E+00 -0.00000000000E+00 -0.33158931980E+03  0.33158931980E+03  0.00000000000E+00 0. -1.
         25    2    1    2    0    0  0.12671980073E+03 -0.12546884359E+03 -0.15818455813E+03  0.26916089252E+03  0.12499957208E+03 0.  0.
          2    1    1    2  501    0 -0.32559933589E+02 -0.46527312066E+01 -0.10974005398E+03  0.11456298106E+03  0.00000000000E+00 0. -1.
          1    1    1    2  502    0 -0.94159867139E+02  0.13012157480E+03  0.11129409271E+04  0.11244710810E+04  0.00000000000E+00 0. -1.
         22    1    3    3    0    0  0.71315153176E+02  0.62842189250E+01 -0.75467820104E+02  0.10402275881E+03  0.00000000000E+00 0. -1.
         22    1    3    3    0    0  0.55404647551E+02 -0.13175306251E+03 -0.82716738030E+02  0.16513813370E+03  0.00000000000E+00 0. -1.
</event>
<event>
 7    1  0.5779468E-006  0.1117883E+03  0.7818608E-02  0.1432088E+00
          2   -1    0    0  502    0  0.00000000000E+00  0.00000000000E+00  0.10531391207E+04  0.10531391207E+04  0.00000000000E+00 0. -1.
          1   -1    0    0  501    0 -0.00000000000E+00 -0.00000000000E+00 -0.47300500532E+03  0.47300500532E+03  0.00000000000E+00 0. -1.
         25    2    1    2    0    0 -0.74977839034E+02  0.81317652212E+02  0.26296185158E+02  0.16896646444E+03  0.12499575931E+03 0.  0.
          2    1    1    2  501    0 -0.17181736524E+02 -0.17739910572E+02 -0.39800600696E+03  0.39877148603E+03  0.00000000000E+00 0. -1.
          1    1    1    2  502    0  0.92159575557E+02 -0.63577741640E+02  0.95184393713E+03  0.95840617551E+03  0.00000000000E+00 0. -1.
         22    1    3    3    0    0 -0.10643360045E+03  0.40936125202E+02  0.69529176525E+01  0.11424631598E+03  0.00000000000E+00 0.  1.
         22    1    3    3    0    0  0.31455761415E+02  0.40381527009E+02  0.19343267506E+02  0.54720148461E+02  0.00000000000E+00 0.  1.
</event>
<event>
 7    1  0.5779468E-006  0.1423440E+03  0.7818608E-02  0.1325982E+00
          2   -1    0    0  502    0  0.00000000000E+00  0.00000000000E+00  0.44818645129E+03  0.44818645129E+03  0.00000000000E+00 0. -1.
          1   -1    0    0  501    0 -0.00000000000E+00 -0.00000000000E+00 -0.12330557407E+04  0.12330557407E+04  0.00000000000E+00 0. -1.
         25    2    1    2    0    0 -0.68309761488E+02 -0.15265318731E+03 -0.94918940357E+02  0.22935491658E+03  0.12499941365E+03 0.  0.
          2    1    1    2  501    0  0.24221931721E+02  0.13885439783E+03 -0.10648570118E+04  0.10741451025E+04  0.00000000000E+00 0. -1.
          1    1    1    2  502    0  0.44087829767E+02  0.13798789476E+02  0.37490666278E+03  0.37774217282E+03  0.00000000000E+00 0. -1.
         22    1    3    3    0    0  0.25424128073E+02 -0.95902703896E+02 -0.44665488413E+02  0.10880588568E+03  0.00000000000E+00 0.  1.
         22    1    3    3    0    0 -0.93733889561E+02 -0.56750483412E+02 -0.50253451944E+02  0.12054903090E+03  0.00000000000E+00 0.  1.
</event>
<event>
 7    1  0.5779468E-006  0.1184633E+03  0.7818608E-02  0.1371696E+00
          2   -1    0    0  502    0  0.00000000000E+00  0.00000000000E+00  0.15708277984E+04  0.15708277984E+04  0.00000000000E+00 0. -1.
          1   -1    0    0  501    0 -0.00000000000E+00 -0.00000000000E+00 -0.13807583657E+03  0.13807583657E+03  0.00000000000E+00 0. -1.
         25    2    1    2    0    0 -0.11598714466E+03 -0.11470141800E+02  0.60067094039E+03  0.62451200501E+03  0.12500033553E+03 0.  0.
          2    1    1    2  501    0 -0.16522569446E+01  0.37516262583E+02 -0.11947500426E+03  0.12523768025E+03  0.00000000000E+00 0. -1.
          1    1    1    2  502    0  0.11763940160E+03 -0.26046120783E+02  0.95155602571E+03  0.95915394973E+03  0.00000000000E+00 0. -1.
         22    1    3    3    0    0  0.11263077091E+02  0.67550549166E+01  0.34031993339E+01  0.13567219250E+02  0.00000000000E+00 0.  1.
         22    1    3    3    0    0 -0.12725022175E+03 -0.18225196717E+02  0.59726774106E+03  0.61094478576E+03  0.00000000000E+00 0.  1.
</event>
<event>
 7    1  0.5779468E-006  0.6531807E+02  0.7818608E-02  0.1479393E+00
          2   -1    0    0  502    0  0.00000000000E+00  0.00000000000E+00  0.16495066821E+03  0.16495066821E+03  0.00000000000E+00 0. -1.
          1   -1    0    0  501    0 -0.00000000000E+00 -0.00000000000E+00 -0.80462094639E+03  0.80462094639E+03  0.00000000000E+00 0. -1.
         25    2    1    2    0    0 -0.65839426385E+02 -0.36799929427E+02 -0.12545969594E+03  0.19249223082E+03  0.12499623493E+03 0.  0.
          2    1    1    2  501    0  0.64735864311E+02  0.69094841646E+01 -0.64227612024E+03  0.64556726042E+03  0.00000000000E+00 0. -1.
          1    1    1    2  502    0  0.11035620743E+01  0.29890445263E+02  0.12806553800E+03  0.13151212336E+03  0.00000000000E+00 0. -1.
         22    1    3    3    0    0 -0.18803745106E+02 -0.42811119670E+02  0.10994450518E+02  0.48033849935E+02  0.00000000000E+00 0.  1.
         22    1    3    3    0    0 -0.47035681279E+02  0.60111902425E+01 -0.13645414646E+03  0.14445838088E+03  0.00000000000E+00 0.  1.
</event>
<event>
 7    1  0.5779468E-006  0.7920252E+02  0.7818608E-02  0.1503041E+00
          2   -1    0    0  502    0  0.00000000000E+00  0.00000000000E+00  0.54062589493E+03  0.54062589493E+03  0.00000000000E+00 0. -1.
          1   -1    0    0  501    0 -0.00000000000E+00 -0.00000000000E+00 -0.83811886610E+03  0.83811886610E+03  0.00000000000E+00 0. -1.
         25    2    1    2    0    0  0.58676627309E+02  0.78509841213E+02 -0.89613270547E+02  0.18237200431E+03  0.12498907127E+03 0.  0.
          2    1    1    2  501    0 -0.58130642297E+01 -0.20102732113E+02 -0.69882951503E+03  0.69914276269E+03  0.00000000000E+00 0. -1.
          1    1    1    2  502    0 -0.52863563079E+02 -0.58407109100E+02  0.49094981441E+03  0.49722999403E+03  0.00000000000E+00 0. -1.
         22    1    3    3    0    0  0.40558022819E+02 -0.52328472922E+01 -0.87591841850E+02  0.96667816074E+02  0.00000000000E+00 0. -1.
         22    1    3    3    0    0  0.18118604490E+02  0.83742688505E+02 -0.20214286964E+01  0.85704188233E+02  0.00000000000E+00 0. -1.
</event>
<event>
 7    1  0.5779468E-006  0.1277922E+03  0.7818608E-02  0.1301307E+00
          2   -1    0    0  502    0  0.00000000000E+00  0.00000000000E+00  0.88515136497E+03  0.88515136497E+03  0.00000000000E+00 0. -1.
          1   -1    0    0  501    0 -0.00000000000E+00 -0.00000000000E+00 -0.26229033458E+04  0.26229033458E+04  0.00000000000E+00 0. -1.
         25    2    1    2    0    0 -0.39865677120E+01  0.91929606397E+02  0.72862040095E+02  0.17146627686E+03  0.12499944784E+03 0.  0.
          2    1    1    2  501    0  0.65565834132E+02 -0.11040214065E+03 -0.25706416374E+04  0.25738465259E+04  0.00000000000E+00 0. -1.
          1    1    1    2  502    0 -0.61579266420E+02  0.18472534257E+02  0.76002761640E+03  0.76274190803E+03  0.00000000000E+00 0. -1.
         22    1    3    3    0    0 -0.34715596969E+02 -0.93369291055E+01  0.52610422535E+02  0.63719757355E+02  0.00000000000E+00 0.  1.
         22    1    3    3    0    0  0.30729029257E+02  0.10126653550E+03  0.20251617560E+02  0.10774651951E+03  0.00000000000E+00 0.  1.
</event>
<event>
 7    1  0.5779468E-006  0.1252249E+03  0.7818608E-02  0.1329842E+00
          2   -1    0    0  502    0  0.00000000000E+00  0.00000000000E+00  0.10625905829E+04  0.10625905829E+04  0.00000000000E+00 0. -1.
          1   -1    0    0  501    0 -0.00000000000E+00 -0.00000000000E+00 -0.12137511819E+03  0.12137511819E+03  0.00000000000E+00 0. -1.
         25    2    1    2    0    0 -0.11551538125E+03  0.15551322345E+02  0.46735949861E+03  0.49763727345E+03  0.12502922877E+03 0.  0.
          2    1    1    2  501    0  0.12175212267E+03  0.34817554384E+02 -0.66884761878E+02  0.14321107792E+03  0.00000000000E+00 0. -1.
          1    1    1    2  502    0 -0.62367414143E+01 -0.50368876728E+02  0.54074072799E+03  0.54311734974E+03  0.00000000000E+00 0. -1.
         22    1    3    3    0    0 -0.67378917333E+02 -0.32484848762E+02  0.37807730795E+03  0.38540580521E+03  0.00000000000E+00 0.  1.
         22    1    3    3    0    0 -0.48136463922E+02  0.48036171106E+02  0.89282190661E+02  0.11223146824E+03  0.00000000000E+00 0.  1.
</event>
<event>
 7    1  0.5779468E-006  0.8012048E+02  0.7818608E-02  0.1386232E+00
          2   -1    0    0  502    0  0.00000000000E+00  0.00000000000E+00  0.79186961802E+03  0.79186961802E+03  0.00000000000E+00 0. -1.
          1   -1    0    0  501    0 -0.00000000000E+00 -0.00000000000E+00 -0.17769340424E+03  0.17769340424E+03  0.00000000000E+00 0. -1.
         25    2    1    2    0    0  0.52926010189E+02 -0.90548613368E+01  0.34069249525E+03  0.36685121120E+03  0.12500112709E+03 0.  0.
          2    1    1    2  501    0  0.34902637663E+02  0.34829330635E+02 -0.15598732938E+03  0.16359499783E+03  0.00000000000E+00 0. -1.
          1    1    1    2  502    0 -0.87828647852E+02 -0.25774469298E+02  0.42947104792E+03  0.43911681322E+03  0.00000000000E+00 0. -1.
         22    1    3    3    0    0  0.79573375949E+02  0.28206899619E+02  0.26748776594E+03  0.28049466354E+03  0.00000000000E+00 0. -1.
         22    1    3    3    0    0 -0.26647365761E+02 -0.37261760956E+02  0.73204729313E+02  0.86356547669E+02  0.00000000000E+00 0. -1.
</event>
<event>
 7    1  0.5779468E-006  0.8730892E+02  0.7818608E-02  0.1385784E+00
          2   -1    0    0  502    0  0.00000000000E+00  0.00000000000E+00  0.11176041950E+04  0.11176041950E+04  0.00000000000E+00 0. -1.
          1   -1    0    0  501    0 -0.00000000000E+00 -0.00000000000E+00 -0.44454929349E+02  0.44454929349E+02  0.00000000000E+00 0. -1.
         25    2    1    2    0    0 -0.11734256970E+03 -0.10584417859E+02  0.22778069074E+03  0.28529022262E+03  0.12500063793E+03 0.  0.
          2    1    1    2  501    0  0.73244854647E+02  0.21432860776E+02  0.81879570797E+02  0.11193051580E+03  0.00000000000E+00 0. -1.
          1    1    1    2  502    0  0.44097715054E+02 -0.10848442917E+02  0.76348900411E+03  0.76483838593E+03  0.00000000000E+00 0. -1.
         22    1    3    3    0    0 -0.27268450140E+02 -0.13581279576E+02 -0.91416260319E+01  0.31805484660E+02  0.00000000000E+00 0. -1.
         22    1    3    3    0    0 -0.90074119561E+02  0.29968617167E+01  0.23692231677E+03  0.25348473796E+03  0.00000000000E+00 0. -1.
</event>
<event>
 7    1  0.5779468E-006  0.3554160E+03  0.7818608E-02  0.1234212E+00
          2   -1    0    0  502    0  0.00000000000E+00  0.00000000000E+00  0.17226769600E+04  0.17226769600E+04  0.00000000000E+00 0. -1.
          1   -1    0    0  501    0 -0.00000000000E+00 -0.00000000000E+00 -0.63061997180E+03  0.63061997180E+03  0.00000000000E+00 0. -1.
         25    2    1    2    0    0  0.35702322523E+03  0.13621676064E+03  0.74364081238E+03  0.84536823086E+03  0.12500079468E+03 0.  0.
          2    1    1    2  501    0 -0.43998701617E+02 -0.55743994622E+01 -0.54784139084E+03  0.54963364998E+03  0.00000000000E+00 0. -1.
          1    1    1    2  502    0 -0.31302452362E+03 -0.13064236118E+03  0.89625756664E+03  0.95829505095E+03  0.00000000000E+00 0. -1.
         22    1    3    3    0    0  0.30192106036E+01  0.27667968354E+02  0.27279667454E+02  0.38971943266E+02  0.00000000000E+00 0. -1.
         22    1    3    3    0    0  0.35400401463E+03  0.10854879229E+03  0.71636114492E+03  0.80639628759E+03  0.00000000000E+00 0. -1.
</event>
<event>
 7    1  0.5779468E-006  0.1403510E+03  0.7818608E-02  0.1270437E+00
          2   -1    0    0  502    0  0.00000000000E+00  0.00000000000E+00  0.19982108874E+04  0.19982108874E+04  0.00000000000E+00 0. -1.
          1   -1    0    0  501    0 -0.00000000000E+00 -0.00000000000E+00 -0.63248946053E+02  0.63248946053E+02  0.00000000000E+00 0. -1.
         25    2    1    2    0    0 -0.23048824315E+02 -0.85982370929E+02  0.30198980469E+03  0.33874392817E+03  0.12500156127E+03 0.  0.
          2    1    1    2  501    0  0.63304609783E+02  0.15315581798E+03  0.11266596229E+03  0.20039410485E+03  0.00000000000E+00 0. -1.
          1    1    1    2  502    0 -0.40255785469E+02 -0.67173447051E+02  0.15203061743E+04  0.15223218004E+04  0.00000000000E+00 0. -1.
         22    1    3    3    0    0 -0.69413235451E+02 -0.54171880172E+02  0.12398223473E+03  0.15206703912E+03  0.00000000000E+00 0. -1.
         22    1    3    3    0    0  0.46364411136E+02 -0.31810490757E+02  0.17800756996E+03  0.18667688905E+03  0.00000000000E+00 0. -1.
</event>
<event>
 7    1  0.5779468E-006  0.3085322E+02  0.7818608E-02  0.1598997E+00
          2   -1    0    0  502    0  0.00000000000E+00  0.00000000000E+00  0.74373561454E+03  0.74373561454E+03  0.00000000000E+00 0. -1.
          1   -1    0    0  501    0 -0.00000000000E+00 -0.00000000000E+00 -0.25134136101E+03  0.25134136101E+03  0.00000000000E+00 0. -1.
         25    2    1    2    0    0 -0.21840102452E+02  0.43122503382E+02 -0.16679507664E+03  0.21396458019E+03  0.12499481435E+03 0.  0.
          2    1    1    2  501    0 -0.53207282587E+01 -0.28519025493E+02 -0.57159378589E+02  0.64100230303E+02  0.00000000000E+00 0. -1.
          1    1    1    2  502    0  0.27160830711E+02 -0.14603477890E+02  0.71634870876E+03  0.71701216505E+03  0.00000000000E+00 0. -1.
         22    1    3    3    0    0 -0.14658072490E+02  0.79550949245E+02 -0.59470873702E+02  0.10039919040E+03  0.00000000000E+00 0.  1.
         22    1    3    3    0    0 -0.71820299621E+01 -0.36428445863E+02 -0.10732420294E+03  0.11356538979E+03  0.00000000000E+00 0.  1.
</event>
<event>
 7    1  0.5779468E-006  0.6128005E+02  0.7818608E-02  0.1530605E+00
          2   -1    0    0  502    0  0.00000000000E+00  0.00000000000E+00  0.72637517111E+03  0.72637517111E+03  0.00000000000E+00 0. -1.
          1   -1    0    0  501    0 -0.00000000000E+00 -0.00000000000E+00 -0.10567067222E+04  0.10567067222E+04  0.00000000000E+00 0. -1.
         25    2    1    2    0    0 -0.69993123092E+02  0.99386896526E+01 -0.66495534624E+02  0.15825599364E+03  0.12500195425E+03 0.  0.
          2    1    1    2  501    0  0.55013454184E+02 -0.26694964799E+02 -0.94315502504E+03  0.94513517687E+03  0.00000000000E+00 0. -1.
          1    1    1    2  502    0  0.14979668908E+02  0.16756275146E+02  0.67931900858E+03  0.67969072280E+03  0.00000000000E+00 0. -1.
         22    1    3    3    0    0 -0.79304167024E+02 -0.40518336849E+02 -0.57924178057E+02  0.10623604347E+03  0.00000000000E+00 0.  1.
         22    1    3    3    0    0  0.93110439325E+01  0.50457026501E+02 -0.85713565664E+01  0.52019950172E+02  0.00000000000E+00 0.  1.
</event>
<event>
 7    1  0.5779468E-006  0.5819692E+02  0.7818608E-02  0.1424465E+00
          2   -1    0    0  502    0  0.00000000000E+00  0.00000000000E+00  0.13215699265E+04  0.13215699265E+04  0.00000000000E+00 0. -1.
          1   -1    0    0  501    0 -0.00000000000E+00 -0.00000000000E+00 -0.35315809943E+02  0.35315809943E+02  0.00000000000E+00 0. -1.
         25    2    1    2    0    0 -0.53526196039E+02  0.68216403004E+02  0.35833164375E+03  0.38928822737E+03  0.12500090300E+03 0.  0.
          2    1    1    2  501    0  0.53463082093E+02 -0.17948702961E+02  0.22400646547E+02  0.60681513252E+02  0.00000000000E+00 0. -1.
          1    1    1    2  502    0  0.63113945977E-01 -0.50267700043E+02  0.90552182629E+03  0.90691599585E+03  0.00000000000E+00 0. -1.
         22    1    3    3    0    0  0.32336154058E+02  0.54003797948E+02  0.18343786558E+03  0.19393681337E+03  0.00000000000E+00 0. -1.
         22    1    3    3    0    0 -0.85862350097E+02  0.14212605056E+02  0.17489377818E+03  0.19535141400E+03  0.00000000000E+00 0. -1.
</event>
<event>
 7    1  0.5779468E-006  0.8213734E+02  0.7818608E-02  0.1399069E+00
          2   -1    0    0  502    0  0.00000000000E+00  0.00000000000E+00  0.16920502449E+03  0.16920502449E+03  0.00000000000E+00 0. -1.
          1   -1    0    0  501    0 -0.00000000000E+00 -0.00000000000E+00 -0.22752045728E+04  0.22752045728E+04  0.00000000000E+00 0. -1.
         25    2    1    2    0    0  0.87650433892E+02  0.83685245931E+02 -0.12678046923E+03  0.21536946717E+03  0.12499960426E+03 0.  0.
          2    1    1    2  501    0 -0.24306754576E+02 -0.35955582267E+02 -0.20912916229E+04  0.20917419234E+04  0.00000000000E+00 0. -1.
          1    1    1    2  502    0 -0.63343679316E+02 -0.47729663664E+02  0.11207254378E+03  0.13729820673E+03  0.00000000000E+00 0. -1.
         22    1    3    3    0    0  0.47360477480E+02 -0.24922145089E+02 -0.18008034393E+02  0.56466073404E+02  0.00000000000E+00 0.  1.
         22    1    3    3    0    0  0.40289956412E+02  0.10860739102E+03 -0.10877243483E+03  0.15890339377E+03  0.00000000000E+00 0.  1.
</event>
<event>
 7    1  0.5779468E-006  0.3466403E+02  0.7818608E-02  0.1629201E+00
          2   -1    0    0  502    0  0.00000000000E+00  0.00000000000E+00  0.74357702253E+03  0.74357702253E+03  0.00000000000E+00 0. -1.
          1   -1    0    0  501    0 -0.00000000000E+00 -0.00000000000E+00 -0.62868907806E+03  0.62868907806E+03  0.00000000000E+00 0. -1.
         25    2    1    2    0    0 -0.10550633963E+02 -0.19601486044E+02 -0.63453705361E+01  0.12712972076E+03  0.12500467207E+03 0.  0.
          2    1    1    2  501    0 -0.51563401695E+01  0.34430270975E+02 -0.56124128200E+03  0.56232002278E+03  0.00000000000E+00 0. -1.
          1    1    1    2  502    0  0.15706974133E+02 -0.14828784931E+02  0.68247459701E+03  0.68281635705E+03  0.00000000000E+00 0. -1.
         22    1    3    3    0    0 -0.53635203920E+02 -0.19822132336E+02 -0.42208432560E+02  0.71071821484E+02  0.00000000000E+00 0. -1.
         22    1    3    3    0    0  0.43084569956E+02  0.22064629252E+00  0.35863062024E+02  0.56057899272E+02  0.00000000000E+00 0. -1.
</event>
<event>
 7    1  0.5779468E-006  0.3340018E+02  0.7818608E-02  0.1592307E+00
          2   -1    0    0  502    0  0.00000000000E+00  0.00000000000E+00  0.66158978181E+03  0.66158978181E+03  0.00000000000E+00 0. -1.
          1   -1    0    0  501    0 -0.00000000000E+00 -0.00000000000E+00 -0.12237877543E+04  0.12237877543E+04  0.00000000000E+00 0. -1.
         25    2    1    2    0    0  0.25173475545E+02 -0.41970378381E+02  0.32178280139E+02  0.13804256771E+03  0.12500036902E+03 0.  0.
          2    1    1    2  501    0  0.48438273314E+01  0.27482151105E+02 -0.11702073480E+04  0.11705400329E+04  0.00000000000E+00 0. -1.
          1    1    1    2  502    0 -0.30017302876E+02  0.14488227276E+02  0.57583109539E+03  0.57679493550E+03  0.00000000000E+00 0. -1.
         22    1    3    3    0    0  0.49752918423E+02 -0.62435623869E+01  0.66113277954E+02  0.82977710771E+02  0.00000000000E+00 0.  1.
         22    1    3    3    0    0 -0.24579442879E+02 -0.35726815994E+02 -0.33934997816E+02  0.55064856942E+02  0.00000000000E+00 0.  1.
</event>
<event>
 7    1  0.5779468E-006  0.9092711E+02  0.7818608E-02  0.1333364E+00
          2   -1    0    0  502    0  0.00000000000E+00  0.00000000000E+00  0.21303299746E+04  0.21303299746E+04  0.00000000000E+00 0. -1.
          1   -1    0    0  501    0 -0.00000000000E+00 -0.00000000000E+00 -0.24293021945E+03  0.24293021945E+03  0.00000000000E+00 0. -1.
         25    2    1    2    0    0  0.14095196265E+03 -0.20035639881E+02  0.70376365628E+03  0.72881903252E+03  0.12500006255E+03 0.  0.
          2    1    1    2  501    0 -0.56471320483E+02  0.37468531301E+02 -0.22407003162E+03  0.23409459615E+03  0.00000000000E+00 0. -1.
          1    1    1    2  502    0 -0.84480642163E+02 -0.17432891421E+02  0.14077061305E+04  0.14103465654E+04  0.00000000000E+00 0. -1.
         22    1    3    3    0    0 -0.87512632810E+01  0.30276701584E+02  0.11977115334E+03  0.12384826378E+03  0.00000000000E+00 0. -1.
         22    1    3    3    0    0  0.14970322593E+03 -0.50312341464E+02  0.58399250293E+03  0.60497076875E+03  0.00000000000E+00 0. -1.
</event>
<event>
 7    1  0.5779468E-006  0.1757974E+03  0.7818608E-02  0.1348883E+00
          2   -1    0    0  502    0  0.00000000000E+00  0.00000000000E+00  0.19928094262E+04  0.19928094262E+04  0.00000000000E+00 0. -1.
          1   -1    0    0  501    0 -0.00000000000E+00 -0.00000000000E+00 -0.54305725901E+03  0.54305725901E+03  0.00000000000E+00 0. -1.
         25    2    1    2    0    0 -0.85938564753E+01 -0.16223793818E+03 -0.28382354818E+01  0.20500659857E+03  0.12499858768E+03 0.  0.
          2    1    1    2  501    0  0.36599974346E+02  0.17469247463E+03 -0.42086806797E+03  0.45715090447E+03  0.00000000000E+00 0. -1.
          1    1    1    2  502    0 -0.28006117870E+02 -0.12454536444E+02  0.18734584706E+04  0.18737091821E+04  0.00000000000E+00 0. -1.
         22    1    3    3    0    0  0.54252607998E+02 -0.77344227130E+02  0.20872818397E+02  0.96753033507E+02  0.00000000000E+00 0. -1.
         22    1    3    3    0    0 -0.62846464473E+02 -0.84893711054E+02 -0.23711053879E+02  0.10825356507E+03  0.00000000000E+00 0. -1.
</event>
<event>
 7    1  0.5779468E-006  0.4631475E+02  0.7818608E-02  0.1475162E+00
          2   -1    0    0  502    0  0.00000000000E+00  0.00000000000E+00  0.16647222483E+04  0.16647222483E+04  0.00000000000E+00 0. -1.
          1   -1    0    0  501    0 -0.00000000000E+00 -0.00000000000E+00 -0.21664927988E+03  0.21664927988E+03  0.00000000000E+00 0. -1.
         25    2    1    2    0    0  0.45136952797E+02  0.37840244974E+02  0.42070260327E+03  0.44281501037E+03  0.12500089745E+03 0.  0.
          2    1    1    2  501    0  0.10489215231E+01 -0.43455456123E+02 -0.20285082210E+03  0.20745585778E+03  0.00000000000E+00 0. -1.
          1    1    1    2  502    0 -0.46185874320E+02  0.56152111488E+01  0.12302211873E+04  0.12311006601E+04  0.00000000000E+00 0. -1.
         22    1    3    3    0    0  0.39271471371E+02  0.34907101537E+02  0.51563253165E+02  0.73617411516E+02  0.00000000000E+00 0.  1.
         22    1    3    3    0    0  0.58654814255E+01  0.29331434371E+01  0.36913935011E+03  0.36919759885E+03  0.00000000000E+00 0.  1.
</event>
<event>
 7    1  0.5779468E-006  0.4520875E+02  0.7818608E-02  0.1501636E+00
          2   -1    0    0  502    0  0.00000000000E+00  0.00000000000E+00  0.16812179979E+03  0.16812179979E+03  0.00000000000E+00 0. -1.
          1   -1    0    0  501    0 -0.00000000000E+00 -0.00000000000E+00 -0.78490228591E+03  0.78490228591E+03  0.00000000000E+00 0. -1.
         25    2    1    2    0    0 -0.53040951347E+02  0.43770876619E+02 -0.14648999553E+03  0.20448169184E+03  0.12499684534E+03 0.  0.
          2    1    1    2  501    0  0.16077944426E+02 -0.41794540997E+02 -0.60611365279E+03  0.60776561605E+03  0.00000000000E+00 0. -1.
          1    1    1    2  502    0  0.36963006921E+02 -0.19763356215E+01  0.13582316220E+03  0.14077677782E+03  0.00000000000E+00 0. -1.
         22    1    3    3    0    0 -0.47398101838E+02 -0.30223768486E+02 -0.10590399269E+03  0.11989875690E+03  0.00000000000E+00 0. -1.
         22    1    3    3    0    0 -0.56428495085E+01  0.73994645105E+02 -0.40586002845E+02  0.84582934932E+02  0.00000000000E+00 0. -1.
</event>
<event>
 7    1  0.5779468E-006  0.1411722E+03  0.7818608E-02  0.1320157E+00
          2   -1    0    0  502    0  0.00000000000E+00  0.00000000000E+00  0.14959112791E+03  0.14959112791E+03  0.00000000000E+00 0. -1.
          1   -1    0    0  501    0 -0.00000000000E+00 -0.00000000000E+00 -0.75376140987E+03  0.75376140987E+03  0.00000000000E+00 0. -1.
         25    2    1    2    0    0 -0.13304698588E+03 -0.24815153738E+01 -0.24077782622E+03  0.30216939489E+03  0.12499889296E+03 0.  0.
          2    1    1    2  501    0 -0.28272663471E+01  0.48974929205E+02 -0.43704443801E+03  0.43978901523E+03  0.00000000000E+00 0. -1.
          1    1    1    2  502    0  0.13587425223E+03 -0.46493413831E+02  0.73651982264E+02  0.16139412765E+03  0.00000000000E+00 0. -1.
         22    1    3    3    0    0 -0.74578552327E+02 -0.32295407004E+02 -0.21806863727E+03  0.23272061435E+03  0.00000000000E+00 0. -1.
         22    1    3    3    0    0 -0.58468433556E+02  0.29813891630E+02 -0.22709188943E+02  0.69448780544E+02  0.00000000000E+00 0. -1.
</event>
<event>
 7    1  0.5779468E-006  0.1329672E+03  0.7818608E-02  0.1289308E+00
          2   -1    0    0  502    0  0.00000000000E+00  0.00000000000E+00  0.73831391018E+02  0.73831391018E+02  0.00000000000E+00 0. -1.
          1   -1    0    0  501    0 -0.00000000000E+00 -0.00000000000E+00 -0.20067569229E+04  0.20067569229E+04  0.00000000000E+00 0. -1.
         25    2    1    2    0    0 -0.15757590052E+03  0.21573879038E+02 -0.41575626959E+03  0.46235513320E+03  0.12499358706E+03 0.  0.
          2    1    1    2  501    0  0.48296275305E+02  0.49379529502E+02 -0.14815490961E+04  0.14831583167E+04  0.00000000000E+00 0. -1.
          1    1    1    2  502    0  0.10927962522E+03 -0.70953408540E+02 -0.35620166245E+02  0.13507486411E+03  0.00000000000E+00 0. -1.
         22    1    3    3    0    0 -0.48128673545E+02  0.58180461299E+01 -0.29363996728E+03  0.29761493454E+03  0.00000000000E+00 0.  1.
         22    1    3    3    0    0 -0.10944722698E+03  0.15755832908E+02 -0.12211630232E+03  0.16474019866E+03  0.00000000000E+00 0.  1.
</event>
<event>
 7    1  0.5779468E-006  0.7364963E+02  0.7818608E-02  0.1430103E+00
          2   -1    0    0  502    0  0.00000000000E+00  0.00000000000E+00  0.11009196580E+04  0.11009196580E+04  0.00000000000E+00 0. -1.
          1   -1    0    0  501    0 -0.00000000000E+00 -0.00000000000E+00 -0.41415961647E+02  0.41415961647E+02  0.00000000000E+00 0. -1.
         25    2    1    2    0    0  0.65600385093E+02  0.34470019622E+02  0.30629475714E+03  0.33901745402E+03  0.12499905240E+03 0.  0.
          2    1    1    2  501    0  0.89354975679E+01 -0.36988919728E+02 -0.76488881179E+01  0.38814028248E+02  0.00000000000E+00 0. -1.
          1    1    1    2  502    0 -0.74535882661E+02  0.25189001058E+01  0.76085782737E+03  0.76450413742E+03  0.00000000000E+00 0. -1.
         22    1    3    3    0    0 -0.12888942859E+02 -0.31871965045E+02  0.35693237919E+02  0.49557585060E+02  0.00000000000E+00 0. -1.
         22    1    3    3    0    0  0.78489327952E+02  0.66341984667E+02  0.27060151922E+03  0.28945986896E+03  0.00000000000E+00 0. -1.
</event>
<event>
 7    1  0.5779468E-006  0.5139423E+02  0.7818608E-02  0.1482735E+00
          2   -1    0    0  502    0  0.00000000000E+00  0.00000000000E+00  0.18645098313E+03  0.18645098313E+03  0.00000000000E+00 0. -1.
          1   -1    0    0  501    0 -0.00000000000E+00 -0.00000000000E+00 -0.13012453460E+04  0.13012453460E+04  0.00000000000E+00 0. -1.
         25    2    1    2    0    0  0.31557906741E+02 -0.29261344699E+02 -0.66457190300E+01  0.13236906941E+03  0.12500110873E+03 0.  0.
          2    1    1    2  501    0 -0.18568670329E+01  0.51541026685E+02 -0.12283960442E+04  0.12294782499E+04  0.00000000000E+00 0. -1.
          1    1    1    2  502    0 -0.29701039708E+02 -0.22279681986E+02  0.12024740038E+03  0.12584900988E+03  0.00000000000E+00 0. -1.
         22    1    3    3    0    0  0.20995291307E+02 -0.70507559381E+02 -0.34741085375E+02  0.81357613043E+02  0.00000000000E+00 0.  1.
         22    1    3    3    0    0  0.10562615434E+02  0.41246214682E+02  0.28095366345E+02  0.51011456365E+02  0.00000000000E+00 0.  1.
</event>
<event>
 7    1  0.5779468E-006  0.2571522E+02  0.7818608E-02  0.1655919E+00
          2   -1    0    0  502    0  0.00000000000E+00  0.00000000000E+00  0.89064109795E+02  0.89064109795E+02  0.00000000000E+00 0. -1.
          1   -1    0    0  501    0 -0.00000000000E+00 -0.00000000000E+00 -0.40486913725E+03  0.40486913725E+03  0.00000000000E+00 0. -1.
         25    2    1    2    0    0 -0.12316322216E+02  0.44572893970E+02 -0.30070834362E+03  0.32891972154E+03  0.12499696246E+03 0.  0.
          2    1    1    2  501    0  0.15972209694E+02 -0.19238755427E+02 -0.86036836473E+02  0.89596754535E+02  0.00000000000E+00 0. -1.
          1    1    1    2  502    0 -0.36558874781E+01 -0.25334138543E+02  0.70940152633E+02  0.75416770977E+02  0.00000000000E+00 0. -1.
         22    1    3    3    0    0 -0.50608740693E+02  0.44231404765E+02 -0.27427003689E+03  0.28238575555E+03  0.00000000000E+00 0. -1.
         22    1    3    3    0    0  0.38292418477E+02  0.34148920557E+00 -0.26438306729E+02  0.46533965986E+02  0.00000000000E+00 0. -1.
</event>
<event>
 7    1  0.5779468E-006  0.4379960E+02  0.7818608E-02  0.1507900E+00
          2   -1    0    0  502    0  0.00000000000E+00  0.00000000000E+00  0.11912222673E+04  0.11912222673E+04  0.00000000000E+00 0. -1.
          1   -1    0    0  501    0 -0.00000000000E+00 -0.00000000000E+00 -0.22984936806E+02  0.22984936806E+02  0.00000000000E+00 0. -1.
         25    2    1    2    0    0 -0.70182936073E+02 -0.10020186748E+02  0.52921618363E+03  0.54837981384E+03  0.12499841020E+03 0.  0.
          2    1    1    2  501    0  0.40748852159E+02 -0.11745241219E+02  0.22099493587E+02  0.47820573610E+02  0.00000000000E+00 0. -1.
          1    1    1    2  502    0  0.29434083914E+02  0.21765427967E+02  0.61692165324E+03  0.61800681662E+03  0.00000000000E+00 0. -1.
         22    1    3    3    0    0 -0.41691765656E+02  0.45763822758E+02  0.12666357621E+03  0.14098295051E+03  0.00000000000E+00 0.  1.
         22    1    3    3    0    0 -0.28491170418E+02 -0.55784009506E+02  0.40255260742E+03  0.40739686333E+03  0.00000000000E+00 0.  1.
</event>
<event>
 7    1  0.5779468E-006  0.5453354E+02  0.7818608E-02  0.1442691E+00
          2   -1    0    0  502    0  0.00000000000E+00  0.00000000000E+00  0.33227400213E+03  0.33227400213E+03  0.00000000000E+00 0. -1.
          1   -1    0    0  501    0 -0.00000000000E+00 -0.00000000000E+00 -0.18943586454E+03  0.18943586454E+03  0.00000000000E+00 0. -1.
         25    2    1    2    0    0 -0.81135899286E+02  0.42746767771E+02  0.66876339851E+02  0.16884310452E+03  0.12500091522E+03 0.  0.
          2    1    1    2  501    0  0.46648194796E+02 -0.31591792269E+01 -0.13113371126E+03  0.13921955581E+03  0.00000000000E+00 0. -1.
          1    1    1    2  502    0  0.34487704490E+02 -0.39587588544E+02  0.20709550900E+03  0.21364720634E+03  0.00000000000E+00 0. -1.
         22    1    3    3    0    0  0.16454405676E+01  0.57757674427E+02  0.61731950287E+02  0.84554657567E+02  0.00000000000E+00 0. -1.
         22    1    3    3    0    0 -0.82781339853E+02 -0.15010906657E+02  0.51443895637E+01  0.84288446958E+02  0.00000000000E+00 0. -1.
</event>
<event>
 7    1  0.5779468E-006  0.1230697E+03  0.7818608E-02  0.1302753E+00
          2   -1    0    0  502    0  0.00000000000E+00  0.00000000000E+00  0.11026717833E+04  0.11026717833E+04  0.00000000000E+00 0. -1.
          1   -1    0    0  501    0 -0.00000000000E+00 -0.00000000000E+00 -0.56785051567E+03  0.56785051567E+03  0.00000000000E+00 0. -1.
         25    2    1    2    0    0  0.32064613549E+02  0.96723854613E+02 -0.97691716429E+02  0.18855284181E+03  0.12499943681E+03 0.  0.
          2    1    1    2  501    0  0.63462291463E+02 -0.17668220101E+02 -0.41850720569E+03  0.42366013461E+03  0.00000000000E+00 0. -1.
          1    1    1    2  502    0 -0.95526905012E+02 -0.79055634512E+02  0.10510201898E+04  0.10583093226E+04  0.00000000000E+00 0. -1.
         22    1    3    3    0    0  0.60552994701E+02  0.11216480408E+03 -0.67369583600E+02  0.14417444030E+03  0.00000000000E+00 0. -1.
         22    1    3    3    0    0 -0.28488381152E+02 -0.15440949471E+02 -0.30322132829E+02  0.44378401509E+02  0.00000000000E+00 0. -1.
</event>
<event>
 7    1  0.5779468E-006  0.1388267E+03  0.7818608E-02  0.1302223E+00
          2   -1    0    0  502    0  0.00000000000E+00  0.00000000000E+00  0.10589876492E+04  0.10589876492E+04  0.00000000000E+00 0. -1.
          1   -1    0    0  501    0 -0.00000000000E+00 -0.00000000000E+00 -0.36808194957E+03  0.36808194957E+03  0.00000000000E+00 0. -1.
         25    2    1    2    0    0  0.12580297370E+03  0.12454865307E+03 -0.16618999639E+03  0.27309946728E+03  0.12500179581E+03 0.  0.
          2    1    1    2  501    0 -0.96404854265E+02 -0.73759464724E+02 -0.12259574837E+03  0.17252267121E+03  0.00000000000E+00 0. -1.
          1    1    1    2  502    0 -0.29398119435E+02 -0.50789188344E+02  0.97969144439E+03  0.98144746028E+03  0.00000000000E+00 0. -1.
         22    1    3    3    0    0  0.57390534967E+02  0.48154475434E+02 -0.15214944842E+03  0.16959357790E+03  0.00000000000E+00 0. -1.
         22    1    3    3    0    0  0.68412438734E+02  0.76394177633E+02 -0.14040547968E+02  0.10350588938E+03  0.00000000000E+00 0. -1.
</event>
<event>
 7    1  0.5779468E-006  0.1151164E+03  0.7818608E-02  0.1307243E+00
          2   -1    0    0  502    0  0.00000000000E+00  0.00000000000E+00  0.61154512414E+03  0.61154512414E+03  0.00000000000E+00 0. -1.
          1   -1    0    0  501    0 -0.00000000000E+00 -0.00000000000E+00 -0.40816889265E+03  0.40816889265E+03  0.00000000000E+00 0. -1.
         25    2    1    2    0    0 -0.87836510505E+02 -0.42904759205E+02 -0.90712147889E+02  0.18278376710E+03  0.12500056320E+03 0.  0.
          2    1    1    2  501    0  0.32013011646E+02 -0.59532184066E+02 -0.26105379235E+03  0.26966274559E+03  0.00000000000E+00 0. -1.
          1    1    1    2  502    0  0.55823498859E+02  0.10243694327E+03  0.55514217173E+03  0.56726750410E+03  0.00000000000E+00 0. -1.
         22    1    3    3    0    0 -0.34925934499E+02 -0.83951619903E+02 -0.43146737474E+02  0.10064460413E+03  0.00000000000E+00 0.  1.
         22    1    3    3    0    0 -0.52910576006E+02  0.41046860698E+02 -0.47565410415E+02  0.82139162976E+02  0.00000000000E+00 0.  1.
</event>
<event>
 7    1  0.5779468E-006  0.6900642E+02  0.7818608E-02  0.1388233E+00
          2   -1    0    0  502    0  0.00000000000E+00  0.00000000000E+00  0.32305892102E+03  0.32305892102E+03  0.00000000000E+00 0. -1.
          1   -1    0    0  501    0 -0.00000000000E+00 -0.00000000000E+00 -0.15918586528E+03  0.15918586528E+03  0.00000000000E+00 0. -1.
         25    2    1    2    0    0  0.67733497019E+01  0.11930164195E+03  0.48983582518E+02  0.17973129087E+03  0.12500074209E+03 0.  0.
          2    1    1    2  501    0  0.35870134458E+01 -0.63930088218E+02 -0.78375552695E+02  0.10120597860E+03  0.00000000000E+00 0. -1.
          1    1    1    2  502    0 -0.10360363148E+02 -0.55371553729E+02  0.19326502592E+03  0.20130751683E+03  0.00000000000E+00 0. -1.
         22    1    3    3    0    0  0.28590907820E+02  0.27820003055E+01 -0.26592189742E+02  0.39144911431E+02  0.00000000000E+00 0.  1.
         22    1    3    3    0    0 -0.21817558118E+02  0.11651964164E+03  0.75575772260E+02  0.14058637944E+03  0.00000000000E+00 0.  1.
</event>
<event>
 7    1  0.5779468E-006  0.4680996E+02  0.7818608E-02  0.1489339E+00
          2   -1    0    0  502    0  0.00000000000E+00  0.00000000000E+00  0.12239643825E+04  0.12239643825E+04  0.00000000000E+00 0. -1.
          1   -1    0    0  501    0 -0.00000000000E+00 -0.00000000000E+00 -0.11743305679E+04  0.11743305679E+04  0.00000000000E+00 0. -1.
         25    2    1    2    0    0 -0.23181408815E+02 -0.81875700964E+02 -0.97071344948E+03  0.98242172512E+03  0.12500734720E+03 0.  0.
          2    1    1    2  501    0  0.15442208797E+02  0.35727597039E+02 -0.19539345606E+03  0.19923234094E+03  0.00000000000E+00 0. -1.
          1    1    1    2  502    0  0.77392000186E+01  0.46148103925E+02  0.12157407202E+04  0.12166408844E+04  0.00000000000E+00 0. -1.
         22    1    3    3    0    0 -0.70984265639E+01 -0.66432122318E+02 -0.94883214752E+03  0.95118140157E+03  0.00000000000E+00 0.  1.
         22    1    3    3    0    0 -0.16082982251E+02 -0.15443578645E+02 -0.21881301963E+02  0.31240323543E+02  0.00000000000E+00 0.  1.
</event>
<event>
 7    1  0.5779468E-006  0.1101671E+03  0.7818608E-02  0.1333907E+00
          2   -1    0    0  502    0  0.00000000000E+00  0.00000000000E+00  0.24138792170E+04  0.24138792170E+04  0.00000000000E+00 0. -1.
          1   -1    0    0  501    0 -0.00000000000E+00 -0.00000000000E+00 -0.20250471988E+03  0.20250471988E+03  0.00000000000E+00 0. -1.
         25    2    1    2    0    0 -0.12641976744E+03  0.10294878719E+03  0.11925004356E+04  0.12100666490E+04  0.12499438216E+03 0.  0.
          2    1    1    2  501    0  0.76468577947E+02 -0.78372351439E+02 -0.17754970700E+03  0.20859905881E+03  0.00000000000E+00 0. -1.
          1    1    1    2  502    0  0.49951189493E+02 -0.24576435750E+02  0.11964237684E+04  0.11977182290E+04  0.00000000000E+00 0. -1.
         22    1    3    3    0    0 -0.14764656573E+03  0.64180532775E+02  0.95909666225E+03  0.97251481053E+03  0.00000000000E+00 0. -1.
         22    1    3    3    0    0  0.21226798287E+02  0.38768254414E+02  0.23340377340E+03  0.23755183845E+03  0.00000000000E+00 0. -1.
</event>
<event>
 7    1  0.5779468E-006  0.7582215E+02  0.7818608E-02  0.1470684E+00
          2   -1    0    0  502    0  0.00000000000E+00  0.00000000000E+00  0.33346224872E+03  0.33346224872E+03  0.00000000000E+00 0. -1.
          1   -1    0    0  501    0 -0.00000000000E+00 -0.00000000000E+00 -0.81568600449E+03  0.81568600449E+03  0.00000000000E+00 0. -1.
         25    2    1    2    0    0  0.25362706455E+02  0.97336055130E+02 -0.13835970938E+02  0.16104007050E+03  0.12499958283E+03 0.  0.
          2    1    1    2  501    0 -0.12282904058E+00 -0.27413437502E+02 -0.72266624057E+03  0.72318601128E+03  0.00000000000E+00 0. -1.
          1    1    1    2  502    0 -0.25239877414E+02 -0.69922617627E+02  0.25427845574E+03  0.26492217144E+03  0.00000000000E+00 0. -1.
         22    1    3    3    0    0  0.11546496262E+02  0.10661681182E+03 -0.52164056290E+02  0.11925416096E+03  0.00000000000E+00 0.  1.
         22    1    3    3    0    0  0.13816210193E+02 -0.92807566902E+01  0.38328085352E+02  0.41785909534E+02  0.00000000000E+00 0.  1.
</event>
<event>
 7    1  0.5779468E-006  0.5772120E+02  0.7818608E-02  0.1463776E+00
          2   -1    0    0  502    0  0.00000000000E+00  0.00000000000E+00  0.16720683167E+04  0.16720683167E+04  0.00000000000E+00 0. -1.
          1   -1    0    0  501    0 -0.00000000000E+00 -0.00000000000E+00 -0.14495927802E+03  0.14495927802E+03  0.00000000000E+00 0. -1.
         25    2    1    2    0    0 -0.86089781311E+02  0.96087016415E+01  0.61290021354E+03  0.63148661767E+03  0.12499959578E+03 0.  0.
          2    1    1    2  501    0  0.31531095795E+02 -0.20928107942E+02 -0.13227119041E+03  0.13757857216E+03  0.00000000000E+00 0. -1.
          1    1    1    2  502    0  0.54558685517E+02  0.11319406301E+02  0.10464800156E+04  0.10479624049E+04  0.00000000000E+00 0. -1.
         22    1    3    3    0    0 -0.81335476018E+02 -0.47214264717E+02  0.41585795893E+03  0.42635957648E+03  0.00000000000E+00 0.  1.
         22    1    3    3    0    0 -0.47543052932E+01  0.56822966359E+02  0.19704225461E+03  0.20512704118E+03  0.00000000000E+00 0.  1.
</event>
<event>
 7    1  0.5779468E-006  0.3771589E+02  0.7818608E-02  0.1604692E+00
          2   -1    0    0  502    0  0.00000000000E+00  0.00000000000E+00  0.22811546985E+03  0.22811546985E+03  0.00000000000E+00 0. -1.
          1   -1    0    0  501    0 -0.00000000000E+00 -0.00000000000E+00 -0.24112716383E+03  0.24112716383E+03  0.00000000000E+00 0. -1.
         25    2    1    2    0    0 -0.51695013186E+02  0.17721944640E+02  0.18557172402E+03  0.23032252531E+03  0.12500063681E+03 0.  0.
          2    1    1    2  501    0  0.37602895945E+02  0.37283119471E+00 -0.20997234061E+03  0.21331315151E+03  0.00000000000E+00 0. -1.
          1    1    1    2  502    0  0.14092117241E+02 -0.18094775835E+02  0.11388922618E+02  0.25606956852E+02  0.00000000000E+00 0. -1.
         22    1    3    3    0    0 -0.12654816714E+02  0.22960809954E+02 -0.12021049823E+02  0.28841789450E+02  0.00000000000E+00 0.  1.
         22    1    3    3    0    0 -0.39040196471E+02 -0.52388653142E+01  0.19759277384E+03  0.20148073586E+03  0.00000000000E+00 0.  1.
</event>
<event>
 7    1  0.5779468E-006  0.6324848E+03  0.7818608E-02  0.1166108E+00
          2   -1    0    0  502    0  0.00000000000E+00  0.00000000000E+00  0.16936852092E+04  0.16936852092E+04  0.00000000000E+00 0. -1.
          1   -1    0    0  501    0 -0.00000000000E+00 -0.00000000000E+00 -0.10364869917E+04  0.10364869917E+04  0.00000000000E+00 0. -1.
         25    2    1    2    0    0 -0.59774678504E+03 -0.26831422856E+03  0.22896242979E+03  0.70522422425E+03  0.12499467162E+03 0.  0.
          2    1    1    2  501    0  0.55295467901E+03  0.29518675863E+03 -0.67461037632E+03  0.92086549471E+03  0.00000000000E+00 0. -1.
          1    1    1    2  502    0  0.44792106038E+02 -0.26872530071E+02  0.11028461640E+04  0.11040824820E+04  0.00000000000E+00 0. -1.
         22    1    3    3    0    0 -0.11646491973E+02 -0.25940530335E+02 -0.56362172072E+01  0.28988253375E+02  0.00000000000E+00 0. -1.
         22    1    3    3    0    0 -0.58610029307E+03 -0.24237369822E+03  0.23459864700E+03  0.67623597087E+03  0.00000000000E+00 0. -1.
</event>
<event>
 7    1  0.5779468E-006  0.1053474E+03  0.7818608E-02  0.1411003E+00
          2   -1    0    0  502    0  0.00000000000E+00  0.00000000000E+00  0.77724756537E+03  0.77724756537E+03  0.00000000000E+00 0. -1.
          1   -1    0    0  501    0 -0.00000000000E+00 -0.00000000000E+00 -0.54744667330E+03  0.54744667330E+03  0.00000000000E+00 0. -1.
         25    2    1    2    0    0 -0.53454179571E+02 -0.12255523700E+03  0.54478117247E+02  0.19097319011E+03  0.12500303456E+03 0.  0.
          2    1    1    2  501    0  0.34730199159E+02  0.98088840321E+02 -0.47318030863E+03  0.48448654450E+03  0.00000000000E+00 0. -1.
          1    1    1    2  502    0  0.18723980413E+02  0.24466396683E+02  0.64850308346E+03  0.64923450406E+03  0.00000000000E+00 0. -1.
         22    1    3    3    0    0 -0.65105707518E+02 -0.13074534413E+03  0.12439172172E+02  0.14658728174E+03  0.00000000000E+00 0. -1.
         22    1    3    3    0    0  0.11651527947E+02  0.81901071301E+01  0.42038945075E+02  0.44385908364E+02  0.00000000000E+00 0. -1.
</event>
<event>
 7    1  0.1386402E-005  0.5047350E+02  0.7818608E-02  0.1536522E+00
          2   -1    0    0  502    0  0.00000000000E+00  0.00000000000E+00  0.16756787741E+04  0.16756787741E+04  0.00000000000E+00 0. -1.
          1   -1    0    0  501    0 -0.00000000000E+00 -0.00000000000E+00 -0.13910965428E+04  0.13910965428E+04  0.00000000000E+00 0. -1.
         25    2    1    2    0    0 -0.36042493053E+02  0.38753805970E+02 -0.65253473608E+03  0.66650247301E+03  0.12499218360E+03 0.  0.
          2    1    1    2  501    0 -0.12020540500E+02 -0.23333998158E+02 -0.73096061274E+03  0.73143173724E+03  0.00000000000E+00 0. -1.
          1    1    1    2  502    0  0.48063033553E+02 -0.15419807812E+02  0.16680775801E+04  0.16688411066E+04  0.00000000000E+00 0. -1.
         22    1    3    3    0    0  0.10032793529E+02  0.69223756262E+02 -0.23082554661E+03  0.24119083387E+03  0.00000000000E+00 0. -1.
         22    1    3    3    0    0 -0.46075286582E+02 -0.30469950292E+02 -0.42170918947E+03  0.42531163914E+03  0.00000000000E+00 0. -1.
</event>
<event>
 7    1  0.5779468E-006  0.6081389E+02  0.7818608E-02  0.1465279E+00
          2   -1    0    0  502    0  0.00000000000E+00  0.00000000000E+00  0.76687585085E+03  0.76687585085E+03  0.00000000000E+00 0. -1.
          1   -1    0    0  501    0 -0.00000000000E+00 -0.00000000000E+00 -0.54681405926E+03  0.54681405926E+03  0.00000000000E+00 0. -1.
         25    2    1    2    0    0 -0.44958584103E+02 -0.45489594600E+02  0.94408972631E+02  0.16919983806E+03  0.12499981434E+03 0.  0.
          2    1    1    2  501    0 -0.14691128705E+02  0.32352796206E+02 -0.50732720015E+03  0.50856997621E+03  0.00000000000E+00 0. -1.
          1    1    1    2  502    0  0.59649712808E+02  0.13136798394E+02  0.63298001910E+03  0.63592009584E+03  0.00000000000E+00 0. -1.
         22    1    3    3    0    0 -0.47444381924E+02  0.34693150425E+02  0.51907213971E+02  0.78415195752E+02  0.00000000000E+00 0. -1.
         22    1    3    3    0    0  0.24857978214E+01 -0.80182745024E+02  0.42501758661E+02  0.90784642312E+02  0.00000000000E+00 0. -1.
</event>
<event>
 7    1  0.1625830E-005  0.1163126E+03  0.7818608E-02  0.1328529E+00
          2   -1    0    0  502    0  0.00000000000E+00  0.00000000000E+00  0.17268588930E+04  0.17268588930E+04  0.00000000000E+00 0. -1.
          1   -1    0    0  501    0 -0.00000000000E+00 -0.00000000000E+00 -0.82428179868E+03  0.82428179868E+03  0.00000000000E+00 0. -1.
         25    2    1    2    0    0  0.61072434625E+02 -0.64238313101E+01 -0.27625225164E+03  0.30937095976E+03  0.12499590524E+03 0.  0.
          2    1    1    2  501    0  0.55032015494E+02 -0.52119668835E+01 -0.52803548911E+03  0.53092105354E+03  0.00000000000E+00 0. -1.
          1    1    1    2  502    0 -0.11610445012E+03  0.11635798194E+02  0.17068648351E+04  0.17108486784E+04  0.00000000000E+00 0. -1.
         22    1    3    3    0    0  0.60601473648E+02  0.29908264242E+02 -0.60889914378E+02  0.90964963316E+02  0.00000000000E+00 0.  1.
         22    1    3    3    0    0  0.47096097700E+00 -0.36332095552E+02 -0.21536233726E+03  0.21840599644E+03  0.00000000000E+00 0.  1.
</event>
<event>
 7    1  0.5779468E-006  0.1412015E+03  0.7818608E-02  0.1361851E+00
          2   -1    0    0  502    0  0.00000000000E+00  0.00000000000E+00  0.40061867906E+03  0.40061867906E+03  0.00000000000E+00 0. -1.
          1   -1    0    0  501    0 -0.00000000000E+00 -0.00000000000E+00 -0.10766567812E+04  0.10766567812E+04  0.00000000000E+00 0. -1.
         25    2    1    2    0    0 -0.11563126379E+03  0.30046361265E+02 -0.33515492827E+03  0.37713072471E+03  0.12500153833E+03 0.  0.
          2    1    1    2  501    0  0.13900981205E+03 -0.54999858506E+02 -0.71196499701E+03  0.72749080355E+03  0.00000000000E+00 0. -1.
          1    1    1    2  502    0 -0.23378548258E+02  0.24953497241E+02  0.37108182316E+03  0.37265393198E+03  0.00000000000E+00 0. -1.
         22    1    3    3    0    0  0.76856589134E+01 -0.19903782018E+02 -0.60935398262E+01  0.22189211774E+02  0.00000000000E+00 0. -1.
         22    1    3    3    0    0 -0.12331692270E+03  0.49950143283E+02 -0.32906138845E+03  0.35494151294E+03  0.00000000000E+00 0. -1.
</event>
<event>
 7    1  0.5779468E-006  0.1386734E+03  0.7818608E-02  0.1320554E+00
          2   -1    0    0  502    0  0.00000000000E+00  0.00000000000E+00  0.10213624136E+04  0.10213624136E+04  0.00000000000E+00 0. -1.
          1   -1    0    0  501    0 -0.00000000000E+00 -0.00000000000E+00 -0.97875501901E+03  0.97875501901E+03  0.00000000000E+00 0. -1.
         25    2    1    2    0    0 -0.96000671455E+02 -0.84528552215E+01  0.95997803719E+02  0.18473850883E+03  0.12500063457E+03 0.  0.
          2    1    1    2  501    0 -0.45551130919E+02 -0.20037447152E+02 -0.92779716747E+03  0.92913077055E+03  0.00000000000E+00 0. -1.
          1    1    1    2  502    0  0.14155180237E+03  0.28490302374E+02  0.87440675835E+03  0.88624815324E+03  0.00000000000E+00 0. -1.
         22    1    3    3    0    0 -0.46882361961E+02 -0.36083693253E+02  0.11155712942E+03  0.12627344102E+03  0.00000000000E+00 0.  1.
         22    1    3    3    0    0 -0.49118309494E+02  0.27630838031E+02 -0.15559325700E+02  0.58465067811E+02  0.00000000000E+00 0.  1.
</event>
<event>
 7    1  0.5779468E-006  0.1027489E+03  0.7818608E-02  0.1350022E+00
          2   -1    0    0  502    0  0.00000000000E+00  0.00000000000E+00  0.27515277583E+03  0.27515277583E+03  0.00000000000E+00 0. -1.
          1   -1    0    0  501    0 -0.00000000000E+00 -0.00000000000E+00 -0.37271702374E+03  0.37271702374E+03  0.00000000000E+00 0. -1.
         25    2    1    2    0    0 -0.56338427466E+02  0.29691825889E+02 -0.94878198469E+02  0.16935832251E+03  0.12499898369E+03 0.  0.
          2    1    1    2  501    0 -0.14832549382E+02  0.49770699648E+02 -0.22553980771E+03  0.23144185431E+03  0.00000000000E+00 0. -1.
          1    1    1    2  502    0  0.71170976848E+02 -0.79462525537E+02  0.22285375827E+03  0.24706962275E+03  0.00000000000E+00 0. -1.
         22    1    3    3    0    0 -0.96133752759E+02  0.19837262490E+02 -0.56816466854E+02  0.11341660508E+03  0.00000000000E+00 0.  1.
         22    1    3    3    0    0  0.39795325294E+02  0.98545633995E+01 -0.38061731615E+02  0.55941717426E+02  0.00000000000E+00 0.  1.
</event>
<event>
 7    1  0.5779468E-006  0.3813540E+02  0.7818608E-02  0.1541241E+00
          2   -1    0    0  502    0  0.00000000000E+00  0.00000000000E+00  0.18390214620E+03  0.18390214620E+03  0.00000000000E+00 0. -1.
          1   -1    0    0  501    0 -0.00000000000E+00 -0.00000000000E+00 -0.18002920363E+04  0.18002920363E+04  0.00000000000E+00 0. -1.
         25    2    1    2    0    0  0.13512936781E+02 -0.34365130350E+02 -0.20088115702E+02  0.13188146483E+03  0.12500250689E+03 0.  0.
          2    1    1    2  501    0 -0.33663361481E+02  0.12901317479E+01 -0.17212090934E+04  0.17215387390E+04  0.00000000000E+00 0. -1.
          1    1    1    2  502    0  0.20150424701E+02  0.33074998602E+02  0.12490731906E+03  0.13077397870E+03  0.00000000000E+00 0. -1.
         22    1    3    3    0    0  0.62907859036E+02 -0.47444194510E+02 -0.17534315213E+02  0.80720521128E+02  0.00000000000E+00 0.  1.
         22    1    3    3    0    0 -0.49394922256E+02  0.13079064160E+02 -0.25538004892E+01  0.51160943706E+02  0.00000000000E+00 0.  1.
</event>
<event>
 7    1  0.5779468E-006  0.8408049E+02  0.7818608E-02  0.1382936E+00
          2   -1    0    0  502    0  0.00000000000E+00  0.00000000000E+00  0.25165419495E+03  0.25165419495E+03  0.00000000000E+00 0. -1.
          1   -1    0    0  501    0 -0.00000000000E+00 -0.00000000000E+00 -0.26123906699E+03  0.26123906699E+03  0.00000000000E+00 0. -1.
         25    2    1    2    0    0  0.13187137791E+02  0.90114020088E+02  0.32221786195E+02  0.15797865178E+03  0.12499829476E+03 0.  0.
          2    1    1    2  501    0 -0.54309273148E+02 -0.64861132798E+02 -0.18520681801E+03  0.20361244838E+03  0.00000000000E+00 0. -1.
          1    1    1    2  502    0  0.41122135357E+02 -0.25252887291E+02  0.14340015978E+03  0.15130216177E+03  0.00000000000E+00 0. -1.
         22    1    3    3    0    0 -0.45583364318E+02  0.80013601041E+02  0.44440065142E+01  0.92194189882E+02  0.00000000000E+00 0. -1.
         22    1    3    3    0    0  0.58770502109E+02  0.10100419047E+02  0.27777779680E+02  0.65784461897E+02  0.00000000000E+00 0. -1.
</event>
<event>
 7    1  0.5779468E-006  0.6976418E+02  0.7818608E-02  0.1502912E+00
          2   -1    0    0  502    0  0.00000000000E+00  0.00000000000E+00  0.96629577239E+03  0.96629577239E+03  0.00000000000E+00 0. -1.
          1   -1    0    0  501    0 -0.00000000000E+00 -0.00000000000E+00 -0.71770967058E+03  0.71770967058E+03  0.00000000000E+00 0. -1.
         25    2    1    2    0    0  0.44130070751E+02  0.79654226064E+02  0.12680403284E+03  0.19998885266E+03  0.12499607821E+03 0.  0.
          2    1    1    2  501    0 -0.25714516375E+02 -0.64611635772E+02 -0.67916536933E+03  0.68271626517E+03  0.00000000000E+00 0. -1.
          1    1    1    2  502    0 -0.18415554376E+02 -0.15042590293E+02  0.80094743830E+03  0.80130032515E+03  0.00000000000E+00 0. -1.
         22    1    3    3    0    0 -0.20742536665E+02  0.69343958753E+02  0.20846139639E+02  0.75321968779E+02  0.00000000000E+00 0. -1.
         22    1    3    3    0    0  0.64872607416E+02  0.10310267311E+02  0.10595789320E+03  0.12466688388E+03  0.00000000000E+00 0. -1.
</event>
<event>
 7    1  0.5779468E-006  0.1725327E+03  0.7818608E-02  0.1322612E+00
          2   -1    0    0  502    0  0.00000000000E+00  0.00000000000E+00  0.16159656359E+04  0.16159656359E+04  0.00000000000E+00 0. -1.
          1   -1    0    0  501    0 -0.00000000000E+00 -0.00000000000E+00 -0.39054489040E+03  0.39054489040E+03  0.00000000000E+00 0. -1.
         25    2    1    2    0    0 -0.63977667584E+02 -0.14632203321E+03  0.69466305369E+03  0.72366066506E+03  0.12499888250E+03 0.  0.
          2    1    1    2  501    0  0.10261241140E+03  0.13928435781E+03 -0.35569088502E+03  0.39553185079E+03  0.00000000000E+00 0. -1.
          1    1    1    2  502    0 -0.38634743819E+02  0.70376754042E+01  0.88644857686E+03  0.88731801048E+03  0.00000000000E+00 0. -1.
         22    1    3    3    0    0 -0.10645467018E+02  0.15819392678E+02  0.18915259805E+03  0.19011124244E+03  0.00000000000E+00 0. -1.
         22    1    3    3    0    0 -0.53332200567E+02 -0.16214142589E+03  0.50551045565E+03  0.53354942262E+03  0.00000000000E+00 0. -1.
</event>
<event>
 7    1  0.5779468E-006  0.1429066E+03  0.7818608E-02  0.1288248E+00
          2   -1    0    0  502    0  0.00000000000E+00  0.00000000000E+00  0.99157308314E+03  0.99157308314E+03  0.00000000000E+00 0. -1.
          1   -1    0    0  501    0 -0.00000000000E+00 -0.00000000000E+00 -0.89864726192E+03  0.89864726192E+03  0.00000000000E+00 0. -1.
         25    2    1    2    0    0 -0.11926917428E+03 -0.14008686854E+03 -0.21577783383E+03  0.30989486359E+03  0.12500114494E+03 0.  0.
          2    1    1    2  501    0  0.56033047862E+02  0.12544320829E+03 -0.62725183262E+03  0.64212192182E+03  0.00000000000E+00 0. -1.
          1    1    1    2  502    0  0.63236126423E+02  0.14643660254E+02  0.93595548766E+03  0.93820355966E+03  0.00000000000E+00 0. -1.
         22    1    3    3    0    0 -0.33359111698E+02  0.14828339273E+02 -0.89699330418E+01  0.37592149149E+02  0.00000000000E+00 0.  1.
         22    1    3    3    0    0 -0.85910062587E+02 -0.15491520781E+03 -0.20680790079E+03  0.27230271444E+03  0.00000000000E+00 0.  1.
</event>
<event>
 7    1  0.5779468E-006  0.6732101E+02  0.7818608E-02  0.1382721E+00
          2   -1    0    0  502    0  0.00000000000E+00  0.00000000000E+00  0.29058928777E+03  0.29058928777E+03  0.00000000000E+00 0. -1.
          1   -1    0    0  501    0 -0.00000000000E+00 -0.00000000000E+00 -0.30937826970E+04  0.30937826970E+04  0.00000000000E+00 0. -1.
         25    2    1    2    0    0  0.67002796295E+02  0.73177601341E+02 -0.10989882498E+03  0.19375826271E+03  0.12498070486E+03 0.  0.
          2    1    1    2  501    0 -0.13123193176E+01 -0.60361654281E+02 -0.29371346527E+04  0.29377551327E+04  0.00000000000E+00 0. -1.
          1    1    1    2  502    0 -0.65690476977E+02 -0.12815947060E+02  0.24384006842E+03  0.25285858940E+03  0.00000000000E+00 0. -1.
         22    1    3    3    0    0  0.92853064262E+01  0.90283359804E+02 -0.95728910772E+02  0.13191408693E+03  0.00000000000E+00 0.  1.
         22    1    3    3    0    0  0.57717489868E+02 -0.17105758463E+02 -0.14169914206E+02  0.61844175780E+02  0.00000000000E+00 0.  1.
</event>
<event>
 7    1  0.5779468E-006  0.5218867E+02  0.7818608E-02  0.1437245E+00
          2   -1    0    0  502    0  0.00000000000E+00  0.00000000000E+00  0.35035956427E+04  0.35035956427E+04  0.00000000000E+00 0. -1.
          1   -1    0    0  501    0 -0.00000000000E+00 -0.00000000000E+00 -0.84512920844E+01  0.84512920844E+01  0.00000000000E+00 0. -1.
         25    2    1    2    0    0  0.81335250964E+01 -0.53976294372E+02  0.13978250219E+04  0.14044640157E+04  0.12499913916E+03 0.  0.
          2    1    1    2  501    0 -0.48618535771E+02  0.21042706851E+02  0.14189115761E+03  0.15145843700E+03  0.00000000000E+00 0. -1.
          1    1    1    2  502    0  0.40485010675E+02  0.32933587522E+02  0.19554281711E+04  0.19561244821E+04  0.00000000000E+00 0. -1.
         22    1    3    3    0    0 -0.32043702997E+02 -0.72820144646E+02  0.11460435031E+04  0.11488016728E+04  0.00000000000E+00 0. -1.
         22    1    3    3    0    0  0.40177228093E+02  0.18843850274E+02  0.25178151879E+03  0.25566234286E+03  0.00000000000E+00 0. -1.
</event>
<event>
 7    1  0.5779468E-006  0.5919535E+02  0.7818608E-02  0.1416572E+00
          2   -1    0    0  502    0  0.00000000000E+00  0.00000000000E+00  0.87683336931E+03  0.87683336931E+03  0.00000000000E+00 0. -1.
          1   -1    0    0  501    0 -0.00000000000E+00 -0.00000000000E+00 -0.21530525425E+03  0.21530525425E+03  0.00000000000E+00 0. -1.
         25    2    1    2    0    0 -0.74401066435E+01  0.13260151207E+02  0.42944015198E+03  0.44752073151E+03  0.12499909682E+03 0.  0.
          2    1    1    2  501    0  0.59415739934E+02 -0.57838308695E+01 -0.20032380176E+03  0.20902944387E+03  0.00000000000E+00 0. -1.
          1    1    1    2  502    0 -0.51975633290E+02 -0.74763203372E+01  0.43241176484E+03  0.43558844818E+03  0.00000000000E+00 0. -1.
         22    1    3    3    0    0  0.41718514491E+02 -0.34119192748E+02  0.13706665569E+03  0.14728143762E+03  0.00000000000E+00 0. -1.
         22    1    3    3    0    0 -0.49158621134E+02  0.47379343955E+02  0.29237349629E+03  0.30023929389E+03  0.00000000000E+00 0. -1.
</event>
<event>
 7    1  0.5779468E-006  0.5878495E+02  0.7818608E-02  0.1454314E+00
          2   -1    0    0  502    0  0.00000000000E+00  0.00000000000E+00  0.50709523917E+03  0.50709523917E+03  0.00000000000E+00 0. -1.
          1   -1    0    0  501    0 -0.00000000000E+00 -0.00000000000E+00 -0.50672642275E+03  0.50672642275E+03  0.00000000000E+00 0. -1.
         25    2    1    2    0    0  0.94562595794E+01  0.76657620312E+02 -0.95279755652E+02  0.17512789577E+03  0.12500294574E+03 0.  0.
          2    1    1    2  501    0 -0.32655656553E+02 -0.22763964152E+02 -0.36860442182E+03  0.37074763621E+03  0.00000000000E+00 0. -1.
          1    1    1    2  502    0  0.23199396974E+02 -0.53893656160E+02  0.46425299389E+03  0.46794612995E+03  0.00000000000E+00 0. -1.
         22    1    3    3    0    0  0.23626179235E+02 -0.38635336485E+01 -0.90077067954E+02  0.93204084721E+02  0.00000000000E+00 0.  1.
         22    1    3    3    0    0 -0.14169919656E+02  0.80521153960E+02 -0.52026876986E+01  0.81923811053E+02  0.00000000000E+00 0.  1.
</event>
<event>
 7    1  0.5779468E-006  0.6459605E+02  0.7818608E-02  0.1422160E+00
          2   -1    0    0  502    0  0.00000000000E+00  0.00000000000E+00  0.10439197454E+03  0.10439197454E+03  0.00000000000E+00 0. -1.
          1   -1    0    0  501    0 -0.00000000000E+00 -0.00000000000E+00 -0.58448105039E+03  0.58448105039E+03  0.00000000000E+00 0. -1.
         25    2    1    2    0    0 -0.69411339946E+02 -0.74288051333E+02 -0.36383649642E+03  0.39791648985E+03  0.12499555227E+03 0.  0.
          2    1    1    2  501    0  0.41503463681E+02  0.37602307538E+02 -0.19325819421E+03  0.20120934535E+03  0.00000000000E+00 0. -1.
          1    1    1    2  502    0  0.27907876265E+02  0.36685743795E+02  0.77005614774E+02  0.89747189717E+02  0.00000000000E+00 0. -1.
         22    1    3    3    0    0 -0.94765271726E+02 -0.23775276798E+02 -0.28211931163E+03  0.29855824642E+03  0.00000000000E+00 0.  1.
         22    1    3    3    0    0  0.25353931781E+02 -0.50512774535E+02 -0.81717184790E+02  0.99358243433E+02  0.00000000000E+00 0.  1.
</event>
<event>
 7    1  0.5779468E-006  0.4241177E+02  0.7818608E-02  0.1500961E+00
          2   -1    0    0  502    0  0.00000000000E+00  0.00000000000E+00  0.33194520750E+03  0.33194520750E+03  0.00000000000E+00 0. -1.
          1   -1    0    0  501    0 -0.00000000000E+00 -0.00000000000E+00 -0.49447539587E+02  0.49447539587E+02  0.00000000000E+00 0. -1.
         25    2    1    2    0    0  0.99533026621E+01 -0.42202965542E+01  0.10851719114E+03  0.16588539174E+03  0.12500041313E+03 0.  0.
          2    1    1    2  501    0 -0.47768890829E+02  0.16107924457E+02  0.16391902722E+02  0.53009684362E+02  0.00000000000E+00 0. -1.
          1    1    1    2  502    0  0.37815588166E+02 -0.11887627903E+02  0.15758857405E+03  0.16249767099E+03  0.00000000000E+00 0. -1.
         22    1    3    3    0    0  0.31419285985E+00 -0.18354558338E+02  0.13396746884E+03  0.13521934490E+03  0.00000000000E+00 0. -1.
         22    1    3    3    0    0  0.96391098023E+01  0.14134261784E+02 -0.25450277694E+02  0.30666046838E+02  0.00000000000E+00 0. -1.
</event>
<event>
 7    1  0.5779468E-006  0.1773021E+03  0.7818608E-02  0.1276324E+00
          2   -1    0    0  502    0  0.00000000000E+00  0.00000000000E+00  0.30454035589E+04  0.30454035589E+04  0.00000000000E+00 0. -1.
          1   -1    0    0  501    0 -0.00000000000E+00 -0.00000000000E+00 -0.20606715867E+04  0.20606715867E+04  0.00000000000E+00 0. -1.
         25    2    1    2    0    0 -0.44432370371E+02  0.11095086795E+03 -0.16253598176E+03  0.23733427847E+03  0.12500113494E+03 0.  0.
          2    1    1    2  501    0 -0.23973382455E+02  0.53449324841E+02 -0.18576391506E+04  0.18585625540E+04  0.00000000000E+00 0. -1.
          1    1    1    2  502    0  0.68405752825E+02 -0.16440019279E+03  0.30049071045E+04  0.30101783132E+04  0.00000000000E+00 0. -1.
         22    1    3    3    0    0 -0.55176325978E+02  0.91944148897E+02 -0.42525787548E+02  0.11535422000E+03  0.00000000000E+00 0.  1.
         22    1    3    3    0    0  0.10743955607E+02  0.19006719052E+02 -0.12001019421E+03  0.12198005847E+03  0.00000000000E+00 0.  1.
</event>
<event>
 7    1  0.5779468E-006  0.8210413E+02  0.7818608E-02  0.1341293E+00
          2   -1    0    0  502    0  0.00000000000E+00  0.00000000000E+00  0.21999616707E+03  0.21999616707E+03  0.00000000000E+00 0. -1.
          1   -1    0    0  501    0 -0.00000000000E+00 -0.00000000000E+00 -0.18857892759E+04  0.18857892759E+04  0.00000000000E+00 0. -1.
         25    2    1    2    0    0 -0.46406419958E+02 -0.12385219567E+03 -0.23111693405E+03  0.29416818522E+03  0.12500784697E+03 0.  0.
          2    1    1    2  501    0 -0.12898908505E+02  0.68853555731E+02 -0.16136739810E+04  0.16151937689E+04  0.00000000000E+00 0. -1.
          1    1    1    2  502    0  0.59305328463E+02  0.54998639943E+02  0.17899780620E+03  0.19642348893E+03  0.00000000000E+00 0. -1.
         22    1    3    3    0    0  0.33591504106E+01 -0.59632862224E+02 -0.19734198242E+03  0.20618249240E+03  0.00000000000E+00 0.  1.
         22    1    3    3    0    0 -0.49765570369E+02 -0.64219333450E+02 -0.33774951629E+02  0.87985692816E+02  0.00000000000E+00 0.  1.
</event>
<event>
 7    1  0.5779468E-006  0.7740783E+02  0.7818608E-02  0.1428929E+00
          2   -1    0    0  502    0  0.00000000000E+00  0.00000000000E+00  0.31317168548E+04  0.31317168548E+04  0.00000000000E+00 0. -1.
          1   -1    0    0  501    0 -0.00000000000E+00 -0.00000000000E+00 -0.18909542657E+03  0.18909542657E+03  0.00000000000E+00 0. -1.
         25    2    1    2    0    0  0.52773210297E+02  0.23536190444E+02  0.18188170473E+04  0.18240217155E+04  0.12498321043E+03 0.  0.
          2    1    1    2  501    0  0.17847032341E+02  0.31872568488E+02 -0.18314999624E+03  0.18675732465E+03  0.00000000000E+00 0. -1.
          1    1    1    2  502    0 -0.70620242638E+02 -0.55408758932E+02  0.13069543771E+04  0.13100332412E+04  0.00000000000E+00 0. -1.
         22    1    3    3    0    0  0.27901647967E+02  0.58698196321E+02  0.46502092005E+03  0.46954066522E+03  0.00000000000E+00 0.  1.
         22    1    3    3    0    0  0.24871562330E+02 -0.35162005877E+02  0.13537961273E+04  0.13544810503E+04  0.00000000000E+00 0.  1.
</event>
<event>
 7    1  0.5779468E-006  0.9764254E+02  0.7818608E-02  0.1379138E+00
          2   -1    0    0  502    0  0.00000000000E+00  0.00000000000E+00  0.73331389669E+02  0.73331389669E+02  0.00000000000E+00 0. -1.
          1   -1    0    0  501    0 -0.00000000000E+00 -0.00000000000E+00 -0.21953258573E+04  0.21953258573E+04  0.00000000000E+00 0. -1.
         25    2    1    2    0    0 -0.62937420551E+02 -0.13220437800E+02 -0.29907238598E+03  0.33046121154E+03  0.12499768556E+03 0.  0.
          2    1    1    2  501    0 -0.29985424310E+02 -0.30623762663E+02 -0.18343182117E+04  0.18348188582E+04  0.00000000000E+00 0. -1.
          1    1    1    2  502    0  0.92922844861E+02  0.43844200463E+02  0.11396129994E+02  0.10337717732E+03  0.00000000000E+00 0. -1.
         22    1    3    3    0    0 -0.40091790628E+02 -0.39167091368E+02 -0.28909671307E+03  0.29447974842E+03  0.00000000000E+00 0.  1.
         22    1    3    3    0    0 -0.22845629923E+02  0.25946653568E+02 -0.99756729072E+01  0.35981463115E+02  0.00000000000E+00 0.  1.
</event>
<event>
 7    1  0.5779468E-006  0.1196452E+03  0.7818608E-02  0.1287645E+00
          2   -1    0    0  502    0  0.00000000000E+00  0.00000000000E+00  0.78203151127E+02  0.78203151127E+02  0.00000000000E+00 0. -1.
          1   -1    0    0  501    0 -0.00000000000E+00 -0.00000000000E+00 -0.10265427730E+04  0.10265427730E+04  0.00000000000E+00 0. -1.
         25    2    1    2    0    0 -0.69710381574E+02  0.44363226689E+02 -0.15240642966E+03  0.21372992479E+03  0.12500051107E+03 0.  0.
          2    1    1    2  501    0  0.12792260289E+03  0.75085273063E+01 -0.80259638978E+03  0.81276167183E+03  0.00000000000E+00 0. -1.
          1    1    1    2  502    0 -0.58212221317E+02 -0.51871753995E+02  0.66631975567E+01  0.78254327515E+02  0.00000000000E+00 0. -1.
         22    1    3    3    0    0 -0.16792050790E+02  0.58999868942E+02 -0.14611010177E+03  0.15846488363E+03  0.00000000000E+00 0. -1.
         22    1    3    3    0    0 -0.52918330785E+02 -0.14636642253E+02 -0.62963278924E+01  0.55265041160E+02  0.00000000000E+00 0. -1.
</event>
<event>
 7    1  0.5779468E-006  0.9206160E+02  0.7818608E-02  0.1418401E+00
          2   -1    0    0  502    0  0.00000000000E+00  0.00000000000E+00  0.39837601067E+03  0.39837601067E+03  0.00000000000E+00 0. -1.
          1   -1    0    0  501    0 -0.00000000000E+00 -0.00000000000E+00 -0.11451621714E+04  0.11451621714E+04  0.00000000000E+00 0. -1.
         25    2    1    2    0    0 -0.74411089862E+02 -0.31510081407E+01 -0.83112592612E+02  0.16757211051E+03  0.12500308006E+03 0.  0.
          2    1    1    2  501    0 -0.12219935703E+02 -0.30966964978E+02 -0.10134565685E+04  0.10140032032E+04  0.00000000000E+00 0. -1.
          1    1    1    2  502    0  0.86631025565E+02  0.34117973118E+02  0.34978300043E+03  0.36196286836E+03  0.00000000000E+00 0. -1.
         22    1    3    3    0    0  0.33046628517E+02  0.15063692083E+02 -0.24634072516E+02  0.43884302481E+02  0.00000000000E+00 0. -1.
         22    1    3    3    0    0 -0.10745771838E+03 -0.18214700224E+02 -0.58478520097E+02  0.12368780803E+03  0.00000000000E+00 0. -1.
</event>
<event>
 7    1  0.5779468E-006  0.1847821E+03  0.7818608E-02  0.1225583E+00
          2   -1    0    0  502    0  0.00000000000E+00  0.00000000000E+00  0.12843454714E+03  0.12843454714E+03  0.00000000000E+00 0. -1.
          1   -1    0    0  501    0 -0.00000000000E+00 -0.00000000000E+00 -0.16922041400E+04  0.16922041400E+04  0.00000000000E+00 0. -1.
         25    2    1    2    0    0 -0.10877682337E+03  0.65206766850E+02 -0.78477559460E+02  0.19459780857E+03  0.12500104007E+03 0.  0.
          2    1    1    2  501    0  0.10834428094E+03 -0.15846109117E+03 -0.15158120402E+04  0.15279183688E+04  0.00000000000E+00 0. -1.
          1    1    1    2  502    0  0.43254242388E+00  0.93254324321E+02  0.30520006808E+02  0.98122509716E+02  0.00000000000E+00 0. -1.
         22    1    3    3    0    0 -0.59319727497E+02  0.97174609012E+02 -0.73466711928E+02  0.13549572860E+03  0.00000000000E+00 0.  1.
         22    1    3    3    0    0 -0.49457095868E+02 -0.31967842161E+02 -0.50108475322E+01  0.59102079973E+02  0.00000000000E+00 0.  1.
</event>
<event>
 7    1  0.5779468E-006  0.2136877E+03  0.7818608E-02  0.1163116E+00
          2   -1    0    0  502    0  0.00000000000E+00  0.00000000000E+00  0.21469047659E+04  0.21469047659E+04  0.00000000000E+00 0. -1.
          1   -1    0    0  501    0 -0.00000000000E+00 -0.00000000000E+00 -0.52527443325E+03  0.52527443325E+03  0.00000000000E+00 0. -1.
         25    2    1    2    0    0  0.54847819248E+02  0.22061228016E+02  0.13517596669E+04  0.13588137935E+04  0.12500298886E+03 0.  0.
          2    1    1    2  501    0 -0.17239367839E+03 -0.13067247872E+03 -0.49063276381E+03  0.53620461204E+03  0.00000000000E+00 0. -1.
          1    1    1    2  502    0  0.11754585914E+03  0.10861125071E+03  0.76050342953E+03  0.77716079360E+03  0.00000000000E+00 0. -1.
         22    1    3    3    0    0  0.72288237052E+02 -0.25019638756E+02  0.10607626769E+04  0.10635172910E+04  0.00000000000E+00 0. -1.
         22    1    3    3    0    0 -0.17440417804E+02  0.47080866772E+02  0.29099699003E+03  0.29529650251E+03  0.00000000000E+00 0. -1.
</event>
<event>
 7    1  0.5779468E-006  0.1871764E+03  0.7818608E-02  0.1241233E+00
          2   -1    0    0  502    0  0.00000000000E+00  0.00000000000E+00  0.66077024939E+03  0.66077024939E+03  0.00000000000E+00 0. -1.
          1   -1    0    0  501    0 -0.00000000000E+00 -0.00000000000E+00 -0.14506475479E+04  0.14506475479E+04  0.00000000000E+00 0. -1.
         25    2    1    2    0    0  0.77285091053E+02  0.96461268834E+02 -0.16835355276E+03  0.24340401702E+03  0.12499934036E+03 0.  0.
          2    1    1    2  501    0 -0.13756410602E+03 -0.14658698190E+03 -0.12341381737E+04  0.12504033982E+04  0.00000000000E+00 0. -1.
          1    1    1    2  502    0  0.60279014966E+02  0.50125713065E+02  0.61261442791E+03  0.61761038207E+03  0.00000000000E+00 0. -1.
         22    1    3    3    0    0 -0.26448715614E+02  0.59693076147E+02 -0.71153423629E+02  0.96569185518E+02  0.00000000000E+00 0.  1.
         22    1    3    3    0    0  0.10373380667E+03  0.36768192687E+02 -0.97200129135E+02  0.14683483150E+03  0.00000000000E+00 0.  1.
</event>
<event>
 7    1  0.5779468E-006  0.6823105E+02  0.7818608E-02  0.1378113E+00
          2   -1    0    0  502    0  0.00000000000E+00  0.00000000000E+00  0.48147601509E+03  0.48147601509E+03  0.00000000000E+00 0. -1.
          1   -1    0    0  501    0 -0.00000000000E+00 -0.00000000000E+00 -0.66235110597E+03  0.66235110597E+03  0.00000000000E+00 0. -1.
         25    2    1    2    0    0  0.96378422389E+01  0.43570824843E+02  0.81258145784E+02  0.15562540856E+03  0.12500030701E+03 0.  0.
          2    1    1    2  501    0  0.58723193256E+02 -0.19417001375E+02 -0.61999342234E+03  0.62307084438E+03  0.00000000000E+00 0. -1.
          1    1    1    2  502    0 -0.68361035495E+02 -0.24153823468E+02  0.35786018568E+03  0.36513086812E+03  0.00000000000E+00 0. -1.
         22    1    3    3    0    0 -0.53285818460E+02  0.12721144261E+02  0.10013341010E+02  0.55690869614E+02  0.00000000000E+00 0. -1.
         22    1    3    3    0    0  0.62923660698E+02  0.30849680582E+02  0.71244804774E+02  0.99934538949E+02  0.00000000000E+00 0. -1.
</event>
<event>
 7    1  0.5779468E-006  0.6080500E+02  0.7818608E-02  0.1441713E+00
          2   -1    0    0  502    0  0.00000000000E+00  0.00000000000E+00  0.34520542270E+03  0.34520542270E+03  0.00000000000E+00 0. -1.
          1   -1    0    0  501    0 -0.00000000000E+00 -0.00000000000E+00 -0.27271310227E+03  0.27271310227E+03  0.00000000000E+00 0. -1.
         25    2    1    2    0    0  0.56009214705E+02 -0.48410641222E+02 -0.80722428223E+02  0.16619596027E+03  0.12499745789E+03 0.  0.
          2    1    1    2  501    0  0.44485369505E+01  0.42004379663E+02 -0.14311620407E+03  0.14921931932E+03  0.00000000000E+00 0. -1.
          1    1    1    2  502    0 -0.60457751655E+02  0.64062615588E+01  0.29633095272E+03  0.30250324538E+03  0.00000000000E+00 0. -1.
         22    1    3    3    0    0 -0.11026937997E+02  0.32093051041E+02 -0.43164903997E+02  0.54906886852E+02  0.00000000000E+00 0. -1.
         22    1    3    3    0    0  0.67036152702E+02 -0.80503692264E+02 -0.37557524226E+02  0.11128907342E+03  0.00000000000E+00 0. -1.
</event>
<event>
 7    1  0.5779468E-006  0.8755300E+02  0.7818608E-02  0.1400992E+00
          2   -1    0    0  502    0  0.00000000000E+00  0.00000000000E+00  0.14721885162E+04  0.14721885162E+04  0.00000000000E+00 0. -1.
          1   -1    0    0  501    0 -0.00000000000E+00 -0.00000000000E+00 -0.81106208005E+03  0.81106208005E+03  0.00000000000E+00 0. -1.
         25    2    1    2    0    0 -0.60420409428E+02  0.18223843021E+02  0.53171764639E+01  0.14013627534E+03  0.12500867559E+03 0.  0.
          2    1    1    2  501    0  0.87955873323E+02  0.10929152427E+02 -0.74072278233E+03  0.74600665029E+03  0.00000000000E+00 0. -1.
          1    1    1    2  502    0 -0.27535463894E+02 -0.29152995448E+02  0.13965320421E+04  0.13971076707E+04  0.00000000000E+00 0. -1.
         22    1    3    3    0    0 -0.29864233234E+02  0.70756803883E+02  0.15950168846E+02  0.78439821574E+02  0.00000000000E+00 0. -1.
         22    1    3    3    0    0 -0.30556176195E+02 -0.52532960863E+02 -0.10632992382E+02  0.61696453769E+02  0.00000000000E+00 0. -1.
</event>
<event>
 7    1  0.5779468E-006  0.9508452E+02  0.7818608E-02  0.1433462E+00
          2   -1    0    0  502    0  0.00000000000E+00  0.00000000000E+00  0.13930055054E+03  0.13930055054E+03  0.00000000000E+00 0. -1.
          1   -1    0    0  501    0 -0.00000000000E+00 -0.00000000000E+00 -0.68987741595E+03  0.68987741595E+03  0.00000000000E+00 0. -1.
         25    2    1    2    0    0 -0.11218643544E+03 -0.18707644073E+02  0.20134029158E+02  0.17019752183E+03  0.12500418019E+03 0.  0.
          2    1    1    2  501    0  0.94377689707E+02 -0.38437753964E+01 -0.60608766360E+03  0.61340376498E+03  0.00000000000E+00 0. -1.
          1    1    1    2  502    0  0.17808745728E+02  0.22551419469E+02  0.35376769021E+02  0.45576679682E+02  0.00000000000E+00 0. -1.
         22    1    3    3    0    0 -0.70977121249E+02  0.40065587694E+02 -0.25185589114E+02  0.85307191708E+02  0.00000000000E+00 0. -1.
         22    1    3    3    0    0 -0.41209314186E+02 -0.58773231767E+02  0.45319618271E+02  0.84890330122E+02  0.00000000000E+00 0. -1.
</event>
<event>
 7    1  0.5779468E-006  0.1079723E+03  0.7818608E-02  0.1300558E+00
          2   -1    0    0  502    0  0.00000000000E+00  0.00000000000E+00  0.13036050217E+04  0.13036050217E+04  0.00000000000E+00 0. -1.
          1   -1    0    0  501    0 -0.00000000000E+00 -0.00000000000E+00 -0.40021373925E+03  0.40021373925E+03  0.00000000000E+00 0. -1.
         25    2    1    2    0    0  0.14690664904E+03  0.89804970058E+02  0.47997645834E+03  0.52502263840E+03  0.12499949637E+03 0.  0.
          2    1    1    2  501    0 -0.70879804369E+02 -0.80303783986E+02 -0.36820976263E+03  0.38347238974E+03  0.00000000000E+00 0. -1.
          1    1    1    2  502    0 -0.76026844675E+02 -0.95011860721E+01  0.79162458678E+03  0.79532373285E+03  0.00000000000E+00 0. -1.
         22    1    3    3    0    0  0.15897417784E+03  0.10674881670E+03  0.42155806337E+03  0.46301112285E+03  0.00000000000E+00 0.  1.
         22    1    3    3    0    0 -0.12067528799E+02 -0.16943846646E+02  0.58418394969E+02  0.62011515553E+02  0.00000000000E+00 0.  1.
</event>
<event>
 7    1  0.5779468E-006  0.2999280E+02  0.7818608E-02  0.1601122E+00
          2   -1    0    0  502    0  0.00000000000E+00  0.00000000000E+00  0.61407912761E+03  0.61407912761E+03  0.00000000000E+00 0. -1.
          1   -1    0    0  501    0 -0.00000000000E+00 -0.00000000000E+00 -0.15293475529E+03  0.15293475529E+03  0.00000000000E+00 0. -1.
         25    2    1    2    0    0  0.14851472833E+02 -0.10508681270E+02 -0.64581945499E+02  0.14187051141E+03  0.12500166277E+03 0.  0.
          2    1    1    2  501    0  0.62602505164E+01  0.31812747953E+02 -0.43984731406E+02  0.54643373484E+02  0.00000000000E+00 0. -1.
          1    1    1    2  502    0 -0.21111723350E+02 -0.21304066683E+02  0.56971104922E+03  0.57049999801E+03  0.00000000000E+00 0. -1.
         22    1    3    3    0    0 -0.24365065973E+01 -0.43399439345E+02  0.21218194659E+02  0.48370028783E+02  0.00000000000E+00 0.  1.
         22    1    3    3    0    0  0.17287979431E+02  0.32890758074E+02 -0.85800140159E+02  0.93500482623E+02  0.00000000000E+00 0.  1.
</event>
<event>
 7    1  0.5779468E-006  0.7453560E+02  0.7818608E-02  0.1489085E+00
          2   -1    0    0  502    0  0.00000000000E+00  0.00000000000E+00  0.47243312529E+03  0.47243312529E+03  0.00000000000E+00 0. -1.
          1   -1    0    0  501    0 -0.00000000000E+00 -0.00000000000E+00 -0.21410073150E+03  0.21410073150E+03  0.00000000000E+00 0. -1.
         25    2    1    2    0    0 -0.32254745863E+02 -0.70062572116E+02  0.26530315046E+03  0.30324809568E+03  0.12499805297E+03 0.  0.
          2    1    1    2  501    0  0.51043749544E+02  0.54359054668E+02 -0.18714569784E+03  0.20145442018E+03  0.00000000000E+00 0. -1.
          1    1    1    2  502    0 -0.18789003680E+02  0.15703517448E+02  0.18017494117E+03  0.18183134093E+03  0.00000000000E+00 0. -1.
         22    1    3    3    0    0  0.44460413687E+02 -0.26545305399E+01  0.88308750362E+02  0.98905057040E+02  0.00000000000E+00 0. -1.
         22    1    3    3    0    0 -0.76715159550E+02 -0.67408041576E+02  0.17699440010E+03  0.20434303864E+03  0.00000000000E+00 0. -1.
</event>
<event>
 7    1  0.5779468E-006  0.1175384E+03  0.7818608E-02  0.1249078E+00
          2   -1    0    0  502    0  0.00000000000E+00  0.00000000000E+00  0.33339181832E+03  0.33339181832E+03  0.00000000000E+00 0. -1.
          1   -1    0    0  501    0 -0.00000000000E+00 -0.00000000000E+00 -0.77872319392E+03  0.77872319392E+03  0.00000000000E+00 0. -1.
         25    2    1    2    0    0  0.17281541154E+02  0.12746276471E+03 -0.11644656512E+03  0.21384497734E+03  0.12499785500E+03 0.  0.
          2    1    1    2  501    0  0.90022503564E+02 -0.72144134799E+02 -0.59498462690E+03  0.60606561822E+03  0.00000000000E+00 0. -1.
          1    1    1    2  502    0 -0.10730404472E+03 -0.55318629915E+02  0.26609981642E+03  0.29220441668E+03  0.00000000000E+00 0. -1.
         22    1    3    3    0    0  0.35300742923E+02  0.98992405435E+02 -0.13828698932E+03  0.17369205566E+03  0.00000000000E+00 0. -1.
         22    1    3    3    0    0 -0.18019201770E+02  0.28470359279E+02  0.21840424207E+02  0.40152921680E+02  0.00000000000E+00 0. -1.
</event>
<event>
 7    1  0.5779468E-006  0.5297284E+02  0.7818608E-02  0.1516479E+00
          2   -1    0    0  502    0  0.00000000000E+00  0.00000000000E+00  0.22867347589E+04  0.22867347589E+04  0.00000000000E+00 0. -1.
          1   -1    0    0  501    0 -0.00000000000E+00 -0.00000000000E+00 -0.18677897162E+02  0.18677897162E+02  0.00000000000E+00 0. -1.
         25    2    1    2    0    0  0.44730337129E+02  0.11764855472E+02  0.34516645760E+03  0.37000646252E+03  0.12500273583E+03 0.  0.
          2    1    1    2  501    0 -0.55300276703E+02  0.14770649608E+02  0.12716145168E+03  0.13945008959E+03  0.00000000000E+00 0. -1.
          1    1    1    2  502    0  0.10569939573E+02 -0.26535505080E+02  0.17957289525E+04  0.17959561040E+04  0.00000000000E+00 0. -1.
         22    1    3    3    0    0  0.56610840981E+02 -0.14138833352E+02  0.60997228100E+02  0.84411822401E+02  0.00000000000E+00 0.  1.
         22    1    3    3    0    0 -0.11880503852E+02  0.25903688825E+02  0.28416922950E+03  0.28559464011E+03  0.00000000000E+00 0.  1.
</event>
<event>
 7    1  0.5779468E-006  0.6552325E+02  0.7818608E-02  0.1430074E+00
          2   -1    0    0  502    0  0.00000000000E+00  0.00000000000E+00  0.15040477970E+04  0.15040477970E+04  0.00000000000E+00 0. -1.
          1   -1    0    0  501    0 -0.00000000000E+00 -0.00000000000E+00 -0.22786941899E+02  0.22786941899E+02  0.00000000000E+00 0. -1.
         25    2    1    2    0    0  0.21620604627E+02  0.17875609553E+02  0.59745722594E+03  0.61103633006E+03  0.12499308729E+03 0.  0.
          2    1    1    2  501    0 -0.48985922646E+02 -0.50760417673E+02  0.65140997104E+02  0.96018696740E+02  0.00000000000E+00 0. -1.
          1    1    1    2  502    0  0.27365318020E+02  0.32884808120E+02  0.81866263202E+03  0.81977971205E+03  0.00000000000E+00 0. -1.
         22    1    3    3    0    0  0.76603604229E+01  0.12256718299E+02  0.11067045429E+01  0.14495967032E+02  0.00000000000E+00 0.  1.
         22    1    3    3    0    0  0.13960244204E+02  0.56188912542E+01  0.59635052139E+03  0.59654036303E+03  0.00000000000E+00 0.  1.
</event>
<event>
 7    1  0.5779468E-006  0.1141868E+03  0.7818608E-02  0.1329447E+00
          2   -1    0    0  502    0  0.00000000000E+00  0.00000000000E+00  0.48349530092E+03  0.48349530092E+03  0.00000000000E+00 0. -1.
          1   -1    0    0  501    0 -0.00000000000E+00 -0.00000000000E+00 -0.17375806946E+04  0.17375806946E+04  0.00000000000E+00 0. -1.
         25    2    1    2    0    0 -0.10628943656E+03 -0.13129450217E+03 -0.32630055925E+03  0.38811006400E+03  0.12498670403E+03 0.  0.
          2    1    1    2  501    0  0.33940293937E+02  0.44358512091E+02 -0.13727324639E+04  0.13738682756E+04  0.00000000000E+00 0. -1.
          1    1    1    2  502    0  0.72349142625E+02  0.86935990083E+02  0.44494762943E+03  0.45909765600E+03  0.00000000000E+00 0. -1.
         22    1    3    3    0    0 -0.12307107703E+03 -0.60353730757E+02 -0.22025031470E+03  0.25942101678E+03  0.00000000000E+00 0.  1.
         22    1    3    3    0    0  0.16781640472E+02 -0.70940771418E+02 -0.10605024455E+03  0.12868904723E+03  0.00000000000E+00 0.  1.
</event>
<event>
 7    1  0.5779468E-006  0.7119206E+02  0.7818608E-02  0.1358346E+00
          2   -1    0    0  502    0  0.00000000000E+00  0.00000000000E+00  0.15645349364E+03  0.15645349364E+03  0.00000000000E+00 0. -1.
          1   -1    0    0  501    0 -0.00000000000E+00 -0.00000000000E+00 -0.42714905175E+03  0.42714905175E+03  0.00000000000E+00 0. -1.
         25    2    1    2    0    0  0.19678150574E+02 -0.50913390546E+02 -0.19204113148E+02  0.13774541938E+03  0.12500239859E+03 0.  0.
          2    1    1    2  501    0 -0.70652935974E+02 -0.87448154807E+01 -0.32837276342E+03  0.33600145969E+03  0.00000000000E+00 0. -1.
          1    1    1    2  502    0  0.50974785400E+02  0.59658206027E+02  0.76881318456E+02  0.10985566631E+03  0.00000000000E+00 0. -1.
         22    1    3    3    0    0 -0.40503683137E+02 -0.53862941616E+02  0.14169603010E+02  0.68866119948E+02  0.00000000000E+00 0. -1.
         22    1    3    3    0    0  0.60181833711E+02  0.29495510705E+01 -0.33373716158E+02  0.68879299434E+02  0.00000000000E+00 0. -1.
</event>
<event>
 7    1  0.5779468E-006  0.1615948E+03  0.7818608E-02  0.1306020E+00
          2   -1    0    0  502    0  0.00000000000E+00  0.00000000000E+00  0.42215195407E+04  0.42215195407E+04  0.00000000000E+00 0. -1.
          1   -1    0    0  501    0 -0.00000000000E+00 -0.00000000000E+00 -0.60972972343E+03  0.60972972343E+03  0.00000000000E+00 0. -1.
         25    2    1    2    0    0  0.46022850310E+02  0.10640975323E+03  0.14909902928E+03  0.22648593364E+03  0.12499687705E+03 0.  0.
          2    1    1    2  501    0  0.77065911177E+01  0.48078588875E+02 -0.56833670680E+03  0.57041875368E+03  0.00000000000E+00 0. -1.
          1    1    1    2  502    0 -0.53729441427E+02 -0.15448834211E+03  0.40310274948E+04  0.40343445768E+04  0.00000000000E+00 0. -1.
         22    1    3    3    0    0  0.86579608580E+02  0.61643294860E+02  0.11705455766E+03  0.15810659029E+03  0.00000000000E+00 0.  1.
         22    1    3    3    0    0 -0.40556758270E+02  0.44766458372E+02  0.32044471620E+02  0.68379343357E+02  0.00000000000E+00 0.  1.
</event>
<event>
 7    1  0.5779468E-006  0.1957286E+03  0.7818608E-02  0.1274847E+00
          2   -1    0    0  502    0  0.00000000000E+00  0.00000000000E+00  0.12415127655E+04  0.12415127655E+04  0.00000000000E+00 0. -1.
          1   -1    0    0  501    0 -0.00000000000E+00 -0.00000000000E+00 -0.33581166489E+03  0.33581166489E+03  0.00000000000E+00 0. -1.
         25    2    1    2    0    0 -0.11595331334E+03  0.19678316461E+03  0.27390682595E+03  0.37791416777E+03  0.12500153660E+03 0.  0.
          2    1    1    2  501    0  0.50625961583E+02 -0.18267115982E+02 -0.27126899609E+03  0.27655658328E+03  0.00000000000E+00 0. -1.
          1    1    1    2  502    0  0.65327351756E+02 -0.17851604863E+03  0.90306327076E+03  0.92285367936E+03  0.00000000000E+00 0. -1.
         22    1    3    3    0    0 -0.12400893688E+02  0.70812637969E+02  0.17407977310E+02  0.73967895296E+02  0.00000000000E+00 0.  1.
         22    1    3    3    0    0 -0.10355241965E+03  0.12597052664E+03  0.25649884864E+03  0.30394627247E+03  0.00000000000E+00 0.  1.
</event>
<event>
 7    1  0.5779468E-006  0.4985864E+02  0.7818608E-02  0.1448550E+00
          2   -1    0    0  502    0  0.00000000000E+00  0.00000000000E+00  0.22397646494E+02  0.22397646494E+02  0.00000000000E+00 0. -1.
          1   -1    0    0  501    0 -0.00000000000E+00 -0.00000000000E+00 -0.20374682055E+04  0.20374682055E+04  0.00000000000E+00 0. -1.
         25    2    1    2    0    0  0.29428085963E+01 -0.24922601017E+02 -0.91349771205E+03  0.92235032005E+03  0.12498898682E+03 0.  0.
          2    1    1    2  501    0  0.46770651973E+02  0.28724621837E+02 -0.10828766345E+04  0.10842667584E+04  0.00000000000E+00 0. -1.
          1    1    1    2  502    0 -0.49713460570E+02 -0.38020208197E+01 -0.18696212446E+02  0.53248773544E+02  0.00000000000E+00 0. -1.
         22    1    3    3    0    0 -0.11760550380E+02  0.39148599819E+02 -0.63026234283E+03  0.63158652947E+03  0.00000000000E+00 0.  1.
         22    1    3    3    0    0  0.14703358977E+02 -0.64071200837E+02 -0.28323536921E+03  0.29076379059E+03  0.00000000000E+00 0.  1.
</event>
<event>
 7    1  0.5779468E-006  0.1994723E+03  0.7818608E-02  0.1271505E+00
          2   -1    0    0  502    0  0.00000000000E+00  0.00000000000E+00  0.94969907239E+03  0.94969907239E+03  0.00000000000E+00 0. -1.
          1   -1    0    0  501    0 -0.00000000000E+00 -0.00000000000E+00 -0.14482400874E+04  0.14482400874E+04  0.00000000000E+00 0. -1.
         25    2    1    2    0    0 -0.98248261878E+02 -0.18323424670E+03 -0.92861538839E+03  0.95978024730E+03  0.12499629359E+03 0.  0.
          2    1    1    2  501    0  0.53391977317E+02 -0.11114647463E+02 -0.49187060371E+03  0.49488476378E+03  0.00000000000E+00 0. -1.
          1    1    1    2  502    0  0.44856284560E+02  0.19434889417E+03  0.92194497707E+03  0.94327414874E+03  0.00000000000E+00 0. -1.
         22    1    3    3    0    0  0.25801315519E+02 -0.15349317706E+02 -0.18507030673E+03  0.18748954070E+03  0.00000000000E+00 0.  1.
         22    1    3    3    0    0 -0.12404957740E+03 -0.16788492900E+03 -0.74354508166E+03  0.77229070660E+03  0.00000000000E+00 0.  1.
</event>
<event>
 7    1  0.5779468E-006  0.4591707E+02  0.7818608E-02  0.1563304E+00
          2   -1    0    0  502    0  0.00000000000E+00  0.00000000000E+00  0.40302632568E+03  0.40302632568E+03  0.00000000000E+00 0. -1.
          1   -1    0    0  501    0 -0.00000000000E+00 -0.00000000000E+00 -0.53988918054E+02  0.53988918054E+02  0.00000000000E+00 0. -1.
         25    2    1    2    0    0  0.63776779248E+02  0.11265950095E+02  0.27580934067E+03  0.30966194477E+03  0.12500131374E+03 0.  0.
          2    1    1    2  501    0 -0.22320033719E+02 -0.95883599561E+01 -0.28524398883E+02  0.37466810426E+02  0.00000000000E+00 0. -1.
          1    1    1    2  502    0 -0.41456745528E+02 -0.16775901390E+01  0.10175246583E+03  0.10988648853E+03  0.00000000000E+00 0. -1.
         22    1    3    3    0    0 -0.29879620933E+02 -0.23684694762E+02  0.10554496245E+03  0.11222074501E+03  0.00000000000E+00 0.  1.
         22    1    3    3    0    0  0.93656400181E+02  0.34950644857E+02  0.17026437822E+03  0.19744119976E+03  0.00000000000E+00 0.  1.
</event>
<event>
 7    1  0.5779468E-006  0.7348874E+02  0.7818608E-02  0.1428165E+00
          2   -1    0    0  502    0  0.00000000000E+00  0.00000000000E+00  0.16225126557E+03  0.16225126557E+03  0.00000000000E+00 0. -1.
          1   -1    0    0  501    0 -0.00000000000E+00 -0.00000000000E+00 -0.17609173801E+04  0.17609173801E+04  0.00000000000E+00 0. -1.
         25    2    1    2    0    0 -0.30537308229E+02  0.98362010908E+02 -0.44872661089E+03  0.47706165168E+03  0.12499854318E+03 0.  0.
          2    1    1    2  501    0  0.38433268307E+02 -0.60474969503E+02 -0.12944868036E+04  0.12964684427E+04  0.00000000000E+00 0. -1.
          1    1    1    2  502    0 -0.78959600780E+01 -0.37887041405E+02  0.14454730002E+03  0.14963855130E+03  0.00000000000E+00 0. -1.
         22    1    3    3    0    0  0.15305794034E+02  0.85948316297E+02 -0.39844056285E+03  0.40789246442E+03  0.00000000000E+00 0.  1.
         22    1    3    3    0    0 -0.45843102263E+02  0.12413694611E+02 -0.50286048046E+02  0.69169187266E+02  0.00000000000E+00 0.  1.
</event>
<event>
 7    1  0.5779468E-006  0.6857088E+02  0.7818608E-02  0.1503166E+00
          2   -1    0    0  502    0  0.00000000000E+00  0.00000000000E+00  0.25709317263E+03  0.25709317263E+03  0.00000000000E+00 0. -1.
          1   -1    0    0  501    0 -0.00000000000E+00 -0.00000000000E+00 -0.17101035596E+04  0.17101035596E+04  0.00000000000E+00 0. -1.
         25    2    1    2    0    0 -0.34252744678E+01 -0.47446326610E+02 -0.51439585037E+03  0.53149967163E+03  0.12500369456E+03 0.  0.
          2    1    1    2  501    0  0.12372540285E+02 -0.20739970181E+02 -0.11822729402E+04  0.11825195690E+04  0.00000000000E+00 0. -1.
          1    1    1    2  502    0 -0.89472658173E+01  0.68186296791E+02  0.24365840354E+03  0.25317749159E+03  0.00000000000E+00 0. -1.
         22    1    3    3    0    0 -0.27402851963E+02  0.27601458585E+02 -0.69155498272E+02  0.79342546928E+02  0.00000000000E+00 0.  1.
         22    1    3    3    0    0  0.23977577495E+02 -0.75047785195E+02 -0.44524035209E+03  0.45215712470E+03  0.00000000000E+00 0.  1.
</event>
<event>
 7    1  0.5779468E-006  0.5707360E+02  0.7818608E-02  0.1447491E+00
          2   -1    0    0  502    0  0.00000000000E+00  0.00000000000E+00  0.12040110742E+04  0.12040110742E+04  0.00000000000E+00 0. -1.
          1   -1    0    0  501    0 -0.00000000000E+00 -0.00000000000E+00 -0.12287667407E+03  0.12287667407E+03  0.00000000000E+00 0. -1.
         25    2    1    2    0    0 -0.82534076568E+02 -0.38931121466E+02  0.32783362711E+03  0.36253011808E+03  0.12500277373E+03 0.  0.
          2    1    1    2  501    0  0.56242576634E+02  0.47647414067E+01 -0.97395777444E+02  0.11256939038E+03  0.00000000000E+00 0. -1.
          1    1    1    2  502    0  0.26291499934E+02  0.34166380059E+02  0.85069655045E+03  0.85178823979E+03  0.00000000000E+00 0. -1.
         22    1    3    3    0    0 -0.59648672940E+02  0.15902301455E+02  0.53047522642E+02  0.81393409029E+02  0.00000000000E+00 0. -1.
         22    1    3    3    0    0 -0.22885403629E+02 -0.54833422920E+02  0.27478610446E+03  0.28113670905E+03  0.00000000000E+00 0. -1.
</event>
<event>
 7    1  0.5779468E-006  0.1307979E+03  0.7818608E-02  0.1238579E+00
          2   -1    0    0  502    0  0.00000000000E+00  0.00000000000E+00  0.14065443632E+04  0.14065443632E+04  0.00000000000E+00 0. -1.
          1   -1    0    0  501    0 -0.00000000000E+00 -0.00000000000E+00 -0.85336765404E+03  0.85336765404E+03  0.00000000000E+00 0. -1.
         25    2    1    2    0    0 -0.22982196961E+03  0.24452394032E+02 -0.26079649482E+03  0.37020143308E+03  0.12497292530E+03 0.  0.
          2    1    1    2  501    0  0.11879222585E+03  0.64699351327E+01 -0.52879118935E+03  0.54200883287E+03  0.00000000000E+00 0. -1.
          1    1    1    2  502    0  0.11102974376E+03 -0.30922329165E+02  0.13427643934E+04  0.13477017513E+04  0.00000000000E+00 0. -1.
         22    1    3    3    0    0 -0.21579426882E+02 -0.21800400679E+02 -0.95590767711E+02  0.10039185229E+03  0.00000000000E+00 0. -1.
         22    1    3    3    0    0 -0.20824254273E+03  0.46252794712E+02 -0.16520572711E+03  0.26980958080E+03  0.00000000000E+00 0. -1.
</event>
<event>
 7    1  0.5779468E-006  0.7531640E+02  0.7818608E-02  0.1356767E+00
          2   -1    0    0  502    0  0.00000000000E+00  0.00000000000E+00  0.23727452428E+04  0.23727452428E+04  0.00000000000E+00 0. -1.
          1   -1    0    0  501    0 -0.00000000000E+00 -0.00000000000E+00 -0.50096639124E+03  0.50096639124E+03  0.00000000000E+00 0. -1.
         25    2    1    2    0    0 -0.30807792419E+02  0.41789641537E+02  0.99380258115E+03  0.10029773478E+04  0.12499798288E+03 0.  0.
          2    1    1    2  501    0 -0.44174805315E+02 -0.61001205227E+02 -0.49242359241E+03  0.49815013282E+03  0.00000000000E+00 0. -1.
          1    1    1    2  502    0  0.74982597735E+02  0.19211563690E+02  0.13703998629E+04  0.13725841534E+04  0.00000000000E+00 0. -1.
         22    1    3    3    0    0  0.35737999011E+02  0.79989513730E+01  0.65631152211E+03  0.65733248957E+03  0.00000000000E+00 0.  1.
         22    1    3    3    0    0 -0.66545791430E+02  0.33790690164E+02  0.33749105904E+03  0.34564485824E+03  0.00000000000E+00 0.  1.
</event>
<event>
 7    1  0.5779468E-006  0.4694455E+02  0.7818608E-02  0.1549320E+00
          2   -1    0    0  502    0  0.00000000000E+00  0.00000000000E+00  0.56671730208E+03  0.56671730208E+03  0.00000000000E+00 0. -1.
          1   -1    0    0  501    0 -0.00000000000E+00 -0.00000000000E+00 -0.35633825498E+03  0.35633825498E+03  0.00000000000E+00 0. -1.
         25    2    1    2    0    0  0.21829902049E+02  0.18998948208E+01  0.42516796439E+03  0.44370300415E+03  0.12499761486E+03 0.  0.
          2    1    1    2  501    0 -0.45044140267E+02 -0.13551327233E+02 -0.34418036455E+03  0.34737981574E+03  0.00000000000E+00 0. -1.
          1    1    1    2  502    0  0.23214238218E+02  0.11651432412E+02  0.12939144726E+03  0.13197273717E+03  0.00000000000E+00 0. -1.
         22    1    3    3    0    0  0.42483396976E+02 -0.16684568873E+01  0.41995937380E+03  0.42210602745E+03  0.00000000000E+00 0. -1.
         22    1    3    3    0    0 -0.20653494927E+02  0.35683517081E+01  0.52085905936E+01  0.21596976700E+02  0.00000000000E+00 0. -1.
</event>
<event>
 7    1  0.5779468E-006  0.6681603E+02  0.7818608E-02  0.1435334E+00
          2   -1    0    0  502    0  0.00000000000E+00  0.00000000000E+00  0.10880215935E+04  0.10880215935E+04  0.00000000000E+00 0. -1.
          1   -1    0    0  501    0 -0.00000000000E+00 -0.00000000000E+00 -0.75910743297E+03  0.75910743297E+03  0.00000000000E+00 0. -1.
         25    2    1    2    0    0  0.26048039046E+02  0.87635155240E+01  0.45419387831E+01  0.12806942627E+03  0.12500339674E+03 0.  0.
          2    1    1    2  501    0 -0.64661954938E+02 -0.20368559782E+02 -0.69529661703E+03  0.69859389655E+03  0.00000000000E+00 0. -1.
          1    1    1    2  502    0  0.38613915892E+02  0.11605044258E+02  0.10196688388E+04  0.10204657037E+04  0.00000000000E+00 0. -1.
         22    1    3    3    0    0  0.15868472940E+02 -0.19414785907E+02 -0.55536517109E+02  0.60934777245E+02  0.00000000000E+00 0. -1.
         22    1    3    3    0    0  0.10179566106E+02  0.28178301431E+02  0.60078455893E+02  0.67134649028E+02  0.00000000000E+00 0. -1.
</event>
<event>
 7    1  0.5779468E-006  0.8414538E+02  0.7818608E-02  0.1349096E+00
          2   -1    0    0  502    0  0.00000000000E+00  0.00000000000E+00  0.13580908041E+04  0.13580908041E+04  0.00000000000E+00 0. -1.
          1   -1    0    0  501    0 -0.00000000000E+00 -0.00000000000E+00 -0.21608037780E+02  0.21608037780E+02  0.00000000000E+00 0. -1.
         25    2    1    2    0    0  0.29444850452E+01  0.26701522698E+02  0.58144186632E+03  0.59533212522E+03  0.12499621633E+03 0.  0.
          2    1    1    2  501    0  0.83756994721E+02 -0.80752956596E+01  0.14288493686E+03  0.16582083629E+03  0.00000000000E+00 0. -1.
          1    1    1    2  502    0 -0.86701479766E+02 -0.18626227038E+02  0.61215596316E+03  0.61854588040E+03  0.00000000000E+00 0. -1.
         22    1    3    3    0    0  0.54323342850E+02  0.36863182413E+02  0.20476782821E+03  0.21503437694E+03  0.00000000000E+00 0. -1.
         22    1    3    3    0    0 -0.51378857805E+02 -0.10161659716E+02  0.37667403811E+03  0.38029774827E+03  0.00000000000E+00 0. -1.
</event>
<event>
 7    1  0.5779468E-006  0.1080948E+03  0.7818608E-02  0.1272264E+00
          2   -1    0    0  502    0  0.00000000000E+00  0.00000000000E+00  0.21235338700E+03  0.21235338700E+03  0.00000000000E+00 0. -1.
          1   -1    0    0  501    0 -0.00000000000E+00 -0.00000000000E+00 -0.69379096676E+03  0.69379096676E+03  0.00000000000E+00 0. -1.
         25    2    1    2    0    0 -0.86775307257E+02  0.12395562797E+03 -0.16172396574E+03  0.25431110511E+03  0.12499818173E+03 0.  0.
          2    1    1    2  501    0 -0.11507072486E+02 -0.10602280969E+03 -0.46413202727E+03  0.47622661373E+03  0.00000000000E+00 0. -1.
          1    1    1    2  502    0  0.98282379743E+02 -0.17932818281E+02  0.14441841325E+03  0.17560663491E+03  0.00000000000E+00 0. -1.
         22    1    3    3    0    0 -0.95289508944E+01  0.11786737097E+03 -0.10671319296E+03  0.15928346931E+03  0.00000000000E+00 0. -1.
         22    1    3    3    0    0 -0.77246356362E+02  0.60882570012E+01 -0.55010772780E+02  0.95027635804E+02  0.00000000000E+00 0. -1.
</event>
<event>
 7    1  0.5779468E-006  0.3574039E+02  0.7818608E-02  0.1582895E+00
          2   -1    0    0  502    0  0.00000000000E+00  0.00000000000E+00  0.79167698119E+02  0.79167698119E+02  0.00000000000E+00 0. -1.
          1   -1    0    0  501    0 -0.00000000000E+00 -0.00000000000E+00 -0.12119036549E+04  0.12119036549E+04  0.00000000000E+00 0. -1.
         25    2    1    2    0    0 -0.93658845867E+01  0.10598788160E+02 -0.46179580480E+03  0.47862405312E+03  0.12500225916E+03 0.  0.
          2    1    1    2  501    0  0.36612080993E+02 -0.60505734457E+01 -0.73851386949E+03  0.73944559593E+03  0.00000000000E+00 0. -1.
          1    1    1    2  502    0 -0.27246196406E+02 -0.45482147145E+01  0.67573717537E+02  0.73001703935E+02  0.00000000000E+00 0. -1.
         22    1    3    3    0    0  0.19517542897E+02 -0.51377689806E+02 -0.25361419242E+03  0.25950098283E+03  0.00000000000E+00 0. -1.
         22    1    3    3    0    0 -0.28883427484E+02  0.61976477966E+02 -0.20818161238E+03  0.21912307030E+03  0.00000000000E+00 0. -1.
</event>
<event>
 7    1  0.5779468E-006  0.1105059E+03  0.7818608E-02  0.1395911E+00
          2   -1    0    0  502    0  0.00000000000E+00  0.00000000000E+00  0.13123104724E+04  0.13123104724E+04  0.00000000000E+00 0. -1.
          1   -1    0    0  501    0 -0.00000000000E+00 -0.00000000000E+00 -0.32327401056E+03  0.32327401056E+03  0.00000000000E+00 0. -1.
         25    2    1    2    0    0  0.35928545916E+01  0.13759725760E+03  0.52796791078E+03  0.55975031798E+03  0.12499755903E+03 0.  0.
          2    1    1    2  501    0  0.13407078695E+02 -0.10922081955E+03 -0.29716221270E+03  0.31688218290E+03  0.00000000000E+00 0. -1.
          1    1    1    2  502    0 -0.16999933287E+02 -0.28376438050E+02  0.75823076379E+03  0.75895198210E+03  0.00000000000E+00 0. -1.
         22    1    3    3    0    0  0.42345714337E+02  0.66447417160E+02  0.40429949910E+03  0.41190594040E+03  0.00000000000E+00 0. -1.
         22    1    3    3    0    0 -0.38752859745E+02  0.71149840444E+02  0.12366841169E+03  0.14784437758E+03  0.00000000000E+00 0. -1.
</event>
<event>
 7    1  0.5779468E-006  0.7168921E+02  0.7818608E-02  0.1369614E+00
          2   -1    0    0  502    0  0.00000000000E+00  0.00000000000E+00  0.10509246442E+04  0.10509246442E+04  0.00000000000E+00 0. -1.
          1   -1    0    0  501    0 -0.00000000000E+00 -0.00000000000E+00 -0.63148917271E+03  0.63148917271E+03  0.00000000000E+00 0. -1.
         25    2    1    2    0    0  0.98419124948E+02 -0.39172929967E+02  0.29079500806E+02  0.16640724896E+03  0.12499965017E+03 0.  0.
          2    1    1    2  501    0 -0.38777758366E+02  0.59874706902E+02 -0.55951290174E+03  0.56404200401E+03  0.00000000000E+00 0. -1.
          1    1    1    2  502    0 -0.59641366582E+02 -0.20701776935E+02  0.94986887239E+03  0.95196456389E+03  0.00000000000E+00 0. -1.
         22    1    3    3    0    0  0.12362470601E+03 -0.82355292474E+01  0.20362655224E+02  0.12556086017E+03  0.00000000000E+00 0.  1.
         22    1    3    3    0    0 -0.25205581066E+02 -0.30937400720E+02  0.87168455818E+01  0.40846388789E+02  0.00000000000E+00 0.  1.
</event>
<event>
 7    1  0.5779468E-006  0.3112917E+03  0.7818608E-02  0.1313129E+00
          2   -1    0    0  502    0  0.00000000000E+00  0.00000000000E+00  0.11327376852E+04  0.11327376852E+04  0.00000000000E+00 0. -1.
          1   -1    0    0  501    0 -0.00000000000E+00 -0.00000000000E+00 -0.63597300817E+03  0.63597300817E+03  0.00000000000E+00 0. -1.
         25    2    1    2    0    0  0.13965357768E+03 -0.25715078036E+03  0.48881379520E+03  0.58326070854E+03  0.12499792861E+03 0.  0.
          2    1    1    2  501    0 -0.13777953133E+03  0.28077315510E+03 -0.54694301734E+03  0.63005033775E+03  0.00000000000E+00 0. -1.
          1    1    1    2  502    0 -0.18740463493E+01 -0.23622374737E+02  0.55489389918E+03  0.55539964709E+03  0.00000000000E+00 0. -1.
         22    1    3    3    0    0  0.24279692953E+02 -0.22255414719E+01  0.58203273592E+01  0.25066566085E+02  0.00000000000E+00 0. -1.
         22    1    3    3    0    0  0.11537388472E+03 -0.25492523889E+03  0.48299346784E+03  0.55819414246E+03  0.00000000000E+00 0. -1.
</event>
<event>
 7    1  0.5779468E-006  0.3280399E+02  0.7818608E-02  0.1584969E+00
          2   -1    0    0  502    0  0.00000000000E+00  0.00000000000E+00  0.46147410294E+03  0.46147410294E+03  0.00000000000E+00 0. -1.
          1   -1    0    0  501    0 -0.00000000000E+00 -0.00000000000E+00 -0.39361286353E+03  0.39361286353E+03  0.00000000000E+00 0. -1.
         25    2    1    2    0    0  0.47251907557E+02  0.22213463866E+02  0.24229062639E+03  0.27758897629E+03  0.12499884550E+03 0.  0.
          2    1    1    2  501    0 -0.15517132578E+02 -0.25341524094E+02 -0.37410944348E+03  0.37528768958E+03  0.00000000000E+00 0. -1.
          1    1    1    2  502    0 -0.31734774979E+02  0.31280602278E+01  0.19968005650E+03  0.20221030060E+03  0.00000000000E+00 0. -1.
         22    1    3    3    0    0  0.15335929591E+02  0.38175697104E+02  0.23813510740E+03  0.24166278977E+03  0.00000000000E+00 0. -1.
         22    1    3    3    0    0  0.31915977966E+02 -0.15962233237E+02  0.41555189914E+01  0.35926186515E+02  0.00000000000E+00 0. -1.
</event>
<event>
 7    1  0.5779468E-006  0.5249932E+02  0.7818608E-02  0.1512153E+00
          2   -1    0    0  502    0  0.00000000000E+00  0.00000000000E+00  0.11334916545E+04  0.11334916545E+04  0.00000000000E+00 0. -1.
          1   -1    0    0  501    0 -0.00000000000E+00 -0.00000000000E+00 -0.56097992282E+02  0.56097992282E+02  0.00000000000E+00 0. -1.
         25    2    1    2    0    0  0.44436609873E+02 -0.62899778008E+02  0.32366834233E+03  0.35540939513E+03  0.12499459167E+03 0.  0.
          2    1    1    2  501    0 -0.58313799996E+01  0.29094643883E+02 -0.33804442951E+02  0.44980480862E+02  0.00000000000E+00 0. -1.
          1    1    1    2  502    0 -0.38605229874E+02  0.33805134125E+02  0.78752976279E+03  0.78919977075E+03  0.00000000000E+00 0. -1.
         22    1    3    3    0    0 -0.19264355058E+02 -0.28357896612E+02  0.13427541560E+02  0.36818263789E+02  0.00000000000E+00 0.  1.
         22    1    3    3    0    0  0.63700964931E+02 -0.34541881396E+02  0.31024080077E+03  0.31859113134E+03  0.00000000000E+00 0.  1.
</event>
<event>
 7    1  0.5779468E-006  0.6456366E+02  0.7818608E-02  0.1463255E+00
          2   -1    0    0  502    0  0.00000000000E+00  0.00000000000E+00  0.32172443198E+04  0.32172443198E+04  0.00000000000E+00 0. -1.
          1   -1    0    0  501    0 -0.00000000000E+00 -0.00000000000E+00 -0.11483351428E+02  0.11483351428E+02  0.00000000000E+00 0. -1.
         25    2    1    2    0    0  0.34264786849E+02 -0.33369111469E+02  0.91997173172E+03  0.92965613333E+03  0.12499986337E+03 0.  0.
          2    1    1    2  501    0  0.30176931336E+02  0.15579192333E+02  0.40789944023E+02  0.53077094420E+02  0.00000000000E+00 0. -1.
          1    1    1    2  502    0 -0.64441718185E+02  0.17789919136E+02  0.22449992926E+04  0.22459944435E+04  0.00000000000E+00 0. -1.
         22    1    3    3    0    0 -0.46989008169E+01 -0.72741560706E+02  0.38628523756E+03  0.39310265717E+03  0.00000000000E+00 0. -1.
         22    1    3    3    0    0  0.38963687666E+02  0.39372449237E+02  0.53368649417E+03  0.53655347615E+03  0.00000000000E+00 0. -1.
</event>
<event>
 7    1  0.5779468E-006  0.3953876E+02  0.7818608E-02  0.1543472E+00
          2   -1    0    0  502    0  0.00000000000E+00  0.00000000000E+00  0.24549151142E+03  0.24549151142E+03  0.00000000000E+00 0. -1.
          1   -1    0    0  501    0 -0.00000000000E+00 -0.00000000000E+00 -0.10880098039E+04  0.10880098039E+04  0.00000000000E+00 0. -1.
         25    2    1    2    0    0  0.21472880893E+02  0.59822205312E+02 -0.80465236728E+03  0.81678023717E+03  0.12499897119E+03 0.  0.
          2    1    1    2  501    0 -0.22067449061E+02 -0.27802376328E+02 -0.27507710968E+03  0.27735782071E+03  0.00000000000E+00 0. -1.
          1    1    1    2  502    0  0.59456816810E+00 -0.32019828983E+02  0.23721118449E+03  0.23936325743E+03  0.00000000000E+00 0. -1.
         22    1    3    3    0    0  0.37522540716E+01  0.89329484677E+02 -0.71795024175E+03  0.72349594737E+03  0.00000000000E+00 0. -1.
         22    1    3    3    0    0  0.17720626821E+02 -0.29507279365E+02 -0.86702125539E+02  0.93284289800E+02  0.00000000000E+00 0. -1.
</event>
<event>
 7    1  0.5779468E-006  0.6001917E+02  0.7818608E-02  0.1459125E+00
          2   -1    0    0  502    0  0.00000000000E+00  0.00000000000E+00  0.92888503367E+02  0.92888503367E+02  0.00000000000E+00 0. -1.
          1   -1    0    0  501    0 -0.00000000000E+00 -0.00000000000E+00 -0.89222486189E+03  0.89222486189E+03  0.00000000000E+00 0. -1.
         25    2    1    2    0    0  0.26697343646E+02  0.45631629861E+02 -0.48367799366E+03  0.50235854207E+03  0.12499883778E+03 0.  0.
          2    1    1    2  501    0  0.29489928866E+02 -0.23395728955E+02 -0.38724711372E+03  0.38907241372E+03  0.00000000000E+00 0. -1.
          1    1    1    2  502    0 -0.56187272512E+02 -0.22235900906E+02  0.71588748848E+02  0.93682409464E+02  0.00000000000E+00 0. -1.
         22    1    3    3    0    0 -0.26353712763E+02  0.64709793484E+02 -0.35593639059E+03  0.36272936150E+03  0.00000000000E+00 0.  1.
         22    1    3    3    0    0  0.53051056409E+02 -0.19078163623E+02 -0.12774160307E+03  0.13962918057E+03  0.00000000000E+00 0.  1.
</event>
<event>
 7    1  0.5779468E-006  0.5652483E+02  0.7818608E-02  0.1493111E+00
          2   -1    0    0  502    0  0.00000000000E+00  0.00000000000E+00  0.11875102260E+04  0.11875102260E+04  0.00000000000E+00 0. -1.
          1   -1    0    0  501    0 -0.00000000000E+00 -0.00000000000E+00 -0.41947790831E+03  0.41947790831E+03  0.00000000000E+00 0. -1.
         25    2    1    2    0    0  0.63043945581E+02  0.23513812134E+02  0.28767676790E+03  0.32079568263E+03  0.12499803507E+03 0.  0.
          2    1    1    2  501    0 -0.25427022239E+02  0.18420156359E+02 -0.40140655708E+03  0.40263266098E+03  0.00000000000E+00 0. -1.
          1    1    1    2  502    0 -0.37616923342E+02 -0.41933968493E+02  0.88176210692E+03  0.88355979075E+03  0.00000000000E+00 0. -1.
         22    1    3    3    0    0  0.61166555655E+01  0.54549043815E+02  0.49372934188E+02  0.73828844545E+02  0.00000000000E+00 0.  1.
         22    1    3    3    0    0  0.56927290015E+02 -0.31035231682E+02  0.23830383371E+03  0.24696683809E+03  0.00000000000E+00 0.  1.
</event>
<event>
 7    1  0.5779468E-006  0.1706019E+03  0.7818608E-02  0.1177475E+00
          2   -1    0    0  502    0  0.00000000000E+00  0.00000000000E+00  0.20944769164E+03  0.20944769164E+03  0.00000000000E+00 0. -1.
          1   -1    0    0  501    0 -0.00000000000E+00 -0.00000000000E+00 -0.19493654216E+04  0.19493654216E+04  0.00000000000E+00 0. -1.
         25    2    1    2    0    0  0.25385645458E+02 -0.11177103598E+03 -0.11727307107E+04  0.11849302938E+04  0.12500114346E+03 0.  0.
          2    1    1    2  501    0 -0.16962374611E+03  0.12906015249E+02 -0.72112054226E+03  0.74091404153E+03  0.00000000000E+00 0. -1.
          1    1    1    2  502    0  0.14423810065E+03  0.98865020728E+02  0.15393352297E+03  0.23296877794E+03  0.00000000000E+00 0. -1.
         22    1    3    3    0    0 -0.91354113959E+01 -0.11199567187E+03 -0.55638191073E+03  0.56761546565E+03  0.00000000000E+00 0. -1.
         22    1    3    3    0    0  0.34521056854E+02  0.22463589115E+00 -0.61634879995E+03  0.61731482813E+03  0.00000000000E+00 0. -1.
</event>
<event>
 7    1  0.5779468E-006  0.4738126E+02  0.7818608E-02  0.1517951E+00
          2   -1    0    0  502    0  0.00000000000E+00  0.00000000000E+00  0.62561082349E+02  0.62561082349E+02  0.00000000000E+00 0. -1.
          1   -1    0    0  501    0 -0.00000000000E+00 -0.00000000000E+00 -0.80438803556E+03  0.80438803556E+03  0.00000000000E+00 0. -1.
         25    2    1    2    0    0 -0.65062780066E+02 -0.41619777590E+02 -0.54501516025E+03  0.56447401091E+03  0.12499605131E+03 0.  0.
          2    1    1    2  501    0  0.29652900702E+02  0.10979039744E+02 -0.23801240535E+03  0.24010360042E+03  0.00000000000E+00 0. -1.
          1    1    1    2  502    0  0.35409879363E+02  0.30640737845E+02  0.41200612392E+02  0.62371506585E+02  0.00000000000E+00 0. -1.
         22    1    3    3    0    0 -0.65421693784E+02  0.54436410318E+01 -0.11933668383E+03  0.13620159820E+03  0.00000000000E+00 0. -1.
         22    1    3    3    0    0  0.35891371851E+00 -0.47063418621E+02 -0.42567847642E+03  0.42827241270E+03  0.00000000000E+00 0. -1.
</event>
<event>
 7    1  0.5779468E-006  0.1174853E+03  0.7818608E-02  0.1267994E+00
          2   -1    0    0  502    0  0.00000000000E+00  0.00000000000E+00  0.62949885102E+03  0.62949885102E+03  0.00000000000E+00 0. -1.
          1   -1    0    0  501    0 -0.00000000000E+00 -0.00000000000E+00 -0.37503867544E+03  0.37503867544E+03  0.00000000000E+00 0. -1.
         25    2    1    2    0    0 -0.93255729937E+01 -0.13660883857E+02 -0.40383434788E+02  0.13239865838E+03  0.12499998750E+03 0.  0.
          2    1    1    2  501    0  0.11639145358E+03 -0.34709606585E+02 -0.26954836986E+03  0.29564852604E+03  0.00000000000E+00 0. -1.
          1    1    1    2  502    0 -0.10706588059E+03  0.48370490442E+02  0.56439198022E+03  0.57649034204E+03  0.00000000000E+00 0. -1.
         22    1    3    3    0    0  0.54551839627E+02 -0.26946297687E+02 -0.19765026383E+02  0.63973919949E+02  0.00000000000E+00 0. -1.
         22    1    3    3    0    0 -0.63877412620E+02  0.13285413830E+02 -0.20618408405E+02  0.68424738427E+02  0.00000000000E+00 0. -1.
</event>
<event>
 7    1  0.5779468E-006  0.9979809E+02  0.7818608E-02  0.1298193E+00
          2   -1    0    0  502    0  0.00000000000E+00  0.00000000000E+00  0.47646465704E+03  0.47646465704E+03  0.00000000000E+00 0. -1.
          1   -1    0    0  501    0 -0.00000000000E+00 -0.00000000000E+00 -0.71203725726E+03  0.71203725726E+03  0.00000000000E+00 0. -1.
         25    2    1    2    0    0 -0.85984211978E+02 -0.60315527380E+02  0.47781131916E+02  0.17012048695E+03  0.12500678365E+03 0.  0.
          2    1    1    2  501    0  0.11249409367E+02  0.10022325846E+03 -0.64199530097E+03  0.64986861535E+03  0.00000000000E+00 0. -1.
          1    1    1    2  502    0  0.74734802612E+02 -0.39907731084E+02  0.35864156883E+03  0.36851281201E+03  0.00000000000E+00 0. -1.
         22    1    3    3    0    0 -0.59463323182E+02  0.31484681903E+02  0.25869094204E+02  0.72085935059E+02  0.00000000000E+00 0.  1.
         22    1    3    3    0    0 -0.26520888797E+02 -0.91800209283E+02  0.21912037712E+02  0.98034551886E+02  0.00000000000E+00 0.  1.
</event>
<event>
 7    1  0.5779468E-006  0.1228418E+03  0.7818608E-02  0.1391520E+00
          2   -1    0    0  502    0  0.00000000000E+00  0.00000000000E+00  0.94537750864E+02  0.94537750864E+02  0.00000000000E+00 0. -1.
          1   -1    0    0  501    0 -0.00000000000E+00 -0.00000000000E+00 -0.12621121092E+04  0.12621121092E+04  0.00000000000E+00 0. -1.
         25    2    1    2    0    0 -0.53513919053E+01  0.13309541949E+03 -0.66028806295E+03  0.68509016549E+03  0.12500072274E+03 0.  0.
          2    1    1    2  501    0  0.28008799779E+02 -0.12859578382E+02 -0.54317821615E+03  0.54405186896E+03  0.00000000000E+00 0. -1.
          1    1    1    2  502    0 -0.22657407874E+02 -0.12023584111E+03  0.35891920755E+02  0.12750782562E+03  0.00000000000E+00 0. -1.
         22    1    3    3    0    0 -0.20658578870E+02  0.54089175872E+02 -0.52114064625E+03  0.52434720273E+03  0.00000000000E+00 0. -1.
         22    1    3    3    0    0  0.15307186965E+02  0.79006243623E+02 -0.13914741669E+03  0.16074296276E+03  0.00000000000E+00 0. -1.
</event>
<event>
 7    1  0.5779468E-006  0.1042240E+03  0.7818608E-02  0.1310570E+00
          2   -1    0    0  502    0  0.00000000000E+00  0.00000000000E+00  0.69080454617E+03  0.69080454617E+03  0.00000000000E+00 0. -1.
          1   -1    0    0  501    0 -0.00000000000E+00 -0.00000000000E+00 -0.79613285191E+03  0.79613285191E+03  0.00000000000E+00 0. -1.
         25    2    1    2    0    0 -0.12452738633E+03 -0.11735640432E+03 -0.16849978181E+03  0.27073479678E+03  0.12500223254E+03 0.  0.
          2    1    1    2  501    0  0.71828038943E+02  0.67662681736E+02 -0.57021365691E+03  0.57868913952E+03  0.00000000000E+00 0. -1.
          1    1    1    2  502    0  0.52699347387E+02  0.49693722582E+02  0.63338513297E+03  0.63751346177E+03  0.00000000000E+00 0. -1.
         22    1    3    3    0    0 -0.48786161689E+02 -0.12594262592E+03 -0.11751690277E+03  0.17903032434E+03  0.00000000000E+00 0. -1.
         22    1    3    3    0    0 -0.75741224640E+02  0.85862216026E+01 -0.50982879030E+02  0.91704472441E+02  0.00000000000E+00 0. -1.
</event>
<event>
 7    1  0.5779468E-006  0.1378598E+03  0.7818608E-02  0.1351789E+00
          2   -1    0    0  502    0  0.00000000000E+00  0.00000000000E+00  0.12850732024E+04  0.12850732024E+04  0.00000000000E+00 0. -1.
          1   -1    0    0  501    0 -0.00000000000E+00 -0.00000000000E+00 -0.75045247852E+03  0.75045247852E+03  0.00000000000E+00 0. -1.
         25    2    1    2    0    0 -0.15549844308E+02 -0.10681144627E+03  0.23792565565E+03  0.28962666229E+03  0.12499801271E+03 0.  0.
          2    1    1    2  501    0 -0.19758617766E+02 -0.32609431421E+02 -0.71903097816E+03  0.72004119712E+03  0.00000000000E+00 0. -1.
          1    1    1    2  502    0  0.35308462074E+02  0.13942087769E+03  0.10157260463E+04  0.10258578215E+04  0.00000000000E+00 0. -1.
         22    1    3    3    0    0 -0.64267000758E+01  0.28645573173E+02  0.40223582880E+02  0.49797670187E+02  0.00000000000E+00 0.  1.
         22    1    3    3    0    0 -0.91231442320E+01 -0.13545701945E+03  0.19770207277E+03  0.23982899211E+03  0.00000000000E+00 0.  1.
</event>
<event>
 7    1  0.5779468E-006  0.5436771E+02  0.7818608E-02  0.1537264E+00
          2   -1    0    0  502    0  0.00000000000E+00  0.00000000000E+00  0.24044175143E+04  0.24044175143E+04  0.00000000000E+00 0. -1.
          1   -1    0    0  501    0 -0.00000000000E+00 -0.00000000000E+00 -0.24993673044E+03  0.24993673044E+03  0.00000000000E+00 0. -1.
         25    2    1    2    0    0  0.74657614815E+02  0.89273867720E+01 -0.81314797853E+02  0.16698317252E+03  0.12497130018E+03 0.  0.
          2    1    1    2  501    0 -0.20489528592E+02 -0.12971197522E+02 -0.12430355241E+03  0.12664693399E+03  0.00000000000E+00 0. -1.
          1    1    1    2  502    0 -0.54168086223E+02  0.40438107498E+01  0.23600991342E+04  0.23607241383E+04  0.00000000000E+00 0. -1.
         22    1    3    3    0    0  0.32501379212E+02  0.57890760508E+02 -0.77800173567E+02  0.10227681463E+03  0.00000000000E+00 0. -1.
         22    1    3    3    0    0  0.42156235603E+02 -0.48963373736E+02 -0.35146242859E+01  0.64706357892E+02  0.00000000000E+00 0. -1.
</event>
<event>
 7    1  0.5779468E-006  0.4589252E+02  0.7818608E-02  0.1491066E+00
          2   -1    0    0  502    0  0.00000000000E+00  0.00000000000E+00  0.13325985902E+04  0.13325985902E+04  0.00000000000E+00 0. -1.
          1   -1    0    0  501    0 -0.00000000000E+00 -0.00000000000E+00 -0.67218381026E+02  0.67218381026E+02  0.00000000000E+00 0. -1.
         25    2    1    2    0    0 -0.16063706147E+02  0.35976582878E+01  0.10091539140E+04  0.10170000027E+04  0.12500559022E+03 0.  0.
          2    1    1    2  501    0  0.33993607695E+02  0.31290353570E+02 -0.53458768196E+02  0.70657564972E+02  0.00000000000E+00 0. -1.
          1    1    1    2  502    0 -0.17929901548E+02 -0.34888011858E+02  0.30968506338E+03  0.31215940355E+03  0.00000000000E+00 0. -1.
         22    1    3    3    0    0  0.56519933467E+01  0.61409428298E+02  0.40033583278E+03  0.40505782541E+03  0.00000000000E+00 0.  1.
         22    1    3    3    0    0 -0.21715699494E+02 -0.57811770011E+02  0.60881808125E+03  0.61194217734E+03  0.00000000000E+00 0.  1.
</event>
<event>
 7    1  0.5779468E-006  0.1744077E+03  0.7818608E-02  0.1259142E+00
          2   -1    0    0  502    0  0.00000000000E+00  0.00000000000E+00  0.19444604072E+04  0.19444604072E+04  0.00000000000E+00 0. -1.
          1   -1    0    0  501    0 -0.00000000000E+00 -0.00000000000E+00 -0.35882794125E+03  0.35882794125E+03  0.00000000000E+00 0. -1.
         25    2    1    2    0    0  0.15036474231E+03 -0.13878840416E+02 -0.14230051949E+02  0.19654481461E+03  0.12500076732E+03 0.  0.
          2    1    1    2  501    0  0.16802701985E+02  0.68322344043E+02 -0.24429488099E+03  0.25422482641E+03  0.00000000000E+00 0. -1.
          1    1    1    2  502    0 -0.16716744430E+03 -0.54443503627E+02  0.18441573989E+04  0.18525187074E+04  0.00000000000E+00 0. -1.
         22    1    3    3    0    0  0.75310106567E+02 -0.23014401359E+01  0.55394058457E+02  0.93516899490E+02  0.00000000000E+00 0. -1.
         22    1    3    3    0    0  0.75054635748E+02 -0.11577400280E+02 -0.69624110406E+02  0.10302791512E+03  0.00000000000E+00 0. -1.
</event>
<event>
 7    1  0.5779468E-006  0.9339004E+02  0.7818608E-02  0.1374715E+00
          2   -1    0    0  502    0  0.00000000000E+00  0.00000000000E+00  0.13617838021E+04  0.13617838021E+04  0.00000000000E+00 0. -1.
          1   -1    0    0  501    0 -0.00000000000E+00 -0.00000000000E+00 -0.59569895052E+02  0.59569895052E+02  0.00000000000E+00 0. -1.
         25    2    1    2    0    0  0.23292674714E+02 -0.99744135188E+02  0.75279778298E+03  0.76994887224E+03  0.12500129041E+03 0.  0.
          2    1    1    2  501    0 -0.60195621505E+02  0.71510784325E+02 -0.63601192841E+01  0.93689680544E+02  0.00000000000E+00 0. -1.
          1    1    1    2  502    0  0.36902946791E+02  0.28233350863E+02  0.55577624331E+03  0.55771514432E+03  0.00000000000E+00 0. -1.
         22    1    3    3    0    0 -0.16159221260E+02  0.37804357605E+01  0.39598395346E+03  0.39633155757E+03  0.00000000000E+00 0. -1.
         22    1    3    3    0    0  0.39451895974E+02 -0.10352457095E+03  0.35681382952E+03  0.37361731467E+03  0.00000000000E+00 0. -1.
</event>
<event>
 7    1  0.5779468E-006  0.1019129E+03  0.7818608E-02  0.1439344E+00
          2   -1    0    0  502    0  0.00000000000E+00  0.00000000000E+00  0.18340375916E+03  0.18340375916E+03  0.00000000000E+00 0. -1.
          1   -1    0    0  501    0 -0.00000000000E+00 -0.00000000000E+00 -0.20844962945E+03  0.20844962945E+03  0.00000000000E+00 0. -1.
         25    2    1    2    0    0 -0.82750896359E+02  0.45050860419E+02  0.16748188337E+02  0.15742250482E+03  0.12499620930E+03 0.  0.
          2    1    1    2  501    0  0.36689508876E+01  0.25387504935E+02 -0.10702097879E+03  0.11005215359E+03  0.00000000000E+00 0. -1.
          1    1    1    2  502    0  0.79081945471E+02 -0.70438365354E+02  0.65226920157E+02  0.12437873020E+03  0.00000000000E+00 0. -1.
         22    1    3    3    0    0 -0.10855945893E+03  0.11481599756E+02 -0.60483957972E+01  0.10933236642E+03  0.00000000000E+00 0.  1.
         22    1    3    3    0    0  0.25808562568E+02  0.33569260663E+02  0.22796584134E+02  0.48090138402E+02  0.00000000000E+00 0.  1.
</event>
<event>
 7    1  0.5779468E-006  0.8045546E+02  0.7818608E-02  0.1356345E+00
          2   -1    0    0  502    0  0.00000000000E+00  0.00000000000E+00  0.76945976057E+03  0.76945976057E+03  0.00000000000E+00 0. -1.
          1   -1    0    0  501    0 -0.00000000000E+00 -0.00000000000E+00 -0.16529860976E+03  0.16529860976E+03  0.00000000000E+00 0. -1.
         25    2    1    2    0    0 -0.12607044079E+03  0.96403244692E+01  0.47450609975E+03  0.50672352868E+03  0.12500401566E+03 0.  0.
          2    1    1    2  501    0  0.58515531353E+02 -0.22956596953E+02 -0.13801270721E+03  0.15165282755E+03  0.00000000000E+00 0. -1.
          1    1    1    2  502    0  0.67554909436E+02  0.13316272484E+02  0.26766775827E+03  0.27638201410E+03  0.00000000000E+00 0. -1.
         22    1    3    3    0    0 -0.58486850241E+01 -0.41586493531E+02  0.69988823748E+02  0.81621559715E+02  0.00000000000E+00 0.  1.
         22    1    3    3    0    0 -0.12022175576E+03  0.51226818000E+02  0.40451727600E+03  0.42510196897E+03  0.00000000000E+00 0.  1.
</event>
<event>
 7    1  0.5779468E-006  0.1746332E+03  0.7818608E-02  0.1191000E+00
          2   -1    0    0  502    0  0.00000000000E+00  0.00000000000E+00  0.13960107114E+04  0.13960107114E+04  0.00000000000E+00 0. -1.
          1   -1    0    0  501    0 -0.00000000000E+00 -0.00000000000E+00 -0.71009542329E+02  0.71009542329E+02  0.00000000000E+00 0. -1.
         25    2    1    2    0    0 -0.16860662269E+03  0.19977594097E+01  0.43807290976E+03  0.48576137611E+03  0.12499622392E+03 0.  0.
          2    1    1    2  501    0  0.29147317456E+02 -0.13990439030E+03  0.11107282027E+03  0.18099717109E+03  0.00000000000E+00 0. -1.
          1    1    1    2  502    0  0.13945930523E+03  0.13790663089E+03  0.77585543906E+03  0.80026170655E+03  0.00000000000E+00 0. -1.
         22    1    3    3    0    0 -0.12634530398E+03  0.51754311621E+02  0.35330515829E+03  0.37876929586E+03  0.00000000000E+00 0. -1.
         22    1    3    3    0    0 -0.42261318710E+02 -0.49756552212E+02  0.84767751469E+02  0.10699208025E+03  0.00000000000E+00 0. -1.
</event>
<event>
 7    1  0.5779468E-006  0.1746831E+03  0.7818608E-02  0.1222095E+00
          2   -1    0    0  502    0  0.00000000000E+00  0.00000000000E+00  0.80030352829E+03  0.80030352829E+03  0.00000000000E+00 0. -1.
          1   -1    0    0  501    0 -0.00000000000E+00 -0.00000000000E+00 -0.70237749289E+03  0.70237749289E+03  0.00000000000E+00 0. -1.
         25    2    1    2    0    0  0.24751131870E+03 -0.51395352339E+02  0.10619575472E+03  0.30132251667E+03  0.12495753521E+03 0.  0.
          2    1    1    2  501    0 -0.81583585552E+02  0.61723303204E+02 -0.58873391698E+03  0.59755608322E+03  0.00000000000E+00 0. -1.
          1    1    1    2  502    0 -0.16592773315E+03 -0.10327950865E+02  0.58046419765E+03  0.60380242129E+03  0.00000000000E+00 0. -1.
         22    1    3    3    0    0  0.36189665907E+00 -0.30138106443E+02 -0.30023207645E+01  0.30289443031E+02  0.00000000000E+00 0.  1.
         22    1    3    3    0    0  0.24714942204E+03 -0.21257245896E+02  0.10919807548E+03  0.27103307364E+03  0.00000000000E+00 0.  1.
</event>
<event>
 7    1  0.5779468E-006  0.6044085E+02  0.7818608E-02  0.1461077E+00
          2   -1    0    0  502    0  0.00000000000E+00  0.00000000000E+00  0.17587767317E+04  0.17587767317E+04  0.00000000000E+00 0. -1.
          1   -1    0    0  501    0 -0.00000000000E+00 -0.00000000000E+00 -0.20274665104E+03  0.20274665104E+03  0.00000000000E+00 0. -1.
         25    2    1    2    0    0  0.22367942418E+02 -0.76801600442E+02  0.13563334157E+03  0.20104971459E+03  0.12500309482E+03 0.  0.
          2    1    1    2  501    0 -0.40256985888E+02  0.44580084585E+02 -0.16451286070E+03  0.17513563370E+03  0.00000000000E+00 0. -1.
          1    1    1    2  502    0  0.17889043470E+02  0.32221515856E+02  0.15849095998E+04  0.15853380344E+04  0.00000000000E+00 0. -1.
         22    1    3    3    0    0 -0.16492967246E+02 -0.80033893296E+02  0.27691515057E+02  0.86280137059E+02  0.00000000000E+00 0.  1.
         22    1    3    3    0    0  0.38860909664E+02  0.32322928545E+01  0.10794182651E+03  0.11476957753E+03  0.00000000000E+00 0.  1.
</event>
<event>
 7    1  0.5779468E-006  0.1842320E+03  0.7818608E-02  0.1321487E+00
          2   -1    0    0  502    0  0.00000000000E+00  0.00000000000E+00  0.97307426641E+03  0.97307426641E+03  0.00000000000E+00 0. -1.
          1   -1    0    0  501    0 -0.00000000000E+00 -0.00000000000E+00 -0.50849212390E+03  0.50849212390E+03  0.00000000000E+00 0. -1.
         25    2    1    2    0    0 -0.18844922747E+03 -0.22554363209E+02 -0.11373169594E+03  0.25412937344E+03  0.12500011659E+03 0.  0.
          2    1    1    2  501    0  0.48776521069E+01  0.36825672412E+02 -0.31406830047E+03  0.31625752007E+03  0.00000000000E+00 0. -1.
          1    1    1    2  502    0  0.18357157536E+03 -0.14271309203E+02  0.89238213891E+03  0.91117949680E+03  0.00000000000E+00 0. -1.
         22    1    3    3    0    0 -0.93543655396E+02  0.95394681233E+01 -0.12150986414E+03  0.15364265033E+03  0.00000000000E+00 0. -1.
         22    1    3    3    0    0 -0.94905572076E+02 -0.32093831332E+02  0.77781682007E+01  0.10048672311E+03  0.00000000000E+00 0. -1.
</event>
<event>
 7    1  0.5779468E-006  0.6136669E+02  0.7818608E-02  0.1498067E+00
          2   -1    0    0  502    0  0.00000000000E+00  0.00000000000E+00  0.20031778452E+04  0.20031778452E+04  0.00000000000E+00 0. -1.
          1   -1    0    0  501    0 -0.00000000000E+00 -0.00000000000E+00 -0.61388978807E+02  0.61388978807E+02  0.00000000000E+00 0. -1.
         25    2    1    2    0    0  0.64589491536E+02  0.49130010096E+01  0.54963185732E+03  0.56737122133E+03  0.12497593459E+03 0.  0.
          2    1    1    2  501    0 -0.53349521021E+02 -0.30499774458E+02 -0.34359180789E+02  0.70405688262E+02  0.00000000000E+00 0. -1.
          1    1    1    2  502    0 -0.11239970516E+02  0.25586773449E+02  0.14265161899E+04  0.14267899144E+04  0.00000000000E+00 0. -1.
         22    1    3    3    0    0  0.99450282604E+02  0.21005500267E+02  0.37196744521E+03  0.38560519971E+03  0.00000000000E+00 0. -1.
         22    1    3    3    0    0 -0.34860791067E+02 -0.16092499257E+02  0.17766441211E+03  0.18176602162E+03  0.00000000000E+00 0. -1.
</event>
<event>
 7    1  0.5779468E-006  0.9506834E+02  0.7818608E-02  0.1314417E+00
          2   -1    0    0  502    0  0.00000000000E+00  0.00000000000E+00  0.10740506395E+04  0.10740506395E+04  0.00000000000E+00 0. -1.
          1   -1    0    0  501    0 -0.00000000000E+00 -0.00000000000E+00 -0.28269798744E+03  0.28269798744E+03  0.00000000000E+00 0. -1.
         25    2    1    2    0    0 -0.67069530318E+02 -0.84706121633E+02 -0.14967371756E+03  0.22293565690E+03  0.12499854579E+03 0.  0.
          2    1    1    2  501    0 -0.27301955638E+02  0.71672164880E+02 -0.78557045651E+02  0.10978845760E+03  0.00000000000E+00 0. -1.
          1    1    1    2  502    0  0.94371485955E+02  0.13033956753E+02  0.10195834153E+04  0.10240245125E+04  0.00000000000E+00 0. -1.
         22    1    3    3    0    0  0.11323685885E+02  0.26666129358E+02 -0.28469219487E+02  0.40617788900E+02  0.00000000000E+00 0.  1.
         22    1    3    3    0    0 -0.78393216203E+02 -0.11137225099E+03 -0.12120449808E+03  0.18231786800E+03  0.00000000000E+00 0.  1.
</event>
<event>
 7    1  0.5779468E-006  0.6210488E+02  0.7818608E-02  0.1454955E+00
          2   -1    0    0  502    0  0.00000000000E+00  0.00000000000E+00  0.30105042713E+04  0.30105042713E+04  0.00000000000E+00 0. -1.
          1   -1    0    0  501    0 -0.00000000000E+00 -0.00000000000E+00 -0.14610286453E+03  0.14610286453E+03  0.00000000000E+00 0. -1.
         25    2    1    2    0    0 -0.73770439574E+01 -0.58078718203E+02  0.35708128412E+03  0.38283207600E+03  0.12500318661E+03 0.  0.
          2    1    1    2  501    0 -0.35372659648E+02  0.12458899660E+02 -0.13021048509E+03  0.13550357802E+03  0.00000000000E+00 0. -1.
          1    1    1    2  502    0  0.42749703606E+02  0.45619818543E+02  0.26375306078E+04  0.26382714818E+04  0.00000000000E+00 0. -1.
         22    1    3    3    0    0 -0.32802952586E+01  0.11668579737E+02 -0.56928583610E+01  0.13391218256E+02  0.00000000000E+00 0. -1.
         22    1    3    3    0    0 -0.40967486988E+01 -0.69747297940E+02  0.36277414248E+03  0.36944085775E+03  0.00000000000E+00 0. -1.
</event>
<event>
 7    1  0.5779468E-006  0.5093545E+02  0.7818608E-02  0.1476150E+00
          2   -1    0    0  502    0  0.00000000000E+00  0.00000000000E+00  0.27733956066E+03  0.27733956066E+03  0.00000000000E+00 0. -1.
          1   -1    0    0  501    0 -0.00000000000E+00 -0.00000000000E+00 -0.22195986980E+04  0.22195986980E+04  0.00000000000E+00 0. -1.
         25    2    1    2    0    0 -0.22002561640E+02 -0.19437547768E+02 -0.56319986521E+03  0.57764941262E+03  0.12499129868E+03 0.  0.
          2    1    1    2  501    0  0.23253204131E+02 -0.31618217315E+02 -0.16465240855E+04  0.16469917994E+04  0.00000000000E+00 0. -1.
          1    1    1    2  502    0 -0.12506424904E+01  0.51055765083E+02  0.26746481334E+03  0.27229704667E+03  0.00000000000E+00 0. -1.
         22    1    3    3    0    0 -0.25467324936E+02 -0.71217750342E+02 -0.30046639635E+03  0.30983964875E+03  0.00000000000E+00 0. -1.
         22    1    3    3    0    0  0.34647632955E+01  0.51780202575E+02 -0.26273346886E+03  0.26780976387E+03  0.00000000000E+00 0. -1.
</event>
<event>
 7    1  0.5779468E-006  0.7644879E+02  0.7818608E-02  0.1344885E+00
          2   -1    0    0  502    0  0.00000000000E+00  0.00000000000E+00  0.18671191907E+04  0.18671191907E+04  0.00000000000E+00 0. -1.
          1   -1    0    0  501    0 -0.00000000000E+00 -0.00000000000E+00 -0.53589012020E+03  0.53589012020E+03  0.00000000000E+00 0. -1.
         25    2    1    2    0    0 -0.18617120899E+02  0.12113386627E+03  0.43108745246E+03  0.46527565078E+03  0.12500011517E+03 0.  0.
          2    1    1    2  501    0  0.51679837569E+02 -0.56118035928E+02 -0.51504712871E+03  0.52066648093E+03  0.00000000000E+00 0. -1.
          1    1    1    2  502    0 -0.33062716670E+02 -0.65015830340E+02  0.14151887467E+04  0.14170671791E+04  0.00000000000E+00 0. -1.
         22    1    3    3    0    0  0.19773240079E+02 -0.20394458509E+02  0.68300316824E+02  0.73971942245E+02  0.00000000000E+00 0. -1.
         22    1    3    3    0    0 -0.38390360978E+02  0.14152832478E+03  0.36278713564E+03  0.39130370854E+03  0.00000000000E+00 0. -1.
</event>
<event>
 7    1  0.5779468E-006  0.7943017E+02  0.7818608E-02  0.1391920E+00
          2   -1    0    0  502    0  0.00000000000E+00  0.00000000000E+00  0.23401788531E+04  0.23401788531E+04  0.00000000000E+00 0. -1.
          1   -1    0    0  501    0 -0.00000000000E+00 -0.00000000000E+00 -0.79863706848E+03  0.79863706848E+03  0.00000000000E+00 0. -1.
         25    2    1    2    0    0 -0.26948711239E+02 -0.11339974278E+03  0.11602067273E+03  0.20657281761E+03  0.12500319107E+03 0.  0.
          2    1    1    2  501    0 -0.56331386028E+01  0.78819723898E+02 -0.75102889122E+03  0.75517460006E+03  0.00000000000E+00 0. -1.
          1    1    1    2  502    0  0.32581849841E+02  0.34580018879E+02  0.21765500031E+04  0.21770685039E+04  0.00000000000E+00 0. -1.
         22    1    3    3    0    0 -0.68301789404E+02 -0.94078997913E+02  0.50575334903E+02  0.12678271485E+03  0.00000000000E+00 0. -1.
         22    1    3    3    0    0  0.41353078165E+02 -0.19320744864E+02  0.65445337828E+02  0.79790102765E+02  0.00000000000E+00 0. -1.
</event>
<event>
 7    1  0.5779468E-006  0.6385548E+02  0.7818608E-02  0.1502452E+00
          2   -1    0    0  502    0  0.00000000000E+00  0.00000000000E+00  0.47690739224E+03  0.47690739224E+03  0.00000000000E+00 0. -1.
          1   -1    0    0  501    0 -0.00000000000E+00 -0.00000000000E+00 -0.18821325107E+03  0.18821325107E+03  0.00000000000E+00 0. -1.
         25    2    1    2    0    0  0.25617363958E+02  0.76417307377E+02  0.13226595520E+03  0.19903638052E+03  0.12500137464E+03 0.  0.
          2    1    1    2  501    0 -0.35608783779E+02 -0.52348204046E+02 -0.14777533499E+03  0.16076650640E+03  0.00000000000E+00 0. -1.
          1    1    1    2  502    0  0.99914198211E+01 -0.24069103331E+02  0.30420352096E+03  0.30531775640E+03  0.00000000000E+00 0. -1.
         22    1    3    3    0    0 -0.17597802759E+02  0.95612061827E+02  0.65512095412E+02  0.11723132548E+03  0.00000000000E+00 0.  1.
         22    1    3    3    0    0  0.43215166717E+02 -0.19194754450E+02  0.66753859787E+02  0.81805055035E+02  0.00000000000E+00 0.  1.
</event>
<event>
 7    1  0.5779468E-006  0.1183338E+03  0.7818608E-02  0.1345321E+00
          2   -1    0    0  502    0  0.00000000000E+00  0.00000000000E+00  0.32974525584E+04  0.32974525584E+04  0.00000000000E+00 0. -1.
          1   -1    0    0  501    0 -0.00000000000E+00 -0.00000000000E+00 -0.24598399361E+02  0.24598399361E+02  0.00000000000E+00 0. -1.
         25    2    1    2    0    0  0.90726491845E+02  0.51051281149E+01  0.12152571543E+04  0.12250440882E+04  0.12500283294E+03 0.  0.
          2    1    1    2  501    0  0.38223555813E+02 -0.27255852577E+02  0.13668999171E+02  0.48895431863E+02  0.00000000000E+00 0. -1.
          1    1    1    2  502    0 -0.12895004766E+03  0.22150724462E+02  0.20439280055E+04  0.20481114377E+04  0.00000000000E+00 0. -1.
         22    1    3    3    0    0  0.45440901259E+02  0.36444013630E+02  0.10331751197E+04  0.10348158627E+04  0.00000000000E+00 0.  1.
         22    1    3    3    0    0  0.45285590586E+02 -0.31338885515E+02  0.18208203457E+03  0.19022822549E+03  0.00000000000E+00 0.  1.
</event>
<event>
 7    1  0.5779468E-006  0.5397748E+02  0.7818608E-02  0.1509366E+00
          2   -1    0    0  502    0  0.00000000000E+00  0.00000000000E+00  0.92823517186E+03  0.92823517186E+03  0.00000000000E+00 0. -1.
          1   -1    0    0  501    0 -0.00000000000E+00 -0.00000000000E+00 -0.15704189131E+03  0.15704189131E+03  0.00000000000E+00 0. -1.
         25    2    1    2    0    0 -0.12078615705E+02 -0.23932256117E+02  0.63836177222E+03  0.65103578259E+03  0.12499276830E+03 0.  0.
          2    1    1    2  501    0  0.36931174522E+02  0.39659168583E+02 -0.14503188033E+03  0.15482573305E+03  0.00000000000E+00 0. -1.
          1    1    1    2  502    0 -0.24852558818E+02 -0.15726912465E+02  0.27786338865E+03  0.27941554754E+03  0.00000000000E+00 0. -1.
         22    1    3    3    0    0 -0.62853695657E+02  0.13714263263E+02  0.29992442480E+03  0.30674635885E+03  0.00000000000E+00 0.  1.
         22    1    3    3    0    0  0.50775079952E+02 -0.37646519380E+02  0.33843734742E+03  0.34428942374E+03  0.00000000000E+00 0.  1.
</event>
<event>
 7    1  0.5779468E-006  0.1596115E+03  0.7818608E-02  0.1326501E+00
          2   -1    0    0  502    0  0.00000000000E+00  0.00000000000E+00  0.54334878138E+03  0.54334878138E+03  0.00000000000E+00 0. -1.
          1   -1    0    0  501    0 -0.00000000000E+00 -0.00000000000E+00 -0.91975131027E+03  0.91975131027E+03  0.00000000000E+00 0. -1.
         25    2    1    2    0    0 -0.18805958329E+03 -0.66843689027E+01 -0.16252125390E+03  0.27829870840E+03  0.12500370184E+03 0.  0.
          2    1    1    2  501    0  0.33047087559E+02 -0.24284219629E+02 -0.68584439918E+03  0.68706940931E+03  0.00000000000E+00 0. -1.
          1    1    1    2  502    0  0.15501249573E+03  0.30968588532E+02  0.47196312418E+03  0.49773197395E+03  0.00000000000E+00 0. -1.
         22    1    3    3    0    0  0.13042132142E+02  0.19065019773E+02 -0.18779066600E+02  0.29769540341E+02  0.00000000000E+00 0.  1.
         22    1    3    3    0    0 -0.20110171543E+03 -0.25749388675E+02 -0.14374218730E+03  0.24852916806E+03  0.00000000000E+00 0.  1.
</event>
<event>
 7    1  0.5779468E-006  0.4506795E+02  0.7818608E-02  0.1473962E+00
          2   -1    0    0  502    0  0.00000000000E+00  0.00000000000E+00  0.43047671369E+03  0.43047671369E+03  0.00000000000E+00 0. -1.
          1   -1    0    0  501    0 -0.00000000000E+00 -0.00000000000E+00 -0.41663554790E+02  0.41663554790E+02  0.00000000000E+00 0. -1.
         25    2    1    2    0    0  0.32663730697E+02 -0.19823157546E+02  0.13974124363E+03  0.19134570101E+03  0.12500274095E+03 0.  0.
          2    1    1    2  501    0 -0.77053927524E+00  0.51645770562E+02  0.35872117860E+02  0.62886311607E+02  0.00000000000E+00 0. -1.
          1    1    1    2  502    0 -0.31893191422E+02 -0.31822613015E+02  0.21319979741E+03  0.21790825586E+03  0.00000000000E+00 0. -1.
         22    1    3    3    0    0  0.77986508216E+02 -0.63671505841E+01  0.59841199243E+02  0.98505863770E+02  0.00000000000E+00 0. -1.
         22    1    3    3    0    0 -0.45322777519E+02 -0.13456006962E+02  0.79900044385E+02  0.92839837237E+02  0.00000000000E+00 0. -1.
</event>
<event>
 7    1  0.5779468E-006  0.4329589E+02  0.7818608E-02  0.1500121E+00
          2   -1    0    0  502    0  0.00000000000E+00  0.00000000000E+00  0.26294279001E+04  0.26294279001E+04  0.00000000000E+00 0. -1.
          1   -1    0    0  501    0 -0.00000000000E+00 -0.00000000000E+00 -0.10514360481E+02  0.10514360481E+02  0.00000000000E+00 0. -1.
         25    2    1    2    0    0  0.40591093958E+02 -0.25393818804E+02  0.15833195305E+04  0.15889675587E+04  0.12499873534E+03 0.  0.
          2    1    1    2  501    0 -0.34002505461E+02 -0.19213036596E+02  0.45954954419E+02  0.60308946173E+02  0.00000000000E+00 0. -1.
          1    1    1    2  502    0 -0.65885884971E+01  0.44606855399E+02  0.98963905470E+03  0.99066575576E+03  0.00000000000E+00 0. -1.
         22    1    3    3    0    0  0.54032596806E+02 -0.69110374597E+02  0.98148836218E+03  0.98540102014E+03  0.00000000000E+00 0. -1.
         22    1    3    3    0    0 -0.13441502849E+02  0.43716555793E+02  0.60183116833E+03  0.60356653852E+03  0.00000000000E+00 0. -1.
</event>
<event>
 7    1  0.5779468E-006  0.4589847E+02  0.7818608E-02  0.1569654E+00
          2   -1    0    0  502    0  0.00000000000E+00  0.00000000000E+00  0.44972966192E+03  0.44972966192E+03  0.00000000000E+00 0. -1.
          1   -1    0    0  501    0 -0.00000000000E+00 -0.00000000000E+00 -0.73523331281E+03  0.73523331281E+03  0.00000000000E+00 0. -1.
         25    2    1    2    0    0 -0.50482421956E+02  0.23308561708E+02  0.48105431891E+02  0.14502538645E+03  0.12500586451E+03 0.  0.
          2    1    1    2  501    0  0.20477629918E+02  0.11223091384E+02 -0.68509216495E+03  0.68549001859E+03  0.00000000000E+00 0. -1.
          1    1    1    2  502    0  0.30004792038E+02 -0.34531653092E+02  0.35148308217E+03  0.35444756969E+03  0.00000000000E+00 0. -1.
         22    1    3    3    0    0 -0.81568048261E+02 -0.19491742508E+02  0.31444100876E+02  0.89565651915E+02  0.00000000000E+00 0. -1.
         22    1    3    3    0    0  0.31085626305E+02  0.42800304215E+02  0.16661331016E+02  0.55459734537E+02  0.00000000000E+00 0. -1.
</event>
<event>
 7    1  0.5779468E-006  0.6347001E+02  0.7818608E-02  0.1402857E+00
          2   -1    0    0  502    0  0.00000000000E+00  0.00000000000E+00  0.24728441674E+04  0.24728441674E+04  0.00000000000E+00 0. -1.
          1   -1    0    0  501    0 -0.00000000000E+00 -0.00000000000E+00 -0.21599657212E+02  0.21599657212E+02  0.00000000000E+00 0. -1.
         25    2    1    2    0    0  0.63957208263E+02 -0.86545476331E+02  0.13027403137E+04  0.13131405834E+04  0.12500089109E+03 0.  0.
          2    1    1    2  501    0 -0.43683555090E+02  0.32602399397E+02  0.31786279704E+02  0.63099421623E+02  0.00000000000E+00 0. -1.
          1    1    1    2  502    0 -0.20273653173E+02  0.53943076933E+02  0.11167179168E+04  0.11182038196E+04  0.00000000000E+00 0. -1.
         22    1    3    3    0    0  0.58136567993E+02 -0.18047066961E+01  0.88177737633E+03  0.88369364540E+03  0.00000000000E+00 0.  1.
         22    1    3    3    0    0  0.58206402698E+01 -0.84740769634E+02  0.42096293741E+03  0.42944693801E+03  0.00000000000E+00 0.  1.
</event>
<event>
 7    1  0.5779468E-006  0.6032003E+02  0.7818608E-02  0.1458643E+00
          2   -1    0    0  502    0  0.00000000000E+00  0.00000000000E+00  0.22012902341E+04  0.22012902341E+04  0.00000000000E+00 0. -1.
          1   -1    0    0  501    0 -0.00000000000E+00 -0.00000000000E+00 -0.12496049801E+03  0.12496049801E+03  0.00000000000E+00 0. -1.
         25    2    1    2    0    0 -0.63732322318E+02  0.70869058162E+02  0.16096030911E+03  0.22498271787E+03  0.12499907967E+03 0.  0.
          2    1    1    2  501    0  0.31573537891E+02 -0.20393667344E+02 -0.88684309043E+02  0.96320800626E+02  0.00000000000E+00 0. -1.
          1    1    1    2  502    0  0.32158784426E+02 -0.50475390819E+02  0.20040537360E+04  0.20049472136E+04  0.00000000000E+00 0. -1.
         22    1    3    3    0    0 -0.85979861107E+02  0.71050749535E+02  0.70784652998E+02  0.13210303791E+03  0.00000000000E+00 0. -1.
         22    1    3    3    0    0  0.22247538789E+02 -0.18169137318E+00  0.90175656112E+02  0.92879679959E+02  0.00000000000E+00 0. -1.
</event>
<event>
 7    1  0.5779468E-006  0.1630002E+03  0.7818608E-02  0.1263098E+00
          2   -1    0    0  502    0  0.00000000000E+00  0.00000000000E+00  0.13507480365E+04  0.13507480365E+04  0.00000000000E+00 0. -1.
          1   -1    0    0  501    0 -0.00000000000E+00 -0.00000000000E+00 -0.69828634682E+03  0.69828634682E+03  0.00000000000E+00 0. -1.
         25    2    1    2    0    0  0.12784000858E+03 -0.80361512229E+02  0.10000120173E+03  0.22005978197E+03  0.12500010740E+03 0.  0.
          2    1    1    2  501    0 -0.40359892153E+02 -0.60127173127E+02 -0.63042351001E+03  0.63456914502E+03  0.00000000000E+00 0. -1.
          1    1    1    2  502    0 -0.87480116425E+02  0.14048868536E+03  0.11828839979E+04  0.11944054563E+04  0.00000000000E+00 0. -1.
         22    1    3    3    0    0  0.58863025319E+02 -0.30434903762E+02  0.11583535819E+03  0.13345025037E+03  0.00000000000E+00 0. -1.
         22    1    3    3    0    0  0.68976983259E+02 -0.49926608467E+02 -0.15834156462E+02  0.86609531596E+02  0.00000000000E+00 0. -1.
</event>
<event>
 7    1  0.5779468E-006  0.7387676E+02  0.7818608E-02  0.1443394E+00
          2   -1    0    0  502    0  0.00000000000E+00  0.00000000000E+00  0.20999298001E+04  0.20999298001E+04  0.00000000000E+00 0. -1.
          1   -1    0    0  501    0 -0.00000000000E+00 -0.00000000000E+00 -0.14547609328E+03  0.14547609328E+03  0.00000000000E+00 0. -1.
         25    2    1    2    0    0  0.15331599269E+02  0.10311331974E+03  0.10448044884E+03  0.19340937930E+03  0.12499443655E+03 0.  0.
          2    1    1    2  501    0 -0.18466460840E+02 -0.68923711547E+02 -0.88239361128E+02  0.11347983540E+03  0.00000000000E+00 0. -1.
          1    1    1    2  502    0  0.31348615709E+01 -0.34189608190E+02  0.19382126192E+04  0.19385166787E+04  0.00000000000E+00 0. -1.
         22    1    3    3    0    0 -0.52538451487E+02  0.67130985717E+02  0.46009808774E+02  0.96869812797E+02  0.00000000000E+00 0. -1.
         22    1    3    3    0    0  0.67870050756E+02  0.35982334020E+02  0.58470640062E+02  0.96539566502E+02  0.00000000000E+00 0. -1.
</event>
<event>
 7    1  0.5779468E-006  0.1217211E+03  0.7818608E-02  0.1270193E+00
          2   -1    0    0  502    0  0.00000000000E+00  0.00000000000E+00  0.18438285840E+04  0.18438285840E+04  0.00000000000E+00 0. -1.
          1   -1    0    0  501    0 -0.00000000000E+00 -0.00000000000E+00 -0.69958473005E+02  0.69958473005E+02  0.00000000000E+00 0. -1.
         25    2    1    2    0    0  0.12552574763E+03 -0.29601516046E+02  0.65502779953E+03  0.67920408222E+03  0.12499521622E+03 0.  0.
          2    1    1    2  501    0 -0.13488659028E+02  0.89501273560E+02 -0.16628647588E+02  0.92026810289E+02  0.00000000000E+00 0. -1.
          1    1    1    2  502    0 -0.11203708860E+03 -0.59899757514E+02  0.11354709591E+04  0.11425561645E+04  0.00000000000E+00 0. -1.
         22    1    3    3    0    0  0.12760863444E+03 -0.32399178887E+02  0.34669949641E+03  0.37085605184E+03  0.00000000000E+00 0.  1.
         22    1    3    3    0    0 -0.20828868066E+01  0.27976628416E+01  0.30832830312E+03  0.30834803038E+03  0.00000000000E+00 0.  1.
</event>
<event>
 7    1  0.5779468E-006  0.1202474E+03  0.7818608E-02  0.1344105E+00
          2   -1    0    0  502    0  0.00000000000E+00  0.00000000000E+00  0.79914995914E+03  0.79914995914E+03  0.00000000000E+00 0. -1.
          1   -1    0    0  501    0 -0.00000000000E+00 -0.00000000000E+00 -0.86307604445E+03  0.86307604445E+03  0.00000000000E+00 0. -1.
         25    2    1    2    0    0  0.13678090601E+03  0.86728792087E+02 -0.62054145096E+03  0.65339712137E+03  0.12500082489E+03 0.  0.
          2    1    1    2  501    0 -0.45921402732E+02 -0.84061614654E+01 -0.21903626026E+03  0.22395607178E+03  0.00000000000E+00 0. -1.
          1    1    1    2  502    0 -0.90859503283E+02 -0.78322630622E+02  0.77565162591E+03  0.78487281045E+03  0.00000000000E+00 0. -1.
         22    1    3    3    0    0  0.12062445185E+03  0.11414885582E+03 -0.44468668850E+03  0.47468565451E+03  0.00000000000E+00 0. -1.
         22    1    3    3    0    0  0.16156454163E+02 -0.27420063731E+02 -0.17585476246E+03  0.17871146686E+03  0.00000000000E+00 0. -1.
</event>
<event>
 7    1  0.5779468E-006  0.9207625E+02  0.7818608E-02  0.1456859E+00
          2   -1    0    0  502    0  0.00000000000E+00  0.00000000000E+00  0.75418238337E+03  0.75418238337E+03  0.00000000000E+00 0. -1.
          1   -1    0    0  501    0 -0.00000000000E+00 -0.00000000000E+00 -0.45236408374E+02  0.45236408374E+02  0.00000000000E+00 0. -1.
         25    2    1    2    0    0  0.89818996491E+02 -0.23288435176E+02  0.25133873969E+03  0.29564465239E+03  0.12499918030E+03 0.  0.
          2    1    1    2  501    0 -0.97168350399E+01 -0.22975721560E+02 -0.10169327356E+02  0.26939114375E+02  0.00000000000E+00 0. -1.
          1    1    1    2  502    0 -0.80102161452E+02  0.46264156736E+02  0.46777656266E+03  0.47683502497E+03  0.00000000000E+00 0. -1.
         22    1    3    3    0    0  0.45558362394E+02 -0.56739111333E+02  0.22044404605E+03  0.23214320705E+03  0.00000000000E+00 0.  1.
         22    1    3    3    0    0  0.44260634097E+02  0.33450676158E+02  0.30894693642E+02  0.63501445348E+02  0.00000000000E+00 0.  1.
</event>
<event>
 7    1  0.5779468E-006  0.4451328E+02  0.7818608E-02  0.1527053E+00
          2   -1    0    0  502    0  0.00000000000E+00  0.00000000000E+00  0.95585871045E+03  0.95585871045E+03  0.00000000000E+00 0. -1.
          1   -1    0    0  501    0 -0.00000000000E+00 -0.00000000000E+00 -0.76599552813E+02  0.76599552813E+02  0.00000000000E+00 0. -1.
         25    2    1    2    0    0  0.20885256437E+02  0.11728321016E+02  0.31483604908E+02  0.13111275302E+03  0.12500235668E+03 0.  0.
          2    1    1    2  501    0 -0.51386641515E+02 -0.31799141290E+01 -0.14733842391E+01  0.51506015583E+02  0.00000000000E+00 0. -1.
          1    1    1    2  502    0  0.30501385079E+02 -0.85484068873E+01  0.84924893697E+03  0.84983949467E+03  0.00000000000E+00 0. -1.
         22    1    3    3    0    0  0.24582941261E+02 -0.80297344793E+01 -0.45070870408E+02  0.51963265834E+02  0.00000000000E+00 0.  1.
         22    1    3    3    0    0 -0.36976848243E+01  0.19758055496E+02  0.76554475316E+02  0.79149487181E+02  0.00000000000E+00 0.  1.
</event>
<event>
 7    1  0.5779468E-006  0.1368701E+03  0.7818608E-02  0.1419771E+00
          2   -1    0    0  502    0  0.00000000000E+00  0.00000000000E+00  0.25115445288E+04  0.25115445288E+04  0.00000000000E+00 0. -1.
          1   -1    0    0  501    0 -0.00000000000E+00 -0.00000000000E+00 -0.60892842881E+02  0.60892842881E+02  0.00000000000E+00 0. -1.
         25    2    1    2    0    0 -0.85939926356E+02  0.80690955027E+02  0.21167530793E+04  0.21237157650E+04  0.12501340157E+03 0.  0.
          2    1    1    2  501    0  0.92588979763E+02 -0.10182673983E+03  0.26043545384E+02  0.14007023372E+03  0.00000000000E+00 0. -1.
          1    1    1    2  502    0 -0.66490534071E+01  0.21135784803E+02  0.30785506121E+03  0.30865137295E+03  0.00000000000E+00 0. -1.
         22    1    3    3    0    0  0.27278366935E+02  0.42631009046E+02  0.77817620771E+03  0.77982031423E+03  0.00000000000E+00 0. -1.
         22    1    3    3    0    0 -0.11321829329E+03  0.38059945981E+02  0.13385768716E+04  0.13438954507E+04  0.00000000000E+00 0. -1.
</event>
<event>
 7    1  0.5779468E-006  0.1003583E+03  0.7818608E-02  0.1299482E+00
          2   -1    0    0  502    0  0.00000000000E+00  0.00000000000E+00  0.14879346034E+04  0.14879346034E+04  0.00000000000E+00 0. -1.
          1   -1    0    0  501    0 -0.00000000000E+00 -0.00000000000E+00 -0.22540976424E+04  0.22540976424E+04  0.00000000000E+00 0. -1.
         25    2    1    2    0    0 -0.28775994846E+02  0.17421562687E+03 -0.46080267538E+01  0.21639239029E+03  0.12500116056E+03 0.  0.
          2    1    1    2  501    0 -0.95293880282E+01 -0.82705006205E+02 -0.21410071450E+04  0.21426251474E+04  0.00000000000E+00 0. -1.
          1    1    1    2  502    0  0.38305382874E+02 -0.91510620662E+02  0.13794521328E+04  0.13830147081E+04  0.00000000000E+00 0. -1.
         22    1    3    3    0    0  0.36998442730E+02  0.11132237541E+02 -0.11796596756E+02  0.40397662953E+02  0.00000000000E+00 0.  1.
         22    1    3    3    0    0 -0.65774437576E+02  0.16308338933E+03  0.71885700017E+01  0.17599472734E+03  0.00000000000E+00 0.  1.
</event>
<event>
 7    1  0.5779468E-006  0.9984712E+02  0.7818608E-02  0.1417714E+00
          2   -1    0    0  502    0  0.00000000000E+00  0.00000000000E+00  0.20200214870E+04  0.20200214870E+04  0.00000000000E+00 0. -1.
          1   -1    0    0  501    0 -0.00000000000E+00 -0.00000000000E+00 -0.50283239299E+03  0.50283239299E+03  0.00000000000E+00 0. -1.
         25    2    1    2    0    0 -0.46372938756E+02  0.61200704272E+02  0.20138200747E+02  0.14806183739E+03  0.12498313850E+03 0.  0.
          2    1    1    2  501    0  0.43251587307E+02 -0.91900369665E+02 -0.43286891888E+03  0.44462554884E+03  0.00000000000E+00 0. -1.
          1    1    1    2  502    0  0.31213514496E+01  0.30699665393E+02  0.19299198122E+04  0.19301664938E+04  0.00000000000E+00 0. -1.
         22    1    3    3    0    0 -0.97036965499E+01 -0.33080368975E+02  0.30944437836E+02  0.46325271410E+02  0.00000000000E+00 0. -1.
         22    1    3    3    0    0 -0.36669242206E+02  0.94281073247E+02 -0.10806237089E+02  0.10173656598E+03  0.00000000000E+00 0. -1.
</event>
<event>
 7    1  0.5779468E-006  0.1401159E+03  0.7818608E-02  0.1320750E+00
          2   -1    0    0  502    0  0.00000000000E+00  0.00000000000E+00  0.16173655666E+03  0.16173655666E+03  0.00000000000E+00 0. -1.
          1   -1    0    0  501    0 -0.00000000000E+00 -0.00000000000E+00 -0.12231876607E+04  0.12231876607E+04  0.00000000000E+00 0. -1.
         25    2    1    2    0    0  0.15269381920E+01  0.18755100381E+03  0.20397449916E+02  0.22631451395E+03  0.12499797074E+03 0.  0.
          2    1    1    2  501    0  0.83254177207E+00 -0.13844248909E+03 -0.10981269981E+04  0.11068197323E+04  0.00000000000E+00 0. -1.
          1    1    1    2  502    0 -0.23594799640E+01 -0.49108514720E+02  0.16278444123E+02  0.51789971102E+02  0.00000000000E+00 0. -1.
         22    1    3    3    0    0  0.93791655563E+01 -0.17678981563E+02  0.19355301703E+01  0.20106253074E+02  0.00000000000E+00 0.  1.
         22    1    3    3    0    0 -0.78522273643E+01  0.20522998538E+03  0.18461919746E+02  0.20620826087E+03  0.00000000000E+00 0.  1.
</event>
<event>
 7    1  0.5779468E-006  0.7467648E+02  0.7818608E-02  0.1381812E+00
          2   -1    0    0  502    0  0.00000000000E+00  0.00000000000E+00  0.15492254378E+02  0.15492254378E+02  0.00000000000E+00 0. -1.
          1   -1    0    0  501    0 -0.00000000000E+00 -0.00000000000E+00 -0.13548977306E+04  0.13548977306E+04  0.00000000000E+00 0. -1.
         25    2    1    2    0    0  0.53260679093E+02  0.59204697638E+02 -0.87190180712E+03  0.88441058420E+03  0.12500969571E+03 0.  0.
          2    1    1    2  501    0 -0.51602417900E+02  0.18542506495E+02 -0.20394251744E+03  0.21118519006E+03  0.00000000000E+00 0. -1.
          1    1    1    2  502    0 -0.16582611926E+01 -0.77747204133E+02 -0.26356115166E+03  0.27479421072E+03  0.00000000000E+00 0. -1.
         22    1    3    3    0    0  0.72868710441E+02  0.84031406680E+02 -0.76098144372E+03  0.76906689173E+03  0.00000000000E+00 0. -1.
         22    1    3    3    0    0 -0.19608031349E+02 -0.24826709042E+02 -0.11092036340E+03  0.11534369247E+03  0.00000000000E+00 0. -1.
</event>
<event>
 7    1  0.5779468E-006  0.1211038E+03  0.7818608E-02  0.1440267E+00
          2   -1    0    0  502    0  0.00000000000E+00  0.00000000000E+00  0.12019644975E+04  0.12019644975E+04  0.00000000000E+00 0. -1.
          1   -1    0    0  501    0 -0.00000000000E+00 -0.00000000000E+00 -0.11305312005E+03  0.11305312005E+03  0.00000000000E+00 0. -1.
         25    2    1    2    0    0  0.13606243027E+03 -0.30776335731E+02  0.11495720648E+03  0.21976957564E+03  0.12499335695E+03 0.  0.
          2    1    1    2  501    0 -0.17603196767E+02  0.12235787276E+02 -0.55156419482E+02  0.59176157671E+02  0.00000000000E+00 0. -1.
          1    1    1    2  502    0 -0.11845923350E+03  0.18540548455E+02  0.10291105904E+04  0.10360718842E+04  0.00000000000E+00 0. -1.
         22    1    3    3    0    0  0.12198126051E+03  0.49436603506E+01  0.13017910275E+03  0.17846698991E+03  0.00000000000E+00 0. -1.
         22    1    3    3    0    0  0.14081169756E+02 -0.35719996082E+02 -0.15221896270E+02  0.41302585728E+02  0.00000000000E+00 0. -1.
</event>
<event>
 7    1  0.5779468E-006  0.8875594E+02  0.7818608E-02  0.1400858E+00
          2   -1    0    0  502    0  0.00000000000E+00  0.00000000000E+00  0.15880092381E+04  0.15880092381E+04  0.00000000000E+00 0. -1.
          1   -1    0    0  501    0 -0.00000000000E+00 -0.00000000000E+00 -0.96486077993E+02  0.96486077993E+02  0.00000000000E+00 0. -1.
         25    2    1    2    0    0  0.12363357244E+03 -0.24112171203E+02  0.17105800166E+03  0.24648028805E+03  0.12500014171E+03 0.  0.
          2    1    1    2  501    0 -0.39599324620E+02  0.93756598645E-01 -0.50551730626E+02  0.64215206688E+02  0.00000000000E+00 0. -1.
          1    1    1    2  502    0 -0.84034247824E+02  0.24018414604E+02  0.13710168891E+04  0.13737998213E+04  0.00000000000E+00 0. -1.
         22    1    3    3    0    0  0.70741612357E+02 -0.67881518846E+02  0.57150833959E+02  0.11348345316E+03  0.00000000000E+00 0.  1.
         22    1    3    3    0    0  0.52891960088E+02  0.43769347643E+02  0.11390716771E+03  0.13299683489E+03  0.00000000000E+00 0.  1.
</event>
<event>
 7    1  0.5779468E-006  0.2907762E+03  0.7818608E-02  0.1224521E+00
          2   -1    0    0  502    0  0.00000000000E+00  0.00000000000E+00  0.49088819927E+03  0.49088819927E+03  0.00000000000E+00 0. -1.
          1   -1    0    0  501    0 -0.00000000000E+00 -0.00000000000E+00 -0.21494217157E+04  0.21494217157E+04  0.00000000000E+00 0. -1.
         25    2    1    2    0    0  0.25782858267E+03 -0.16064392544E+03  0.47335658910E+02  0.33188587745E+03  0.12500208887E+03 0.  0.
          2    1    1    2  501    0 -0.21163058057E+03  0.19880426995E+03 -0.19935419835E+04  0.20145769482E+04  0.00000000000E+00 0. -1.
          1    1    1    2  502    0 -0.46198002096E+02 -0.38160344512E+02  0.28767280819E+03  0.29384708925E+03  0.00000000000E+00 0. -1.
         22    1    3    3    0    0  0.23013829913E+03 -0.18014991310E+03  0.54409008732E+02  0.29728432207E+03  0.00000000000E+00 0.  1.
         22    1    3    3    0    0  0.27690283539E+02  0.19505987658E+02 -0.70733498215E+01  0.34601555380E+02  0.00000000000E+00 0.  1.
</event>
<event>
 7    1  0.5779468E-006  0.5668344E+02  0.7818608E-02  0.1462782E+00
          2   -1    0    0  502    0  0.00000000000E+00  0.00000000000E+00  0.59324048384E+03  0.59324048384E+03  0.00000000000E+00 0. -1.
          1   -1    0    0  501    0 -0.00000000000E+00 -0.00000000000E+00 -0.51766321038E+03  0.51766321038E+03  0.00000000000E+00 0. -1.
         25    2    1    2    0    0 -0.71762369158E+02  0.59142705614E+02  0.15897024443E+03  0.22258832056E+03  0.12500529822E+03 0.  0.
          2    1    1    2  501    0  0.49183633485E+02 -0.27570376204E+02 -0.48327544279E+03  0.48655350070E+03  0.00000000000E+00 0. -1.
          1    1    1    2  502    0  0.22578735673E+02 -0.31572329410E+02  0.39988247182E+03  0.40176187295E+03  0.00000000000E+00 0. -1.
         22    1    3    3    0    0 -0.14679761448E+01  0.75137658404E+02  0.11733209716E+03  0.13933644063E+03  0.00000000000E+00 0. -1.
         22    1    3    3    0    0 -0.70294393013E+02 -0.15994952790E+02  0.41638147268E+02  0.83251879929E+02  0.00000000000E+00 0. -1.
</event>
<event>
 7    1  0.5779468E-006  0.5506525E+02  0.7818608E-02  0.1482498E+00
          2   -1    0    0  502    0  0.00000000000E+00  0.00000000000E+00  0.79431996683E+03  0.79431996683E+03  0.00000000000E+00 0. -1.
          1   -1    0    0  501    0 -0.00000000000E+00 -0.00000000000E+00 -0.55498645454E+03  0.55498645454E+03  0.00000000000E+00 0. -1.
         25    2    1    2    0    0 -0.64754098396E+02  0.57650020037E+01 -0.36177422063E+03  0.38824626193E+03  0.12501297805E+03 0.  0.
          2    1    1    2  501    0  0.15771065875E+02 -0.30921790688E+02 -0.17732084263E+03  0.18068637162E+03  0.00000000000E+00 0. -1.
          1    1    1    2  502    0  0.48983032521E+02  0.25156788684E+02  0.77842857554E+03  0.78037378782E+03  0.00000000000E+00 0. -1.
         22    1    3    3    0    0 -0.26051292905E+02 -0.53149599367E+01 -0.34264492934E+03  0.34367494273E+03  0.00000000000E+00 0.  1.
         22    1    3    3    0    0 -0.38702805491E+02  0.11079961940E+02 -0.19129291292E+02  0.44571319196E+02  0.00000000000E+00 0.  1.
</event>
<event>
 7    1  0.5779468E-006  0.3364539E+02  0.7818608E-02  0.1578373E+00
          2   -1    0    0  502    0  0.00000000000E+00  0.00000000000E+00  0.29302114228E+04  0.29302114228E+04  0.00000000000E+00 0. -1.
          1   -1    0    0  501    0 -0.00000000000E+00 -0.00000000000E+00 -0.27562963319E+02  0.27562963319E+02  0.00000000000E+00 0. -1.
         25    2    1    2    0    0  0.55904913013E+02  0.10628554632E+02  0.21320399571E+04  0.21364591587E+04  0.12500013087E+03 0.  0.
          2    1    1    2  501    0 -0.27137060158E+02 -0.19730062094E+02 -0.13834804506E+02  0.36291833792E+02  0.00000000000E+00 0. -1.
          1    1    1    2  502    0 -0.28767852855E+02  0.91015074621E+01  0.78444330693E+03  0.78502339365E+03  0.00000000000E+00 0. -1.
         22    1    3    3    0    0  0.77069132676E+02  0.48053302562E+02  0.16531774465E+04  0.16556703901E+04  0.00000000000E+00 0.  1.
         22    1    3    3    0    0 -0.21164219663E+02 -0.37424747930E+02  0.47886251055E+03  0.48078876854E+03  0.00000000000E+00 0.  1.
</event>
<event>
 7    1  0.5779468E-006  0.3208101E+03  0.7818608E-02  0.1229424E+00
          2   -1    0    0  502    0  0.00000000000E+00  0.00000000000E+00  0.86104012648E+03  0.86104012648E+03  0.00000000000E+00 0. -1.
          1   -1    0    0  501    0 -0.00000000000E+00 -0.00000000000E+00 -0.17516829805E+04  0.17516829805E+04  0.00000000000E+00 0. -1.
         25    2    1    2    0    0 -0.23076668741E+03  0.19858922283E+03 -0.87553192872E+03  0.93534630159E+03  0.12500240891E+03 0.  0.
          2    1    1    2  501    0  0.22595306110E+02  0.46408436515E+02 -0.81430628036E+03  0.81594056712E+03  0.00000000000E+00 0. -1.
          1    1    1    2  502    0  0.20817138130E+03 -0.24499765935E+03  0.79919535506E+03  0.86143623828E+03  0.00000000000E+00 0. -1.
         22    1    3    3    0    0 -0.12011754371E+03  0.24165206261E+02 -0.31981841260E+03  0.34248503403E+03  0.00000000000E+00 0.  1.
         22    1    3    3    0    0 -0.11064914369E+03  0.17442401657E+03 -0.55571351613E+03  0.59286126755E+03  0.00000000000E+00 0.  1.
</event>
<event>
 7    1  0.5779468E-006  0.1778610E+03  0.7818608E-02  0.1382558E+00
          2   -1    0    0  502    0  0.00000000000E+00  0.00000000000E+00  0.21214609450E+03  0.21214609450E+03  0.00000000000E+00 0. -1.
          1   -1    0    0  501    0 -0.00000000000E+00 -0.00000000000E+00 -0.89690413621E+03  0.89690413621E+03  0.00000000000E+00 0. -1.
         25    2    1    2    0    0  0.14636631891E+03  0.10570411197E+03  0.12701896860E+02  0.21995727388E+03  0.12499362205E+03 0.  0.
          2    1    1    2  501    0 -0.12977220291E+03 -0.12146016579E+03 -0.78177568478E+03  0.80172727148E+03  0.00000000000E+00 0. -1.
          1    1    1    2  502    0 -0.16594115991E+02  0.15756053822E+02  0.84315746206E+02  0.87365685345E+02  0.00000000000E+00 0. -1.
         22    1    3    3    0    0  0.14189575495E+03  0.11523622220E+03  0.43083581675E+02  0.18780305426E+03  0.00000000000E+00 0. -1.
         22    1    3    3    0    0  0.44705639594E+01 -0.95321102279E+01 -0.30381684814E+02  0.32154219625E+02  0.00000000000E+00 0. -1.
</event>
<event>
 7    1  0.5779468E-006  0.3744955E+02  0.7818608E-02  0.1615968E+00
          2   -1    0    0  502    0  0.00000000000E+00  0.00000000000E+00  0.10170576025E+04  0.10170576025E+04  0.00000000000E+00 0. -1.
          1   -1    0    0  501    0 -0.00000000000E+00 -0.00000000000E+00 -0.69975350792E+03  0.69975350792E+03  0.00000000000E+00 0. -1.
         25    2    1    2    0    0 -0.15173748237E+02  0.51022521539E+01  0.19224794718E+02  0.12747738413E+03  0.12499846047E+03 0.  0.
          2    1    1    2  501    0 -0.20810583619E+02  0.57943130597E+01 -0.64507185570E+03  0.64543346169E+03  0.00000000000E+00 0. -1.
          1    1    1    2  502    0  0.35984331856E+02 -0.10896565214E+02  0.94315115556E+03  0.94390026459E+03  0.00000000000E+00 0. -1.
         22    1    3    3    0    0 -0.16382071582E+02 -0.53266222818E+02 -0.17613296605E+02  0.58445624130E+02  0.00000000000E+00 0.  1.
         22    1    3    3    0    0  0.12083233446E+01  0.58368474972E+02  0.36838091322E+02  0.69031759996E+02  0.00000000000E+00 0.  1.
</event>
<event>
 7    1  0.5779468E-006  0.8219325E+02  0.7818608E-02  0.1378444E+00
          2   -1    0    0  502    0  0.00000000000E+00  0.00000000000E+00  0.72028085921E+02  0.72028085921E+02  0.00000000000E+00 0. -1.
          1   -1    0    0  501    0 -0.00000000000E+00 -0.00000000000E+00 -0.29941247964E+04  0.29941247964E+04  0.00000000000E+00 0. -1.
         25    2    1    2    0    0 -0.78406113289E+02  0.65930099736E+02 -0.23980463237E+03  0.28918314370E+03  0.12500532886E+03 0.  0.
          2    1    1    2  501    0  0.50208619671E+02  0.10051316788E+02 -0.26945209463E+04  0.26950074331E+04  0.00000000000E+00 0. -1.
          1    1    1    2  502    0  0.28197493618E+02 -0.75981416524E+02  0.12228868212E+02  0.81962305489E+02  0.00000000000E+00 0. -1.
         22    1    3    3    0    0 -0.11281352534E+03  0.52823597232E+02 -0.19140488967E+03  0.22837043528E+03  0.00000000000E+00 0.  1.
         22    1    3    3    0    0  0.34407412047E+02  0.13106502504E+02 -0.48399742705E+02  0.60812708422E+02  0.00000000000E+00 0.  1.
</event>
<event>
 7    1  0.5779468E-006  0.3632225E+02  0.7818608E-02  0.1628561E+00
          2   -1    0    0  502    0  0.00000000000E+00  0.00000000000E+00  0.34155499994E+03  0.34155499994E+03  0.00000000000E+00 0. -1.
          1   -1    0    0  501    0 -0.00000000000E+00 -0.00000000000E+00 -0.66044860825E+03  0.66044860825E+03  0.00000000000E+00 0. -1.
         25    2    1    2    0    0 -0.21137973545E+02 -0.22116428405E+02 -0.29519643709E+03  0.32203471398E+03  0.12501787955E+03 0.  0.
          2    1    1    2  501    0  0.36234303771E+02  0.79659101461E+01 -0.35052695121E+03  0.35248478552E+03  0.00000000000E+00 0. -1.
          1    1    1    2  502    0 -0.15096330226E+02  0.14150518259E+02  0.32682978000E+03  0.32748410869E+03  0.00000000000E+00 0. -1.
         22    1    3    3    0    0 -0.64201557964E+02  0.10962962172E+02 -0.99321050065E+02  0.11877161938E+03  0.00000000000E+00 0.  1.
         22    1    3    3    0    0  0.43063584420E+02 -0.33079390577E+02 -0.19587538702E+03  0.20326309460E+03  0.00000000000E+00 0.  1.
</event>
<event>
 7    1  0.5779468E-006  0.4576806E+02  0.7818608E-02  0.1548197E+00
          2   -1    0    0  502    0  0.00000000000E+00  0.00000000000E+00  0.13239623563E+04  0.13239623563E+04  0.00000000000E+00 0. -1.
          1   -1    0    0  501    0 -0.00000000000E+00 -0.00000000000E+00 -0.63905965443E+03  0.63905965443E+03  0.00000000000E+00 0. -1.
         25    2    1    2    0    0 -0.40384347733E+02 -0.18738269495E+02  0.28526931026E+03  0.31462003176E+03  0.12500066689E+03 0.  0.
          2    1    1    2  501    0 -0.50610205729E+01  0.26353426231E+02 -0.62357720905E+03  0.62415435002E+03  0.00000000000E+00 0. -1.
          1    1    1    2  502    0  0.45445368306E+02 -0.76151567363E+01  0.10232106007E+04  0.10242476290E+04  0.00000000000E+00 0. -1.
         22    1    3    3    0    0 -0.72142144102E+02 -0.31256275917E+02  0.10514374164E+03  0.13128842350E+03  0.00000000000E+00 0.  1.
         22    1    3    3    0    0  0.31757796369E+02  0.12518006422E+02  0.18012556862E+03  0.18333160826E+03  0.00000000000E+00 0.  1.
</event>
<event>
 7    1  0.5779468E-006  0.9570223E+02  0.7818608E-02  0.1365429E+00
          2   -1    0    0  502    0  0.00000000000E+00  0.00000000000E+00  0.19682813787E+04  0.19682813787E+04  0.00000000000E+00 0. -1.
          1   -1    0    0  501    0 -0.00000000000E+00 -0.00000000000E+00 -0.39631163618E+03  0.39631163618E+03  0.00000000000E+00 0. -1.
         25    2    1    2    0    0  0.12145960664E+03  0.20620164436E+02  0.56565654055E+03  0.59225799494E+03  0.12499833389E+03 0.  0.
          2    1    1    2  501    0 -0.41055797194E+02  0.26682439183E+02 -0.37987185581E+03  0.38301456615E+03  0.00000000000E+00 0. -1.
          1    1    1    2  502    0 -0.80403809445E+02 -0.47302603619E+02  0.13861850578E+04  0.13893204538E+04  0.00000000000E+00 0. -1.
         22    1    3    3    0    0  0.70247284880E+02 -0.40757783043E+02  0.40200610656E+03  0.41012776987E+03  0.00000000000E+00 0. -1.
         22    1    3    3    0    0  0.51212321759E+02  0.61377947480E+02  0.16365043399E+03  0.18213022507E+03  0.00000000000E+00 0. -1.
</event>
<event>
 7    1  0.5779468E-006  0.1381952E+03  0.7818608E-02  0.1279009E+00
          2   -1    0    0  502    0  0.00000000000E+00  0.00000000000E+00  0.97556091437E+03  0.97556091437E+03  0.00000000000E+00 0. -1.
          1   -1    0    0  501    0 -0.00000000000E+00 -0.00000000000E+00 -0.31583867627E+04  0.31583867627E+04  0.00000000000E+00 0. -1.
         25    2    1    2    0    0  0.53943762989E+02 -0.86003864242E+02 -0.51089793407E+03  0.53567551220E+03  0.12499984439E+03 0.  0.
          2    1    1    2  501    0 -0.11157713578E+02  0.14546303281E+03 -0.26316839610E+04  0.26357246554E+04  0.00000000000E+00 0. -1.
          1    1    1    2  502    0 -0.42786049410E+02 -0.59459168564E+02  0.95975604674E+03  0.96254750948E+03  0.00000000000E+00 0. -1.
         22    1    3    3    0    0 -0.56508504212E+01  0.26205272904E+02 -0.16537195013E+03  0.16753068473E+03  0.00000000000E+00 0.  1.
         22    1    3    3    0    0  0.59594613410E+02 -0.11220913715E+03 -0.34552598395E+03  0.36814482746E+03  0.00000000000E+00 0.  1.
</event>
<event>
 7    1  0.5779468E-006  0.4807917E+02  0.7818608E-02  0.1475890E+00
          2   -1    0    0  502    0  0.00000000000E+00  0.00000000000E+00  0.33762963673E+03  0.33762963673E+03  0.00000000000E+00 0. -1.
          1   -1    0    0  501    0 -0.00000000000E+00 -0.00000000000E+00 -0.21709799930E+04  0.21709799930E+04  0.00000000000E+00 0. -1.
         25    2    1    2    0    0  0.38756168229E+02  0.54504328709E+02 -0.15389398619E+03  0.20924152679E+03  0.12500358045E+03 0.  0.
          2    1    1    2  501    0 -0.41141382156E+02 -0.65317393560E+01 -0.19873318609E+04  0.19877683975E+04  0.00000000000E+00 0. -1.
          1    1    1    2  502    0  0.23852139273E+01 -0.47972589353E+02  0.30787549080E+03  0.31159970540E+03  0.00000000000E+00 0. -1.
         22    1    3    3    0    0 -0.10658087253E+02  0.55421842489E+01  0.19224752843E+02  0.22669401227E+02  0.00000000000E+00 0. -1.
         22    1    3    3    0    0  0.49414255481E+02  0.48962144460E+02 -0.17311873903E+03  0.18657212557E+03  0.00000000000E+00 0. -1.
</event>
<event>
 7    1  0.5779468E-006  0.1242696E+03  0.7818608E-02  0.1414924E+00
          2   -1    0    0  502    0  0.00000000000E+00  0.00000000000E+00  0.36434900344E+03  0.36434900344E+03  0.00000000000E+00 0. -1.
          1   -1    0    0  501    0 -0.00000000000E+00 -0.00000000000E+00 -0.64771977169E+03  0.64771977169E+03  0.00000000000E+00 0. -1.
         25    2    1    2    0    0 -0.14480737451E+03  0.24697765610E+02 -0.83418458857E+02  0.21014859976E+03  0.12499855744E+03 0.  0.
          2    1    1    2  501    0  0.12017081198E+03 -0.18793231717E+02 -0.49299837281E+03  0.50778106030E+03  0.00000000000E+00 0. -1.
          1    1    1    2  502    0  0.24636562534E+02 -0.59045338931E+01  0.29304606341E+03  0.29413911507E+03  0.00000000000E+00 0. -1.
         22    1    3    3    0    0 -0.13037083033E+03 -0.21971517181E+02 -0.25966204382E+02  0.13473509096E+03  0.00000000000E+00 0. -1.
         22    1    3    3    0    0 -0.14436544186E+02  0.46669282791E+02 -0.57452254475E+02  0.75413508794E+02  0.00000000000E+00 0. -1.
</event>
<event>
 7    1  0.5779468E-006  0.3486865E+02  0.7818608E-02  0.1579496E+00
          2   -1    0    0  502    0  0.00000000000E+00  0.00000000000E+00  0.12085290669E+03  0.12085290669E+03  0.00000000000E+00 0. -1.
          1   -1    0    0  501    0 -0.00000000000E+00 -0.00000000000E+00 -0.63140129335E+03  0.63140129335E+03  0.00000000000E+00 0. -1.
         25    2    1    2    0    0 -0.94848578382E+01 -0.58944902444E+02 -0.30964569024E+03  0.33921992211E+03  0.12500095207E+03 0.  0.
          2    1    1    2  501    0  0.13990271434E+02  0.30384803544E+02 -0.30406363424E+03  0.30589811646E+03  0.00000000000E+00 0. -1.
          1    1    1    2  502    0 -0.45054135958E+01  0.28560098900E+02  0.10316093783E+03  0.10713616147E+03  0.00000000000E+00 0. -1.
         22    1    3    3    0    0 -0.59276891262E+02 -0.53796530982E+02 -0.24315643876E+03  0.25599388722E+03  0.00000000000E+00 0. -1.
         22    1    3    3    0    0  0.49792033424E+02 -0.51483714624E+01 -0.66489251481E+02  0.83226034891E+02  0.00000000000E+00 0. -1.
</event>
<event>
 7    1  0.5779468E-006  0.9539509E+02  0.7818608E-02  0.1401501E+00
          2   -1    0    0  502    0  0.00000000000E+00  0.00000000000E+00  0.17740064992E+03  0.17740064992E+03  0.00000000000E+00 0. -1.
          1   -1    0    0  501    0 -0.00000000000E+00 -0.00000000000E+00 -0.11596038460E+04  0.11596038460E+04  0.00000000000E+00 0. -1.
         25    2    1    2    0    0 -0.18391007497E+02  0.96299447458E+02 -0.37284041167E+03  0.40527999890E+03  0.12502036713E+03 0.  0.
          2    1    1    2  501    0 -0.18208464783E+02 -0.94253587792E+02 -0.76542184979E+03  0.77141810657E+03  0.00000000000E+00 0. -1.
          1    1    1    2  502    0  0.36599472280E+02 -0.20458596665E+01  0.15605906541E+03  0.16030639042E+03  0.00000000000E+00 0. -1.
         22    1    3    3    0    0 -0.56593109813E+01  0.12195367392E+03 -0.23861655688E+03  0.26803467612E+03  0.00000000000E+00 0.  1.
         22    1    3    3    0    0 -0.12731696515E+02 -0.25654226464E+02 -0.13422385479E+03  0.13724532278E+03  0.00000000000E+00 0.  1.
</event>
<event>
 7    1  0.5779468E-006  0.3862452E+02  0.7818608E-02  0.1535832E+00
          2   -1    0    0  502    0  0.00000000000E+00  0.00000000000E+00  0.25709969731E+04  0.25709969731E+04  0.00000000000E+00 0. -1.
          1   -1    0    0  501    0 -0.00000000000E+00 -0.00000000000E+00 -0.43289008795E+01  0.43289008795E+01  0.00000000000E+00 0. -1.
         25    2    1    2    0    0 -0.42311375403E+02 -0.11879005025E+02  0.17064466634E+04  0.17115833145E+04  0.12500345731E+03 0.  0.
          2    1    1    2  501    0  0.24452477054E+02 -0.24275025950E+02  0.27813775942E+03  0.28026382880E+03  0.00000000000E+00 0. -1.
          1    1    1    2  502    0  0.17858898350E+02  0.36154030975E+02  0.58208364942E+03  0.58347873066E+03  0.00000000000E+00 0. -1.
         22    1    3    3    0    0 -0.75600076229E+01  0.38013037677E+02  0.13034164278E+04  0.13039925341E+04  0.00000000000E+00 0. -1.
         22    1    3    3    0    0 -0.34751367780E+02 -0.49892042703E+02  0.40303023561E+03  0.40759078045E+03  0.00000000000E+00 0. -1.
</event>
<event>
 7    1  0.5779468E-006  0.1014840E+03  0.7818608E-02  0.1471372E+00
          2   -1    0    0  502    0  0.00000000000E+00  0.00000000000E+00  0.65328913734E+03  0.65328913734E+03  0.00000000000E+00 0. -1.
          1   -1    0    0  501    0 -0.00000000000E+00 -0.00000000000E+00 -0.12894411389E+04  0.12894411389E+04  0.00000000000E+00 0. -1.
         25    2    1    2    0    0 -0.53657895990E+02  0.74255973529E+02 -0.68710886687E+03  0.70436755708E+03  0.12498776394E+03 0.  0.
          2    1    1    2  501    0  0.10313900058E+02  0.17578786597E+02 -0.58952659800E+03  0.58987880113E+03  0.00000000000E+00 0. -1.
          1    1    1    2  502    0  0.43343995932E+02 -0.91834760126E+02  0.64048346331E+03  0.64848391802E+03  0.00000000000E+00 0. -1.
         22    1    3    3    0    0 -0.37937631732E+02  0.76427840906E+01 -0.54768197450E+03  0.54904755827E+03  0.00000000000E+00 0.  1.
         22    1    3    3    0    0 -0.15720264258E+02  0.66613189438E+02 -0.13942689237E+03  0.15531999881E+03  0.00000000000E+00 0.  1.
</event>
<event>
 7    1  0.5779468E-006  0.1193991E+03  0.7818608E-02  0.1348985E+00
          2   -1    0    0  502    0  0.00000000000E+00  0.00000000000E+00  0.12313000984E+04  0.12313000984E+04  0.00000000000E+00 0. -1.
          1   -1    0    0  501    0 -0.00000000000E+00 -0.00000000000E+00 -0.73374813104E+03  0.73374813104E+03  0.00000000000E+00 0. -1.
         25    2    1    2    0    0  0.15362398152E+03  0.27670034767E+02 -0.36435197572E+03  0.41561826823E+03  0.12498089518E+03 0.  0.
          2    1    1    2  501    0 -0.42455311335E+02  0.15184495188E+02 -0.33932468519E+03  0.34230726597E+03  0.00000000000E+00 0. -1.
          1    1    1    2  502    0 -0.11116867019E+03 -0.42854529954E+02  0.12012286283E+04  0.12071226952E+04  0.00000000000E+00 0. -1.
         22    1    3    3    0    0  0.15984598713E+02 -0.35456542586E+02 -0.13731306274E+03  0.14271492917E+03  0.00000000000E+00 0.  1.
         22    1    3    3    0    0  0.13763938281E+03  0.63126577353E+02 -0.22703891297E+03  0.27290333906E+03  0.00000000000E+00 0.  1.
</event>
<event>
 7    1  0.5779468E-006  0.1474451E+03  0.7818608E-02  0.1241836E+00
          2   -1    0    0  502    0  0.00000000000E+00  0.00000000000E+00  0.43106459160E+03  0.43106459160E+03  0.00000000000E+00 0. -1.
          1   -1    0    0  501    0 -0.00000000000E+00 -0.00000000000E+00 -0.12524757204E+04  0.12524757204E+04  0.00000000000E+00 0. -1.
         25    2    1    2    0    0 -0.19291569823E+03  0.10838056936E+02  0.10820454654E+03  0.25429643162E+03  0.12499808454E+03 0.  0.
          2    1    1    2  501    0  0.67241771323E+02 -0.72546878129E+02 -0.11575368561E+04  0.11617556019E+04  0.00000000000E+00 0. -1.
          1    1    1    2  502    0  0.12567392691E+03  0.61708821193E+02  0.22792118072E+03  0.26748827851E+03  0.00000000000E+00 0. -1.
         22    1    3    3    0    0 -0.14314284538E+03  0.21904105753E+02  0.13387484226E+03  0.19721089580E+03  0.00000000000E+00 0.  1.
         22    1    3    3    0    0 -0.49772852850E+02 -0.11066048817E+02 -0.25670295718E+02  0.57085535817E+02  0.00000000000E+00 0.  1.
</event>
<event>
 7    1  0.5779468E-006  0.1000938E+03  0.7818608E-02  0.1363198E+00
          2   -1    0    0  502    0  0.00000000000E+00  0.00000000000E+00  0.17172978274E+04  0.17172978274E+04  0.00000000000E+00 0. -1.
          1   -1    0    0  501    0 -0.00000000000E+00 -0.00000000000E+00 -0.39803465580E+03  0.39803465580E+03  0.00000000000E+00 0. -1.
         25    2    1    2    0    0 -0.32409779408E+02  0.11448868028E+03  0.46109498144E+02  0.17859978776E+03  0.12495497851E+03 0.  0.
          2    1    1    2  501    0  0.45130308363E+02 -0.15433353725E+02 -0.32851202869E+03  0.33195645217E+03  0.00000000000E+00 0. -1.
          1    1    1    2  502    0 -0.12720528955E+02 -0.99055326553E+02  0.16016657021E+04  0.16047762432E+04  0.00000000000E+00 0. -1.
         22    1    3    3    0    0 -0.65720721764E+02  0.16123600858E+02  0.27742967360E+02  0.73135873631E+02  0.00000000000E+00 0.  1.
         22    1    3    3    0    0  0.33310942356E+02  0.98365079421E+02  0.18366530784E+02  0.10546391413E+03  0.00000000000E+00 0.  1.
</event>
<event>
 7    1  0.5779468E-006  0.1029609E+03  0.7818608E-02  0.1304626E+00
          2   -1    0    0  502    0  0.00000000000E+00  0.00000000000E+00  0.53162620359E+03  0.53162620359E+03  0.00000000000E+00 0. -1.
          1   -1    0    0  501    0 -0.00000000000E+00 -0.00000000000E+00 -0.71041886563E+03  0.71041886563E+03  0.00000000000E+00 0. -1.
         25    2    1    2    0    0  0.86423878751E+02  0.15341051411E+03  0.79983210245E+02  0.23027704047E+03  0.12500531504E+03 0.  0.
          2    1    1    2  501    0 -0.61754921152E+02 -0.80045210310E+02 -0.62720268905E+03  0.63529844886E+03  0.00000000000E+00 0. -1.
          1    1    1    2  502    0 -0.24668957599E+02 -0.73365303803E+02  0.36842681676E+03  0.37646957989E+03  0.00000000000E+00 0. -1.
         22    1    3    3    0    0 -0.30707424900E+02  0.43190413805E+02  0.63028664317E+01  0.53367442452E+02  0.00000000000E+00 0. -1.
         22    1    3    3    0    0  0.11713130365E+03  0.11022010031E+03  0.73680343814E+02  0.17690959802E+03  0.00000000000E+00 0. -1.
</event>
<event>
 7    1  0.5779468E-006  0.2696732E+03  0.7818608E-02  0.1121577E+00
          2   -1    0    0  502    0  0.00000000000E+00  0.00000000000E+00  0.30086530336E+04  0.30086530336E+04  0.00000000000E+00 0. -1.
          1   -1    0    0  501    0 -0.00000000000E+00 -0.00000000000E+00 -0.97770974533E+03  0.97770974533E+03  0.00000000000E+00 0. -1.
         25    2    1    2    0    0  0.91304705310E+02 -0.35927223737E+03 -0.11606497840E+03  0.40805438588E+03  0.12499685144E+03 0.  0.
          2    1    1    2  501    0  0.84894953701E+02  0.24707992245E+03 -0.68783465957E+03  0.73577996721E+03  0.00000000000E+00 0. -1.
          1    1    1    2  502    0 -0.17619965901E+03  0.11219231492E+03  0.28348429263E+04  0.28425284259E+04  0.00000000000E+00 0. -1.
         22    1    3    3    0    0  0.34011228656E+02 -0.84079165503E+01 -0.17330745356E+02  0.39087228988E+02  0.00000000000E+00 0.  1.
         22    1    3    3    0    0  0.57293476655E+02 -0.35086432082E+03 -0.98734233040E+02  0.36896715689E+03  0.00000000000E+00 0.  1.
</event>
<event>
 7    1  0.5779468E-006  0.2348634E+03  0.7818608E-02  0.1342840E+00
          2   -1    0    0  502    0  0.00000000000E+00  0.00000000000E+00  0.32293983676E+03  0.32293983676E+03  0.00000000000E+00 0. -1.
          1   -1    0    0  501    0 -0.00000000000E+00 -0.00000000000E+00 -0.32684450308E+03  0.32684450308E+03  0.00000000000E+00 0. -1.
         25    2    1    2    0    0 -0.21166445930E+03 -0.10981132889E+03 -0.87871516488E+02  0.28322227096E+03  0.12503231613E+03 0.  0.
          2    1    1    2  501    0  0.21539694735E+03  0.85937557862E+02 -0.44247164220E+02  0.23609091537E+03  0.00000000000E+00 0. -1.
          1    1    1    2  502    0 -0.37324880579E+01  0.23873771026E+02  0.12821401439E+03  0.13047115350E+03  0.00000000000E+00 0. -1.
         22    1    3    3    0    0 -0.21888536921E+03 -0.73991813810E+02 -0.64649253648E+02  0.23992732100E+03  0.00000000000E+00 0.  1.
         22    1    3    3    0    0  0.72209099161E+01 -0.35819515078E+02 -0.23222262840E+02  0.43294949958E+02  0.00000000000E+00 0.  1.
</event>
<event>
 7    1  0.5779468E-006  0.2124181E+03  0.7818608E-02  0.1200065E+00
          2   -1    0    0  502    0  0.00000000000E+00  0.00000000000E+00  0.17251186652E+04  0.17251186652E+04  0.00000000000E+00 0. -1.
          1   -1    0    0  501    0 -0.00000000000E+00 -0.00000000000E+00 -0.13638575543E+04  0.13638575543E+04  0.00000000000E+00 0. -1.
         25    2    1    2    0    0  0.54082653970E+01 -0.23809374047E+03 -0.40852907647E+03  0.48912352476E+03  0.12501174973E+03 0.  0.
          2    1    1    2  501    0  0.89646992358E+02  0.19030302736E+03 -0.90122682419E+03  0.92545211335E+03  0.00000000000E+00 0. -1.
          1    1    1    2  502    0 -0.95055257755E+02  0.47790713105E+02  0.16710170115E+04  0.16744005814E+04  0.00000000000E+00 0. -1.
         22    1    3    3    0    0 -0.11418698965E+02 -0.45295949416E+02 -0.12531341080E+02  0.48364700235E+02  0.00000000000E+00 0.  1.
         22    1    3    3    0    0  0.16826964362E+02 -0.19279779105E+03 -0.39599773539E+03  0.44075882453E+03  0.00000000000E+00 0.  1.
</event>
<event>
 7    1  0.5779468E-006  0.1416116E+03  0.7818608E-02  0.1310792E+00
          2   -1    0    0  502    0  0.00000000000E+00  0.00000000000E+00  0.45073517797E+03  0.45073517797E+03  0.00000000000E+00 0. -1.
          1   -1    0    0  501    0 -0.00000000000E+00 -0.00000000000E+00 -0.17206093214E+04  0.17206093214E+04  0.00000000000E+00 0. -1.
         25    2    1    2    0    0  0.13011921388E+03 -0.12366519148E+03  0.39185239857E+02  0.22222783215E+03  0.12500254780E+03 0.  0.
          2    1    1    2  501    0 -0.15061241047E+02  0.51026836274E+02 -0.16141666237E+04  0.16150431784E+04  0.00000000000E+00 0. -1.
          1    1    1    2  502    0 -0.11505797284E+03  0.72638355202E+02  0.30510724043E+03  0.33407348881E+03  0.00000000000E+00 0. -1.
         22    1    3    3    0    0  0.89920402210E+02 -0.38575797027E+01  0.28212761403E+00  0.90003551323E+02  0.00000000000E+00 0. -1.
         22    1    3    3    0    0  0.40198811674E+02 -0.11980761177E+03  0.38903112243E+02  0.13222428083E+03  0.00000000000E+00 0. -1.
</event>
<event>
 7    1  0.5779468E-006  0.1142089E+03  0.7818608E-02  0.1383956E+00
          2   -1    0    0  502    0  0.00000000000E+00  0.00000000000E+00  0.80518843484E+03  0.80518843484E+03  0.00000000000E+00 0. -1.
          1   -1    0    0  501    0 -0.00000000000E+00 -0.00000000000E+00 -0.19585539090E+03  0.19585539090E+03  0.00000000000E+00 0. -1.
         25    2    1    2    0    0  0.40794146636E+02  0.80276090485E+02  0.11868167804E+03  0.19446845610E+03  0.12499690642E+03 0.  0.
          2    1    1    2  501    0  0.33345231282E+02  0.11381148097E+02 -0.15055449634E+03  0.15462241541E+03  0.00000000000E+00 0. -1.
          1    1    1    2  502    0 -0.74139377919E+02 -0.91657238581E+02  0.64120586225E+03  0.65195295422E+03  0.00000000000E+00 0. -1.
         22    1    3    3    0    0  0.41236488697E+02  0.89285150753E+02  0.14013162816E+03  0.17119918036E+03  0.00000000000E+00 0.  1.
         22    1    3    3    0    0 -0.44234206050E+00 -0.90090602686E+01 -0.21449950123E+02  0.23269275745E+02  0.00000000000E+00 0.  1.
</event>
<event>
 7    1  0.5779468E-006  0.8121374E+02  0.7818608E-02  0.1478942E+00
          2   -1    0    0  502    0  0.00000000000E+00  0.00000000000E+00  0.41030571599E+03  0.41030571599E+03  0.00000000000E+00 0. -1.
          1   -1    0    0  501    0 -0.00000000000E+00 -0.00000000000E+00 -0.10299447666E+04  0.10299447666E+04  0.00000000000E+00 0. -1.
         25    2    1    2    0    0  0.20022150704E+02 -0.54451790541E+02  0.20574874294E+03  0.24763613670E+03  0.12500090786E+03 0.  0.
          2    1    1    2  501    0 -0.34677955248E+02  0.73625402276E+02 -0.10065585681E+04  0.10098432608E+04  0.00000000000E+00 0. -1.
          1    1    1    2  502    0  0.14655804544E+02 -0.19173611735E+02  0.18117077453E+03  0.18277108507E+03  0.00000000000E+00 0. -1.
         22    1    3    3    0    0  0.68796588242E+02 -0.52643802939E+02  0.15261979394E+03  0.17549114520E+03  0.00000000000E+00 0.  1.
         22    1    3    3    0    0 -0.48774437538E+02 -0.18079876013E+01  0.53128949004E+02  0.72144991500E+02  0.00000000000E+00 0.  1.
</event>
<event>
 7    1  0.5779468E-006  0.1506323E+03  0.7818608E-02  0.1390552E+00
          2   -1    0    0  502    0  0.00000000000E+00  0.00000000000E+00  0.79152598451E+03  0.79152598451E+03  0.00000000000E+00 0. -1.
          1   -1    0    0  501    0 -0.00000000000E+00 -0.00000000000E+00 -0.10617964892E+04  0.10617964892E+04  0.00000000000E+00 0. -1.
         25    2    1    2    0    0 -0.10235758097E+02  0.15718676530E+03 -0.44079177768E+03  0.48449429948E+03  0.12499954011E+03 0.  0.
          2    1    1    2  501    0  0.24258668416E+02 -0.72877329775E+01 -0.59151749828E+03  0.59205957878E+03  0.00000000000E+00 0. -1.
          1    1    1    2  502    0 -0.14022910318E+02 -0.14989903233E+03  0.76203877130E+03  0.77676859544E+03  0.00000000000E+00 0. -1.
         22    1    3    3    0    0 -0.12237783033E+02  0.13942784045E+03 -0.20615666800E+03  0.24917956936E+03  0.00000000000E+00 0.  1.
         22    1    3    3    0    0  0.20020249353E+01  0.17758924854E+02 -0.23463510968E+03  0.23531473012E+03  0.00000000000E+00 0.  1.
</event>
<event>
 7    1  0.5779468E-006  0.5194003E+02  0.7818608E-02  0.1437974E+00
          2   -1    0    0  502    0  0.00000000000E+00  0.00000000000E+00  0.92684318642E+03  0.92684318642E+03  0.00000000000E+00 0. -1.
          1   -1    0    0  501    0 -0.00000000000E+00 -0.00000000000E+00 -0.16746160334E+03  0.16746160334E+03  0.00000000000E+00 0. -1.
         25    2    1    2    0    0  0.33602465494E+02  0.30724351852E+02  0.19916054757E+03  0.23951045365E+03  0.12500888854E+03 0.  0.
          2    1    1    2  501    0 -0.48137498754E+02  0.19507650814E+02 -0.14170451348E+03  0.15092361103E+03  0.00000000000E+00 0. -1.
          1    1    1    2  502    0  0.14535033260E+02 -0.50232002666E+02  0.70192554899E+03  0.70387072507E+03  0.00000000000E+00 0. -1.
         22    1    3    3    0    0  0.38618272411E+02  0.66284768706E+02  0.64757126597E+02  0.10039186706E+03  0.00000000000E+00 0.  1.
         22    1    3    3    0    0 -0.50158069169E+01 -0.35560416853E+02  0.13440342097E+03  0.13911858659E+03  0.00000000000E+00 0.  1.
</event>
<event>
 7    1  0.5779468E-006  0.6044176E+02  0.7818608E-02  0.1496143E+00
          2   -1    0    0  502    0  0.00000000000E+00  0.00000000000E+00  0.28234824301E+03  0.28234824301E+03  0.00000000000E+00 0. -1.
          1   -1    0    0  501    0 -0.00000000000E+00 -0.00000000000E+00 -0.75564558257E+03  0.75564558257E+03  0.00000000000E+00 0. -1.
         25    2    1    2    0    0  0.30240766209E+02 -0.31170888489E+02 -0.13732296935E+03  0.19070356250E+03  0.12499649038E+03 0.  0.
          2    1    1    2  501    0 -0.10924763268E+02 -0.26597263782E+02 -0.58764764933E+03  0.58835068170E+03  0.00000000000E+00 0. -1.
          1    1    1    2  502    0 -0.19316002941E+02  0.57768152270E+02  0.25167327912E+03  0.25893958139E+03  0.00000000000E+00 0. -1.
         22    1    3    3    0    0 -0.11117313675E+02  0.10838814257E+02 -0.13042922550E+03  0.13135013294E+03  0.00000000000E+00 0.  1.
         22    1    3    3    0    0  0.41358079884E+02 -0.42009702745E+02 -0.68937438511E+01  0.59353429561E+02  0.00000000000E+00 0.  1.
</event>
<event>
 7    1  0.5779468E-006  0.1457942E+03  0.7818608E-02  0.1212167E+00
          2   -1    0    0  502    0  0.00000000000E+00  0.00000000000E+00  0.14852155450E+04  0.14852155450E+04  0.00000000000E+00 0. -1.
          1   -1    0    0  501    0 -0.00000000000E+00 -0.00000000000E+00 -0.54554142569E+03  0.54554142569E+03  0.00000000000E+00 0. -1.
         25    2    1    2    0    0  0.92071504662E+02 -0.21990599091E+03  0.16620959627E+03  0.31636576875E+03  0.12500345169E+03 0.  0.
          2    1    1    2  501    0 -0.11448992454E+03  0.85658499529E+02 -0.45575528893E+03  0.47765908842E+03  0.00000000000E+00 0. -1.
          1    1    1    2  502    0  0.22418419879E+02  0.13424749138E+03  0.12292198120E+04  0.12367321135E+04  0.00000000000E+00 0. -1.
         22    1    3    3    0    0  0.93197056789E+00 -0.13514594189E+02 -0.19776358941E+02  0.23971174318E+02  0.00000000000E+00 0.  1.
         22    1    3    3    0    0  0.91139534094E+02 -0.20639139672E+03  0.18598595521E+03  0.29239459443E+03  0.00000000000E+00 0.  1.
</event>
<event>
 7    1  0.5779468E-006  0.4548351E+02  0.7818608E-02  0.1480192E+00
          2   -1    0    0  502    0  0.00000000000E+00  0.00000000000E+00  0.10966083722E+04  0.10966083722E+04  0.00000000000E+00 0. -1.
          1   -1    0    0  501    0 -0.00000000000E+00 -0.00000000000E+00 -0.10844356693E+03  0.10844356693E+03  0.00000000000E+00 0. -1.
         25    2    1    2    0    0  0.17593187306E+02 -0.85766362360E+02  0.17579580577E+02  0.15362166017E+03  0.12500073467E+03 0.  0.
          2    1    1    2  501    0 -0.12277134770E+02  0.40910063665E+02 -0.28484892045E+02  0.51339560011E+02  0.00000000000E+00 0. -1.
          1    1    1    2  502    0 -0.53160525360E+01  0.44856298695E+02  0.99907011675E+03  0.10000907189E+04  0.00000000000E+00 0. -1.
         22    1    3    3    0    0 -0.47617599977E+02 -0.17298676373E+02 -0.16241083409E+02  0.53202000170E+02  0.00000000000E+00 0. -1.
         22    1    3    3    0    0  0.65210787283E+02 -0.68467685987E+02  0.33820663986E+02  0.10041966000E+03  0.00000000000E+00 0. -1.
</event>
<event>
 7    1  0.5779468E-006  0.1064015E+03  0.7818608E-02  0.1305443E+00
          2   -1    0    0  502    0  0.00000000000E+00  0.00000000000E+00  0.22127124170E+04  0.22127124170E+04  0.00000000000E+00 0. -1.
          1   -1    0    0  501    0 -0.00000000000E+00 -0.00000000000E+00 -0.11467732689E+03  0.11467732689E+03  0.00000000000E+00 0. -1.
         25    2    1    2    0    0  0.13681308330E+03  0.57067262838E+02  0.72218418222E+03  0.74776263212E+03  0.12499787477E+03 0.  0.
          2    1    1    2  501    0 -0.71127451796E+02  0.21622386183E+02 -0.86290202179E+02  0.11389750206E+03  0.00000000000E+00 0. -1.
          1    1    1    2  502    0 -0.65685631503E+02 -0.78689649021E+02  0.14621411100E+04  0.14657296097E+04  0.00000000000E+00 0. -1.
         22    1    3    3    0    0  0.94844205656E+02 -0.16288009375E+02  0.24629757082E+03  0.26442998315E+03  0.00000000000E+00 0.  1.
         22    1    3    3    0    0  0.41968877642E+02  0.73355272214E+02  0.47588661140E+03  0.48333264897E+03  0.00000000000E+00 0.  1.
</event>
<event>
 7    1  0.5779468E-006  0.1375169E+03  0.7818608E-02  0.1217418E+00
          2   -1    0    0  502    0  0.00000000000E+00  0.00000000000E+00  0.21839900536E+04  0.21839900536E+04  0.00000000000E+00 0. -1.
          1   -1    0    0  501    0 -0.00000000000E+00 -0.00000000000E+00 -0.59961406098E+02  0.59961406098E+02  0.00000000000E+00 0. -1.
         25    2    1    2    0    0 -0.21159382869E+02  0.92787821637E+01  0.83890181139E+03  0.84847836773E+03  0.12500190424E+03 0.  0.
          2    1    1    2  501    0  0.71675786626E+02 -0.13608012537E+03  0.63746730325E+02  0.16648983314E+03  0.00000000000E+00 0. -1.
          1    1    1    2  502    0 -0.50516403757E+02  0.12680134321E+03  0.12213801058E+04  0.12289832588E+04  0.00000000000E+00 0. -1.
         22    1    3    3    0    0  0.11348137113E+02 -0.53214280515E+02  0.28838605532E+03  0.29347411601E+03  0.00000000000E+00 0.  1.
         22    1    3    3    0    0 -0.32507519981E+02  0.62493062679E+02  0.55051575607E+03  0.55500425172E+03  0.00000000000E+00 0.  1.
</event>
<event>
 7    1  0.5779468E-006  0.6030869E+02  0.7818608E-02  0.1436268E+00
          2   -1    0    0  502    0  0.00000000000E+00  0.00000000000E+00  0.21521715104E+04  0.21521715104E+04  0.00000000000E+00 0. -1.
          1   -1    0    0  501    0 -0.00000000000E+00 -0.00000000000E+00 -0.18527232904E+03  0.18527232904E+03  0.00000000000E+00 0. -1.
         25    2    1    2    0    0  0.77917470402E+02 -0.15773362219E+02  0.13656613164E+04  0.13736725212E+04  0.12500173346E+03 0.  0.
          2    1    1    2  501    0 -0.42620008854E+02  0.42638251720E+02 -0.17560384774E+03  0.18566420496E+03  0.00000000000E+00 0. -1.
          1    1    1    2  502    0 -0.35297461548E+02 -0.26864889501E+02  0.77684171273E+03  0.77810711327E+03  0.00000000000E+00 0. -1.
         22    1    3    3    0    0  0.59716634646E+02  0.40814700180E+02  0.10482837804E+04  0.10507762847E+04  0.00000000000E+00 0. -1.
         22    1    3    3    0    0  0.18200835756E+02 -0.56588062398E+02  0.31737753591E+03  0.32289623647E+03  0.00000000000E+00 0. -1.
</event>
<event>
 7    1  0.1101968E-005  0.6673338E+02  0.7818608E-02  0.1379683E+00
          2   -1    0    0  502    0  0.00000000000E+00  0.00000000000E+00  0.16083569261E+04  0.16083569261E+04  0.00000000000E+00 0. -1.
          1   -1    0    0  501    0 -0.00000000000E+00 -0.00000000000E+00 -0.10501802630E+04  0.10501802630E+04  0.00000000000E+00 0. -1.
         25    2    1    2    0    0  0.56020058268E+02 -0.14626551605E+02 -0.71240986220E+03  0.72560494870E+03  0.12499018710E+03 0.  0.
          2    1    1    2  501    0 -0.25453588801E+02  0.73948011547E+02 -0.32584896384E+03  0.33510258255E+03  0.00000000000E+00 0. -1.
          1    1    1    2  502    0 -0.30566469468E+02 -0.59321459942E+02  0.15964354891E+04  0.15978296579E+04  0.00000000000E+00 0. -1.
         22    1    3    3    0    0  0.31247354640E+02  0.18589892732E+02 -0.64798840932E+03  0.64900767322E+03  0.00000000000E+00 0.  1.
         22    1    3    3    0    0  0.24772703628E+02 -0.33216444337E+02 -0.64421452886E+02  0.76597275483E+02  0.00000000000E+00 0.  1.
</event>
<event>
 7    1  0.5779468E-006  0.6751613E+02  0.7818608E-02  0.1391100E+00
          2   -1    0    0  502    0  0.00000000000E+00  0.00000000000E+00  0.31297424368E+04  0.31297424368E+04  0.00000000000E+00 0. -1.
          1   -1    0    0  501    0 -0.00000000000E+00 -0.00000000000E+00 -0.39033684104E+02  0.39033684104E+02  0.00000000000E+00 0. -1.
         25    2    1    2    0    0  0.25414350635E+02  0.26604978392E+02  0.12129896209E+04  0.12199682007E+04  0.12499950461E+03 0.  0.
          2    1    1    2  501    0 -0.26140340872E+02  0.49822949927E+02 -0.12011796842E+02  0.57531965235E+02  0.00000000000E+00 0. -1.
          1    1    1    2  502    0  0.72599023715E+00 -0.76427928320E+02  0.18897309286E+04  0.18912759549E+04  0.00000000000E+00 0. -1.
         22    1    3    3    0    0  0.53977014131E+02  0.22749107525E+02  0.25890622931E+03  0.26544957247E+03  0.00000000000E+00 0. -1.
         22    1    3    3    0    0 -0.28562663496E+02  0.38558708670E+01  0.95408339163E+03  0.95451862824E+03  0.00000000000E+00 0. -1.
</event>
<event>
 7    1  0.5779468E-006  0.1399182E+03  0.7818608E-02  0.1332719E+00
          2   -1    0    0  502    0  0.00000000000E+00  0.00000000000E+00  0.60199799013E+03  0.60199799013E+03  0.00000000000E+00 0. -1.
          1   -1    0    0  501    0 -0.00000000000E+00 -0.00000000000E+00 -0.67819621024E+03  0.67819621024E+03  0.00000000000E+00 0. -1.
         25    2    1    2    0    0 -0.10838651284E+01  0.10726792442E+03 -0.92656392797E+02  0.18899110553E+03  0.12499939388E+03 0.  0.
          2    1    1    2  501    0 -0.31484363379E+02  0.31151390617E+02 -0.52730110651E+03  0.52915794542E+03  0.00000000000E+00 0. -1.
          1    1    1    2  502    0  0.32568228507E+02 -0.13841931503E+03  0.54375927920E+03  0.56204514943E+03  0.00000000000E+00 0. -1.
         22    1    3    3    0    0  0.10120074760E+02  0.13435660102E+03 -0.82390172279E+02  0.15793116424E+03  0.00000000000E+00 0.  1.
         22    1    3    3    0    0 -0.11203939888E+02 -0.27088676601E+02 -0.10266220518E+02  0.31059941287E+02  0.00000000000E+00 0.  1.
</event>
<event>
 7    1  0.5946568E-006  0.8006006E+02  0.7818608E-02  0.1357968E+00
          2   -1    0    0  502    0  0.00000000000E+00  0.00000000000E+00  0.49473207462E+03  0.49473207462E+03  0.00000000000E+00 0. -1.
          1   -1    0    0  501    0 -0.00000000000E+00 -0.00000000000E+00 -0.20435674034E+04  0.20435674034E+04  0.00000000000E+00 0. -1.
         25    2    1    2    0    0 -0.13679687607E+03  0.38386993055E+02 -0.14368049683E+04  0.14492133359E+04  0.12499531710E+03 0.  0.
          2    1    1    2  501    0  0.60778111667E+02 -0.13724222052E+02 -0.59565378727E+03  0.59890380481E+03  0.00000000000E+00 0. -1.
          1    1    1    2  502    0  0.76018764400E+02 -0.24662771003E+02  0.48362342685E+03  0.49018233731E+03  0.00000000000E+00 0. -1.
         22    1    3    3    0    0 -0.14502512891E+02 -0.52319890765E+01 -0.15061359003E+02  0.21553216115E+02  0.00000000000E+00 0.  1.
         22    1    3    3    0    0 -0.12229436318E+03  0.43618982132E+02 -0.14217436093E+04  0.14276601197E+04  0.00000000000E+00 0.  1.
</event>
<event>
 7    1  0.5779468E-006  0.1338433E+03  0.7818608E-02  0.1329063E+00
          2   -1    0    0  502    0  0.00000000000E+00  0.00000000000E+00  0.23164750013E+04  0.23164750013E+04  0.00000000000E+00 0. -1.
          1   -1    0    0  501    0 -0.00000000000E+00 -0.00000000000E+00 -0.74898359179E+02  0.74898359179E+02  0.00000000000E+00 0. -1.
         25    2    1    2    0    0  0.13189121628E+03  0.11517300701E+03  0.10793721306E+04  0.11006056822E+04  0.12501422636E+03 0.  0.
          2    1    1    2  501    0 -0.10912944572E+03 -0.73126457659E+02  0.38442085234E+01  0.13142105110E+03  0.00000000000E+00 0. -1.
          1    1    1    2  502    0 -0.22761770566E+02 -0.42046549347E+02  0.11583603030E+04  0.11593466272E+04  0.00000000000E+00 0. -1.
         22    1    3    3    0    0  0.10241416803E+03  0.56540466815E+02  0.36646428998E+03  0.38468371688E+03  0.00000000000E+00 0. -1.
         22    1    3    3    0    0  0.29477048257E+02  0.58632540191E+02  0.71290784063E+03  0.71592196528E+03  0.00000000000E+00 0. -1.
</event>
<event>
 7    1  0.5779468E-006  0.6859406E+02  0.7818608E-02  0.1373401E+00
          2   -1    0    0  502    0  0.00000000000E+00  0.00000000000E+00  0.16354832065E+03  0.16354832065E+03  0.00000000000E+00 0. -1.
          1   -1    0    0  501    0 -0.00000000000E+00 -0.00000000000E+00 -0.85565879144E+03  0.85565879144E+03  0.00000000000E+00 0. -1.
         25    2    1    2    0    0 -0.87072401018E+01  0.10456574989E+01 -0.29576236343E+03  0.32121268191E+03  0.12500120788E+03 0.  0.
          2    1    1    2  501    0  0.68035055310E+02  0.33383335062E+02 -0.53656931389E+03  0.54189468019E+03  0.00000000000E+00 0. -1.
          1    1    1    2  502    0 -0.59327815208E+02 -0.34428992561E+02  0.14022120652E+03  0.15609974998E+03  0.00000000000E+00 0. -1.
         22    1    3    3    0    0  0.32326879347E+02  0.24942506502E+02 -0.25612219831E+03  0.25935638844E+03  0.00000000000E+00 0.  1.
         22    1    3    3    0    0 -0.41034119449E+02 -0.23896849003E+02 -0.39640165118E+02  0.61856293469E+02  0.00000000000E+00 0.  1.
</event>
<event>
 7    1  0.5779468E-006  0.7735991E+02  0.7818608E-02  0.1427514E+00
          2   -1    0    0  502    0  0.00000000000E+00  0.00000000000E+00  0.39467375612E+03  0.39467375612E+03  0.00000000000E+00 0. -1.
          1   -1    0    0  501    0 -0.00000000000E+00 -0.00000000000E+00 -0.86945755700E+03  0.86945755700E+03  0.00000000000E+00 0. -1.
         25    2    1    2    0    0  0.73500939692E+02  0.19912415102E+02  0.14229151436E+03  0.20413395134E+03  0.12499961049E+03 0.  0.
          2    1    1    2  501    0 -0.75579589513E+02  0.16975944427E+02 -0.83519049315E+03  0.83877506931E+03  0.00000000000E+00 0. -1.
          1    1    1    2  502    0  0.20786498203E+01 -0.36888359528E+02  0.21811517791E+03  0.22122229248E+03  0.00000000000E+00 0. -1.
         22    1    3    3    0    0  0.36005051496E+02 -0.33304924811E+02  0.15564378282E+01  0.49071419875E+02  0.00000000000E+00 0.  1.
         22    1    3    3    0    0  0.37495888197E+02  0.53217339912E+02  0.14073507653E+03  0.15506253147E+03  0.00000000000E+00 0.  1.
</event>
<event>
 7    1  0.5779468E-006  0.4589473E+02  0.7818608E-02  0.1530090E+00
          2   -1    0    0  502    0  0.00000000000E+00  0.00000000000E+00  0.22902624627E+03  0.22902624627E+03  0.00000000000E+00 0. -1.
          1   -1    0    0  501    0 -0.00000000000E+00 -0.00000000000E+00 -0.26270361947E+03  0.26270361947E+03  0.00000000000E+00 0. -1.
         25    2    1    2    0    0  0.40651396332E+02 -0.12144193827E+02  0.19284930862E+02  0.13340597168E+03  0.12500090902E+03 0.  0.
          2    1    1    2  501    0 -0.25921051334E+02  0.38407900605E+02 -0.20150283542E+03  0.20676184467E+03  0.00000000000E+00 0. -1.
          1    1    1    2  502    0 -0.14730344998E+02 -0.26263706778E+02  0.14854053136E+03  0.15156204938E+03  0.00000000000E+00 0. -1.
         22    1    3    3    0    0 -0.31007269524E+02  0.61657885157E+01 -0.30756217405E+02  0.44106831902E+02  0.00000000000E+00 0.  1.
         22    1    3    3    0    0  0.71658665857E+02 -0.18309982343E+02  0.50041148267E+02  0.89299139781E+02  0.00000000000E+00 0.  1.
</event>
<event>
 7    1  0.5779468E-006  0.1672004E+03  0.7818608E-02  0.1243803E+00
          2   -1    0    0  502    0  0.00000000000E+00  0.00000000000E+00  0.25805322809E+04  0.25805322809E+04  0.00000000000E+00 0. -1.
          1   -1    0    0  501    0 -0.00000000000E+00 -0.00000000000E+00 -0.23944195557E+04  0.23944195557E+04  0.00000000000E+00 0. -1.
         25    2    1    2    0    0  0.11499298297E+03 -0.16726559090E+03  0.29886980465E+03  0.38229473093E+03  0.12499974853E+03 0.  0.
          2    1    1    2  501    0  0.26714492206E+02  0.81232593422E+02 -0.23488606600E+04  0.23504167287E+04  0.00000000000E+00 0. -1.
          1    1    1    2  502    0 -0.14170747518E+03  0.86032997480E+02  0.22361035806E+04  0.22422403770E+04  0.00000000000E+00 0. -1.
         22    1    3    3    0    0  0.79647530041E+02 -0.17772660937E+02  0.13447106634E+03  0.15729610358E+03  0.00000000000E+00 0.  1.
         22    1    3    3    0    0  0.35345452931E+02 -0.14949292996E+03  0.16439873832E+03  0.22499862736E+03  0.00000000000E+00 0.  1.
</event>
<event>
 7    1  0.5779468E-006  0.4437135E+02  0.7818608E-02  0.1598877E+00
          2   -1    0    0  502    0  0.00000000000E+00  0.00000000000E+00  0.12722984612E+03  0.12722984612E+03  0.00000000000E+00 0. -1.
          1   -1    0    0  501    0 -0.00000000000E+00 -0.00000000000E+00 -0.13425706056E+03  0.13425706056E+03  0.00000000000E+00 0. -1.
         25    2    1    2    0    0 -0.48128611105E+02 -0.28854468804E+02 -0.19007584068E+02  0.13833549243E+03  0.12500590641E+03 0.  0.
          2    1    1    2  501    0  0.41918631738E+02  0.96462226543E+01 -0.45269670131E+02  0.62446491751E+02  0.00000000000E+00 0. -1.
          1    1    1    2  502    0  0.62099793668E+01  0.19208246150E+02  0.57250039758E+02  0.60704922504E+02  0.00000000000E+00 0. -1.
         22    1    3    3    0    0 -0.85684219877E+02 -0.15796450165E+02 -0.37042451438E+02  0.94675533177E+02  0.00000000000E+00 0. -1.
         22    1    3    3    0    0  0.37555608772E+02 -0.13058018639E+02  0.18034867370E+02  0.43659959254E+02  0.00000000000E+00 0. -1.
</event>
<event>
 7    1  0.5779468E-006  0.4987718E+02  0.7818608E-02  0.1454114E+00
          2   -1    0    0  502    0  0.00000000000E+00  0.00000000000E+00  0.22427518331E+04  0.22427518331E+04  0.00000000000E+00 0. -1.
          1   -1    0    0  501    0 -0.00000000000E+00 -0.00000000000E+00 -0.61725801909E+03  0.61725801909E+03  0.00000000000E+00 0. -1.
         25    2    1    2    0    0  0.72260221871E+02  0.51388384986E+02  0.88969731714E+03  0.90280050002E+03  0.12500048371E+03 0.  0.
          2    1    1    2  501    0 -0.26202132946E+02 -0.39000631078E+02 -0.60937945594E+03  0.61118812351E+03  0.00000000000E+00 0. -1.
          1    1    1    2  502    0 -0.46058088925E+02 -0.12387753907E+02  0.13451759528E+04  0.13460212286E+04  0.00000000000E+00 0. -1.
         22    1    3    3    0    0 -0.44048123016E+01  0.30305465876E+02  0.45372884336E+02  0.54740499325E+02  0.00000000000E+00 0. -1.
         22    1    3    3    0    0  0.76665034172E+02  0.21082919109E+02  0.84432443281E+03  0.84806000069E+03  0.00000000000E+00 0. -1.
</event>
<event>
 7    1  0.5779468E-006  0.3909596E+02  0.7818608E-02  0.1612276E+00
          2   -1    0    0  502    0  0.00000000000E+00  0.00000000000E+00  0.16838631658E+03  0.16838631658E+03  0.00000000000E+00 0. -1.
          1   -1    0    0  501    0 -0.00000000000E+00 -0.00000000000E+00 -0.73858471365E+03  0.73858471365E+03  0.00000000000E+00 0. -1.
         25    2    1    2    0    0 -0.11601721481E+02  0.32106809828E+02  0.12918791073E+03  0.18297350039E+03  0.12499735353E+03 0.  0.
          2    1    1    2  501    0 -0.86619101240E+01 -0.38161371609E+02 -0.70163870988E+03  0.70272910725E+03  0.00000000000E+00 0. -1.
          1    1    1    2  502    0  0.20263631605E+02  0.60545617810E+01  0.22524020849E+01  0.21268422587E+02  0.00000000000E+00 0. -1.
         22    1    3    3    0    0 -0.38336352763E+02  0.26153130460E+02 -0.43915900664E+01  0.46614892892E+02  0.00000000000E+00 0.  1.
         22    1    3    3    0    0  0.26734631282E+02  0.59536793678E+01  0.13357950079E+03  0.13635860750E+03  0.00000000000E+00 0.  1.
</event>
<event>
 7    1  0.5779468E-006  0.7282315E+02  0.7818608E-02  0.1442201E+00
          2   -1    0    0  502    0  0.00000000000E+00  0.00000000000E+00  0.23332884757E+04  0.23332884757E+04  0.00000000000E+00 0. -1.
          1   -1    0    0  501    0 -0.00000000000E+00 -0.00000000000E+00 -0.58074287795E+03  0.58074287795E+03  0.00000000000E+00 0. -1.
         25    2    1    2    0    0  0.42216452518E+02 -0.43003863589E+02  0.16694047003E+04  0.16751614384E+04  0.12498892002E+03 0.  0.
          2    1    1    2  501    0 -0.33941157103E+01 -0.34976180589E+02 -0.57445538228E+03  0.57552918212E+03  0.00000000000E+00 0. -1.
          1    1    1    2  502    0 -0.38822336807E+02  0.77980044178E+02  0.65759627973E+03  0.66334073314E+03  0.00000000000E+00 0. -1.
         22    1    3    3    0    0  0.27755290069E+02 -0.76133604578E+02  0.14871678019E+04  0.14893739467E+04  0.00000000000E+00 0.  1.
         22    1    3    3    0    0  0.14461162449E+02  0.33129740989E+02  0.18223689840E+03  0.18578749177E+03  0.00000000000E+00 0.  1.
</event>
<event>
 7    1  0.5779468E-006  0.6349921E+02  0.7818608E-02  0.1395537E+00
          2   -1    0    0  502    0  0.00000000000E+00  0.00000000000E+00  0.98992222236E+03  0.98992222236E+03  0.00000000000E+00 0. -1.
          1   -1    0    0  501    0 -0.00000000000E+00 -0.00000000000E+00 -0.62644091700E+03  0.62644091700E+03  0.00000000000E+00 0. -1.
         25    2    1    2    0    0 -0.40662004283E+02 -0.97171755495E+02  0.33821266876E+02  0.16692765308E+03  0.12500085844E+03 0.  0.
          2    1    1    2  501    0  0.46347931181E+02  0.34431954677E+02 -0.55727897587E+03  0.56026203438E+03  0.00000000000E+00 0. -1.
          1    1    1    2  502    0 -0.56859268979E+01  0.62739800818E+02  0.88693901436E+03  0.88917345190E+03  0.00000000000E+00 0. -1.
         22    1    3    3    0    0 -0.73494967881E+02 -0.90329090952E+02  0.53380198166E+02  0.12810269526E+03  0.00000000000E+00 0.  1.
         22    1    3    3    0    0  0.32832963598E+02 -0.68426645433E+01 -0.19558931290E+02  0.38824957822E+02  0.00000000000E+00 0.  1.
</event>
<event>
 7    1  0.5779468E-006  0.3618843E+02  0.7818608E-02  0.1622108E+00
          2   -1    0    0  502    0  0.00000000000E+00  0.00000000000E+00  0.26496140166E+04  0.26496140166E+04  0.00000000000E+00 0. -1.
          1   -1    0    0  501    0 -0.00000000000E+00 -0.00000000000E+00 -0.10822163632E+02  0.10822163632E+02  0.00000000000E+00 0. -1.
         25    2    1    2    0    0 -0.56480599112E+02  0.31615769428E+01  0.75789842165E+03  0.77021807662E+03  0.12500325740E+03 0.  0.
          2    1    1    2  501    0  0.21366986132E+02  0.29037428084E+01  0.21388648474E+02  0.30371929510E+02  0.00000000000E+00 0. -1.
          1    1    1    2  502    0  0.35113612981E+02 -0.60653197513E+01  0.18595047828E+04  0.18598461741E+04  0.00000000000E+00 0. -1.
         22    1    3    3    0    0 -0.66337475197E+02 -0.97884401631E+01  0.17990419835E+03  0.19199477795E+03  0.00000000000E+00 0.  1.
         22    1    3    3    0    0  0.98568760851E+01  0.12950017106E+02  0.57799422331E+03  0.57822329867E+03  0.00000000000E+00 0.  1.
</event>
<event>
 7    1  0.5779468E-006  0.6253574E+02  0.7818608E-02  0.1495332E+00
          2   -1    0    0  502    0  0.00000000000E+00  0.00000000000E+00  0.98723543927E+03  0.98723543927E+03  0.00000000000E+00 0. -1.
          1   -1    0    0  501    0 -0.00000000000E+00 -0.00000000000E+00 -0.36611067655E+03  0.36611067655E+03  0.00000000000E+00 0. -1.
         25    2    1    2    0    0  0.76657226627E+02  0.47749479200E+02  0.64007805933E+03  0.65839370718E+03  0.12500403378E+03 0.  0.
          2    1    1    2  501    0 -0.53724805670E+02 -0.31776791626E+02 -0.35363726839E+03  0.35910365749E+03  0.00000000000E+00 0. -1.
          1    1    1    2  502    0 -0.22932420957E+02 -0.15972687574E+02  0.33468397178E+03  0.33584875115E+03  0.00000000000E+00 0. -1.
         22    1    3    3    0    0  0.81921785302E+02  0.10832917265E+02  0.59103546136E+03  0.59678425548E+03  0.00000000000E+00 0.  1.
         22    1    3    3    0    0 -0.52645586756E+01  0.36916561935E+02  0.49042597971E+02  0.61609451701E+02  0.00000000000E+00 0.  1.
</event>
<event>
 7    1  0.5779468E-006  0.6611140E+02  0.7818608E-02  0.1503460E+00
          2   -1    0    0  502    0  0.00000000000E+00  0.00000000000E+00  0.21384299438E+03  0.21384299438E+03  0.00000000000E+00 0. -1.
          1   -1    0    0  501    0 -0.00000000000E+00 -0.00000000000E+00 -0.31514578110E+03  0.31514578110E+03  0.00000000000E+00 0. -1.
         25    2    1    2    0    0 -0.42994942335E+02 -0.64926555743E+02  0.83417362489E+02  0.16926426154E+03  0.12501164410E+03 0.  0.
          2    1    1    2  501    0  0.18047803632E+02  0.63328316124E+02 -0.26634137712E+03  0.27436094475E+03  0.00000000000E+00 0. -1.
          1    1    1    2  502    0  0.24947138702E+02  0.15982396197E+01  0.81621227908E+02  0.85363569188E+02  0.00000000000E+00 0. -1.
         22    1    3    3    0    0 -0.13628123963E+02 -0.69817191042E+02 -0.94331830991E+01  0.71757584067E+02  0.00000000000E+00 0. -1.
         22    1    3    3    0    0 -0.29366818372E+02  0.48906352982E+01  0.92850545588E+02  0.97506677469E+02  0.00000000000E+00 0. -1.
</event>
<event>
 7    1  0.5779468E-006  0.2408480E+03  0.7818608E-02  0.1248281E+00
          2   -1    0    0  502    0  0.00000000000E+00  0.00000000000E+00  0.13304631583E+04  0.13304631583E+04  0.00000000000E+00 0. -1.
          1   -1    0    0  501    0 -0.00000000000E+00 -0.00000000000E+00 -0.57751894179E+03  0.57751894179E+03  0.00000000000E+00 0. -1.
         25    2    1    2    0    0 -0.76244211816E+02  0.25821799998E+03  0.17039183779E+03  0.34226911583E+03  0.12500021569E+03 0.  0.
          2    1    1    2  501    0  0.23630838366E+02 -0.23694667371E+03 -0.46192807940E+03  0.51969192147E+03  0.00000000000E+00 0. -1.
          1    1    1    2  502    0  0.52613373451E+02 -0.21271326267E+02  0.10444804581E+04  0.10460210628E+04  0.00000000000E+00 0. -1.
         22    1    3    3    0    0 -0.87715926394E+02  0.10899009587E+03  0.12008403691E+03  0.18437217973E+03  0.00000000000E+00 0. -1.
         22    1    3    3    0    0  0.11471714577E+02  0.14922790411E+03  0.50307800879E+02  0.15789693610E+03  0.00000000000E+00 0. -1.
</event>
<event>
 7    1  0.5779468E-006  0.1536003E+03  0.7818608E-02  0.1311686E+00
          2   -1    0    0  502    0  0.00000000000E+00  0.00000000000E+00  0.34462289363E+04  0.34462289363E+04  0.00000000000E+00 0. -1.
          1   -1    0    0  501    0 -0.00000000000E+00 -0.00000000000E+00 -0.22671781192E+02  0.22671781192E+02  0.00000000000E+00 0. -1.
         25    2    1    2    0    0  0.11228904745E+03 -0.68989349999E+02  0.69275001025E+03  0.71616759377E+03  0.12500034031E+03 0.  0.
          2    1    1    2  501    0 -0.16070269908E+03  0.73831068374E+02  0.72225434139E+03  0.74359109584E+03  0.00000000000E+00 0. -1.
          1    1    1    2  502    0  0.48413651632E+02 -0.48417183750E+01  0.20085528035E+04  0.20091420279E+04  0.00000000000E+00 0. -1.
         22    1    3    3    0    0  0.68751304712E+02 -0.84622078111E+02  0.27439823477E+03  0.29526603131E+03  0.00000000000E+00 0. -1.
         22    1    3    3    0    0  0.43537742735E+02  0.15632728112E+02  0.41835177548E+03  0.42090156246E+03  0.00000000000E+00 0. -1.
</event>
<event>
 7    1  0.5779468E-006  0.9612228E+02  0.7818608E-02  0.1450855E+00
          2   -1    0    0  502    0  0.00000000000E+00  0.00000000000E+00  0.19141834713E+04  0.19141834713E+04  0.00000000000E+00 0. -1.
          1   -1    0    0  501    0 -0.00000000000E+00 -0.00000000000E+00 -0.30577055764E+03  0.30577055764E+03  0.00000000000E+00 0. -1.
         25    2    1    2    0    0 -0.55920908783E+02 -0.10584100082E+03  0.10510692420E+03  0.20249186467E+03  0.12500409694E+03 0.  0.
          2    1    1    2  501    0  0.43060347515E+02  0.84436921010E+02 -0.24824963213E+03  0.26572855889E+03  0.00000000000E+00 0. -1.
          1    1    1    2  502    0  0.12860561268E+02  0.21404079810E+02  0.17515556216E+04  0.17517336054E+04  0.00000000000E+00 0. -1.
         22    1    3    3    0    0 -0.27582178127E+02  0.18939092232E+02  0.56399909332E+02  0.65577553610E+02  0.00000000000E+00 0.  1.
         22    1    3    3    0    0 -0.28338730656E+02 -0.12478009305E+03  0.48707014864E+02  0.13691431106E+03  0.00000000000E+00 0.  1.
</event>
<event>
 7    1  0.5779468E-006  0.1689625E+03  0.7818608E-02  0.1359504E+00
          2   -1    0    0  502    0  0.00000000000E+00  0.00000000000E+00  0.92197403278E+02  0.92197403278E+02  0.00000000000E+00 0. -1.
          1   -1    0    0  501    0 -0.00000000000E+00 -0.00000000000E+00 -0.89970773805E+03  0.89970773805E+03  0.00000000000E+00 0. -1.
         25    2    1    2    0    0 -0.14031737672E+03 -0.39196455417E+02 -0.12093988020E+03  0.22688472432E+03  0.12499958073E+03 0.  0.
          2    1    1    2  501    0  0.16451337333E+03  0.55443133955E+02 -0.70791798560E+03  0.72889400151E+03  0.00000000000E+00 0. -1.
          1    1    1    2  502    0 -0.24195996609E+02 -0.16246678538E+02  0.21347531025E+02  0.36126415492E+02  0.00000000000E+00 0. -1.
         22    1    3    3    0    0 -0.95097965258E+02  0.60699516995E+00 -0.13489497194E+03  0.16504740196E+03  0.00000000000E+00 0.  1.
         22    1    3    3    0    0 -0.45219411465E+02 -0.39803450587E+02  0.13955091739E+02  0.61837322365E+02  0.00000000000E+00 0.  1.
</event>
<event>
 7    1  0.5779468E-006  0.7016336E+02  0.7818608E-02  0.1403144E+00
          2   -1    0    0  502    0  0.00000000000E+00  0.00000000000E+00  0.37025131800E+04  0.37025131800E+04  0.00000000000E+00 0. -1.
          1   -1    0    0  501    0 -0.00000000000E+00 -0.00000000000E+00 -0.31877030586E+02  0.31877030586E+02  0.00000000000E+00 0. -1.
         25    2    1    2    0    0  0.89625856073E+02  0.68618438720E+02  0.17328703266E+04  0.17410355012E+04  0.12499505475E+03 0.  0.
          2    1    1    2  501    0 -0.43031657043E+02 -0.23845651226E+02 -0.50582663812E+01  0.49456290288E+02  0.00000000000E+00 0. -1.
          1    1    1    2  502    0 -0.46594199030E+02 -0.44772787494E+02  0.19428240892E+04  0.19438984190E+04  0.00000000000E+00 0. -1.
         22    1    3    3    0    0  0.59826298870E+02 -0.81357214591E+01  0.12290149256E+04  0.12304970798E+04  0.00000000000E+00 0.  1.
         22    1    3    3    0    0  0.29799557203E+02  0.76754160179E+02  0.50385540096E+03  0.51053842146E+03  0.00000000000E+00 0.  1.
</event>
<event>
 7    1  0.5779468E-006  0.5688840E+02  0.7818608E-02  0.1512463E+00
          2   -1    0    0  502    0  0.00000000000E+00  0.00000000000E+00  0.41156590792E+03  0.41156590792E+03  0.00000000000E+00 0. -1.
          1   -1    0    0  501    0 -0.00000000000E+00 -0.00000000000E+00 -0.12949711887E+04  0.12949711887E+04  0.00000000000E+00 0. -1.
         25    2    1    2    0    0  0.71555664392E+02 -0.44120843107E+02 -0.36166722839E+03  0.39178507473E+03  0.12500199514E+03 0.  0.
          2    1    1    2  501    0 -0.23058936197E+02  0.14663916575E+02 -0.91601023100E+03  0.91641774769E+03  0.00000000000E+00 0. -1.
          1    1    1    2  502    0 -0.48496728194E+02  0.29456926532E+02  0.39427217862E+03  0.39833427419E+03  0.00000000000E+00 0. -1.
         22    1    3    3    0    0  0.89690523740E+02 -0.16480373933E+02 -0.34057143131E+03  0.35256898984E+03  0.00000000000E+00 0.  1.
         22    1    3    3    0    0 -0.18134859348E+02 -0.27640469174E+02 -0.21095797084E+02  0.39216084893E+02  0.00000000000E+00 0.  1.
</event>
<event>
 7    1  0.5779468E-006  0.1002084E+03  0.7818608E-02  0.1391748E+00
          2   -1    0    0  502    0  0.00000000000E+00  0.00000000000E+00  0.51406054353E+03  0.51406054353E+03  0.00000000000E+00 0. -1.
          1   -1    0    0  501    0 -0.00000000000E+00 -0.00000000000E+00 -0.11908775911E+04  0.11908775911E+04  0.00000000000E+00 0. -1.
         25    2    1    2    0    0  0.12037030902E+03 -0.47876648658E+02  0.19126478387E+03  0.26265672597E+03  0.12500061347E+03 0.  0.
          2    1    1    2  501    0 -0.29604539051E+02  0.23361796441E+02 -0.11471662974E+04  0.11477860062E+04  0.00000000000E+00 0. -1.
          1    1    1    2  502    0 -0.90765769965E+02  0.24514852217E+02  0.27908446589E+03  0.29449540248E+03  0.00000000000E+00 0. -1.
         22    1    3    3    0    0  0.64886433294E+02 -0.15853571886E+02  0.18686453965E+03  0.19844379845E+03  0.00000000000E+00 0.  1.
         22    1    3    3    0    0  0.55483875721E+02 -0.32023076772E+02  0.44002442236E+01  0.64212927517E+02  0.00000000000E+00 0.  1.
</event>
<event>
 7    1  0.5779468E-006  0.1040440E+03  0.7818608E-02  0.1363750E+00
          2   -1    0    0  502    0  0.00000000000E+00  0.00000000000E+00  0.89786083413E+03  0.89786083413E+03  0.00000000000E+00 0. -1.
          1   -1    0    0  501    0 -0.00000000000E+00 -0.00000000000E+00 -0.11546499329E+04  0.11546499329E+04  0.00000000000E+00 0. -1.
         25    2    1    2    0    0  0.60898609495E+02  0.73017765241E+01  0.54391714839E+01  0.13934010351E+03  0.12499649308E+03 0.  0.
          2    1    1    2  501    0 -0.10555257933E+03  0.22984260287E+01 -0.10845022283E+04  0.10896291631E+04  0.00000000000E+00 0. -1.
          1    1    1    2  502    0  0.44653969837E+02 -0.96002025528E+01  0.82227395805E+03  0.82354150047E+03  0.00000000000E+00 0. -1.
         22    1    3    3    0    0  0.36975330361E+02 -0.53676336561E+02 -0.21326627789E+02  0.68579510167E+02  0.00000000000E+00 0.  1.
         22    1    3    3    0    0  0.23923279134E+02  0.60978113085E+02  0.26765799273E+02  0.70760593346E+02  0.00000000000E+00 0.  1.
</event>
<event>
 7    1  0.5779468E-006  0.7500852E+02  0.7818608E-02  0.1396061E+00
          2   -1    0    0  502    0  0.00000000000E+00  0.00000000000E+00  0.33623900881E+03  0.33623900881E+03  0.00000000000E+00 0. -1.
          1   -1    0    0  501    0 -0.00000000000E+00 -0.00000000000E+00 -0.19833865755E+03  0.19833865755E+03  0.00000000000E+00 0. -1.
         25    2    1    2    0    0 -0.79344935362E+02 -0.15765677533E+02 -0.12426300348E+03  0.19393730270E+03  0.12500483187E+03 0.  0.
          2    1    1    2  501    0  0.52002838018E+02  0.56035903155E+02  0.25366567626E+01  0.76490210039E+02  0.00000000000E+00 0. -1.
          1    1    1    2  502    0  0.27342097344E+02 -0.40270225623E+02  0.25962669798E+03  0.26415015363E+03  0.00000000000E+00 0. -1.
         22    1    3    3    0    0 -0.47276818523E+02  0.51353440302E+02 -0.36096121218E+02  0.78582462214E+02  0.00000000000E+00 0. -1.
         22    1    3    3    0    0 -0.32068116839E+02 -0.67119117835E+02 -0.88166882261E+02  0.11535484049E+03  0.00000000000E+00 0. -1.
</event>
<event>
 7    1  0.5779468E-006  0.1016265E+03  0.7818608E-02  0.1354373E+00
          2   -1    0    0  502    0  0.00000000000E+00  0.00000000000E+00  0.21066126470E+04  0.21066126470E+04  0.00000000000E+00 0. -1.
          1   -1    0    0  501    0 -0.00000000000E+00 -0.00000000000E+00 -0.10319590622E+03  0.10319590622E+03  0.00000000000E+00 0. -1.
         25    2    1    2    0    0 -0.35336697854E+02 -0.83730310550E+02  0.19078329978E+03  0.24552413616E+03  0.12499754735E+03 0.  0.
          2    1    1    2  501    0 -0.10792002590E+02  0.10452696725E+03 -0.38905996066E+02  0.11205369576E+03  0.00000000000E+00 0. -1.
          1    1    1    2  502    0  0.46128700444E+02 -0.20796656703E+02  0.18515394370E+04  0.18522307213E+04  0.00000000000E+00 0. -1.
         22    1    3    3    0    0 -0.27474443584E+02  0.29794695363E+02  0.55975396024E+02  0.69107263599E+02  0.00000000000E+00 0. -1.
         22    1    3    3    0    0 -0.78622542701E+01 -0.11352500591E+03  0.13480790375E+03  0.17641687256E+03  0.00000000000E+00 0. -1.
</event>
<event>
 7    1  0.5779468E-006  0.1759573E+03  0.7818608E-02  0.1253404E+00
          2   -1    0    0  502    0  0.00000000000E+00  0.00000000000E+00  0.54600949100E+03  0.54600949100E+03  0.00000000000E+00 0. -1.
          1   -1    0    0  501    0 -0.00000000000E+00 -0.00000000000E+00 -0.22017159419E+04  0.22017159419E+04  0.00000000000E+00 0. -1.
         25    2    1    2    0    0 -0.23190919474E+03  0.47272733221E+02 -0.95066918902E+03  0.98763057283E+03  0.12500262204E+03 0.  0.
          2    1    1    2  501    0  0.70714879479E+02  0.21148926783E+02 -0.12168845496E+04  0.12191209449E+04  0.00000000000E+00 0. -1.
          1    1    1    2  502    0  0.16119431526E+03 -0.68421660004E+02  0.51184728777E+03  0.54097391511E+03  0.00000000000E+00 0. -1.
         22    1    3    3    0    0 -0.76386810862E+02  0.65431407614E+02 -0.51372786550E+03  0.52348116849E+03  0.00000000000E+00 0.  1.
         22    1    3    3    0    0 -0.15552238388E+03 -0.18158674393E+02 -0.43694132352E+03  0.46414940434E+03  0.00000000000E+00 0.  1.
</event>
<event>
 7    1  0.5779468E-006  0.5316076E+02  0.7818608E-02  0.1500385E+00
          2   -1    0    0  502    0  0.00000000000E+00  0.00000000000E+00  0.22277454461E+04  0.22277454461E+04  0.00000000000E+00 0. -1.
          1   -1    0    0  501    0 -0.00000000000E+00 -0.00000000000E+00 -0.71899632623E+03  0.71899632623E+03  0.00000000000E+00 0. -1.
         25    2    1    2    0    0  0.22447240597E+02  0.23890016753E+02  0.72806305293E+02  0.14834199480E+03  0.12501990969E+03 0.  0.
          2    1    1    2  501    0 -0.89833180666E+01 -0.52644110515E+02 -0.68006252782E+03  0.68215624612E+03  0.00000000000E+00 0. -1.
          1    1    1    2  502    0 -0.13463922531E+02  0.28754093762E+02  0.21160053424E+04  0.21162435314E+04  0.00000000000E+00 0. -1.
         22    1    3    3    0    0  0.31142208823E+02  0.42773402876E+02 -0.17457557917E+02  0.55715056245E+02  0.00000000000E+00 0.  1.
         22    1    3    3    0    0 -0.86949682263E+01 -0.18883386123E+02  0.90263863210E+02  0.92626938552E+02  0.00000000000E+00 0.  1.
</event>
<event>
 7    1  0.5779468E-006  0.4959846E+02  0.7818608E-02  0.1557024E+00
          2   -1    0    0  502    0  0.00000000000E+00  0.00000000000E+00  0.46031018770E+03  0.46031018770E+03  0.00000000000E+00 0. -1.
          1   -1    0    0  501    0 -0.00000000000E+00 -0.00000000000E+00 -0.25487224146E+03  0.25487224146E+03  0.00000000000E+00 0. -1.
         25    2    1    2    0    0 -0.25074038035E+02  0.93060598109E+01 -0.84036849223E+01  0.12811302541E+03  0.12500806064E+03 0.  0.
          2    1    1    2  501    0 -0.22391487303E+02  0.68036275074E+01 -0.18430253552E+03  0.18578237981E+03  0.00000000000E+00 0. -1.
          1    1    1    2  502    0  0.47465525338E+02 -0.16109687318E+02  0.39814416668E+03  0.40128702394E+03  0.00000000000E+00 0. -1.
         22    1    3    3    0    0  0.46867818162E+02 -0.78120934048E+01 -0.22916298995E+02  0.52752042067E+02  0.00000000000E+00 0. -1.
         22    1    3    3    0    0 -0.71941856197E+02  0.17118153216E+02  0.14512614073E+02  0.75360983339E+02  0.00000000000E+00 0. -1.
</event>
<event>
 7    1  0.5779468E-006  0.5379476E+02  0.7818608E-02  0.1471635E+00
          2   -1    0    0  502    0  0.00000000000E+00  0.00000000000E+00  0.51672199860E+03  0.51672199860E+03  0.00000000000E+00 0. -1.
          1   -1    0    0  501    0 -0.00000000000E+00 -0.00000000000E+00 -0.12759578881E+03  0.12759578881E+03  0.00000000000E+00 0. -1.
         25    2    1    2    0    0 -0.34619427278E+02  0.80381213520E+02  0.33949001368E+03  0.37220662470E+03  0.12499863139E+03 0.  0.
          2    1    1    2  501    0  0.32625944876E+02 -0.42056221746E+02 -0.10234535593E+03  0.11535922134E+03  0.00000000000E+00 0. -1.
          1    1    1    2  502    0  0.19934824020E+01 -0.38324991773E+02  0.15198155203E+03  0.15675194137E+03  0.00000000000E+00 0. -1.
         22    1    3    3    0    0  0.13372150234E+02  0.14401764128E+02 -0.32237489000E+01  0.19915264719E+02  0.00000000000E+00 0. -1.
         22    1    3    3    0    0 -0.47991577511E+02  0.65979449392E+02  0.34271376258E+03  0.35229135998E+03  0.00000000000E+00 0. -1.
</event>
<event>
 7    1  0.5779468E-006  0.6452750E+02  0.7818608E-02  0.1512500E+00
          2   -1    0    0  502    0  0.00000000000E+00  0.00000000000E+00  0.72839556367E+03  0.72839556367E+03  0.00000000000E+00 0. -1.
          1   -1    0    0  501    0 -0.00000000000E+00 -0.00000000000E+00 -0.38824155636E+03  0.38824155636E+03  0.00000000000E+00 0. -1.
         25    2    1    2    0    0  0.30763677617E+02  0.61510356828E+02 -0.25212379063E+02  0.14487993348E+03  0.12499841282E+03 0.  0.
          2    1    1    2  501    0  0.16483945981E+02 -0.17561228889E+02 -0.30115644971E+03  0.30211806374E+03  0.00000000000E+00 0. -1.
          1    1    1    2  502    0 -0.47247623598E+02 -0.43949127939E+02  0.66652283609E+03  0.66963912282E+03  0.00000000000E+00 0. -1.
         22    1    3    3    0    0  0.36491886473E+02  0.78906693225E+01  0.43635218132E+02  0.57427804260E+02  0.00000000000E+00 0. -1.
         22    1    3    3    0    0 -0.57282088555E+01  0.53619687506E+02 -0.68847597195E+02  0.87452129216E+02  0.00000000000E+00 0. -1.
</event>
<event>
 7    1  0.5779468E-006  0.1028566E+03  0.7818608E-02  0.1356945E+00
          2   -1    0    0  502    0  0.00000000000E+00  0.00000000000E+00  0.56367986110E+03  0.56367986110E+03  0.00000000000E+00 0. -1.
          1   -1    0    0  501    0 -0.00000000000E+00 -0.00000000000E+00 -0.45452421105E+03  0.45452421105E+03  0.00000000000E+00 0. -1.
         25    2    1    2    0    0 -0.10081404656E+03  0.29008139841E+02  0.45376463343E+02  0.16937852433E+03  0.12500046767E+03 0.  0.
          2    1    1    2  501    0  0.10148568590E+03  0.19906368524E+02 -0.38435684972E+03  0.39802738082E+03  0.00000000000E+00 0. -1.
          1    1    1    2  502    0 -0.67163933949E+00 -0.48914508366E+02  0.44813603644E+03  0.45079816701E+03  0.00000000000E+00 0. -1.
         22    1    3    3    0    0 -0.11437282704E+03  0.34193701847E+02  0.71746846490E+02  0.13927656943E+03  0.00000000000E+00 0. -1.
         22    1    3    3    0    0  0.13558780479E+02 -0.51855620056E+01 -0.26370383148E+02  0.30101954899E+02  0.00000000000E+00 0. -1.
</event>
<event>
 7    1  0.5779468E-006  0.1179376E+03  0.7818608E-02  0.1295053E+00
          2   -1    0    0  502    0  0.00000000000E+00  0.00000000000E+00  0.77591357415E+03  0.77591357415E+03  0.00000000000E+00 0. -1.
          1   -1    0    0  501    0 -0.00000000000E+00 -0.00000000000E+00 -0.27318943704E+03  0.27318943704E+03  0.00000000000E+00 0. -1.
         25    2    1    2    0    0 -0.14326168616E+03 -0.90774190784E+02  0.49659640028E+03  0.53944008654E+03  0.12499503093E+03 0.  0.
          2    1    1    2  501    0  0.64290625600E+02  0.36254885884E+02 -0.23702922671E+03  0.24825502131E+03  0.00000000000E+00 0. -1.
          1    1    1    2  502    0  0.78971060556E+02  0.54519304900E+02  0.24315696354E+03  0.26140790334E+03  0.00000000000E+00 0. -1.
         22    1    3    3    0    0 -0.34590100963E+02 -0.88494577803E+02  0.16403296130E+03  0.18956417852E+03  0.00000000000E+00 0. -1.
         22    1    3    3    0    0 -0.10867158519E+03 -0.22796129810E+01  0.33256343898E+03  0.34987590801E+03  0.00000000000E+00 0. -1.
</event>
<event>
 7    1  0.5779468E-006  0.7808562E+02  0.7818608E-02  0.1342087E+00
          2   -1    0    0  502    0  0.00000000000E+00  0.00000000000E+00  0.34104311282E+02  0.34104311282E+02  0.00000000000E+00 0. -1.
          1   -1    0    0  501    0 -0.00000000000E+00 -0.00000000000E+00 -0.17667589592E+04  0.17667589592E+04  0.00000000000E+00 0. -1.
         25    2    1    2    0    0  0.17767792201E+02 -0.68888208715E+01 -0.31984052881E+03  0.34392835912E+03  0.12500240816E+03 0.  0.
          2    1    1    2  501    0  0.65816044406E+02  0.42019196764E+02 -0.13354977808E+04  0.13377786391E+04  0.00000000000E+00 0. -1.
          1    1    1    2  502    0 -0.83583836606E+02 -0.35130375893E+02 -0.77316338221E+02  0.11915627221E+03  0.00000000000E+00 0. -1.
         22    1    3    3    0    0  0.40706408025E+02  0.50254596289E+02 -0.17346092362E+03  0.18512489872E+03  0.00000000000E+00 0.  1.
         22    1    3    3    0    0 -0.22938615825E+02 -0.57143417161E+02 -0.14637960518E+03  0.15880346040E+03  0.00000000000E+00 0.  1.
</event>
<event>
 7    1  0.5779468E-006  0.2172923E+03  0.7818608E-02  0.1169113E+00
          2   -1    0    0  502    0  0.00000000000E+00  0.00000000000E+00  0.59786210566E+03  0.59786210566E+03  0.00000000000E+00 0. -1.
          1   -1    0    0  501    0 -0.00000000000E+00 -0.00000000000E+00 -0.24683494259E+04  0.24683494259E+04  0.00000000000E+00 0. -1.
         25    2    1    2    0    0 -0.20373774281E+03 -0.15923376838E+03  0.18359045578E+02  0.28779633140E+03  0.12500085190E+03 0.  0.
          2    1    1    2  501    0  0.21700059903E+03  0.12948894755E+02 -0.23162743130E+04  0.23264530142E+04  0.00000000000E+00 0. -1.
          1    1    1    2  502    0 -0.13262856224E+02  0.14628487363E+03  0.42742794716E+03  0.45196218606E+03  0.00000000000E+00 0. -1.
         22    1    3    3    0    0 -0.14359872662E+03 -0.37316942443E+02 -0.10802589640E+02  0.14876103126E+03  0.00000000000E+00 0. -1.
         22    1    3    3    0    0 -0.60139016189E+02 -0.12191682594E+03  0.29161635219E+02  0.13903530014E+03  0.00000000000E+00 0. -1.
</event>
<event>
 7    1  0.5779468E-006  0.6193233E+02  0.7818608E-02  0.1453314E+00
          2   -1    0    0  502    0  0.00000000000E+00  0.00000000000E+00  0.15564208998E+03  0.15564208998E+03  0.00000000000E+00 0. -1.
          1   -1    0    0  501    0 -0.00000000000E+00 -0.00000000000E+00 -0.65737826382E+03  0.65737826382E+03  0.00000000000E+00 0. -1.
         25    2    1    2    0    0 -0.60914639530E+02  0.76811531976E+02  0.19186871138E+02  0.16000668630E+03  0.12499359537E+03 0.  0.
          2    1    1    2  501    0  0.43925247459E+02 -0.42751689088E+02 -0.57973135551E+03  0.58296275939E+03  0.00000000000E+00 0. -1.
          1    1    1    2  502    0  0.16989392071E+02 -0.34059842888E+02  0.58808310518E+02  0.70050908106E+02  0.00000000000E+00 0. -1.
         22    1    3    3    0    0 -0.33746393178E+02 -0.11438416819E+02  0.51111805489E+02  0.62306284532E+02  0.00000000000E+00 0.  1.
         22    1    3    3    0    0 -0.27168246352E+02  0.88249948795E+02 -0.31924934351E+02  0.97700401767E+02  0.00000000000E+00 0.  1.
</event>
<event>
 7    1  0.5779468E-006  0.5463838E+02  0.7818608E-02  0.1425845E+00
          2   -1    0    0  502    0  0.00000000000E+00  0.00000000000E+00  0.55831092291E+03  0.55831092291E+03  0.00000000000E+00 0. -1.
          1   -1    0    0  501    0 -0.00000000000E+00 -0.00000000000E+00 -0.39623713007E+03  0.39623713007E+03  0.00000000000E+00 0. -1.
         25    2    1    2    0    0 -0.18158526600E+02 -0.67931006858E+02  0.24517043128E+03  0.28403678494E+03  0.12499600412E+03 0.  0.
          2    1    1    2  501    0 -0.31109956063E+02  0.42885127351E+02 -0.37231176526E+03  0.37606251351E+03  0.00000000000E+00 0. -1.
          1    1    1    2  502    0  0.49268482663E+02  0.25045879507E+02  0.28921512682E+03  0.29444875453E+03  0.00000000000E+00 0. -1.
         22    1    3    3    0    0 -0.56813109966E+02  0.23967990972E+01  0.14455397065E+03  0.15533616624E+03  0.00000000000E+00 0. -1.
         22    1    3    3    0    0  0.38654583366E+02 -0.70327805955E+02  0.10061646063E+03  0.12870061870E+03  0.00000000000E+00 0. -1.
</event>
<event>
 7    1  0.5779468E-006  0.9890168E+02  0.7818608E-02  0.1462778E+00
          2   -1    0    0  502    0  0.00000000000E+00  0.00000000000E+00  0.10088161935E+03  0.10088161935E+03  0.00000000000E+00 0. -1.
          1   -1    0    0  501    0 -0.00000000000E+00 -0.00000000000E+00 -0.23577634756E+03  0.23577634756E+03  0.00000000000E+00 0. -1.
         25    2    1    2    0    0  0.11166846099E+03 -0.22652804136E+02 -0.68576437923E+02  0.18251300627E+03  0.12500109961E+03 0.  0.
          2    1    1    2  501    0 -0.22167225705E+02 -0.18778234158E+01 -0.56624637791E+02  0.60837995703E+02  0.00000000000E+00 0. -1.
          1    1    1    2  502    0 -0.89501235289E+02  0.24530627552E+02 -0.96936524939E+01  0.93306964933E+02  0.00000000000E+00 0. -1.
         22    1    3    3    0    0  0.75454351418E+02  0.43334784437E+02 -0.10917142642E+02  0.87695191964E+02  0.00000000000E+00 0.  1.
         22    1    3    3    0    0  0.36214109576E+02 -0.65987588573E+02 -0.57659295281E+02  0.94817814309E+02  0.00000000000E+00 0.  1.
</event>
<event>
 7    1  0.5779468E-006  0.1094712E+03  0.7818608E-02  0.1332068E+00
          2   -1    0    0  502    0  0.00000000000E+00  0.00000000000E+00  0.17506413328E+04  0.17506413328E+04  0.00000000000E+00 0. -1.
          1   -1    0    0  501    0 -0.00000000000E+00 -0.00000000000E+00 -0.83480246011E+03  0.83480246011E+03  0.00000000000E+00 0. -1.
         25    2    1    2    0    0 -0.24770419377E+02 -0.57456856810E+02 -0.28334425074E+02  0.14263037345E+03  0.12500287883E+03 0.  0.
          2    1    1    2  501    0  0.20742124715E+02 -0.53020157739E+02 -0.74643068564E+03  0.74859878529E+03  0.00000000000E+00 0. -1.
          1    1    1    2  502    0  0.40282946618E+01  0.11047701455E+03  0.16906039834E+04  0.16942146341E+04  0.00000000000E+00 0. -1.
         22    1    3    3    0    0 -0.65568461285E+02 -0.68662876312E+02 -0.31935622353E+02  0.10016834667E+03  0.00000000000E+00 0.  1.
         22    1    3    3    0    0  0.40798041909E+02  0.11206019502E+02  0.36011972793E+01  0.42462026783E+02  0.00000000000E+00 0.  1.
</event>
<event>
 7    1  0.5779468E-006  0.2367991E+03  0.7818608E-02  0.1217895E+00
          2   -1    0    0  502    0  0.00000000000E+00  0.00000000000E+00  0.13574926117E+04  0.13574926117E+04  0.00000000000E+00 0. -1.
          1   -1    0    0  501    0 -0.00000000000E+00 -0.00000000000E+00 -0.66362137876E+03  0.66362137876E+03  0.00000000000E+00 0. -1.
         25    2    1    2    0    0 -0.16037136974E+03  0.47799480287E+02  0.40251030074E+03  0.45347870091E+03  0.12499849368E+03 0.  0.
          2    1    1    2  501    0  0.21810725886E+03 -0.10152794999E+03 -0.61368626827E+03  0.65915820321E+03  0.00000000000E+00 0. -1.
          1    1    1    2  502    0 -0.57735889120E+02  0.53728469707E+02  0.90504720046E+03  0.90847708635E+03  0.00000000000E+00 0. -1.
         22    1    3    3    0    0 -0.16548931891E+03  0.55289130268E+02  0.40738734956E+03  0.44317948416E+03  0.00000000000E+00 0.  1.
         22    1    3    3    0    0  0.51179491617E+01 -0.74896499815E+01 -0.48770488170E+01  0.10299216748E+02  0.00000000000E+00 0.  1.
</event>
<event>
 7    1  0.5779468E-006  0.4043698E+02  0.7818608E-02  0.1533543E+00
          2   -1    0    0  502    0  0.00000000000E+00  0.00000000000E+00  0.27367315934E+03  0.27367315934E+03  0.00000000000E+00 0. -1.
          1   -1    0    0  501    0 -0.00000000000E+00 -0.00000000000E+00 -0.55778643450E+03  0.55778643450E+03  0.00000000000E+00 0. -1.
         25    2    1    2    0    0  0.42884235602E+01  0.42230894144E+02 -0.39716339654E+02  0.13785560791E+03  0.12499976800E+03 0.  0.
          2    1    1    2  501    0 -0.31261103867E+02 -0.11785919835E+02 -0.46655673737E+03  0.46775138023E+03  0.00000000000E+00 0. -1.
          1    1    1    2  502    0  0.26972680306E+02 -0.30444974309E+02  0.22215980186E+03  0.22585260571E+03  0.00000000000E+00 0. -1.
         22    1    3    3    0    0 -0.55679286376E+02  0.42250048124E+02 -0.89778275203E+01  0.70468793694E+02  0.00000000000E+00 0. -1.
         22    1    3    3    0    0  0.59967709936E+02 -0.19153979749E-01 -0.30738512134E+02  0.67386814215E+02  0.00000000000E+00 0. -1.
</event>
<event>
 7    1  0.5779468E-006  0.5712845E+02  0.7818608E-02  0.1441537E+00
          2   -1    0    0  502    0  0.00000000000E+00  0.00000000000E+00  0.13791497734E+03  0.13791497734E+03  0.00000000000E+00 0. -1.
          1   -1    0    0  501    0 -0.00000000000E+00 -0.00000000000E+00 -0.89320310751E+03  0.89320310751E+03  0.00000000000E+00 0. -1.
         25    2    1    2    0    0  0.63500124264E+02  0.38581211450E+02  0.68199023847E+02  0.16061314958E+03  0.12499880522E+03 0.  0.
          2    1    1    2  501    0 -0.44117009600E+02  0.89556242070E+01 -0.81759255666E+03  0.81883093643E+03  0.00000000000E+00 0. -1.
          1    1    1    2  502    0 -0.19383114664E+02 -0.47536835657E+02 -0.58945973603E+01  0.51673998843E+02  0.00000000000E+00 0. -1.
         22    1    3    3    0    0  0.45219169489E+02  0.36618724091E+02 -0.26649368042E+02  0.63999164529E+02  0.00000000000E+00 0.  1.
         22    1    3    3    0    0  0.18280954774E+02  0.19624873594E+01  0.94848391889E+02  0.96613985054E+02  0.00000000000E+00 0.  1.
</event>
<event>
 7    1  0.5779468E-006  0.5158021E+02  0.7818608E-02  0.1496515E+00
          2   -1    0    0  502    0  0.00000000000E+00  0.00000000000E+00  0.47632259271E+03  0.47632259271E+03  0.00000000000E+00 0. -1.
          1   -1    0    0  501    0 -0.00000000000E+00 -0.00000000000E+00 -0.83243709368E+03  0.83243709368E+03  0.00000000000E+00 0. -1.
         25    2    1    2    0    0  0.51810221063E+02 -0.91962449657E+01  0.12021130739E+03  0.18123341999E+03  0.12500369663E+03 0.  0.
          2    1    1    2  501    0 -0.54299760095E+01  0.33165409935E+02 -0.79947795749E+03  0.80018399982E+03  0.00000000000E+00 0. -1.
          1    1    1    2  502    0 -0.46380245053E+02 -0.23969164969E+02  0.32315214913E+03  0.32734226658E+03  0.00000000000E+00 0. -1.
         22    1    3    3    0    0 -0.10873928101E+02  0.23908625618E+02 -0.13768757865E+02  0.29655410711E+02  0.00000000000E+00 0.  1.
         22    1    3    3    0    0  0.62684149163E+02 -0.33104870584E+02  0.13398006525E+03  0.15157800928E+03  0.00000000000E+00 0.  1.
</event>
<event>
 7    1  0.5779468E-006  0.1035222E+03  0.7818608E-02  0.1451284E+00
          2   -1    0    0  502    0  0.00000000000E+00  0.00000000000E+00  0.37028392515E+03  0.37028392515E+03  0.00000000000E+00 0. -1.
          1   -1    0    0  501    0 -0.00000000000E+00 -0.00000000000E+00 -0.99377725833E+03  0.99377725833E+03  0.00000000000E+00 0. -1.
         25    2    1    2    0    0 -0.97076409435E+02 -0.21105965241E+02 -0.24141890801E+02  0.16148234506E+03  0.12499770333E+03 0.  0.
          2    1    1    2  501    0  0.27101606994E+01 -0.22953085244E+02 -0.89182082102E+03  0.89212026426E+03  0.00000000000E+00 0. -1.
          1    1    1    2  502    0  0.94366248735E+02  0.44059050484E+02  0.29246937864E+03  0.31045857416E+03  0.00000000000E+00 0. -1.
         22    1    3    3    0    0 -0.11214730380E+03 -0.16468108263E+02 -0.55631076730E+02  0.12626572392E+03  0.00000000000E+00 0.  1.
         22    1    3    3    0    0  0.15070894363E+02 -0.46378569777E+01  0.31489185928E+02  0.35216621142E+02  0.00000000000E+00 0.  1.
</event>
<event>
 7    1  0.5779468E-006  0.7687977E+02  0.7818608E-02  0.1386551E+00
          2   -1    0    0  502    0  0.00000000000E+00  0.00000000000E+00  0.35748854769E+03  0.35748854769E+03  0.00000000000E+00 0. -1.
          1   -1    0    0  501    0 -0.00000000000E+00 -0.00000000000E+00 -0.20526681434E+04  0.20526681434E+04  0.00000000000E+00 0. -1.
         25    2    1    2    0    0 -0.61275067132E+02 -0.15749361522E+02  0.96535952554E+02  0.17011925061E+03  0.12497476966E+03 0.  0.
          2    1    1    2  501    0  0.68647269360E+02 -0.34972055923E+02 -0.20121998321E+04  0.20136741684E+04  0.00000000000E+00 0. -1.
          1    1    1    2  502    0 -0.73722022285E+01  0.50721417445E+02  0.22048428379E+03  0.22636327209E+03  0.00000000000E+00 0. -1.
         22    1    3    3    0    0 -0.95009400140E+02  0.10646316339E+02  0.78255057975E+02  0.12354749801E+03  0.00000000000E+00 0. -1.
         22    1    3    3    0    0  0.33734333009E+02 -0.26395677861E+02  0.18280894578E+02  0.46571752596E+02  0.00000000000E+00 0. -1.
</event>
<event>
 7    1  0.5779468E-006  0.1140903E+03  0.7818608E-02  0.1280116E+00
          2   -1    0    0  502    0  0.00000000000E+00  0.00000000000E+00  0.76203424983E+03  0.76203424983E+03  0.00000000000E+00 0. -1.
          1   -1    0    0  501    0 -0.00000000000E+00 -0.00000000000E+00 -0.40842726802E+03  0.40842726802E+03  0.00000000000E+00 0. -1.
         25    2    1    2    0    0 -0.73488132567E+02 -0.17119526301E+03  0.18092206200E+03  0.28821239567E+03  0.12500107519E+03 0.  0.
          2    1    1    2  501    0  0.59143914122E+02  0.64891299001E+02 -0.34375304986E+03  0.35478872946E+03  0.00000000000E+00 0. -1.
          1    1    1    2  502    0  0.14344218444E+02  0.10630396400E+03  0.51643796967E+03  0.52746039272E+03  0.00000000000E+00 0. -1.
         22    1    3    3    0    0 -0.42740764681E+02 -0.19158209085E+02 -0.38106801429E+01  0.46992884823E+02  0.00000000000E+00 0. -1.
         22    1    3    3    0    0 -0.30747367886E+02 -0.15203705392E+03  0.18473274214E+03  0.24121951085E+03  0.00000000000E+00 0. -1.
</event>
<event>
 7    1  0.5779468E-006  0.1139742E+03  0.7818608E-02  0.1266850E+00
          2   -1    0    0  502    0  0.00000000000E+00  0.00000000000E+00  0.24844883282E+04  0.24844883282E+04  0.00000000000E+00 0. -1.
          1   -1    0    0  501    0 -0.00000000000E+00 -0.00000000000E+00 -0.78846404985E+02  0.78846404985E+02  0.00000000000E+00 0. -1.
         25    2    1    2    0    0  0.85624303801E+01  0.25911750517E+02  0.77172142189E+03  0.78225601778E+03  0.12500316124E+03 0.  0.
          2    1    1    2  501    0  0.44032318578E+02  0.10512499191E+03 -0.24566771820E+02  0.11659174619E+03  0.00000000000E+00 0. -1.
          1    1    1    2  502    0 -0.52594748958E+02 -0.13103674243E+03  0.16584872731E+04  0.16644869692E+04  0.00000000000E+00 0. -1.
         22    1    3    3    0    0  0.23199542864E+01 -0.45382714898E+02  0.46871002122E+03  0.47090769477E+03  0.00000000000E+00 0. -1.
         22    1    3    3    0    0  0.62424760937E+01  0.71294465415E+02  0.30301140067E+03  0.31134832301E+03  0.00000000000E+00 0. -1.
</event>
<event>
 7    1  0.5779468E-006  0.1860866E+03  0.7818608E-02  0.1230051E+00
          2   -1    0    0  502    0  0.00000000000E+00  0.00000000000E+00  0.11842276040E+04  0.11842276040E+04  0.00000000000E+00 0. -1.
          1   -1    0    0  501    0 -0.00000000000E+00 -0.00000000000E+00 -0.89946226223E+03  0.89946226223E+03  0.00000000000E+00 0. -1.
         25    2    1    2    0    0  0.10765008657E+03  0.34871916560E+02  0.64775810120E+03  0.66934297835E+03  0.12499949312E+03 0.  0.
          2    1    1    2  501    0 -0.14955220530E+03 -0.11272357909E+03 -0.87497216693E+03  0.89478978553E+03  0.00000000000E+00 0. -1.
          1    1    1    2  502    0  0.41902118725E+02  0.77851662532E+02  0.51197940752E+03  0.51955710238E+03  0.00000000000E+00 0. -1.
         22    1    3    3    0    0  0.83986020620E+01  0.23401152876E+02  0.41876576906E+03  0.41950318212E+03  0.00000000000E+00 0.  1.
         22    1    3    3    0    0  0.99251484512E+02  0.11470763685E+02  0.22899233214E+03  0.24983979623E+03  0.00000000000E+00 0.  1.
</event>
<event>
 7    1  0.5779468E-006  0.1076836E+03  0.7818608E-02  0.1308962E+00
          2   -1    0    0  502    0  0.00000000000E+00  0.00000000000E+00  0.13597061723E+04  0.13597061723E+04  0.00000000000E+00 0. -1.
          1   -1    0    0  501    0 -0.00000000000E+00 -0.00000000000E+00 -0.35321914351E+03  0.35321914351E+03  0.00000000000E+00 0. -1.
         25    2    1    2    0    0 -0.33440291356E+02 -0.55591227256E+02  0.18670599449E+03  0.23386852884E+03  0.12500689088E+03 0.  0.
          2    1    1    2  501    0  0.40719563297E+02 -0.58331085887E+02 -0.32292258016E+03  0.33066537646E+03  0.00000000000E+00 0. -1.
          1    1    1    2  502    0 -0.72792719407E+01  0.11392231314E+03  0.11427036144E+04  0.11483914105E+04  0.00000000000E+00 0. -1.
         22    1    3    3    0    0  0.20720977826E+02  0.15560962820E+02 -0.10196894689E+01  0.25933419608E+02  0.00000000000E+00 0. -1.
         22    1    3    3    0    0 -0.54161269182E+02 -0.71152190076E+02  0.18772568396E+03  0.20793510923E+03  0.00000000000E+00 0. -1.
</event>
<event>
 7    1  0.5779468E-006  0.7546477E+02  0.7818608E-02  0.1446891E+00
          2   -1    0    0  502    0  0.00000000000E+00  0.00000000000E+00  0.19789767718E+03  0.19789767718E+03  0.00000000000E+00 0. -1.
          1   -1    0    0  501    0 -0.00000000000E+00 -0.00000000000E+00 -0.14352499635E+03  0.14352499635E+03  0.00000000000E+00 0. -1.
         25    2    1    2    0    0  0.16434081863E+02  0.66074852095E+02 -0.64685752283E+01  0.14248590356E+03  0.12499770047E+03 0.  0.
          2    1    1    2  501    0  0.32249309267E+02 -0.57043483163E+01 -0.52335271845E+02  0.61737656393E+02  0.00000000000E+00 0. -1.
          1    1    1    2  502    0 -0.48683391130E+02 -0.60370503779E+02  0.11317652790E+03  0.13719911358E+03  0.00000000000E+00 0. -1.
         22    1    3    3    0    0  0.69883797172E+02  0.35946847166E+02 -0.16539961690E+02  0.80308724689E+02  0.00000000000E+00 0. -1.
         22    1    3    3    0    0 -0.53449715309E+02  0.30128004929E+02  0.10071386462E+02  0.62177178876E+02  0.00000000000E+00 0. -1.
</event>
<event>
 7    1  0.5779468E-006  0.5026546E+02  0.7818608E-02  0.1524220E+00
          2   -1    0    0  502    0  0.00000000000E+00  0.00000000000E+00  0.43172490101E+03  0.43172490101E+03  0.00000000000E+00 0. -1.
          1   -1    0    0  501    0 -0.00000000000E+00 -0.00000000000E+00 -0.36824134206E+03  0.36824134206E+03  0.00000000000E+00 0. -1.
         25    2    1    2    0    0 -0.77357985000E+02 -0.12889559642E+02  0.11732562181E+03  0.18852304333E+03  0.12500095097E+03 0.  0.
          2    1    1    2  501    0  0.49492785425E+02  0.65197800284E+01 -0.33002794811E+03  0.33378209939E+03  0.00000000000E+00 0. -1.
          1    1    1    2  502    0  0.27865199575E+02  0.63697796137E+01  0.27618588525E+03  0.27766110036E+03  0.00000000000E+00 0. -1.
         22    1    3    3    0    0  0.10858571336E+02  0.81720621488E+01 -0.19861634974E+02  0.24066069789E+02  0.00000000000E+00 0. -1.
         22    1    3    3    0    0 -0.88216556336E+02 -0.21061621791E+02  0.13718725678E+03  0.16445697355E+03  0.00000000000E+00 0. -1.
</event>
<event>
 7    1  0.5779468E-006  0.4627628E+02  0.7818608E-02  0.1481496E+00
          2   -1    0    0  502    0  0.00000000000E+00  0.00000000000E+00  0.17865674707E+04  0.17865674707E+04  0.00000000000E+00 0. -1.
          1   -1    0    0  501    0 -0.00000000000E+00 -0.00000000000E+00 -0.71852306673E+02  0.71852306673E+02  0.00000000000E+00 0. -1.
         25    2    1    2    0    0 -0.85561121994E+02  0.51683722957E+01  0.60097139746E+03  0.61978936326E+03  0.12499926635E+03 0.  0.
          2    1    1    2  501    0  0.41565215287E+02  0.16124610242E+01 -0.55044938548E+02  0.68994292606E+02  0.00000000000E+00 0. -1.
          1    1    1    2  502    0  0.43995906707E+02 -0.67808333199E+01  0.11687887051E+04  0.11696361215E+04  0.00000000000E+00 0. -1.
         22    1    3    3    0    0 -0.62851716353E+01  0.34430347230E+02  0.40326079881E+03  0.40477675829E+03  0.00000000000E+00 0.  1.
         22    1    3    3    0    0 -0.79275950359E+02 -0.29261974935E+02  0.19771059865E+03  0.21501260498E+03  0.00000000000E+00 0.  1.
</event>
<event>
 7    1  0.5779468E-006  0.3441924E+02  0.7818608E-02  0.1601925E+00
          2   -1    0    0  502    0  0.00000000000E+00  0.00000000000E+00  0.36964606881E+03  0.36964606881E+03  0.00000000000E+00 0. -1.
          1   -1    0    0  501    0 -0.00000000000E+00 -0.00000000000E+00 -0.54816154116E+03  0.54816154116E+03  0.00000000000E+00 0. -1.
         25    2    1    2    0    0  0.12780738648E+02  0.48431345697E+02  0.11075406195E+03  0.17435521875E+03  0.12499735014E+03 0.  0.
          2    1    1    2  501    0 -0.23397577166E+02 -0.25189839708E+02 -0.51506733622E+03  0.51621345922E+03  0.00000000000E+00 0. -1.
          1    1    1    2  502    0  0.10616838518E+02 -0.23241505989E+02  0.22579780193E+03  0.22723893200E+03  0.00000000000E+00 0. -1.
         22    1    3    3    0    0  0.32303053809E+02  0.10340011168E+02  0.12478427697E+03  0.12931171213E+03  0.00000000000E+00 0. -1.
         22    1    3    3    0    0 -0.19522315161E+02  0.38091334528E+02 -0.14030215017E+02  0.45043506622E+02  0.00000000000E+00 0. -1.
</event>
<event>
 7    1  0.5779468E-006  0.8767150E+02  0.7818608E-02  0.1478816E+00
          2   -1    0    0  502    0  0.00000000000E+00  0.00000000000E+00  0.16243817335E+03  0.16243817335E+03  0.00000000000E+00 0. -1.
          1   -1    0    0  501    0 -0.00000000000E+00 -0.00000000000E+00 -0.18486698508E+04  0.18486698508E+04  0.00000000000E+00 0. -1.
         25    2    1    2    0    0  0.35814829853E+02  0.55603517671E+02 -0.52513879803E+03  0.54385002265E+03  0.12501054643E+03 0.  0.
          2    1    1    2  501    0  0.81625535898E+01  0.20833713525E+02 -0.13013711737E+04  0.13015635223E+04  0.00000000000E+00 0. -1.
          1    1    1    2  502    0 -0.43977383443E+02 -0.76437231196E+02  0.14027829432E+03  0.16569447916E+03  0.00000000000E+00 0. -1.
         22    1    3    3    0    0  0.37916987911E+01  0.76680519885E+02 -0.16861391970E+03  0.18526989239E+03  0.00000000000E+00 0. -1.
         22    1    3    3    0    0  0.32023131062E+02 -0.21077002214E+02 -0.35652487833E+03  0.35858013026E+03  0.00000000000E+00 0. -1.
</event>
<event>
 7    1  0.5779468E-006  0.1655797E+03  0.7818608E-02  0.1287543E+00
          2   -1    0    0  502    0  0.00000000000E+00  0.00000000000E+00  0.64050802833E+03  0.64050802833E+03  0.00000000000E+00 0. -1.
          1   -1    0    0  501    0 -0.00000000000E+00 -0.00000000000E+00 -0.99509854892E+03  0.99509854892E+03  0.00000000000E+00 0. -1.
         25    2    1    2    0    0 -0.57776421204E+02  0.19070132351E+03  0.34723412794E+03  0.41940587659E+03  0.12499856028E+03 0.  0.
          2    1    1    2  501    0  0.85158106675E+02 -0.14140131017E+03 -0.94870690716E+03  0.96295951594E+03  0.00000000000E+00 0. -1.
          1    1    1    2  502    0 -0.27381685471E+02 -0.49300013338E+02  0.24688225863E+03  0.25324118473E+03  0.00000000000E+00 0. -1.
         22    1    3    3    0    0  0.36358564743E+02  0.60426830778E+02  0.14361612032E+03  0.15999667847E+03  0.00000000000E+00 0. -1.
         22    1    3    3    0    0 -0.94134985947E+02  0.13027449273E+03  0.20361800762E+03  0.25940919811E+03  0.00000000000E+00 0. -1.
</event>
<event>
 7    1  0.5779468E-006  0.1705274E+03  0.7818608E-02  0.1352096E+00
          2   -1    0    0  502    0  0.00000000000E+00  0.00000000000E+00  0.39450103168E+03  0.39450103168E+03  0.00000000000E+00 0. -1.
          1   -1    0    0  501    0 -0.00000000000E+00 -0.00000000000E+00 -0.12716644608E+04  0.12716644608E+04  0.00000000000E+00 0. -1.
         25    2    1    2    0    0 -0.82994129498E+02  0.13992139651E+03 -0.89181487416E+03  0.91510870267E+03  0.12499658072E+03 0.  0.
          2    1    1    2  501    0  0.11201653649E+03 -0.15006460963E+03 -0.34369219092E+03  0.39139674706E+03  0.00000000000E+00 0. -1.
          1    1    1    2  502    0 -0.29022406996E+02  0.10143213124E+02  0.35834363599E+03  0.35966004272E+03  0.00000000000E+00 0. -1.
         22    1    3    3    0    0 -0.35754805025E+02  0.28849779058E+01 -0.53876010363E+02  0.64725216667E+02  0.00000000000E+00 0. -1.
         22    1    3    3    0    0 -0.47239324473E+02  0.13703641860E+03 -0.83793886380E+03  0.85038348600E+03  0.00000000000E+00 0. -1.
</event>
<event>
 7    1  0.5779468E-006  0.5134294E+02  0.7818608E-02  0.1536438E+00
          2   -1    0    0  502    0  0.00000000000E+00  0.00000000000E+00  0.16701060011E+03  0.16701060011E+03  0.00000000000E+00 0. -1.
          1   -1    0    0  501    0 -0.00000000000E+00 -0.00000000000E+00 -0.14161059474E+04  0.14161059474E+04  0.00000000000E+00 0. -1.
         25    2    1    2    0    0 -0.53432410933E+01  0.25255590321E+02 -0.46611519946E+02  0.13588195861E+03  0.12499951126E+03 0.  0.
          2    1    1    2  501    0  0.10289832168E+02 -0.50595192880E+02 -0.13229883157E+04  0.13239954070E+04  0.00000000000E+00 0. -1.
          1    1    1    2  502    0 -0.49465910748E+01  0.25339602558E+02  0.12050448842E+03  0.12323918188E+03  0.00000000000E+00 0. -1.
         22    1    3    3    0    0  0.17058494051E+02 -0.24740061521E+02  0.29495340203E+02  0.42107457262E+02  0.00000000000E+00 0. -1.
         22    1    3    3    0    0 -0.22401735144E+02  0.49995651842E+02 -0.76106860150E+02  0.93774501345E+02  0.00000000000E+00 0. -1.
</event>
<event>
 7    1  0.5779468E-006  0.7660848E+02  0.7818608E-02  0.1424438E+00
          2   -1    0    0  502    0  0.00000000000E+00  0.00000000000E+00  0.10192632964E+04  0.10192632964E+04  0.00000000000E+00 0. -1.
          1   -1    0    0  501    0 -0.00000000000E+00 -0.00000000000E+00 -0.11009692332E+03  0.11009692332E+03  0.00000000000E+00 0. -1.
         25    2    1    2    0    0  0.10163957789E+03 -0.48579926127E+02  0.25248032556E+03  0.30341653597E+03  0.12499866595E+03 0.  0.
          2    1    1    2  501    0 -0.67544512960E+02  0.31364850289E+02 -0.67644314454E+02  0.10060699947E+03  0.00000000000E+00 0. -1.
          1    1    1    2  502    0 -0.34095064928E+02  0.17215075837E+02  0.72433036201E+03  0.72533668432E+03  0.00000000000E+00 0. -1.
         22    1    3    3    0    0  0.70653223625E+02 -0.11065097939E+02  0.33276490285E+02  0.78877368153E+02  0.00000000000E+00 0. -1.
         22    1    3    3    0    0  0.30986354264E+02 -0.37514828187E+02  0.21920383527E+03  0.22453916781E+03  0.00000000000E+00 0. -1.
</event>
<event>
 7    1  0.5779468E-006  0.7567077E+02  0.7818608E-02  0.1400272E+00
          2   -1    0    0  502    0  0.00000000000E+00  0.00000000000E+00  0.23472733567E+04  0.23472733567E+04  0.00000000000E+00 0. -1.
          1   -1    0    0  501    0 -0.00000000000E+00 -0.00000000000E+00 -0.39329564041E+03  0.39329564041E+03  0.00000000000E+00 0. -1.
         25    2    1    2    0    0 -0.46472104419E+02  0.50233214921E+02 -0.32443617271E+02  0.14615379798E+03  0.12500124796E+03 0.  0.
          2    1    1    2  501    0  0.39246833480E+02  0.25241288801E+02 -0.30157459870E+03  0.30516335819E+03  0.00000000000E+00 0. -1.
          1    1    1    2  502    0  0.72252709389E+01 -0.75474503722E+02  0.22879959323E+04  0.22892518410E+04  0.00000000000E+00 0. -1.
         22    1    3    3    0    0 -0.57375461840E+02 -0.21568200297E+02 -0.39914892020E+02  0.73145946507E+02  0.00000000000E+00 0.  1.
         22    1    3    3    0    0  0.10903357421E+02  0.71801415218E+02  0.74712747490E+01  0.73007851473E+02  0.00000000000E+00 0.  1.
</event>
<event>
 7    1  0.5779468E-006  0.2331257E+03  0.7818608E-02  0.1318059E+00
          2   -1    0    0  502    0  0.00000000000E+00  0.00000000000E+00  0.33254211495E+03  0.33254211495E+03  0.00000000000E+00 0. -1.
          1   -1    0    0  501    0 -0.00000000000E+00 -0.00000000000E+00 -0.64705939443E+03  0.64705939443E+03  0.00000000000E+00 0. -1.
         25    2    1    2    0    0 -0.25278287654E+03  0.17434719276E+02 -0.15548152234E+03  0.32249307723E+03  0.12499651579E+03 0.  0.
          2    1    1    2  501    0  0.22558748261E+03 -0.41436013216E+01 -0.37575221054E+03  0.43828826755E+03  0.00000000000E+00 0. -1.
          1    1    1    2  502    0  0.27195393932E+02 -0.13291117954E+02  0.21671645340E+03  0.21882016461E+03  0.00000000000E+00 0. -1.
         22    1    3    3    0    0 -0.81060025928E+02 -0.38757275254E+02 -0.97742919754E+01  0.90379151203E+02  0.00000000000E+00 0. -1.
         22    1    3    3    0    0 -0.17172285061E+03  0.56191994529E+02 -0.14570723037E+03  0.23211392602E+03  0.00000000000E+00 0. -1.
</event>
<event>
 7    1  0.6719049E-006  0.7751774E+02  0.7818608E-02  0.1337397E+00
          2   -1    0    0  502    0  0.00000000000E+00  0.00000000000E+00  0.81264050882E+03  0.81264050882E+03  0.00000000000E+00 0. -1.
          1   -1    0    0  501    0 -0.00000000000E+00 -0.00000000000E+00 -0.11335477730E+04  0.11335477730E+04  0.00000000000E+00 0. -1.
         25    2    1    2    0    0  0.40963661678E+02 -0.57763102114E+02 -0.10914015352E+03  0.18041835316E+03  0.12499844600E+03 0.  0.
          2    1    1    2  501    0 -0.78906384557E+02 -0.89468906258E+01 -0.98527200759E+03  0.98846709268E+03  0.00000000000E+00 0. -1.
          1    1    1    2  502    0  0.37942722880E+02  0.66709992740E+02  0.77350489690E+03  0.77730283601E+03  0.00000000000E+00 0. -1.
         22    1    3    3    0    0 -0.26937060388E+01 -0.83893252962E+02 -0.96684745741E+02  0.12803622145E+03  0.00000000000E+00 0.  1.
         22    1    3    3    0    0  0.43657367716E+02  0.26130150848E+02 -0.12455407778E+02  0.52382131707E+02  0.00000000000E+00 0.  1.
</event>
<event>
 7    1  0.5779468E-006  0.8919590E+02  0.7818608E-02  0.1421054E+00
          2   -1    0    0  502    0  0.00000000000E+00  0.00000000000E+00  0.34535732380E+02  0.34535732380E+02  0.00000000000E+00 0. -1.
          1   -1    0    0  501    0 -0.00000000000E+00 -0.00000000000E+00 -0.64892166375E+03  0.64892166375E+03  0.00000000000E+00 0. -1.
         25    2    1    2    0    0 -0.87553173609E+02 -0.48519890828E+01 -0.40225027948E+03  0.43025343147E+03  0.12499451163E+03 0.  0.
          2    1    1    2  501    0  0.49856757875E+01 -0.33294841939E+02 -0.11631747755E+03  0.12109153169E+03  0.00000000000E+00 0. -1.
          1    1    1    2  502    0  0.82567497821E+02  0.38146831022E+02 -0.95818174336E+02  0.13211243298E+03  0.00000000000E+00 0. -1.
         22    1    3    3    0    0  0.88090473605E+01 -0.17628207525E+02 -0.37390886934E+01  0.20058260149E+02  0.00000000000E+00 0.  1.
         22    1    3    3    0    0 -0.96362220969E+02  0.12776218442E+02 -0.39851119079E+03  0.41019517132E+03  0.00000000000E+00 0.  1.
</event>
<event>
 7    1  0.5779468E-006  0.7590379E+02  0.7818608E-02  0.1418237E+00
          2   -1    0    0  502    0  0.00000000000E+00  0.00000000000E+00  0.12436896693E+04  0.12436896693E+04  0.00000000000E+00 0. -1.
          1   -1    0    0  501    0 -0.00000000000E+00 -0.00000000000E+00 -0.35982119352E+03  0.35982119352E+03  0.00000000000E+00 0. -1.
         25    2    1    2    0    0  0.39176531603E+02  0.92144395946E+02  0.76876793894E+02  0.17765742757E+03  0.12500691900E+03 0.  0.
          2    1    1    2  501    0  0.13493052996E+02 -0.38110471084E+02 -0.30682834559E+03  0.30948037763E+03  0.00000000000E+00 0. -1.
          1    1    1    2  502    0 -0.52669584599E+02 -0.54033924862E+02  0.11138200275E+04  0.11163730577E+04  0.00000000000E+00 0. -1.
         22    1    3    3    0    0  0.50752317985E+02  0.75113815887E+02 -0.73499053279E+01  0.90950009490E+02  0.00000000000E+00 0. -1.
         22    1    3    3    0    0 -0.11575786382E+02  0.17030580059E+02  0.84226699222E+02  0.86707418075E+02  0.00000000000E+00 0. -1.
</event>
<event>
 7    1  0.5779468E-006  0.3990481E+02  0.7818608E-02  0.1584371E+00
          2   -1    0    0  502    0  0.00000000000E+00  0.00000000000E+00  0.12216470035E+04  0.12216470035E+04  0.00000000000E+00 0. -1.
          1   -1    0    0  501    0 -0.00000000000E+00 -0.00000000000E+00 -0.13812784379E+02  0.13812784379E+02  0.00000000000E+00 0. -1.
         25    2    1    2    0    0 -0.42673723685E+02 -0.40485436612E+01  0.34464963893E+03  0.36911477576E+03  0.12499962667E+03 0.  0.
          2    1    1    2  501    0  0.35753032733E+02 -0.19471464233E+02  0.31603471482E+03  0.31864613326E+03  0.00000000000E+00 0. -1.
          1    1    1    2  502    0  0.69206909522E+01  0.23520007894E+02  0.54714986534E+03  0.54769887883E+03  0.00000000000E+00 0. -1.
         22    1    3    3    0    0 -0.37440255016E+02 -0.43316439347E+02  0.31359405308E+03  0.31877784857E+03  0.00000000000E+00 0. -1.
         22    1    3    3    0    0 -0.52334686696E+01  0.39267895686E+02  0.31055585853E+02  0.50336927187E+02  0.00000000000E+00 0. -1.
</event>
<event>
 7    1  0.5779468E-006  0.1069076E+03  0.7818608E-02  0.1377258E+00
          2   -1    0    0  502    0  0.00000000000E+00  0.00000000000E+00  0.28677439025E+03  0.28677439025E+03  0.00000000000E+00 0. -1.
          1   -1    0    0  501    0 -0.00000000000E+00 -0.00000000000E+00 -0.16698779767E+04  0.16698779767E+04  0.00000000000E+00 0. -1.
         25    2    1    2    0    0  0.13628629409E+03 -0.22311726958E+02  0.78207735056E+01  0.18643793225E+03  0.12500468378E+03 0.  0.
          2    1    1    2  501    0 -0.34030683494E+02  0.20544820370E+02 -0.15665108629E+04  0.15670151437E+04  0.00000000000E+00 0. -1.
          1    1    1    2  502    0 -0.10225561060E+03  0.17669065882E+01  0.17558650292E+03  0.20319929100E+03  0.00000000000E+00 0. -1.
         22    1    3    3    0    0  0.44558505602E+02  0.48581394859E+02 -0.16565047730E+02  0.67970678635E+02  0.00000000000E+00 0. -1.
         22    1    3    3    0    0  0.91727788489E+02 -0.70893121817E+02  0.24385821235E+02  0.11846725362E+03  0.00000000000E+00 0. -1.
</event>
<event>
 7    1  0.5779468E-006  0.1088788E+03  0.7818608E-02  0.1301559E+00
          2   -1    0    0  502    0  0.00000000000E+00  0.00000000000E+00  0.10604761696E+04  0.10604761696E+04  0.00000000000E+00 0. -1.
          1   -1    0    0  501    0 -0.00000000000E+00 -0.00000000000E+00 -0.19608447594E+04  0.19608447594E+04  0.00000000000E+00 0. -1.
         25    2    1    2    0    0 -0.10102543855E+02 -0.11191490192E+03  0.25224900567E+03  0.30311915329E+03  0.12499861424E+03 0.  0.
          2    1    1    2  501    0  0.76920700134E+02  0.77231478936E+02 -0.19320598739E+04  0.19351322570E+04  0.00000000000E+00 0. -1.
          1    1    1    2  502    0 -0.66818156279E+02  0.34683422987E+02  0.77944227846E+03  0.78306951881E+03  0.00000000000E+00 0. -1.
         22    1    3    3    0    0  0.46514590634E+01 -0.52381874674E+01 -0.14142841943E+02  0.15782732893E+02  0.00000000000E+00 0. -1.
         22    1    3    3    0    0 -0.14754002918E+02 -0.10667671446E+03  0.26639184762E+03  0.28733642039E+03  0.00000000000E+00 0. -1.
</event>
<event>
 7    1  0.5779468E-006  0.1444295E+03  0.7818608E-02  0.1221278E+00
          2   -1    0    0  502    0  0.00000000000E+00  0.00000000000E+00  0.11302164235E+04  0.11302164235E+04  0.00000000000E+00 0. -1.
          1   -1    0    0  501    0 -0.00000000000E+00 -0.00000000000E+00 -0.19094084580E+04  0.19094084580E+04  0.00000000000E+00 0. -1.
         25    2    1    2    0    0 -0.84371400258E+02 -0.13203527011E+03  0.16799361861E+03  0.26154234096E+03  0.12502277587E+03 0.  0.
          2    1    1    2  501    0 -0.62565442164E+02  0.10797637359E+03 -0.18544689255E+04  0.18586630484E+04  0.00000000000E+00 0. -1.
          1    1    1    2  502    0  0.14693684242E+03  0.24058896519E+02  0.90728327244E+03  0.91941949218E+03  0.00000000000E+00 0. -1.
         22    1    3    3    0    0 -0.26088108699E+02 -0.40981520285E+01  0.10359363463E+03  0.10690662000E+03  0.00000000000E+00 0. -1.
         22    1    3    3    0    0 -0.58283291559E+02 -0.12793711808E+03  0.64399983985E+02  0.15463572095E+03  0.00000000000E+00 0. -1.
</event>
<event>
 7    1  0.5779468E-006  0.1105931E+03  0.7818608E-02  0.1378729E+00
          2   -1    0    0  502    0  0.00000000000E+00  0.00000000000E+00  0.61907798378E+03  0.61907798378E+03  0.00000000000E+00 0. -1.
          1   -1    0    0  501    0 -0.00000000000E+00 -0.00000000000E+00 -0.14473651965E+04  0.14473651965E+04  0.00000000000E+00 0. -1.
         25    2    1    2    0    0 -0.81508234990E+02  0.64012806050E+02 -0.99629230666E+03  0.10094377444E+04  0.12499987149E+03 0.  0.
          2    1    1    2  501    0 -0.23687408166E+02 -0.29671751263E+02 -0.43867540059E+03  0.44031535655E+03  0.00000000000E+00 0. -1.
          1    1    1    2  502    0  0.10519564316E+03 -0.34341054787E+02  0.60668049456E+03  0.61669007927E+03  0.00000000000E+00 0. -1.
         22    1    3    3    0    0 -0.95717987603E+02  0.59438752912E+02 -0.48452959488E+03  0.49745736180E+03  0.00000000000E+00 0. -1.
         22    1    3    3    0    0  0.14209752612E+02  0.45740531380E+01 -0.51176271179E+03  0.51198038264E+03  0.00000000000E+00 0. -1.
</event>
<event>
 7    1  0.5779468E-006  0.1540318E+03  0.7818608E-02  0.1372434E+00
          2   -1    0    0  502    0  0.00000000000E+00  0.00000000000E+00  0.11176407007E+03  0.11176407007E+03  0.00000000000E+00 0. -1.
          1   -1    0    0  501    0 -0.00000000000E+00 -0.00000000000E+00 -0.50072526425E+03  0.50072526425E+03  0.00000000000E+00 0. -1.
         25    2    1    2    0    0 -0.13747161432E+03  0.10466402161E+03 -0.36017855562E+03  0.41857669952E+03  0.12499943715E+03 0.  0.
          2    1    1    2  501    0  0.28702895783E+02 -0.41386704440E+00 -0.32297585890E+02  0.43210664963E+02  0.00000000000E+00 0. -1.
          1    1    1    2  502    0  0.10876871853E+03 -0.10425015457E+03  0.35149473368E+01  0.15070196984E+03  0.00000000000E+00 0. -1.
         22    1    3    3    0    0  0.42455413910E+01  0.12547981626E+02 -0.14184989792E+03  0.14246708393E+03  0.00000000000E+00 0. -1.
         22    1    3    3    0    0 -0.14171715571E+03  0.92116039988E+02 -0.21832865770E+03  0.27610961559E+03  0.00000000000E+00 0. -1.
</event>
<event>
 7    1  0.5779468E-006  0.6709824E+02  0.7818608E-02  0.1438629E+00
          2   -1    0    0  502    0  0.00000000000E+00  0.00000000000E+00  0.14757149065E+04  0.14757149065E+04  0.00000000000E+00 0. -1.
          1   -1    0    0  501    0 -0.00000000000E+00 -0.00000000000E+00 -0.96551886718E+03  0.96551886718E+03  0.00000000000E+00 0. -1.
         25    2    1    2    0    0 -0.30325487615E+02  0.10535901665E+02 -0.12004281121E+03  0.17625577979E+03  0.12500073185E+03 0.  0.
          2    1    1    2  501    0  0.68879721283E+02 -0.36180478469E+01 -0.81564873656E+03  0.81855993533E+03  0.00000000000E+00 0. -1.
          1    1    1    2  502    0 -0.38554233668E+02 -0.69178538177E+01  0.14458875871E+04  0.14464180585E+04  0.00000000000E+00 0. -1.
         22    1    3    3    0    0  0.24175762508E+01 -0.49442083724E+02 -0.16464677535E+02  0.52167517904E+02  0.00000000000E+00 0.  1.
         22    1    3    3    0    0 -0.32743063866E+02  0.59977985389E+02 -0.10357813367E+03  0.12408826189E+03  0.00000000000E+00 0.  1.
</event>
<event>
 7    1  0.5779468E-006  0.1171165E+03  0.7818608E-02  0.1362029E+00
          2   -1    0    0  502    0  0.00000000000E+00  0.00000000000E+00  0.58677851136E+03  0.58677851136E+03  0.00000000000E+00 0. -1.
          1   -1    0    0  501    0 -0.00000000000E+00 -0.00000000000E+00 -0.20803018134E+03  0.20803018134E+03  0.00000000000E+00 0. -1.
         25    2    1    2    0    0 -0.32219586215E+02 -0.10505231278E+03  0.19756231153E+03  0.25832190630E+03  0.12500100072E+03 0.  0.
          2    1    1    2  501    0  0.71864164179E+02  0.93969902773E+02 -0.15656693652E+03  0.19623456966E+03  0.00000000000E+00 0. -1.
          1    1    1    2  502    0 -0.39644577964E+02  0.11082410011E+02  0.33775295501E+03  0.34025221673E+03  0.00000000000E+00 0. -1.
         22    1    3    3    0    0  0.52457472091E+01 -0.45076411671E+02 -0.31762319389E+01  0.45491638817E+02  0.00000000000E+00 0. -1.
         22    1    3    3    0    0 -0.37465333424E+02 -0.59975901113E+02  0.20073854347E+03  0.21283026748E+03  0.00000000000E+00 0. -1.
</event>
<event>
 7    1  0.5779468E-006  0.5735048E+02  0.7818608E-02  0.1499611E+00
          2   -1    0    0  502    0  0.00000000000E+00  0.00000000000E+00  0.89787543003E+03  0.89787543003E+03  0.00000000000E+00 0. -1.
          1   -1    0    0  501    0 -0.00000000000E+00 -0.00000000000E+00 -0.60524201276E+02  0.60524201276E+02  0.00000000000E+00 0. -1.
         25    2    1    2    0    0 -0.11647858493E+02 -0.37636354638E+02  0.58951334729E+03  0.60390589650E+03  0.12499670954E+03 0.  0.
          2    1    1    2  501    0  0.49459254156E+01 -0.29171425086E+02 -0.45111200805E+02  0.53948629805E+02  0.00000000000E+00 0. -1.
          1    1    1    2  502    0  0.67019330778E+01  0.66807779724E+02  0.29294908227E+03  0.30054510501E+03  0.00000000000E+00 0. -1.
         22    1    3    3    0    0 -0.70601472208E+01 -0.76183439793E+02  0.23197992968E+03  0.24427126305E+03  0.00000000000E+00 0.  1.
         22    1    3    3    0    0 -0.45877112725E+01  0.38547085155E+02  0.35753341761E+03  0.35963463345E+03  0.00000000000E+00 0.  1.
</event>
<event>
 7    1  0.5779468E-006  0.4778047E+02  0.7818608E-02  0.1461487E+00
          2   -1    0    0  502    0  0.00000000000E+00  0.00000000000E+00  0.61941045385E+03  0.61941045385E+03  0.00000000000E+00 0. -1.
          1   -1    0    0  501    0 -0.00000000000E+00 -0.00000000000E+00 -0.11431381304E+04  0.11431381304E+04  0.00000000000E+00 0. -1.
         25    2    1    2    0    0 -0.50962713498E+02  0.25562557211E+00 -0.94024432379E+02  0.16449792034E+03  0.12498683291E+03 0.  0.
          2    1    1    2  501    0  0.26770835721E+02 -0.39945450987E+02 -0.10123807529E+04  0.10135221288E+04  0.00000000000E+00 0. -1.
          1    1    1    2  502    0  0.24191877777E+02  0.39689825414E+02  0.58267750873E+03  0.58452853512E+03  0.00000000000E+00 0. -1.
         22    1    3    3    0    0 -0.61254531705E+02  0.48244872386E+02 -0.83608537168E+02  0.11432441932E+03  0.00000000000E+00 0. -1.
         22    1    3    3    0    0  0.10291818207E+02 -0.47989246814E+02 -0.10415895211E+02  0.50173501022E+02  0.00000000000E+00 0. -1.
</event>
<event>
 7    1  0.5779468E-006  0.7745226E+02  0.7818608E-02  0.1357356E+00
          2   -1    0    0  502    0  0.00000000000E+00  0.00000000000E+00  0.26509331106E+04  0.26509331106E+04  0.00000000000E+00 0. -1.
          1   -1    0    0  501    0 -0.00000000000E+00 -0.00000000000E+00 -0.67154000125E+03  0.67154000125E+03  0.00000000000E+00 0. -1.
         25    2    1    2    0    0  0.63877507333E+02 -0.81108655433E+02  0.82314424137E+03  0.83895849076E+03  0.12500382866E+03 0.  0.
          2    1    1    2  501    0 -0.64601281349E+02  0.42321395456E+01 -0.66123939837E+03  0.66440106751E+03  0.00000000000E+00 0. -1.
          1    1    1    2  502    0  0.72377401648E+00  0.76876515887E+02  0.18174882664E+04  0.18191135536E+04  0.00000000000E+00 0. -1.
         22    1    3    3    0    0 -0.77376835342E+01 -0.60673237364E+02  0.15429881611E+03  0.16597963167E+03  0.00000000000E+00 0.  1.
         22    1    3    3    0    0  0.71615190867E+02 -0.20435418069E+02  0.66884542527E+03  0.67297885909E+03  0.00000000000E+00 0.  1.
</event>
<event>
 7    1  0.5779468E-006  0.4699821E+02  0.7818608E-02  0.1472907E+00
          2   -1    0    0  502    0  0.00000000000E+00  0.00000000000E+00  0.86505705090E+03  0.86505705090E+03  0.00000000000E+00 0. -1.
          1   -1    0    0  501    0 -0.00000000000E+00 -0.00000000000E+00 -0.17076581443E+04  0.17076581443E+04  0.00000000000E+00 0. -1.
         25    2    1    2    0    0  0.35680697746E+02  0.59749365249E+02 -0.72885560259E+02  0.16056272897E+03  0.12499994480E+03 0.  0.
          2    1    1    2  501    0 -0.43757252001E+02 -0.16975747896E+02 -0.15900106406E+04  0.15907032125E+04  0.00000000000E+00 0. -1.
          1    1    1    2  502    0  0.80765542546E+01 -0.42773617353E+02  0.82029510747E+03  0.82144925370E+03  0.00000000000E+00 0. -1.
         22    1    3    3    0    0 -0.31263523438E+01  0.55933648389E+02 -0.98916246664E+02  0.11367836626E+03  0.00000000000E+00 0. -1.
         22    1    3    3    0    0  0.38807050090E+02  0.38157168603E+01  0.26030686405E+02  0.46884362708E+02  0.00000000000E+00 0. -1.
</event>
<event>
 7    1  0.5779468E-006  0.1196028E+03  0.7818608E-02  0.1306173E+00
          2   -1    0    0  502    0  0.00000000000E+00  0.00000000000E+00  0.37545353410E+02  0.37545353410E+02  0.00000000000E+00 0. -1.
          1   -1    0    0  501    0 -0.00000000000E+00 -0.00000000000E+00 -0.10211201111E+04  0.10211201111E+04  0.00000000000E+00 0. -1.
         25    2    1    2    0    0 -0.89839387315E+02 -0.77570159486E+01 -0.46192393865E+03  0.48695279704E+03  0.12497205542E+03 0.  0.
          2    1    1    2  501    0 -0.27820977680E+02 -0.59514841838E+02 -0.33302436205E+03  0.33944255614E+03  0.00000000000E+00 0. -1.
          1    1    1    2  502    0  0.11766036499E+03  0.67271857787E+02 -0.18862645697E+03  0.23227011131E+03  0.00000000000E+00 0. -1.
         22    1    3    3    0    0 -0.45049574125E+02 -0.11538506816E+02 -0.36384610038E+02  0.59046093147E+02  0.00000000000E+00 0. -1.
         22    1    3    3    0    0 -0.44789813190E+02  0.37814908672E+01 -0.42553932861E+03  0.42790670389E+03  0.00000000000E+00 0. -1.
</event>
<event>
 7    1  0.5779468E-006  0.5736417E+02  0.7818608E-02  0.1414819E+00
          2   -1    0    0  502    0  0.00000000000E+00  0.00000000000E+00  0.57940326760E+02  0.57940326760E+02  0.00000000000E+00 0. -1.
          1   -1    0    0  501    0 -0.00000000000E+00 -0.00000000000E+00 -0.39281284549E+03  0.39281284549E+03  0.00000000000E+00 0. -1.
         25    2    1    2    0    0 -0.49123531158E+02  0.53107227684E+00 -0.16601724854E+03  0.21354240894E+03  0.12500092101E+03 0.  0.
          2    1    1    2  501    0  0.36132000847E+02  0.52837201123E+02 -0.17064446889E+03  0.18225483826E+03  0.00000000000E+00 0. -1.
          1    1    1    2  502    0  0.12991530311E+02 -0.53368273400E+02  0.17891987004E+01  0.54955925045E+02  0.00000000000E+00 0. -1.
         22    1    3    3    0    0 -0.49023413636E+02 -0.35837164978E+02 -0.16643969312E+03  0.17717158047E+03  0.00000000000E+00 0.  1.
         22    1    3    3    0    0 -0.10011752183E+00  0.36368237255E+02  0.42244458267E+00  0.36370828475E+02  0.00000000000E+00 0.  1.
</event>
<event>
 7    1  0.5779468E-006  0.1708176E+03  0.7818608E-02  0.1250212E+00
          2   -1    0    0  502    0  0.00000000000E+00  0.00000000000E+00  0.58493458977E+03  0.58493458977E+03  0.00000000000E+00 0. -1.
          1   -1    0    0  501    0 -0.00000000000E+00 -0.00000000000E+00 -0.18005205580E+04  0.18005205580E+04  0.00000000000E+00 0. -1.
         25    2    1    2    0    0  0.61589042889E+02  0.23172254872E+03 -0.23245327803E+03  0.35657652315E+03  0.12499496233E+03 0.  0.
          2    1    1    2  501    0 -0.63450183793E+02 -0.15325862943E+03 -0.14984579298E+04  0.15076107922E+04  0.00000000000E+00 0. -1.
          1    1    1    2  502    0  0.18611409047E+01 -0.78463919298E+02  0.51532523964E+03  0.52126783239E+03  0.00000000000E+00 0. -1.
         22    1    3    3    0    0  0.88103562478E+02  0.20944066753E+03 -0.22759982461E+03  0.32160427717E+03  0.00000000000E+00 0.  1.
         22    1    3    3    0    0 -0.26514519590E+02  0.22281881199E+02 -0.48534534178E+01  0.34972245980E+02  0.00000000000E+00 0.  1.
</event>
<event>
 7    1  0.5779468E-006  0.1428390E+03  0.7818608E-02  0.1328763E+00
          2   -1    0    0  502    0  0.00000000000E+00  0.00000000000E+00  0.30826462804E+04  0.30826462804E+04  0.00000000000E+00 0. -1.
          1   -1    0    0  501    0 -0.00000000000E+00 -0.00000000000E+00 -0.64534351800E+03  0.64534351800E+03  0.00000000000E+00 0. -1.
         25    2    1    2    0    0 -0.14021427186E+03  0.10437800377E+03  0.12050278760E+04  0.12240391458E+04  0.12499935581E+03 0.  0.
          2    1    1    2  501    0  0.22101545183E+02 -0.39106416991E+02 -0.63260334637E+03  0.63419617153E+03  0.00000000000E+00 0. -1.
          1    1    1    2  502    0  0.11811272668E+03 -0.65271586777E+02  0.18648782328E+04  0.18697544811E+04  0.00000000000E+00 0. -1.
         22    1    3    3    0    0 -0.15604227891E+03  0.11320086933E+03  0.11515420039E+04  0.11675669644E+04  0.00000000000E+00 0.  1.
         22    1    3    3    0    0  0.15828007047E+02 -0.88228655610E+01  0.53485872085E+02  0.56472181439E+02  0.00000000000E+00 0.  1.
</event>
<event>
 7    1  0.5779468E-006  0.1364870E+03  0.7818608E-02  0.1346116E+00
          2   -1    0    0  502    0  0.00000000000E+00  0.00000000000E+00  0.92773406047E+03  0.92773406047E+03  0.00000000000E+00 0. -1.
          1   -1    0    0  501    0 -0.00000000000E+00 -0.00000000000E+00 -0.13534291512E+04  0.13534291512E+04  0.00000000000E+00 0. -1.
         25    2    1    2    0    0  0.16152299696E+03 -0.67649764593E+02  0.14995901796E+03  0.26225928579E+03  0.12500422682E+03 0.  0.
          2    1    1    2  501    0 -0.12181132118E+03  0.60088991722E+02 -0.12931532408E+04  0.13002668915E+04  0.00000000000E+00 0. -1.
          1    1    1    2  502    0 -0.39711675784E+02  0.75607728709E+01  0.71749913217E+03  0.71863703435E+03  0.00000000000E+00 0. -1.
         22    1    3    3    0    0  0.12197466690E+03 -0.15323854250E+02  0.15339715410E+03  0.19657905982E+03  0.00000000000E+00 0.  1.
         22    1    3    3    0    0  0.39548330061E+02 -0.52325910343E+02 -0.34381361419E+01  0.65680225974E+02  0.00000000000E+00 0.  1.
</event>
<event>
 7    1  0.5779468E-006  0.6122245E+02  0.7818608E-02  0.1396258E+00
          2   -1    0    0  502    0  0.00000000000E+00  0.00000000000E+00  0.16319312252E+04  0.16319312252E+04  0.00000000000E+00 0. -1.
          1   -1    0    0  501    0 -0.00000000000E+00 -0.00000000000E+00 -0.11810462112E+03  0.11810462112E+03  0.00000000000E+00 0. -1.
         25    2    1    2    0    0 -0.38696227612E+02 -0.25148708915E+02  0.25749803519E+03  0.28993197349E+03  0.12500182211E+03 0.  0.
          2    1    1    2  501    0 -0.11695498233E+02  0.60094956980E+02 -0.91930502914E+02  0.11045092077E+03  0.00000000000E+00 0. -1.
          1    1    1    2  502    0  0.50391725845E+02 -0.34946248065E+02  0.13482590718E+04  0.13496529520E+04  0.00000000000E+00 0. -1.
         22    1    3    3    0    0 -0.16144253852E+02 -0.16005401604E+02 -0.74084165198E+01  0.23910132753E+02  0.00000000000E+00 0.  1.
         22    1    3    3    0    0 -0.22551973760E+02 -0.91433073105E+01  0.26490645171E+03  0.26602184073E+03  0.00000000000E+00 0.  1.
</event>
<event>
 7    1  0.5779468E-006  0.6656549E+02  0.7818608E-02  0.1398828E+00
          2   -1    0    0  502    0  0.00000000000E+00  0.00000000000E+00  0.22412346059E+03  0.22412346059E+03  0.00000000000E+00 0. -1.
          1   -1    0    0  501    0 -0.00000000000E+00 -0.00000000000E+00 -0.25436786273E+03  0.25436786273E+03  0.00000000000E+00 0. -1.
         25    2    1    2    0    0  0.39088735676E+02  0.77766906481E+01 -0.40561028251E+02  0.13732577935E+03  0.12499906595E+03 0.  0.
          2    1    1    2  501    0 -0.54500328361E+01  0.53378682711E+02 -0.15376399347E+03  0.16285684608E+03  0.00000000000E+00 0. -1.
          1    1    1    2  502    0 -0.33638702840E+02 -0.61155373359E+02  0.16408061958E+03  0.17830869788E+03  0.00000000000E+00 0. -1.
         22    1    3    3    0    0 -0.42871024465E+02  0.13774307094E+02  0.14054067112E+01  0.45051431083E+02  0.00000000000E+00 0.  1.
         22    1    3    3    0    0  0.81959760142E+02 -0.59976164460E+01 -0.41966434962E+02  0.92274348271E+02  0.00000000000E+00 0.  1.
</event>
<event>
 7    1  0.1045133E-005  0.4892957E+02  0.7818608E-02  0.1575466E+00
          2   -1    0    0  502    0  0.00000000000E+00  0.00000000000E+00  0.17857265428E+04  0.17857265428E+04  0.00000000000E+00 0. -1.
          1   -1    0    0  501    0 -0.00000000000E+00 -0.00000000000E+00 -0.93266756338E+03  0.93266756338E+03  0.00000000000E+00 0. -1.
         25    2    1    2    0    0  0.28533082668E+02  0.46418962697E+02 -0.38347808401E+03  0.40700019667E+03  0.12499944906E+03 0.  0.
          2    1    1    2  501    0  0.11222781190E+02 -0.17897662435E+02 -0.53688327592E+03  0.53729873357E+03  0.00000000000E+00 0. -1.
          1    1    1    2  502    0 -0.39755863858E+02 -0.28521300262E+02  0.17734203393E+04  0.17740951759E+04  0.00000000000E+00 0. -1.
         22    1    3    3    0    0 -0.25425655927E+02  0.33290624332E+02 -0.31970313042E+03  0.32243576298E+03  0.00000000000E+00 0.  1.
         22    1    3    3    0    0  0.53958738595E+02  0.13128338365E+02 -0.63774953590E+02  0.84564433684E+02  0.00000000000E+00 0.  1.
</event>
<event>
 7    1  0.5779468E-006  0.1028049E+03  0.7818608E-02  0.1390741E+00
          2   -1    0    0  502    0  0.00000000000E+00  0.00000000000E+00  0.29296565421E+04  0.29296565421E+04  0.00000000000E+00 0. -1.
          1   -1    0    0  501    0 -0.00000000000E+00 -0.00000000000E+00 -0.10509572126E+03  0.10509572126E+03  0.00000000000E+00 0. -1.
         25    2    1    2    0    0  0.29864761769E+02 -0.63582230716E+02  0.14003388891E+02  0.14406720252E+03  0.12499863953E+03 0.  0.
          2    1    1    2  501    0 -0.51141328282E+01 -0.36702955280E+02 -0.30350399510E+02  0.47899979450E+02  0.00000000000E+00 0. -1.
          1    1    1    2  502    0 -0.24750628940E+02  0.10028518600E+03  0.28409078315E+04  0.28427850814E+04  0.00000000000E+00 0. -1.
         22    1    3    3    0    0  0.48890918138E+02 -0.34464355866E+02  0.61108127184E+02  0.85512086337E+02  0.00000000000E+00 0.  1.
         22    1    3    3    0    0 -0.19026156370E+02 -0.29117874849E+02 -0.47104738293E+02  0.58555116186E+02  0.00000000000E+00 0.  1.
</event>
<event>
 7    1  0.5779468E-006  0.8531604E+02  0.7818608E-02  0.1416475E+00
          2   -1    0    0  502    0  0.00000000000E+00  0.00000000000E+00  0.32145028171E+03  0.32145028171E+03  0.00000000000E+00 0. -1.
          1   -1    0    0  501    0 -0.00000000000E+00 -0.00000000000E+00 -0.59173953632E+03  0.59173953632E+03  0.00000000000E+00 0. -1.
         25    2    1    2    0    0 -0.55282484795E+02  0.24523269292E+01  0.10991932984E+03  0.17541243621E+03  0.12500038669E+03 0.  0.
          2    1    1    2  501    0  0.83578568718E+02  0.20541785008E+02 -0.55377475621E+03  0.56042289630E+03  0.00000000000E+00 0. -1.
          1    1    1    2  502    0 -0.28296083922E+02 -0.22994111937E+02  0.17356617177E+03  0.17735448552E+03  0.00000000000E+00 0. -1.
         22    1    3    3    0    0 -0.50198259334E+02  0.94134975352E+01  0.13741386604E+03  0.14659825973E+03  0.00000000000E+00 0.  1.
         22    1    3    3    0    0 -0.50842254614E+01 -0.69611706060E+01 -0.27494536208E+02  0.28814176477E+02  0.00000000000E+00 0.  1.
</event>
<event>
 7    1  0.5779468E-006  0.4378752E+02  0.7818608E-02  0.1552269E+00
          2   -1    0    0  502    0  0.00000000000E+00  0.00000000000E+00  0.69870309492E+02  0.69870309492E+02  0.00000000000E+00 0. -1.
          1   -1    0    0  501    0 -0.00000000000E+00 -0.00000000000E+00 -0.85706616581E+03  0.85706616581E+03  0.00000000000E+00 0. -1.
         25    2    1    2    0    0  0.50117484104E+02  0.44487486309E+02 -0.17575411513E+03  0.22584253655E+03  0.12499777469E+03 0.  0.
          2    1    1    2  501    0 -0.38363930716E+02 -0.19819521910E+02 -0.65132126176E+03  0.65275109394E+03  0.00000000000E+00 0. -1.
          1    1    1    2  502    0 -0.11753553388E+02 -0.24667964399E+02  0.39879520561E+02  0.48342844817E+02  0.00000000000E+00 0. -1.
         22    1    3    3    0    0  0.84383318825E+01 -0.31060010778E+02 -0.24879855613E+01  0.32281880160E+02  0.00000000000E+00 0. -1.
         22    1    3    3    0    0  0.41679152221E+02  0.75547497087E+02 -0.17326612957E+03  0.19356065639E+03  0.00000000000E+00 0. -1.
</event>
<event>
 7    1  0.5779468E-006  0.3986913E+02  0.7818608E-02  0.1570855E+00
          2   -1    0    0  502    0  0.00000000000E+00  0.00000000000E+00  0.44815190175E+03  0.44815190175E+03  0.00000000000E+00 0. -1.
          1   -1    0    0  501    0 -0.00000000000E+00 -0.00000000000E+00 -0.10019772101E+03  0.10019772101E+03  0.00000000000E+00 0. -1.
         25    2    1    2    0    0  0.10004115494E+02  0.64336806527E+02  0.71543177046E+02  0.15805874916E+03  0.12499934001E+03 0.  0.
          2    1    1    2  501    0 -0.61137315416E+01 -0.37940327238E+02 -0.49848490318E+02  0.62942180859E+02  0.00000000000E+00 0. -1.
          1    1    1    2  502    0 -0.38903839525E+01 -0.26396479289E+02  0.32625949401E+03  0.32734869274E+03  0.00000000000E+00 0. -1.
         22    1    3    3    0    0  0.36754706805E+01  0.37781661535E+02  0.10687108705E+03  0.11341248732E+03  0.00000000000E+00 0. -1.
         22    1    3    3    0    0  0.63286448137E+01  0.26555144992E+02 -0.35327910005E+02  0.44646261837E+02  0.00000000000E+00 0. -1.
</event>
<event>
 7    1  0.5779468E-006  0.8724139E+02  0.7818608E-02  0.1343613E+00
          2   -1    0    0  502    0  0.00000000000E+00  0.00000000000E+00  0.44981433689E+03  0.44981433689E+03  0.00000000000E+00 0. -1.
          1   -1    0    0  501    0 -0.00000000000E+00 -0.00000000000E+00 -0.10863233144E+03  0.10863233144E+03  0.00000000000E+00 0. -1.
         25    2    1    2    0    0  0.21498498054E+02  0.31823946334E+02  0.84844150465E+02  0.15588124401E+03  0.12500193354E+03 0.  0.
          2    1    1    2  501    0 -0.66138468142E+02 -0.78546666421E+02 -0.31623466127E+02  0.10744263299E+03  0.00000000000E+00 0. -1.
          1    1    1    2  502    0  0.44639970088E+02  0.46722720087E+02  0.28796132111E+03  0.29512279132E+03  0.00000000000E+00 0. -1.
         22    1    3    3    0    0  0.67148757518E+02  0.39568152270E+00  0.73037499524E+02  0.99214860463E+02  0.00000000000E+00 0.  1.
         22    1    3    3    0    0 -0.45650259464E+02  0.31428264811E+02  0.11806650941E+02  0.56666383550E+02  0.00000000000E+00 0.  1.
</event>
<event>
 7    1  0.5779468E-006  0.5284290E+02  0.7818608E-02  0.1442530E+00
          2   -1    0    0  502    0  0.00000000000E+00  0.00000000000E+00  0.49184207547E+03  0.49184207547E+03  0.00000000000E+00 0. -1.
          1   -1    0    0  501    0 -0.00000000000E+00 -0.00000000000E+00 -0.28811749736E+03  0.28811749736E+03  0.00000000000E+00 0. -1.
         25    2    1    2    0    0  0.75263622842E+01  0.23337334183E+02  0.38589699185E+02  0.13309977583E+03  0.12500043259E+03 0.  0.
          2    1    1    2  501    0  0.46160064546E+02 -0.14247945618E+02 -0.23658485463E+03  0.24146666220E+03  0.00000000000E+00 0. -1.
          1    1    1    2  502    0 -0.53686426830E+02 -0.90893885655E+01  0.40171973356E+03  0.40539313480E+03  0.00000000000E+00 0. -1.
         22    1    3    3    0    0 -0.41968236078E+02  0.28542294881E+02  0.60288133063E+02  0.78807705364E+02  0.00000000000E+00 0. -1.
         22    1    3    3    0    0  0.49494598362E+02 -0.52049606981E+01 -0.21698433877E+02  0.54292070467E+02  0.00000000000E+00 0. -1.
</event>
<event>
 7    1  0.5779468E-006  0.4498650E+02  0.7818608E-02  0.1522246E+00
          2   -1    0    0  502    0  0.00000000000E+00  0.00000000000E+00  0.20470742680E+03  0.20470742680E+03  0.00000000000E+00 0. -1.
          1   -1    0    0  501    0 -0.00000000000E+00 -0.00000000000E+00 -0.17750347871E+04  0.17750347871E+04  0.00000000000E+00 0. -1.
         25    2    1    2    0    0  0.60097402428E+02 -0.11198859241E+01  0.45923934746E+02  0.14610628136E+03  0.12500034298E+03 0.  0.
          2    1    1    2  501    0 -0.21964536195E+02  0.23764943355E+02 -0.17202610551E+04  0.17205654045E+04  0.00000000000E+00 0. -1.
          1    1    1    2  502    0 -0.38132866233E+02 -0.22645057431E+02  0.10400976010E+03  0.11307052803E+03  0.00000000000E+00 0. -1.
         22    1    3    3    0    0 -0.19877495990E+02  0.12524106003E+02 -0.27858910536E+02  0.36442927630E+02  0.00000000000E+00 0.  1.
         22    1    3    3    0    0  0.79974898419E+02 -0.13643991927E+02  0.73782845281E+02  0.10966335373E+03  0.00000000000E+00 0.  1.
</event>
<event>
 7    1  0.5779468E-006  0.4926279E+02  0.7818608E-02  0.1577070E+00
          2   -1    0    0  502    0  0.00000000000E+00  0.00000000000E+00  0.12752235946E+04  0.12752235946E+04  0.00000000000E+00 0. -1.
          1   -1    0    0  501    0 -0.00000000000E+00 -0.00000000000E+00 -0.25725823696E+02  0.25725823696E+02  0.00000000000E+00 0. -1.
         25    2    1    2    0    0  0.41375690751E+02  0.34215278870E+02  0.50635235638E+03  0.52431720754E+03  0.12503276459E+03 0.  0.
          2    1    1    2  501    0 -0.47117177330E+02 -0.14249769863E+02  0.19910651842E+02  0.53099137446E+02  0.00000000000E+00 0. -1.
          1    1    1    2  502    0  0.57414865787E+01 -0.19965509007E+02  0.72323476272E+03  0.72353307335E+03  0.00000000000E+00 0. -1.
         22    1    3    3    0    0  0.32183063765E+02 -0.36621165596E+02  0.94691777551E+02  0.10650536183E+03  0.00000000000E+00 0.  1.
         22    1    3    3    0    0  0.91926269859E+01  0.70836444466E+02  0.41166057883E+03  0.41781184571E+03  0.00000000000E+00 0.  1.
</event>
<event>
 7    1  0.5779468E-006  0.1585215E+03  0.7818608E-02  0.1339393E+00
          2   -1    0    0  502    0  0.00000000000E+00  0.00000000000E+00  0.21389550130E+03  0.21389550130E+03  0.00000000000E+00 0. -1.
          1   -1    0    0  501    0 -0.00000000000E+00 -0.00000000000E+00 -0.11884741416E+04  0.11884741416E+04  0.00000000000E+00 0. -1.
         25    2    1    2    0    0  0.33811753577E+02 -0.15917220160E+03 -0.27928460862E+03  0.34655991718E+03  0.12499943657E+03 0.  0.
          2    1    1    2  501    0  0.30627427362E+01  0.15833783321E+03 -0.86640948393E+03  0.88076423841E+03  0.00000000000E+00 0. -1.
          1    1    1    2  502    0 -0.36874496313E+02  0.83436839396E+00  0.17111545222E+03  0.17504548734E+03  0.00000000000E+00 0. -1.
         22    1    3    3    0    0  0.21465321698E+02 -0.17727179487E+03 -0.26765977433E+03  0.32175736835E+03  0.00000000000E+00 0. -1.
         22    1    3    3    0    0  0.12346431878E+02  0.18099593264E+02 -0.11624834283E+02  0.24802548832E+02  0.00000000000E+00 0. -1.
</event>
<event>
 7    1  0.5779468E-006  0.5994898E+02  0.7818608E-02  0.1453777E+00
          2   -1    0    0  502    0  0.00000000000E+00  0.00000000000E+00  0.10957821562E+04  0.10957821562E+04  0.00000000000E+00 0. -1.
          1   -1    0    0  501    0 -0.00000000000E+00 -0.00000000000E+00 -0.45882046458E+03  0.45882046458E+03  0.00000000000E+00 0. -1.
         25    2    1    2    0    0  0.10558104848E+02 -0.62248544657E+02 -0.18340953195E+03  0.23076070121E+03  0.12500035969E+03 0.  0.
          2    1    1    2  501    0 -0.38144818067E+02  0.89806634850E+01 -0.24936482990E+03  0.25242523220E+03  0.00000000000E+00 0. -1.
          1    1    1    2  502    0  0.27586713218E+02  0.53267881172E+02  0.10697360535E+04  0.10714166874E+04  0.00000000000E+00 0. -1.
         22    1    3    3    0    0 -0.42010038921E+02  0.16372207288E+02 -0.51468236967E+02  0.68424205937E+02  0.00000000000E+00 0.  1.
         22    1    3    3    0    0  0.52568143769E+02 -0.78620751945E+02 -0.13194129498E+03  0.16233649527E+03  0.00000000000E+00 0.  1.
</event>
<event>
 7    1  0.5779468E-006  0.6222874E+02  0.7818608E-02  0.1391356E+00
          2   -1    0    0  502    0  0.00000000000E+00  0.00000000000E+00  0.19734266597E+04  0.19734266597E+04  0.00000000000E+00 0. -1.
          1   -1    0    0  501    0 -0.00000000000E+00 -0.00000000000E+00 -0.87829349558E+02  0.87829349558E+02  0.00000000000E+00 0. -1.
         25    2    1    2    0    0  0.30395895480E+02  0.45100732561E+02  0.10052638317E+03  0.16937741016E+03  0.12500066727E+03 0.  0.
          2    1    1    2  501    0 -0.60049283196E+02  0.10261270993E+02 -0.35311011483E+02  0.70413618191E+02  0.00000000000E+00 0. -1.
          1    1    1    2  502    0  0.29653387717E+02 -0.55362003554E+02  0.18203819385E+04  0.18214649810E+04  0.00000000000E+00 0. -1.
         22    1    3    3    0    0  0.16230264161E+02 -0.43174142228E+02  0.25755114083E+02  0.52827586859E+02  0.00000000000E+00 0.  1.
         22    1    3    3    0    0  0.14165631318E+02  0.88274874789E+02  0.74771269091E+02  0.11654982330E+03  0.00000000000E+00 0.  1.
</event>
<event>
 7    1  0.5779468E-006  0.1005577E+03  0.7818608E-02  0.1364601E+00
          2   -1    0    0  502    0  0.00000000000E+00  0.00000000000E+00  0.78984348073E+03  0.78984348073E+03  0.00000000000E+00 0. -1.
          1   -1    0    0  501    0 -0.00000000000E+00 -0.00000000000E+00 -0.15837376307E+03  0.15837376307E+03  0.00000000000E+00 0. -1.
         25    2    1    2    0    0  0.48699704697E+02 -0.79167176556E+02  0.27285928524E+03  0.31419060287E+03  0.12499776920E+03 0.  0.
          2    1    1    2  501    0 -0.39578131912E+02 -0.25206588128E+02 -0.12796613699E+03  0.13629795607E+03  0.00000000000E+00 0. -1.
          1    1    1    2  502    0 -0.91215727851E+01  0.10437376468E+03  0.48657656941E+03  0.49772868487E+03  0.00000000000E+00 0. -1.
         22    1    3    3    0    0  0.40961237295E+02  0.26401139778E+02  0.10476513018E+03  0.11554469111E+03  0.00000000000E+00 0. -1.
         22    1    3    3    0    0  0.77384674014E+01 -0.10556831633E+03  0.16809415507E+03  0.19864591176E+03  0.00000000000E+00 0. -1.
</event>
<event>
 7    1  0.5779468E-006  0.9075961E+02  0.7818608E-02  0.1472522E+00
          2   -1    0    0  502    0  0.00000000000E+00  0.00000000000E+00  0.17683426913E+03  0.17683426913E+03  0.00000000000E+00 0. -1.
          1   -1    0    0  501    0 -0.00000000000E+00 -0.00000000000E+00 -0.22864127818E+03  0.22864127818E+03  0.00000000000E+00 0. -1.
         25    2    1    2    0    0 -0.42529489419E+01 -0.11046676624E+03  0.21918284956E+02  0.16830582269E+03  0.12500177886E+03 0.  0.
          2    1    1    2  501    0  0.59916662245E+01  0.87930729460E+02 -0.14095568161E+03  0.16624144317E+03  0.00000000000E+00 0. -1.
          1    1    1    2  502    0 -0.17387172826E+01  0.22536036777E+02  0.67230387606E+02  0.70928281447E+02  0.00000000000E+00 0. -1.
         22    1    3    3    0    0 -0.52275933704E+02 -0.92272921413E+02  0.40744615635E+02  0.11360981020E+03  0.00000000000E+00 0.  1.
         22    1    3    3    0    0  0.48022984762E+02 -0.18193844824E+02 -0.18826330679E+02  0.54696012486E+02  0.00000000000E+00 0.  1.
</event>
<event>
 7    1  0.5779468E-006  0.4781052E+02  0.7818608E-02  0.1497251E+00
          2   -1    0    0  502    0  0.00000000000E+00  0.00000000000E+00  0.16059398873E+04  0.16059398873E+04  0.00000000000E+00 0. -1.
          1   -1    0    0  501    0 -0.00000000000E+00 -0.00000000000E+00 -0.17214638794E+03  0.17214638794E+03  0.00000000000E+00 0. -1.
         25    2    1    2    0    0  0.54928773707E+02  0.28418176672E+02  0.18469962491E+03  0.23143822928E+03  0.12499975834E+03 0.  0.
          2    1    1    2  501    0 -0.33197092763E+02  0.14114550003E+02 -0.14617582117E+03  0.15056107792E+03  0.00000000000E+00 0. -1.
          1    1    1    2  502    0 -0.21731680944E+02 -0.42532726675E+02  0.13952696956E+04  0.13960869680E+04  0.00000000000E+00 0. -1.
         22    1    3    3    0    0  0.30613542797E+02  0.34712710245E+02  0.19777735990E+03  0.20312076542E+03  0.00000000000E+00 0.  1.
         22    1    3    3    0    0  0.24315230909E+02 -0.62945335730E+01 -0.13077734991E+02  0.28317463862E+02  0.00000000000E+00 0.  1.
</event>
<event>
 7    1  0.5779468E-006  0.6389600E+02  0.7818608E-02  0.1426727E+00
          2   -1    0    0  502    0  0.00000000000E+00  0.00000000000E+00  0.70426426156E+03  0.70426426156E+03  0.00000000000E+00 0. -1.
          1   -1    0    0  501    0 -0.00000000000E+00 -0.00000000000E+00 -0.25067397547E+03  0.25067397547E+03  0.00000000000E+00 0. -1.
         25    2    1    2    0    0 -0.16099716961E+02  0.61711059825E+02  0.63753070805E+02  0.15412875680E+03  0.12499505529E+03 0.  0.
          2    1    1    2  501    0  0.53341832438E+02 -0.36450171202E+02 -0.19952892305E+03  0.20972781695E+03  0.00000000000E+00 0. -1.
          1    1    1    2  502    0 -0.37242115477E+02 -0.25260888623E+02  0.58936613833E+03  0.59108166328E+03  0.00000000000E+00 0. -1.
         22    1    3    3    0    0 -0.22127863874E+02  0.97394079491E+01 -0.34902610383E+02  0.42458104507E+02  0.00000000000E+00 0. -1.
         22    1    3    3    0    0  0.60281469135E+01  0.51971651876E+02  0.98655681187E+02  0.11167065230E+03  0.00000000000E+00 0. -1.
</event>
<event>
 7    1  0.5779468E-006  0.9523019E+02  0.7818608E-02  0.1376771E+00
          2   -1    0    0  502    0  0.00000000000E+00  0.00000000000E+00  0.10759885374E+03  0.10759885374E+03  0.00000000000E+00 0. -1.
          1   -1    0    0  501    0 -0.00000000000E+00 -0.00000000000E+00 -0.69978381896E+03  0.69978381896E+03  0.00000000000E+00 0. -1.
         25    2    1    2    0    0 -0.86128475843E+02  0.11120783651E+02 -0.11381049285E+02  0.15263147767E+03  0.12500021406E+03 0.  0.
          2    1    1    2  501    0  0.90183563293E+02  0.33499798562E+02 -0.59879168205E+03  0.60647076606E+03  0.00000000000E+00 0. -1.
          1    1    1    2  502    0 -0.40550874502E+01 -0.44620582213E+02  0.17987766115E+02  0.48280428966E+02  0.00000000000E+00 0. -1.
         22    1    3    3    0    0  0.16768301003E+02 -0.22043530796E+02  0.26250406788E+02  0.38159887644E+02  0.00000000000E+00 0.  1.
         22    1    3    3    0    0 -0.10289677685E+03  0.33164314447E+02 -0.37631456073E+02  0.11447159003E+03  0.00000000000E+00 0.  1.
</event>
<event>
 7    1  0.5779468E-006  0.7128270E+02  0.7818608E-02  0.1419988E+00
          2   -1    0    0  502    0  0.00000000000E+00  0.00000000000E+00  0.20921847593E+03  0.20921847593E+03  0.00000000000E+00 0. -1.
          1   -1    0    0  501    0 -0.00000000000E+00 -0.00000000000E+00 -0.10994998309E+04  0.10994998309E+04  0.00000000000E+00 0. -1.
         25    2    1    2    0    0  0.52214435043E+02  0.41995448088E+02 -0.15233012202E+03  0.20813264203E+03  0.12499906286E+03 0.  0.
          2    1    1    2  501    0  0.19583865368E+02 -0.37688279881E+02 -0.91162122457E+03  0.91261009818E+03  0.00000000000E+00 0. -1.
          1    1    1    2  502    0 -0.71798300411E+02 -0.43071682069E+01  0.17366999164E+03  0.18797556659E+03  0.00000000000E+00 0. -1.
         22    1    3    3    0    0 -0.89482477290E+01  0.51657564792E+02 -0.10629734937E+02  0.53493610857E+02  0.00000000000E+00 0. -1.
         22    1    3    3    0    0  0.61162682772E+02 -0.96621167037E+01 -0.14170038708E+03  0.15463903117E+03  0.00000000000E+00 0. -1.
</event>
<event>
 7    1  0.5779468E-006  0.1509032E+03  0.7818608E-02  0.1215969E+00
          2   -1    0    0  502    0  0.00000000000E+00  0.00000000000E+00  0.20290952401E+04  0.20290952401E+04  0.00000000000E+00 0. -1.
          1   -1    0    0  501    0 -0.00000000000E+00 -0.00000000000E+00 -0.39088841431E+03  0.39088841431E+03  0.00000000000E+00 0. -1.
         25    2    1    2    0    0  0.21058814931E+03 -0.50813812957E+02 -0.70508605278E+02  0.25985690400E+03  0.12499893968E+03 0.  0.
          2    1    1    2  501    0 -0.70268816492E+02  0.10494969957E+03 -0.20485172470E+03  0.24065821225E+03  0.00000000000E+00 0. -1.
          1    1    1    2  502    0 -0.14031933281E+03 -0.54135886613E+02  0.19135671557E+04  0.19194685381E+04  0.00000000000E+00 0. -1.
         22    1    3    3    0    0  0.20181946245E+03 -0.72445573894E+02 -0.34855342927E+02  0.21724260984E+03  0.00000000000E+00 0. -1.
         22    1    3    3    0    0  0.87686868593E+01  0.21631760937E+02 -0.35653262351E+02  0.42614294160E+02  0.00000000000E+00 0. -1.
</event>
<event>
 7    1  0.5779468E-006  0.1691140E+03  0.7818608E-02  0.1239425E+00
          2   -1    0    0  502    0  0.00000000000E+00  0.00000000000E+00  0.65670765162E+03  0.65670765162E+03  0.00000000000E+00 0. -1.
          1   -1    0    0  501    0 -0.00000000000E+00 -0.00000000000E+00 -0.74561432617E+03  0.74561432617E+03  0.00000000000E+00 0. -1.
         25    2    1    2    0    0 -0.17442956282E+03  0.67127800290E+02  0.16700741528E+03  0.28008626500E+03  0.12500010050E+03 0.  0.
          2    1    1    2  501    0  0.11054026235E+03 -0.12819221429E+03 -0.67398991928E+03  0.69492071828E+03  0.00000000000E+00 0. -1.
          1    1    1    2  502    0  0.63889300468E+02  0.61064413997E+02  0.41807582944E+03  0.42731499451E+03  0.00000000000E+00 0. -1.
         22    1    3    3    0    0 -0.10189887601E+03  0.10156336547E+03  0.96538649308E+02  0.17325763749E+03  0.00000000000E+00 0.  1.
         22    1    3    3    0    0 -0.72530686805E+02 -0.34435565181E+02  0.70468765976E+02  0.10682862751E+03  0.00000000000E+00 0.  1.
</event>
<event>
 7    1  0.5779468E-006  0.8033676E+02  0.7818608E-02  0.1496822E+00
          2   -1    0    0  502    0  0.00000000000E+00  0.00000000000E+00  0.74894367469E+03  0.74894367469E+03  0.00000000000E+00 0. -1.
          1   -1    0    0  501    0 -0.00000000000E+00 -0.00000000000E+00 -0.13823328704E+03  0.13823328704E+03  0.00000000000E+00 0. -1.
         25    2    1    2    0    0 -0.93323204318E+02 -0.32411843549E+02  0.12567827174E+03  0.20291824506E+03  0.12498415150E+03 0.  0.
          2    1    1    2  501    0  0.21518979887E+02 -0.73675383708E+00 -0.95737567598E+02  0.98128951647E+02  0.00000000000E+00 0. -1.
          1    1    1    2  502    0  0.71804224432E+02  0.33148597386E+02  0.58076968351E+03  0.58612976502E+03  0.00000000000E+00 0. -1.
         22    1    3    3    0    0  0.27318695779E+02  0.62416188025E+00  0.49279784947E+02  0.56348894590E+02  0.00000000000E+00 0. -1.
         22    1    3    3    0    0 -0.12064190010E+03 -0.33036005430E+02  0.76398486792E+02  0.14656935047E+03  0.00000000000E+00 0. -1.
</event>
<event>
 7    1  0.5779468E-006  0.4331223E+02  0.7818608E-02  0.1551387E+00
          2   -1    0    0  502    0  0.00000000000E+00  0.00000000000E+00  0.54441845472E+03  0.54441845472E+03  0.00000000000E+00 0. -1.
          1   -1    0    0  501    0 -0.00000000000E+00 -0.00000000000E+00 -0.22428170159E+04  0.22428170159E+04  0.00000000000E+00 0. -1.
         25    2    1    2    0    0 -0.60136139883E+01  0.21862603618E+02  0.31098365556E+02  0.13079135075E+03  0.12500052840E+03 0.  0.
          2    1    1    2  501    0  0.33100539103E+02 -0.28034858176E+02 -0.21923394744E+04  0.21927685628E+04  0.00000000000E+00 0. -1.
          1    1    1    2  502    0 -0.27086925114E+02  0.61722545575E+01  0.46284254770E+03  0.46367555704E+03  0.00000000000E+00 0. -1.
         22    1    3    3    0    0 -0.51520912771E+02  0.50455863719E+02  0.26587875008E+02  0.76857749992E+02  0.00000000000E+00 0. -1.
         22    1    3    3    0    0  0.45507298782E+02 -0.28593260101E+02  0.45104905475E+01  0.53933600757E+02  0.00000000000E+00 0. -1.
</event>
<event>
 7    1  0.5779468E-006  0.2946115E+03  0.7818608E-02  0.1266356E+00
          2   -1    0    0  502    0  0.00000000000E+00  0.00000000000E+00  0.22583287412E+04  0.22583287412E+04  0.00000000000E+00 0. -1.
          1   -1    0    0  501    0 -0.00000000000E+00 -0.00000000000E+00 -0.26240047446E+04  0.26240047446E+04  0.00000000000E+00 0. -1.
         25    2    1    2    0    0 -0.19724074044E+03 -0.23883621196E+03 -0.26815169483E+03  0.42834234509E+03  0.12500074931E+03 0.  0.
          2    1    1    2  501    0  0.37870056394E+02 -0.85048811355E+01 -0.22656541841E+04  0.22659866187E+04  0.00000000000E+00 0. -1.
          1    1    1    2  502    0  0.15937068404E+03  0.24734109309E+03  0.21681298755E+04  0.21880045220E+04  0.00000000000E+00 0. -1.
         22    1    3    3    0    0 -0.71891967381E+02 -0.24996721086E+02 -0.22508366188E+02  0.79372020180E+02  0.00000000000E+00 0. -1.
         22    1    3    3    0    0 -0.12534877306E+03 -0.21383949087E+03 -0.24564332864E+03  0.34897032491E+03  0.00000000000E+00 0. -1.
</event>
<event>
 7    1  0.5779468E-006  0.1044364E+03  0.7818608E-02  0.1352233E+00
          2   -1    0    0  502    0  0.00000000000E+00  0.00000000000E+00  0.57231427712E+03  0.57231427712E+03  0.00000000000E+00 0. -1.
          1   -1    0    0  501    0 -0.00000000000E+00 -0.00000000000E+00 -0.61802965448E+03  0.61802965448E+03  0.00000000000E+00 0. -1.
         25    2    1    2    0    0 -0.10934186394E+03 -0.61426853486E+02 -0.22323925888E+03  0.28493140008E+03  0.12498493710E+03 0.  0.
          2    1    1    2  501    0  0.10062116376E+03  0.12049729933E+02 -0.35569075338E+03  0.36984554429E+03  0.00000000000E+00 0. -1.
          1    1    1    2  502    0  0.87207001839E+01  0.49377123553E+02  0.53321463491E+03  0.53556698724E+03  0.00000000000E+00 0. -1.
         22    1    3    3    0    0 -0.59787441362E+02  0.12131718623E+01 -0.18863396194E+03  0.19788577900E+03  0.00000000000E+00 0. -1.
         22    1    3    3    0    0 -0.49554422582E+02 -0.62640025348E+02 -0.34605296941E+02  0.87045621081E+02  0.00000000000E+00 0. -1.
</event>
<event>
 7    1  0.5779468E-006  0.7388128E+02  0.7818608E-02  0.1372204E+00
          2   -1    0    0  502    0  0.00000000000E+00  0.00000000000E+00  0.58988214801E+02  0.58988214801E+02  0.00000000000E+00 0. -1.
          1   -1    0    0  501    0 -0.00000000000E+00 -0.00000000000E+00 -0.76762742519E+03  0.76762742519E+03  0.00000000000E+00 0. -1.
         25    2    1    2    0    0  0.41289633574E+01  0.89471390286E+01 -0.36135173700E+03  0.38248857030E+03  0.12500131576E+03 0.  0.
          2    1    1    2  501    0  0.25419199989E+01 -0.82526634793E+02 -0.35983660205E+03  0.36918760405E+03  0.00000000000E+00 0. -1.
          1    1    1    2  502    0 -0.66708833563E+01  0.73579495765E+02  0.12549128657E+02  0.74939465649E+02  0.00000000000E+00 0. -1.
         22    1    3    3    0    0 -0.51002403770E+01  0.15679379452E+02 -0.36859401273E+03  0.36896260192E+03  0.00000000000E+00 0. -1.
         22    1    3    3    0    0  0.92292037344E+01 -0.67322404232E+01  0.72422757368E+01  0.13525968377E+02  0.00000000000E+00 0. -1.
</event>
<event>
 7    1  0.5779468E-006  0.9137459E+02  0.7818608E-02  0.1310155E+00
          2   -1    0    0  502    0  0.00000000000E+00  0.00000000000E+00  0.13518876876E+03  0.13518876876E+03  0.00000000000E+00 0. -1.
          1   -1    0    0  501    0 -0.00000000000E+00 -0.00000000000E+00 -0.41946250202E+03  0.41946250202E+03  0.00000000000E+00 0. -1.
         25    2    1    2    0    0 -0.28555656763E+02 -0.32939279358E+02 -0.83511925648E+02  0.15652397465E+03  0.12500036503E+03 0.  0.
          2    1    1    2  501    0 -0.78186140992E+02  0.27651864906E+02 -0.26209716891E+03  0.27490475483E+03  0.00000000000E+00 0. -1.
          1    1    1    2  502    0  0.10674179776E+03  0.52874144521E+01  0.61335361294E+02  0.12322254130E+03  0.00000000000E+00 0. -1.
         22    1    3    3    0    0 -0.75746680706E+02 -0.34580080401E+02 -0.40257788013E+02  0.92488005137E+02  0.00000000000E+00 0.  1.
         22    1    3    3    0    0  0.47191023943E+02  0.16408010423E+01 -0.43254137635E+02  0.64035969512E+02  0.00000000000E+00 0.  1.
</event>
<event>
 7    1  0.5779468E-006  0.9467999E+02  0.7818608E-02  0.1418809E+00
          2   -1    0    0  502    0  0.00000000000E+00  0.00000000000E+00  0.10320161257E+04  0.10320161257E+04  0.00000000000E+00 0. -1.
          1   -1    0    0  501    0 -0.00000000000E+00 -0.00000000000E+00 -0.33146425560E+04  0.33146425560E+04  0.00000000000E+00 0. -1.
         25    2    1    2    0    0  0.39913918133E+02 -0.73097074050E+02  0.16690551089E+03  0.22453959924E+03  0.12499711583E+03 0.  0.
          2    1    1    2  501    0 -0.70613110856E+02  0.63156840217E+02 -0.32848310667E+04  0.32861969105E+04  0.00000000000E+00 0. -1.
          1    1    1    2  502    0  0.30699192723E+02  0.99402338333E+01  0.83529912545E+03  0.83592217201E+03  0.00000000000E+00 0. -1.
         22    1    3    3    0    0  0.57841861932E+02  0.90147792264E+01  0.35217650973E+02  0.68317129450E+02  0.00000000000E+00 0.  1.
         22    1    3    3    0    0 -0.17927943799E+02 -0.82111853277E+02  0.13168785992E+03  0.15622246979E+03  0.00000000000E+00 0.  1.
</event>
<event>
 7    1  0.5779468E-006  0.5859205E+02  0.7818608E-02  0.1478653E+00
          2   -1    0    0  502    0  0.00000000000E+00  0.00000000000E+00  0.10138914879E+04  0.10138914879E+04  0.00000000000E+00 0. -1.
          1   -1    0    0  501    0 -0.00000000000E+00 -0.00000000000E+00 -0.11357590534E+04  0.11357590534E+04  0.00000000000E+00 0. -1.
         25    2    1    2    0    0 -0.12329083791E+02 -0.89093191025E+02  0.31495939521E+03  0.35058780546E+03  0.12499114252E+03 0.  0.
          2    1    1    2  501    0  0.17218171383E+02  0.55932301479E+02 -0.11167658206E+04  0.11182981650E+04  0.00000000000E+00 0. -1.
          1    1    1    2  502    0 -0.48890875923E+01  0.33160889546E+02  0.67993885984E+03  0.68076457082E+03  0.00000000000E+00 0. -1.
         22    1    3    3    0    0  0.53319862907E+01 -0.77831629587E+01  0.23500107073E+03  0.23519037171E+03  0.00000000000E+00 0. -1.
         22    1    3    3    0    0 -0.17661070081E+02 -0.81310028066E+02  0.79958324485E+02  0.11539743375E+03  0.00000000000E+00 0. -1.
</event>
<event>
 7    1  0.5779468E-006  0.2058037E+03  0.7818608E-02  0.1284548E+00
          2   -1    0    0  502    0  0.00000000000E+00  0.00000000000E+00  0.29594852504E+03  0.29594852504E+03  0.00000000000E+00 0. -1.
          1   -1    0    0  501    0 -0.00000000000E+00 -0.00000000000E+00 -0.85369685312E+03  0.85369685312E+03  0.00000000000E+00 0. -1.
         25    2    1    2    0    0  0.17556242057E+02  0.20669747418E+03 -0.33063859390E+03  0.40985157400E+03  0.12499746182E+03 0.  0.
          2    1    1    2  501    0 -0.63184711718E+02 -0.19689049500E+03 -0.45890817160E+03  0.50334370441E+03  0.00000000000E+00 0. -1.
          1    1    1    2  502    0  0.45628469661E+02 -0.98069791805E+01  0.23179843742E+03  0.23645009976E+03  0.00000000000E+00 0. -1.
         22    1    3    3    0    0 -0.39127070935E+02  0.28949161431E+02 -0.33821852843E+02  0.59269717034E+02  0.00000000000E+00 0.  1.
         22    1    3    3    0    0  0.56683312993E+02  0.17774831275E+03 -0.29681674106E+03  0.35058185696E+03  0.00000000000E+00 0.  1.
</event>
<event>
 7    1  0.5779468E-006  0.6007397E+02  0.7818608E-02  0.1492007E+00
          2   -1    0    0  502    0  0.00000000000E+00  0.00000000000E+00  0.10907278244E+04  0.10907278244E+04  0.00000000000E+00 0. -1.
          1   -1    0    0  501    0 -0.00000000000E+00 -0.00000000000E+00 -0.56184278300E+03  0.56184278300E+03  0.00000000000E+00 0. -1.
         25    2    1    2    0    0 -0.19502280484E+02  0.26074447868E+02  0.21474896855E+03  0.25060482711E+03  0.12500177640E+03 0.  0.
          2    1    1    2  501    0 -0.23400009451E+02  0.18404158476E+02 -0.54239344767E+03  0.54320983567E+03  0.00000000000E+00 0. -1.
          1    1    1    2  502    0  0.42902289935E+02 -0.44478606344E+02  0.85652952057E+03  0.85875594467E+03  0.00000000000E+00 0. -1.
         22    1    3    3    0    0  0.57829411661E+01  0.13122256085E+02  0.22104198869E+03  0.22150665177E+03  0.00000000000E+00 0. -1.
         22    1    3    3    0    0 -0.25285221650E+02  0.12952191782E+02 -0.62930201406E+01  0.29098175344E+02  0.00000000000E+00 0. -1.
</event>
<event>
 7    1  0.5779468E-006  0.5489862E+02  0.7818608E-02  0.1451397E+00
          2   -1    0    0  502    0  0.00000000000E+00  0.00000000000E+00  0.32739309470E+04  0.32739309470E+04  0.00000000000E+00 0. -1.
          1   -1    0    0  501    0 -0.00000000000E+00 -0.00000000000E+00 -0.10266144587E+04  0.10266144587E+04  0.00000000000E+00 0. -1.
         25    2    1    2    0    0 -0.10967247743E+01  0.15691705605E+02 -0.12363464698E+02  0.12659134455E+03  0.12500032330E+03 0.  0.
          2    1    1    2  501    0 -0.35100732641E+02  0.25773758807E+02 -0.95640612483E+03  0.95739700422E+03  0.00000000000E+00 0. -1.
          1    1    1    2  502    0  0.36197457415E+02 -0.41465464411E+02  0.32160860779E+04  0.32165570570E+04  0.00000000000E+00 0. -1.
         22    1    3    3    0    0  0.26894665259E+02  0.49430106195E+02 -0.44906013732E+02  0.71994503174E+02  0.00000000000E+00 0. -1.
         22    1    3    3    0    0 -0.27991390033E+02 -0.33738400591E+02  0.32542549035E+02  0.54596841375E+02  0.00000000000E+00 0. -1.
</event>
<event>
 7    1  0.5779468E-006  0.6529040E+02  0.7818608E-02  0.1499893E+00
          2   -1    0    0  502    0  0.00000000000E+00  0.00000000000E+00  0.31576050519E+03  0.31576050519E+03  0.00000000000E+00 0. -1.
          1   -1    0    0  501    0 -0.00000000000E+00 -0.00000000000E+00 -0.86038849550E+03  0.86038849550E+03  0.00000000000E+00 0. -1.
         25    2    1    2    0    0  0.10247931145E+02 -0.39289996582E+02  0.37250266475E+02  0.13660783558E+03  0.12500157785E+03 0.  0.
          2    1    1    2  501    0 -0.82555653721E+01  0.65152611280E+02 -0.80863909538E+03  0.81130154918E+03  0.00000000000E+00 0. -1.
          1    1    1    2  502    0 -0.19923657733E+01 -0.25862614698E+02  0.22676083860E+03  0.22823961593E+03  0.00000000000E+00 0. -1.
         22    1    3    3    0    0  0.39295845840E+01  0.45642084396E+02  0.18475349245E+02  0.49396154028E+02  0.00000000000E+00 0. -1.
         22    1    3    3    0    0  0.63183465615E+01 -0.84932080978E+02  0.18774917230E+02  0.87211681554E+02  0.00000000000E+00 0. -1.
</event>
<event>
 7    1  0.5779468E-006  0.1223049E+03  0.7818608E-02  0.1277956E+00
          2   -1    0    0  502    0  0.00000000000E+00  0.00000000000E+00  0.13413724316E+04  0.13413724316E+04  0.00000000000E+00 0. -1.
          1   -1    0    0  501    0 -0.00000000000E+00 -0.00000000000E+00 -0.85932126207E+02  0.85932126207E+02  0.00000000000E+00 0. -1.
         25    2    1    2    0    0 -0.60392935963E+02 -0.73492328166E+02  0.36359879866E+03  0.39607795049E+03  0.12500090987E+03 0.  0.
          2    1    1    2  501    0  0.12781861835E+03  0.24057305110E+02 -0.53260187321E+01  0.13017188483E+03  0.00000000000E+00 0. -1.
          1    1    1    2  502    0 -0.67425682385E+02  0.49435023056E+02  0.89716752546E+03  0.90105472247E+03  0.00000000000E+00 0. -1.
         22    1    3    3    0    0 -0.40599337024E+02 -0.10851384076E+03  0.24932190334E+03  0.27492721089E+03  0.00000000000E+00 0. -1.
         22    1    3    3    0    0 -0.19793598939E+02  0.35021512593E+02  0.11427689531E+03  0.12115073960E+03  0.00000000000E+00 0. -1.
</event>
<event>
 7    1  0.5779468E-006  0.2525048E+03  0.7818608E-02  0.1327827E+00
          2   -1    0    0  502    0  0.00000000000E+00  0.00000000000E+00  0.10508763998E+04  0.10508763998E+04  0.00000000000E+00 0. -1.
          1   -1    0    0  501    0 -0.00000000000E+00 -0.00000000000E+00 -0.19140046721E+04  0.19140046721E+04  0.00000000000E+00 0. -1.
         25    2    1    2    0    0 -0.46950645647E+02  0.24469192165E+03  0.56883467096E+02  0.28450689977E+03  0.12501978858E+03 0.  0.
          2    1    1    2  501    0  0.72444047500E+02 -0.24213688406E+03 -0.17911326277E+04  0.18088765853E+04  0.00000000000E+00 0. -1.
          1    1    1    2  502    0 -0.25493401853E+02 -0.25550375976E+01  0.87112088831E+03  0.87149758681E+03  0.00000000000E+00 0. -1.
         22    1    3    3    0    0 -0.47087085655E+01  0.26315713572E+02  0.56030015905E+02  0.62081006753E+02  0.00000000000E+00 0. -1.
         22    1    3    3    0    0 -0.42241937081E+02  0.21837620808E+03  0.85345119110E+00  0.22242589301E+03  0.00000000000E+00 0. -1.
</event>
<event>
 7    1  0.5779468E-006  0.6084600E+02  0.7818608E-02  0.1466722E+00
          2   -1    0    0  502    0  0.00000000000E+00  0.00000000000E+00  0.55984505681E+02  0.55984505681E+02  0.00000000000E+00 0. -1.
          1   -1    0    0  501    0 -0.00000000000E+00 -0.00000000000E+00 -0.30381676964E+04  0.30381676964E+04  0.00000000000E+00 0. -1.
         25    2    1    2    0    0 -0.31104999347E+02 -0.83407410031E+02 -0.13023377153E+04  0.13113476959E+04  0.12499975094E+03 0.  0.
          2    1    1    2  501    0  0.26511224271E+02  0.23073951452E+02 -0.17133022719E+04  0.17136627227E+04  0.00000000000E+00 0. -1.
          1    1    1    2  502    0  0.45937750753E+01  0.60333458579E+02  0.33456796500E+02  0.69141783500E+02  0.00000000000E+00 0. -1.
         22    1    3    3    0    0 -0.44202762590E+02  0.15943361472E+02 -0.60836496155E+03  0.61017702467E+03  0.00000000000E+00 0. -1.
         22    1    3    3    0    0  0.13097763243E+02 -0.99350771502E+02 -0.69397275379E+03  0.70117067124E+03  0.00000000000E+00 0. -1.
</event>
<event>
 7    1  0.5779468E-006  0.9528499E+02  0.7818608E-02  0.1331571E+00
          2   -1    0    0  502    0  0.00000000000E+00  0.00000000000E+00  0.18441576108E+04  0.18441576108E+04  0.00000000000E+00 0. -1.
          1   -1    0    0  501    0 -0.00000000000E+00 -0.00000000000E+00 -0.16636767656E+03  0.16636767656E+03  0.00000000000E+00 0. -1.
         25    2    1    2    0    0 -0.12893559957E+03 -0.81706503296E+02  0.18329952122E+03  0.26930491868E+03  0.12500433282E+03 0.  0.
          2    1    1    2  501    0  0.85090516275E+02  0.32782982279E+02 -0.10574778783E+03  0.13963421686E+03  0.00000000000E+00 0. -1.
          1    1    1    2  502    0  0.43845083298E+02  0.48923521017E+02  0.16002382008E+04  0.16015861518E+04  0.00000000000E+00 0. -1.
         22    1    3    3    0    0 -0.11515758859E+03 -0.11011987642E+03  0.12318264577E+03  0.20139915991E+03  0.00000000000E+00 0. -1.
         22    1    3    3    0    0 -0.13778010980E+02  0.28413373126E+02  0.60116875459E+02  0.67905758768E+02  0.00000000000E+00 0. -1.
</event>
<event>
 7    1  0.5779468E-006  0.1574528E+03  0.7818608E-02  0.1192607E+00
          2   -1    0    0  502    0  0.00000000000E+00  0.00000000000E+00  0.20624187708E+04  0.20624187708E+04  0.00000000000E+00 0. -1.
          1   -1    0    0  501    0 -0.00000000000E+00 -0.00000000000E+00 -0.44517914358E+03  0.44517914358E+03  0.00000000000E+00 0. -1.
         25    2    1    2    0    0  0.10275670070E+03  0.18241862960E+01  0.85125787465E+03  0.86650273524E+03  0.12499901537E+03 0.  0.
          2    1    1    2  501    0  0.15517223691E+03 -0.13075410231E+02 -0.40923130292E+03  0.43785802350E+03  0.00000000000E+00 0. -1.
          1    1    1    2  502    0 -0.25792893762E+03  0.11251223935E+02  0.11752130555E+04  0.12032371556E+04  0.00000000000E+00 0. -1.
         22    1    3    3    0    0 -0.37738046248E+01  0.39788875901E+02  0.11824776300E+03  0.12481958861E+03  0.00000000000E+00 0.  1.
         22    1    3    3    0    0  0.10653050533E+03 -0.37964689605E+02  0.73301011165E+03  0.74168314663E+03  0.00000000000E+00 0.  1.
</event>
<event>
 7    1  0.5779468E-006  0.5275265E+02  0.7818608E-02  0.1502571E+00
          2   -1    0    0  502    0  0.00000000000E+00  0.00000000000E+00  0.48746323947E+03  0.48746323947E+03  0.00000000000E+00 0. -1.
          1   -1    0    0  501    0 -0.00000000000E+00 -0.00000000000E+00 -0.13669295939E+03  0.13669295939E+03  0.00000000000E+00 0. -1.
         25    2    1    2    0    0  0.12904366029E+02  0.28469477209E+02  0.46662496603E+02  0.13704302156E+03  0.12500546938E+03 0.  0.
          2    1    1    2  501    0  0.43145556632E+01 -0.54870278090E+02 -0.82526237678E+02  0.99196485389E+02  0.00000000000E+00 0. -1.
          1    1    1    2  502    0 -0.17218921692E+02  0.26400800881E+02  0.38663402116E+03  0.38791669192E+03  0.00000000000E+00 0. -1.
         22    1    3    3    0    0  0.81646989400E+01  0.39828262414E+02  0.86375974123E+02  0.95466023806E+02  0.00000000000E+00 0. -1.
         22    1    3    3    0    0  0.47396670891E+01 -0.11358785205E+02 -0.39713477520E+02  0.41576997753E+02  0.00000000000E+00 0. -1.
</event>
<event>
 7    1  0.5779468E-006  0.5147003E+02  0.7818608E-02  0.1536519E+00
          2   -1    0    0  502    0  0.00000000000E+00  0.00000000000E+00  0.20312920198E+03  0.20312920198E+03  0.00000000000E+00 0. -1.
          1   -1    0    0  501    0 -0.00000000000E+00 -0.00000000000E+00 -0.15839798918E+04  0.15839798918E+04  0.00000000000E+00 0. -1.
         25    2    1    2    0    0  0.29351419002E+02  0.27758731959E+02 -0.85150075727E+03  0.86157461424E+03  0.12500089304E+03 0.  0.
          2    1    1    2  501    0  0.20665351937E+02 -0.15346761593E+02 -0.72385792894E+03  0.72431545694E+03  0.00000000000E+00 0. -1.
          1    1    1    2  502    0 -0.50016770938E+02 -0.12411970366E+02  0.19450799641E+03  0.20121902259E+03  0.00000000000E+00 0. -1.
         22    1    3    3    0    0  0.21020754462E+02 -0.47954417713E+02 -0.43782640108E+03  0.44094609169E+03  0.00000000000E+00 0. -1.
         22    1    3    3    0    0  0.83306645397E+01  0.75713149672E+02 -0.41367435620E+03  0.42062852255E+03  0.00000000000E+00 0. -1.
</event>
<event>
 7    1  0.5779468E-006  0.1772396E+03  0.7818608E-02  0.1286186E+00
          2   -1    0    0  502    0  0.00000000000E+00  0.00000000000E+00  0.53187954662E+03  0.53187954662E+03  0.00000000000E+00 0. -1.
          1   -1    0    0  501    0 -0.00000000000E+00 -0.00000000000E+00 -0.15268870572E+04  0.15268870572E+04  0.00000000000E+00 0. -1.
         25    2    1    2    0    0 -0.10541975546E+03 -0.11552279897E+03  0.17097217498E+03  0.26327935935E+03  0.12500277804E+03 0.  0.
          2    1    1    2  501    0  0.11382446032E+02 -0.52132883560E+02 -0.14508476971E+04  0.14518286530E+04  0.00000000000E+00 0. -1.
          1    1    1    2  502    0  0.94037309430E+02  0.16765568253E+03  0.28486801156E+03  0.34365859142E+03  0.00000000000E+00 0. -1.
         22    1    3    3    0    0 -0.12997874793E+03 -0.94298440975E+02  0.16506040694E+03  0.23028592841E+03  0.00000000000E+00 0.  1.
         22    1    3    3    0    0  0.24558992473E+02 -0.21224357997E+02  0.59117680373E+01  0.32993430937E+02  0.00000000000E+00 0.  1.
</event>
<event>
 7    1  0.7121361E-006  0.1167738E+03  0.7818608E-02  0.1254151E+00
          2   -1    0    0  502    0  0.00000000000E+00  0.00000000000E+00  0.12043594742E+04  0.12043594742E+04  0.00000000000E+00 0. -1.
          1   -1    0    0  501    0 -0.00000000000E+00 -0.00000000000E+00 -0.17961814741E+04  0.17961814741E+04  0.00000000000E+00 0. -1.
         25    2    1    2    0    0  0.31167158098E+02  0.15689889863E+03 -0.11060723632E+04  0.11245464573E+04  0.12498002162E+03 0.  0.
          2    1    1    2  501    0  0.64341557256E+02 -0.89707149430E+02 -0.67351498437E+03  0.68250248558E+03  0.00000000000E+00 0. -1.
          1    1    1    2  502    0 -0.95508715354E+02 -0.67191749204E+02  0.11877653477E+04  0.11934920055E+04  0.00000000000E+00 0. -1.
         22    1    3    3    0    0  0.35494569039E+02  0.27307385014E+02 -0.93120968702E+02  0.10332992074E+03  0.00000000000E+00 0. -1.
         22    1    3    3    0    0 -0.43274109402E+01  0.12959151362E+03 -0.10129513945E+04  0.10212165366E+04  0.00000000000E+00 0. -1.
</event>
<event>
 7    1  0.5779468E-006  0.2866958E+03  0.7818608E-02  0.1172871E+00
          2   -1    0    0  502    0  0.00000000000E+00  0.00000000000E+00  0.10864673828E+04  0.10864673828E+04  0.00000000000E+00 0. -1.
          1   -1    0    0  501    0 -0.00000000000E+00 -0.00000000000E+00 -0.38980417743E+03  0.38980417743E+03  0.00000000000E+00 0. -1.
         25    2    1    2    0    0  0.14460863289E+03  0.20380161062E+03 -0.38184350593E+02  0.28200081155E+03  0.12497863771E+03 0.  0.
          2    1    1    2  501    0 -0.25111073220E+03 -0.20943730823E+03 -0.10826126312E+03  0.34444315496E+03  0.00000000000E+00 0. -1.
          1    1    1    2  502    0  0.10650209931E+03  0.56356976099E+01  0.84310881908E+03  0.84982759372E+03  0.00000000000E+00 0. -1.
         22    1    3    3    0    0  0.49220132700E+02  0.39793818958E+02 -0.64601139636E+02  0.90440459600E+02  0.00000000000E+00 0. -1.
         22    1    3    3    0    0  0.95388500187E+02  0.16400779167E+03  0.26416789043E+02  0.19156035195E+03  0.00000000000E+00 0. -1.
</event>
<event>
 7    1  0.5779468E-006  0.1804820E+03  0.7818608E-02  0.1206757E+00
          2   -1    0    0  502    0  0.00000000000E+00  0.00000000000E+00  0.23728330077E+04  0.23728330077E+04  0.00000000000E+00 0. -1.
          1   -1    0    0  501    0 -0.00000000000E+00 -0.00000000000E+00 -0.18775939114E+04  0.18775939114E+04  0.00000000000E+00 0. -1.
         25    2    1    2    0    0  0.18238899635E+03 -0.23257329102E+03 -0.63389250118E+03  0.71049270340E+03  0.12499638738E+03 0.  0.
          2    1    1    2  501    0 -0.80051877874E+02  0.84628036555E+02 -0.11991090965E+04  0.12047542625E+04  0.00000000000E+00 0. -1.
          1    1    1    2  502    0 -0.10233711848E+03  0.14794525446E+03  0.23282406941E+04  0.23351799532E+04  0.00000000000E+00 0. -1.
         22    1    3    3    0    0  0.16328808465E+02 -0.59790155560E+02 -0.51018870807E+02  0.80277131652E+02  0.00000000000E+00 0.  1.
         22    1    3    3    0    0  0.16606018789E+03 -0.17278313546E+03 -0.58287363037E+03  0.63021557175E+03  0.00000000000E+00 0.  1.
</event>
<event>
 7    1  0.5779468E-006  0.1382289E+03  0.7818608E-02  0.1397504E+00
          2   -1    0    0  502    0  0.00000000000E+00  0.00000000000E+00  0.33106160348E+03  0.33106160348E+03  0.00000000000E+00 0. -1.
          1   -1    0    0  501    0 -0.00000000000E+00 -0.00000000000E+00 -0.15773562208E+04  0.15773562208E+04  0.00000000000E+00 0. -1.
         25    2    1    2    0    0  0.10502351311E+03 -0.42718825411E+02 -0.70120825770E+03  0.72123036690E+03  0.12500154046E+03 0.  0.
          2    1    1    2  501    0  0.25915310505E+02 -0.31965477849E+01 -0.85093494156E+03  0.85133547795E+03  0.00000000000E+00 0. -1.
          1    1    1    2  502    0 -0.13093882361E+03  0.45915373196E+02  0.30584858193E+03  0.33585197944E+03  0.00000000000E+00 0. -1.
         22    1    3    3    0    0 -0.18074573982E+02 -0.33717013770E+02 -0.27029681311E+03  0.27299064896E+03  0.00000000000E+00 0. -1.
         22    1    3    3    0    0  0.12309808709E+03 -0.90018116411E+01 -0.43091144459E+03  0.44823971794E+03  0.00000000000E+00 0. -1.
</event>
<event>
 7    1  0.5779468E-006  0.8013972E+02  0.7818608E-02  0.1397224E+00
          2   -1    0    0  502    0  0.00000000000E+00  0.00000000000E+00  0.44645107030E+03  0.44645107030E+03  0.00000000000E+00 0. -1.
          1   -1    0    0  501    0 -0.00000000000E+00 -0.00000000000E+00 -0.19093183675E+04  0.19093183675E+04  0.00000000000E+00 0. -1.
         25    2    1    2    0    0 -0.33184321208E+02 -0.35158052704E+02 -0.28061836481E+03  0.31097638242E+03  0.12498942320E+03 0.  0.
          2    1    1    2  501    0  0.77774815659E+02  0.28142561810E+02 -0.16112762499E+04  0.16133976817E+04  0.00000000000E+00 0. -1.
          1    1    1    2  502    0 -0.44590494451E+02  0.70154908931E+01  0.42902731749E+03  0.43139537372E+03  0.00000000000E+00 0. -1.
         22    1    3    3    0    0  0.73866526470E+01 -0.22323024632E+01 -0.25059615493E+03  0.25071493509E+03  0.00000000000E+00 0.  1.
         22    1    3    3    0    0 -0.40570973855E+02 -0.32925750240E+02 -0.30022209884E+02  0.60261447334E+02  0.00000000000E+00 0.  1.
</event>
<event>
 7    1  0.5779468E-006  0.1078659E+03  0.7818608E-02  0.1371174E+00
          2   -1    0    0  502    0  0.00000000000E+00  0.00000000000E+00  0.13172930271E+04  0.13172930271E+04  0.00000000000E+00 0. -1.
          1   -1    0    0  501    0 -0.00000000000E+00 -0.00000000000E+00 -0.63688850425E+03  0.63688850425E+03  0.00000000000E+00 0. -1.
         25    2    1    2    0    0 -0.40100718372E+02  0.74264243481E+02  0.56583580791E+02  0.16109413797E+03  0.12500549668E+03 0.  0.
          2    1    1    2  501    0  0.81490644831E+02 -0.72681728098E+02 -0.57917503892E+03  0.58937855790E+03  0.00000000000E+00 0. -1.
          1    1    1    2  502    0 -0.41389926459E+02 -0.15825153835E+01  0.12029959810E+04  0.12037088355E+04  0.00000000000E+00 0. -1.
         22    1    3    3    0    0 -0.65927931905E+02  0.93335099901E+02  0.59541282682E+02  0.12885300704E+03  0.00000000000E+00 0. -1.
         22    1    3    3    0    0  0.25827213533E+02 -0.19070856420E+02 -0.29577018917E+01  0.32241130935E+02  0.00000000000E+00 0. -1.
</event>
<event>
 7    1  0.5779468E-006  0.3419085E+03  0.7818608E-02  0.1233829E+00
          2   -1    0    0  502    0  0.00000000000E+00  0.00000000000E+00  0.11458445778E+04  0.11458445778E+04  0.00000000000E+00 0. -1.
          1   -1    0    0  501    0 -0.00000000000E+00 -0.00000000000E+00 -0.54587918719E+03  0.54587918719E+03  0.00000000000E+00 0. -1.
         25    2    1    2    0    0  0.36809576484E+03 -0.98754335467E+02  0.27903320355E+03  0.48860104985E+03  0.12499818544E+03 0.  0.
          2    1    1    2  501    0 -0.32563000744E+03  0.80345523101E+02 -0.37646085606E+03  0.50419547894E+03  0.00000000000E+00 0. -1.
          1    1    1    2  502    0 -0.42465757394E+02  0.18408812367E+02  0.69739304307E+03  0.69892723616E+03  0.00000000000E+00 0. -1.
         22    1    3    3    0    0  0.29024594811E+03 -0.26150479419E+02  0.17595154816E+03  0.34041960177E+03  0.00000000000E+00 0.  1.
         22    1    3    3    0    0  0.77849816731E+02 -0.72603856048E+02  0.10308165539E+03  0.14818144808E+03  0.00000000000E+00 0.  1.
</event>
<event>
 7    1  0.5779468E-006  0.1177260E+03  0.7818608E-02  0.1395762E+00
          2   -1    0    0  502    0  0.00000000000E+00  0.00000000000E+00  0.12855873491E+04  0.12855873491E+04  0.00000000000E+00 0. -1.
          1   -1    0    0  501    0 -0.00000000000E+00 -0.00000000000E+00 -0.32103613249E+03  0.32103613249E+03  0.00000000000E+00 0. -1.
         25    2    1    2    0    0  0.97409610278E+02  0.77034996122E+02  0.61918678919E+03  0.64377045760E+03  0.12500039749E+03 0.  0.
          2    1    1    2  501    0 -0.27031491910E+02  0.15352972794E+02 -0.30278683442E+03  0.30437851834E+03  0.00000000000E+00 0. -1.
          1    1    1    2  502    0 -0.70378118368E+02 -0.92387968916E+02  0.64815126189E+03  0.65847450568E+03  0.00000000000E+00 0. -1.
         22    1    3    3    0    0  0.66069578061E+01  0.81616798009E+02  0.35689708053E+03  0.36617001475E+03  0.00000000000E+00 0.  1.
         22    1    3    3    0    0  0.90802652472E+02 -0.45818018867E+01  0.26228970866E+03  0.27760044285E+03  0.00000000000E+00 0.  1.
</event>
<event>
 7    1  0.5779468E-006  0.3262621E+02  0.7818608E-02  0.1604605E+00
          2   -1    0    0  502    0  0.00000000000E+00  0.00000000000E+00  0.35308669623E+03  0.35308669623E+03  0.00000000000E+00 0. -1.
          1   -1    0    0  501    0 -0.00000000000E+00 -0.00000000000E+00 -0.44315857692E+03  0.44315857692E+03  0.00000000000E+00 0. -1.
         25    2    1    2    0    0  0.98855819278E+01  0.38866880084E+02  0.25674377493E+03  0.28835575942E+03  0.12499327553E+03 0.  0.
          2    1    1    2  501    0  0.14775419008E+02 -0.29095010436E+02 -0.42452506021E+03  0.42577735894E+03  0.00000000000E+00 0. -1.
          1    1    1    2  502    0 -0.24661000936E+02 -0.97718696483E+01  0.77709404587E+02  0.82112154793E+02  0.00000000000E+00 0. -1.
         22    1    3    3    0    0  0.45568557537E+02 -0.18837661039E+02  0.17657925266E+03  0.18333462133E+03  0.00000000000E+00 0. -1.
         22    1    3    3    0    0 -0.35682975609E+02  0.57704541123E+02  0.80164522266E+02  0.10502113809E+03  0.00000000000E+00 0. -1.
</event>
<event>
 7    1  0.5779468E-006  0.9458619E+02  0.7818608E-02  0.1323087E+00
          2   -1    0    0  502    0  0.00000000000E+00  0.00000000000E+00  0.29596142068E+04  0.29596142068E+04  0.00000000000E+00 0. -1.
          1   -1    0    0  501    0 -0.00000000000E+00 -0.00000000000E+00 -0.80244962703E+03  0.80244962703E+03  0.00000000000E+00 0. -1.
         25    2    1    2    0    0 -0.29502334853E+02  0.16139453624E+02  0.24307318516E+03  0.27539124393E+03  0.12499957665E+03 0.  0.
          2    1    1    2  501    0 -0.20731503114E+02  0.68251684814E+02 -0.78377751371E+03  0.78701669531E+03  0.00000000000E+00 0. -1.
          1    1    1    2  502    0  0.50233837967E+02 -0.84391138438E+02  0.26978689083E+04  0.26996558946E+04  0.00000000000E+00 0. -1.
         22    1    3    3    0    0  0.43179870521E+02 -0.37199901169E+01  0.40730267328E+02  0.59475156337E+02  0.00000000000E+00 0.  1.
         22    1    3    3    0    0 -0.72682205374E+02  0.19859443740E+02  0.20234291783E+03  0.21591608759E+03  0.00000000000E+00 0.  1.
</event>
<event>
 7    1  0.5779468E-006  0.7437734E+02  0.7818608E-02  0.1381858E+00
          2   -1    0    0  502    0  0.00000000000E+00  0.00000000000E+00  0.16712018364E+04  0.16712018364E+04  0.00000000000E+00 0. -1.
          1   -1    0    0  501    0 -0.00000000000E+00 -0.00000000000E+00 -0.78783044115E+02  0.78783044115E+02  0.00000000000E+00 0. -1.
         25    2    1    2    0    0 -0.16835635096E+02  0.12312687120E+03  0.20651983483E+03  0.27151269227E+03  0.12500013944E+03 0.  0.
          2    1    1    2  501    0  0.22276589132E+02 -0.50322222276E+02 -0.28647915459E+02  0.62042530076E+02  0.00000000000E+00 0. -1.
          1    1    1    2  502    0 -0.54409540358E+01 -0.72804648929E+02  0.14145468729E+04  0.14164296582E+04  0.00000000000E+00 0. -1.
         22    1    3    3    0    0 -0.50182140567E+02  0.42651622124E+01  0.40515381972E+02  0.64636947770E+02  0.00000000000E+00 0.  1.
         22    1    3    3    0    0  0.33346505471E+02  0.11886170899E+03  0.16600445286E+03  0.20687574450E+03  0.00000000000E+00 0.  1.
</event>
<event>
 7    1  0.5779468E-006  0.1125126E+03  0.7818608E-02  0.1382311E+00
          2   -1    0    0  502    0  0.00000000000E+00  0.00000000000E+00  0.22730919733E+04  0.22730919733E+04  0.00000000000E+00 0. -1.
          1   -1    0    0  501    0 -0.00000000000E+00 -0.00000000000E+00 -0.11322682800E+03  0.11322682800E+03  0.00000000000E+00 0. -1.
         25    2    1    2    0    0 -0.13467648220E+03  0.14602644403E+01  0.50392457850E+03  0.53638067353E+03  0.12499743553E+03 0.  0.
          2    1    1    2  501    0  0.27197838671E+02  0.23959226679E+02 -0.91807729794E+02  0.98703729521E+02  0.00000000000E+00 0. -1.
          1    1    1    2  502    0  0.10747864353E+03 -0.25419491119E+02  0.17477482966E+04  0.17512343983E+04  0.00000000000E+00 0. -1.
         22    1    3    3    0    0 -0.59328163485E+02 -0.51220612516E+02  0.33511059848E+03  0.34415475494E+03  0.00000000000E+00 0.  1.
         22    1    3    3    0    0 -0.75348318714E+02  0.52680876957E+02  0.16881398001E+03  0.19222591859E+03  0.00000000000E+00 0.  1.
</event>
<event>
 7    1  0.5779468E-006  0.8871803E+02  0.7818608E-02  0.1360858E+00
          2   -1    0    0  502    0  0.00000000000E+00  0.00000000000E+00  0.41039313432E+03  0.41039313432E+03  0.00000000000E+00 0. -1.
          1   -1    0    0  501    0 -0.00000000000E+00 -0.00000000000E+00 -0.12263695907E+04  0.12263695907E+04  0.00000000000E+00 0. -1.
         25    2    1    2    0    0 -0.55349620055E+02  0.13592710751E+02 -0.12127188119E+02  0.13791541277E+03  0.12500100064E+03 0.  0.
          2    1    1    2  501    0  0.58353229379E+02 -0.68387960531E+02 -0.11474124628E+04  0.11509289172E+04  0.00000000000E+00 0. -1.
          1    1    1    2  502    0 -0.30036093242E+01  0.54795249780E+02  0.34356319450E+03  0.34791839515E+03  0.00000000000E+00 0. -1.
         22    1    3    3    0    0 -0.47575011285E+02 -0.41704294107E+02 -0.40661681707E+02  0.75206397367E+02  0.00000000000E+00 0. -1.
         22    1    3    3    0    0 -0.77746087697E+01  0.55297004858E+02  0.28534493588E+02  0.62709015398E+02  0.00000000000E+00 0. -1.
</event>
<event>
 7    1  0.5779468E-006  0.1189889E+03  0.7818608E-02  0.1280694E+00
          2   -1    0    0  502    0  0.00000000000E+00  0.00000000000E+00  0.51305872320E+03  0.51305872320E+03  0.00000000000E+00 0. -1.
          1   -1    0    0  501    0 -0.00000000000E+00 -0.00000000000E+00 -0.40113804337E+03  0.40113804337E+03  0.00000000000E+00 0. -1.
         25    2    1    2    0    0  0.14520516793E+03  0.12329747016E+02 -0.62938375602E+02  0.20204671272E+03  0.12500028618E+03 0.  0.
          2    1    1    2  501    0 -0.10201314026E+03  0.59392712382E+02 -0.25140666584E+03  0.27773996238E+03  0.00000000000E+00 0. -1.
          1    1    1    2  502    0 -0.43192027669E+02 -0.71722459399E+02  0.42626572128E+03  0.43441009147E+03  0.00000000000E+00 0. -1.
         22    1    3    3    0    0  0.85856099669E+02 -0.22645353943E+01  0.29861479587E+02  0.90929125884E+02  0.00000000000E+00 0.  1.
         22    1    3    3    0    0  0.59349068257E+02  0.14594282411E+02 -0.92799855189E+02  0.11111758684E+03  0.00000000000E+00 0.  1.
</event>
<event>
 7    1  0.5779468E-006  0.1177958E+03  0.7818608E-02  0.1298488E+00
          2   -1    0    0  502    0  0.00000000000E+00  0.00000000000E+00  0.82890922713E+03  0.82890922713E+03  0.00000000000E+00 0. -1.
          1   -1    0    0  501    0 -0.00000000000E+00 -0.00000000000E+00 -0.10268814788E+03  0.10268814788E+03  0.00000000000E+00 0. -1.
         25    2    1    2    0    0  0.11907713410E+03  0.10420027643E+03  0.15528028955E+03  0.25450654058E+03  0.12499819760E+03 0.  0.
          2    1    1    2  501    0 -0.47786734882E+02 -0.97743456668E+02  0.74313893307E+01  0.10905311045E+03  0.00000000000E+00 0. -1.
          1    1    1    2  502    0 -0.71290399219E+02 -0.64568197599E+01  0.56350940037E+03  0.56803772397E+03  0.00000000000E+00 0. -1.
         22    1    3    3    0    0  0.80503137741E+02 -0.92124992991E+01  0.74063880592E+02  0.10977742818E+03  0.00000000000E+00 0. -1.
         22    1    3    3    0    0  0.38573996360E+02  0.11341277573E+03  0.81216408958E+02  0.14472911240E+03  0.00000000000E+00 0. -1.
</event>
<event>
 7    1  0.5779468E-006  0.7320869E+02  0.7818608E-02  0.1403280E+00
          2   -1    0    0  502    0  0.00000000000E+00  0.00000000000E+00  0.18671730752E+04  0.18671730752E+04  0.00000000000E+00 0. -1.
          1   -1    0    0  501    0 -0.00000000000E+00 -0.00000000000E+00 -0.18649944286E+03  0.18649944286E+03  0.00000000000E+00 0. -1.
         25    2    1    2    0    0 -0.62252532467E+02 -0.35106894444E+02  0.49430084381E+00  0.14399017355E+03  0.12500021564E+03 0.  0.
          2    1    1    2  501    0 -0.10324970348E+02  0.45954469458E+02 -0.10913443906E+03  0.11886439359E+03  0.00000000000E+00 0. -1.
          1    1    1    2  502    0  0.72577502816E+02 -0.10847575014E+02  0.17893137706E+04  0.17908179509E+04  0.00000000000E+00 0. -1.
         22    1    3    3    0    0  0.17803494466E+02 -0.38018535412E+02 -0.36613690783E+02  0.55704001677E+02  0.00000000000E+00 0.  1.
         22    1    3    3    0    0 -0.80056026934E+02  0.29116409678E+01  0.37107991627E+02  0.88286171874E+02  0.00000000000E+00 0.  1.
</event>
<event>
 7    1  0.5779468E-006  0.3253680E+02  0.7818608E-02  0.1576139E+00
          2   -1    0    0  502    0  0.00000000000E+00  0.00000000000E+00  0.32723013323E+03  0.32723013323E+03  0.00000000000E+00 0. -1.
          1   -1    0    0  501    0 -0.00000000000E+00 -0.00000000000E+00 -0.52998455718E+03  0.52998455718E+03  0.00000000000E+00 0. -1.
         25    2    1    2    0    0 -0.53375195142E+02  0.22940234567E+02 -0.32493185842E+02  0.14162097193E+03  0.12500210696E+03 0.  0.
          2    1    1    2  501    0  0.21753374935E+02 -0.23897203186E+02 -0.44141718126E+03  0.44259847894E+03  0.00000000000E+00 0. -1.
          1    1    1    2  502    0  0.31621820207E+02  0.95696861943E+00  0.27115594316E+03  0.27299523955E+03  0.00000000000E+00 0. -1.
         22    1    3    3    0    0  0.16871180816E+02  0.53676734109E+02  0.45809344342E+01  0.56451868764E+02  0.00000000000E+00 0. -1.
         22    1    3    3    0    0 -0.70246375958E+02 -0.30736499542E+02 -0.37074120277E+02  0.85169103163E+02  0.00000000000E+00 0. -1.
</event>
<event>
 7    1  0.5779468E-006  0.1145513E+03  0.7818608E-02  0.1415944E+00
          2   -1    0    0  502    0  0.00000000000E+00  0.00000000000E+00  0.55713304145E+03  0.55713304145E+03  0.00000000000E+00 0. -1.
          1   -1    0    0  501    0 -0.00000000000E+00 -0.00000000000E+00 -0.68913724527E+03  0.68913724527E+03  0.00000000000E+00 0. -1.
         25    2    1    2    0    0  0.24496188111E+02 -0.10279374137E+03 -0.54055049385E+03  0.56478920508E+03  0.12500157308E+03 0.  0.
          2    1    1    2  501    0 -0.24540249343E+02 -0.11886018698E+02 -0.12899373859E+03  0.13184417270E+03  0.00000000000E+00 0. -1.
          1    1    1    2  502    0  0.44061232429E-01  0.11467976006E+03  0.53754002862E+03  0.54963690895E+03  0.00000000000E+00 0. -1.
         22    1    3    3    0    0 -0.27970425468E+02  0.16228915754E+02 -0.81966232838E+02  0.88114617023E+02  0.00000000000E+00 0. -1.
         22    1    3    3    0    0  0.52466613579E+02 -0.11902265712E+03 -0.45858426101E+03  0.47667458805E+03  0.00000000000E+00 0. -1.
</event>
<event>
 7    1  0.5779468E-006  0.9778156E+02  0.7818608E-02  0.1401456E+00
          2   -1    0    0  502    0  0.00000000000E+00  0.00000000000E+00  0.26366504435E+04  0.26366504435E+04  0.00000000000E+00 0. -1.
          1   -1    0    0  501    0 -0.00000000000E+00 -0.00000000000E+00 -0.37786523775E+03  0.37786523775E+03  0.00000000000E+00 0. -1.
         25    2    1    2    0    0  0.33449935279E+02  0.80499167494E+02  0.10039566219E+04  0.10154574370E+04  0.12500357451E+03 0.  0.
          2    1    1    2  501    0  0.35372496891E+02 -0.53487379096E+01 -0.36965479985E+03  0.37138187030E+03  0.00000000000E+00 0. -1.
          1    1    1    2  502    0 -0.68822432169E+02 -0.75150429585E+02  0.16244833837E+04  0.16276763739E+04  0.00000000000E+00 0. -1.
         22    1    3    3    0    0 -0.20811317627E+02  0.47237207107E+02  0.14090442266E+03  0.15006172397E+03  0.00000000000E+00 0.  1.
         22    1    3    3    0    0  0.54261252906E+02  0.33261960387E+02  0.86305219924E+03  0.86539571307E+03  0.00000000000E+00 0.  1.
</event>
<event>
 7    1  0.5779468E-006  0.1278528E+03  0.7818608E-02  0.1296487E+00
          2   -1    0    0  502    0  0.00000000000E+00  0.00000000000E+00  0.15648193989E+04  0.15648193989E+04  0.00000000000E+00 0. -1.
          1   -1    0    0  501    0 -0.00000000000E+00 -0.00000000000E+00 -0.78965413071E+03  0.78965413071E+03  0.00000000000E+00 0. -1.
         25    2    1    2    0    0 -0.59832280693E+02  0.10429771067E+03  0.33666611895E+02  0.17667400364E+03  0.12498939372E+03 0.  0.
          2    1    1    2  501    0  0.11279608966E+03 -0.62962793696E+02 -0.71155885651E+03  0.72318965528E+03  0.00000000000E+00 0. -1.
          1    1    1    2  502    0 -0.52963808966E+02 -0.41334916970E+02  0.14530575128E+04  0.14546098707E+04  0.00000000000E+00 0. -1.
         22    1    3    3    0    0 -0.28344038283E+02  0.12496378788E+03  0.47342162290E+02  0.13660385470E+03  0.00000000000E+00 0. -1.
         22    1    3    3    0    0 -0.31488242410E+02 -0.20666077218E+02 -0.13675550395E+02  0.40070148942E+02  0.00000000000E+00 0. -1.
</event>
<event>
 7    1  0.5779468E-006  0.9679679E+02  0.7818608E-02  0.1323130E+00
          2   -1    0    0  502    0  0.00000000000E+00  0.00000000000E+00  0.15104605537E+04  0.15104605537E+04  0.00000000000E+00 0. -1.
          1   -1    0    0  501    0 -0.00000000000E+00 -0.00000000000E+00 -0.21434447767E+03  0.21434447767E+03  0.00000000000E+00 0. -1.
         25    2    1    2    0    0 -0.12174050047E+03 -0.81170964399E+02  0.82430208298E+02  0.20935526284E+03  0.12500164769E+03 0.  0.
          2    1    1    2  501    0  0.90942603951E+02  0.18671734366E+02 -0.13561613280E+03  0.16435001172E+03  0.00000000000E+00 0. -1.
          1    1    1    2  502    0  0.30797896514E+02  0.62499230033E+02  0.13493020005E+04  0.13510997568E+04  0.00000000000E+00 0. -1.
         22    1    3    3    0    0 -0.60198722140E+02 -0.77574042305E+01 -0.24798910416E+02  0.65567136780E+02  0.00000000000E+00 0.  1.
         22    1    3    3    0    0 -0.61541778325E+02 -0.73413560169E+02  0.10722911871E+03  0.14378812606E+03  0.00000000000E+00 0.  1.
</event>
<event>
 7    1  0.5779468E-006  0.3935805E+02  0.7818608E-02  0.1533449E+00
          2   -1    0    0  502    0  0.00000000000E+00  0.00000000000E+00  0.47675888221E+03  0.47675888221E+03  0.00000000000E+00 0. -1.
          1   -1    0    0  501    0 -0.00000000000E+00 -0.00000000000E+00 -0.29543611912E+03  0.29543611912E+03  0.00000000000E+00 0. -1.
         25    2    1    2    0    0  0.71010391065E+02  0.67526358475E+01 -0.88608444331E+02  0.16900922296E+03  0.12499834923E+03 0.  0.
          2    1    1    2  501    0 -0.36710101173E+02 -0.85248940628E+01 -0.16380873929E+03  0.16808809719E+03  0.00000000000E+00 0. -1.
          1    1    1    2  502    0 -0.34300289892E+02  0.17722582153E+01  0.43373994671E+03  0.43509768117E+03  0.00000000000E+00 0. -1.
         22    1    3    3    0    0  0.32011010493E+02  0.21885043287E+01 -0.11650521912E+03  0.12084270944E+03  0.00000000000E+00 0. -1.
         22    1    3    3    0    0  0.38999380571E+02  0.45641315188E+01  0.27896774786E+02  0.48166513522E+02  0.00000000000E+00 0. -1.
</event>
<event>
 7    1  0.5779468E-006  0.3488876E+02  0.7818608E-02  0.1579620E+00
          2   -1    0    0  502    0  0.00000000000E+00  0.00000000000E+00  0.13536752783E+04  0.13536752783E+04  0.00000000000E+00 0. -1.
          1   -1    0    0  501    0 -0.00000000000E+00 -0.00000000000E+00 -0.13042108682E+04  0.13042108682E+04  0.00000000000E+00 0. -1.
         25    2    1    2    0    0  0.45843403914E+02 -0.94126146121E+01 -0.71332517803E+02  0.15133868695E+03  0.12499942030E+03 0.  0.
          2    1    1    2  501    0 -0.23229846298E+02 -0.17149757548E+02 -0.11924688779E+04  0.11928184123E+04  0.00000000000E+00 0. -1.
          1    1    1    2  502    0 -0.22613557616E+02  0.26562372160E+02  0.13132658059E+04  0.13137290472E+04  0.00000000000E+00 0. -1.
         22    1    3    3    0    0 -0.37370065064E+02  0.23062976927E+02 -0.27757190477E+02  0.51950787201E+02  0.00000000000E+00 0.  1.
         22    1    3    3    0    0  0.83213468978E+02 -0.32475591539E+02 -0.43575327325E+02  0.99387899750E+02  0.00000000000E+00 0.  1.
</event>
<event>
 7    1  0.5779468E-006  0.2109025E+03  0.7818608E-02  0.1148983E+00
          2   -1    0    0  502    0  0.00000000000E+00  0.00000000000E+00  0.33217066939E+04  0.33217066939E+04  0.00000000000E+00 0. -1.
          1   -1    0    0  501    0 -0.00000000000E+00 -0.00000000000E+00 -0.28082165924E+04  0.28082165924E+04  0.00000000000E+00 0. -1.
         25    2    1    2    0    0 -0.28475351049E+02  0.23822283864E+02 -0.21595001613E+03  0.25226457594E+03  0.12499863993E+03 0.  0.
          2    1    1    2  501    0  0.23928185973E+03 -0.30184650301E+02 -0.25650808189E+04  0.25763940943E+04  0.00000000000E+00 0. -1.
          1    1    1    2  502    0 -0.21080650869E+03  0.63623664373E+01  0.32945209366E+04  0.33012646161E+04  0.00000000000E+00 0. -1.
         22    1    3    3    0    0  0.22638670003E+02  0.82455514911E+01 -0.19234509641E+03  0.19384822571E+03  0.00000000000E+00 0. -1.
         22    1    3    3    0    0 -0.51114021052E+02  0.15576732373E+02 -0.23604919718E+02  0.58416350232E+02  0.00000000000E+00 0. -1.
</event>
<event>
 7    1  0.5779468E-006  0.5584519E+02  0.7818608E-02  0.1457941E+00
          2   -1    0    0  502    0  0.00000000000E+00  0.00000000000E+00  0.19914836020E+04  0.19914836020E+04  0.00000000000E+00 0. -1.
          1   -1    0    0  501    0 -0.00000000000E+00 -0.00000000000E+00 -0.16469163208E+03  0.16469163208E+03  0.00000000000E+00 0. -1.
         25    2    1    2    0    0  0.45744711932E+02 -0.89748662264E+01  0.63175602712E+02  0.14761393706E+03  0.12500236294E+03 0.  0.
          2    1    1    2  501    0 -0.32080812808E+02  0.47426213270E+02 -0.11554666342E+03  0.12895524682E+03  0.00000000000E+00 0. -1.
          1    1    1    2  502    0 -0.13663899124E+02 -0.38451347044E+02  0.18791630306E+04  0.18796060502E+04  0.00000000000E+00 0. -1.
         22    1    3    3    0    0  0.59932799937E+02 -0.47242480663E+02  0.49040024817E+01  0.76471182336E+02  0.00000000000E+00 0.  1.
         22    1    3    3    0    0 -0.14188088005E+02  0.38267614436E+02  0.58271600230E+02  0.71142754721E+02  0.00000000000E+00 0.  1.
</event>
<event>
 7    1  0.5779468E-006  0.7988695E+02  0.7818608E-02  0.1437029E+00
          2   -1    0    0  502    0  0.00000000000E+00  0.00000000000E+00  0.43596229971E+03  0.43596229971E+03  0.00000000000E+00 0. -1.
          1   -1    0    0  501    0 -0.00000000000E+00 -0.00000000000E+00 -0.10600270985E+04  0.10600270985E+04  0.00000000000E+00 0. -1.
         25    2    1    2    0    0 -0.82506057863E+02 -0.72028769564E+02 -0.45143814101E+03  0.48106190509E+03  0.12501507164E+03 0.  0.
          2    1    1    2  501    0  0.15012681887E+02  0.29719640923E+02 -0.58953639519E+03  0.59047590885E+03  0.00000000000E+00 0. -1.
          1    1    1    2  502    0  0.67493375976E+02  0.42309128640E+02  0.41690973746E+03  0.42445158423E+03  0.00000000000E+00 0. -1.
         22    1    3    3    0    0 -0.80700120786E+02 -0.10074064197E+03 -0.41514969665E+03  0.43475332899E+03  0.00000000000E+00 0.  1.
         22    1    3    3    0    0 -0.18059370778E+01  0.28711872409E+02 -0.36288444362E+02  0.46308576098E+02  0.00000000000E+00 0.  1.
</event>
<event>
 7    1  0.5779468E-006  0.1367819E+03  0.7818608E-02  0.1296454E+00
          2   -1    0    0  502    0  0.00000000000E+00  0.00000000000E+00  0.10415004260E+04  0.10415004260E+04  0.00000000000E+00 0. -1.
          1   -1    0    0  501    0 -0.00000000000E+00 -0.00000000000E+00 -0.20358391809E+04  0.20358391809E+04  0.00000000000E+00 0. -1.
         25    2    1    2    0    0  0.17059046194E+03  0.67443025018E+02  0.31462907767E+03  0.38506521691E+03  0.12503638444E+03 0.  0.
          2    1    1    2  501    0 -0.43122506840E+02 -0.45678560411E+02 -0.19940780528E+04  0.19950672576E+04  0.00000000000E+00 0. -1.
          1    1    1    2  502    0 -0.12746795510E+03 -0.21764464607E+02  0.68511022028E+03  0.69720713237E+03  0.00000000000E+00 0. -1.
         22    1    3    3    0    0  0.85513464886E+02  0.98517737587E+02  0.16775730946E+03  0.21251073425E+03  0.00000000000E+00 0. -1.
         22    1    3    3    0    0  0.85076997058E+02 -0.31074712570E+02  0.14687176821E+03  0.17255448266E+03  0.00000000000E+00 0. -1.
</event>
<event>
 7    1  0.5779468E-006  0.8023609E+02  0.7818608E-02  0.1369277E+00
          2   -1    0    0  502    0  0.00000000000E+00  0.00000000000E+00  0.18771039843E+03  0.18771039843E+03  0.00000000000E+00 0. -1.
          1   -1    0    0  501    0 -0.00000000000E+00 -0.00000000000E+00 -0.12356587334E+04  0.12356587334E+04  0.00000000000E+00 0. -1.
         25    2    1    2    0    0 -0.12501189518E+03 -0.45806689311E+02 -0.22453900064E+03  0.28942413653E+03  0.12498936463E+03 0.  0.
          2    1    1    2  501    0  0.48619412683E+02  0.28908607920E+02 -0.96794267129E+03  0.96959402319E+03  0.00000000000E+00 0. -1.
          1    1    1    2  502    0  0.76392482496E+02  0.16898081391E+02  0.14453333698E+03  0.16435097211E+03  0.00000000000E+00 0. -1.
         22    1    3    3    0    0 -0.86926673634E+02  0.13414857691E+02 -0.19334833669E+03  0.21241418102E+03  0.00000000000E+00 0. -1.
         22    1    3    3    0    0 -0.38085221545E+02 -0.59221547002E+02 -0.31190663951E+02  0.77009955507E+02  0.00000000000E+00 0. -1.
</event>
<event>
 7    1  0.5779468E-006  0.4640857E+02  0.7818608E-02  0.1571042E+00
          2   -1    0    0  502    0  0.00000000000E+00  0.00000000000E+00  0.40220409313E+03  0.40220409313E+03  0.00000000000E+00 0. -1.
          1   -1    0    0  501    0 -0.00000000000E+00 -0.00000000000E+00 -0.56331002320E+03  0.56331002320E+03  0.00000000000E+00 0. -1.
         25    2    1    2    0    0 -0.44042427397E+02 -0.11363555265E+02 -0.19483189050E+01  0.13303535418E+03  0.12500297483E+03 0.  0.
          2    1    1    2  501    0  0.10123832861E+02 -0.20535234925E+02 -0.49394181847E+03  0.49447215078E+03  0.00000000000E+00 0. -1.
          1    1    1    2  502    0  0.33918594535E+02  0.31898790190E+02  0.33478420730E+03  0.33800661137E+03  0.00000000000E+00 0. -1.
         22    1    3    3    0    0 -0.82888948354E+02 -0.36190412483E+01 -0.25690030547E+02  0.86854204782E+02  0.00000000000E+00 0. -1.
         22    1    3    3    0    0  0.38846520957E+02 -0.77445140169E+01  0.23741711642E+02  0.46181149396E+02  0.00000000000E+00 0. -1.
</event>
<event>
 7    1  0.5779468E-006  0.2706864E+02  0.7818608E-02  0.1645232E+00
          2   -1    0    0  502    0  0.00000000000E+00  0.00000000000E+00  0.17416996108E+04  0.17416996108E+04  0.00000000000E+00 0. -1.
          1   -1    0    0  501    0 -0.00000000000E+00 -0.00000000000E+00 -0.13436174524E+02  0.13436174524E+02  0.00000000000E+00 0. -1.
         25    2    1    2    0    0  0.65261909817E+01 -0.10596374627E+02  0.82578647520E+03  0.83528617792E+03  0.12499928833E+03 0.  0.
          2    1    1    2  501    0 -0.27435587666E+02 -0.35247090320E+01  0.13977599059E+02  0.30992068659E+02  0.00000000000E+00 0. -1.
          1    1    1    2  502    0  0.20909396684E+02  0.14121083659E+02  0.88849936200E+03  0.88885753872E+03  0.00000000000E+00 0. -1.
         22    1    3    3    0    0  0.60015139654E+02 -0.21149042257E+02  0.29961382780E+03  0.30629649816E+03  0.00000000000E+00 0.  1.
         22    1    3    3    0    0 -0.53488948672E+02  0.10552667630E+02  0.52617264739E+03  0.52898967976E+03  0.00000000000E+00 0.  1.
</event>
<event>
 7    1  0.5779468E-006  0.1234028E+03  0.7818608E-02  0.1321991E+00
          2   -1    0    0  502    0  0.00000000000E+00  0.00000000000E+00  0.51625203554E+03  0.51625203554E+03  0.00000000000E+00 0. -1.
          1   -1    0    0  501    0 -0.00000000000E+00 -0.00000000000E+00 -0.30224045814E+03  0.30224045814E+03  0.00000000000E+00 0. -1.
         25    2    1    2    0    0  0.66197969061E+02 -0.84295773515E+02  0.11135304150E+03  0.19877841212E+03  0.12500163493E+03 0.  0.
          2    1    1    2  501    0 -0.35792195557E+02 -0.42036044108E+02 -0.24365194873E+03  0.24982870609E+03  0.00000000000E+00 0. -1.
          1    1    1    2  502    0 -0.30405773504E+02  0.12633181762E+03  0.34631048464E+03  0.36988537546E+03  0.00000000000E+00 0. -1.
         22    1    3    3    0    0 -0.25957160150E+02 -0.63081975132E+02  0.32076081635E+02  0.75378941109E+02  0.00000000000E+00 0. -1.
         22    1    3    3    0    0  0.92155129211E+02 -0.21213798383E+02  0.79276959861E+02  0.12339947101E+03  0.00000000000E+00 0. -1.
</event>
<event>
 7    1  0.5779468E-006  0.3472031E+03  0.7818608E-02  0.1290546E+00
          2   -1    0    0  502    0  0.00000000000E+00  0.00000000000E+00  0.99067091327E+03  0.99067091327E+03  0.00000000000E+00 0. -1.
          1   -1    0    0  501    0 -0.00000000000E+00 -0.00000000000E+00 -0.23573013401E+04  0.23573013401E+04  0.00000000000E+00 0. -1.
         25    2    1    2    0    0 -0.16804300231E+03 -0.27584858318E+03  0.43863444359E+03  0.55888911801E+03  0.12500391857E+03 0.  0.
          2    1    1    2  501    0  0.17368332457E+03  0.30138012287E+03 -0.22836470338E+04  0.23099869373E+04  0.00000000000E+00 0. -1.
          1    1    1    2  502    0 -0.56403222596E+01 -0.25531539686E+02  0.47838216336E+03  0.47909619803E+03  0.00000000000E+00 0. -1.
         22    1    3    3    0    0 -0.13932779854E+03 -0.11814118808E+03  0.27217681597E+03  0.32779535524E+03  0.00000000000E+00 0. -1.
         22    1    3    3    0    0 -0.28715203773E+02 -0.15770739510E+03  0.16645762762E+03  0.23109376277E+03  0.00000000000E+00 0. -1.
</event>
<event>
 7    1  0.5779468E-006  0.1038554E+03  0.7818608E-02  0.1375813E+00
          2   -1    0    0  502    0  0.00000000000E+00  0.00000000000E+00  0.39009058010E+03  0.39009058010E+03  0.00000000000E+00 0. -1.
          1   -1    0    0  501    0 -0.00000000000E+00 -0.00000000000E+00 -0.61828758925E+03  0.61828758925E+03  0.00000000000E+00 0. -1.
         25    2    1    2    0    0  0.85243251157E+01 -0.68442530833E+02  0.22362908017E+02  0.14453591352E+03  0.12503394137E+03 0.  0.
          2    1    1    2  501    0 -0.56534748262E+01 -0.41019792689E+02 -0.54661753497E+03  0.54818365052E+03  0.00000000000E+00 0. -1.
          1    1    1    2  502    0 -0.28708502895E+01  0.10946232352E+03  0.29605761780E+03  0.31565860532E+03  0.00000000000E+00 0. -1.
         22    1    3    3    0    0  0.52099514566E+02  0.43454852043E+01 -0.10915424323E+02  0.53407762993E+02  0.00000000000E+00 0. -1.
         22    1    3    3    0    0 -0.43575189451E+02 -0.72788016038E+02  0.33278332340E+02  0.91128150523E+02  0.00000000000E+00 0. -1.
</event>
<event>
 7    1  0.5779468E-006  0.1008533E+03  0.7818608E-02  0.1342233E+00
          2   -1    0    0  502    0  0.00000000000E+00  0.00000000000E+00  0.94065707142E+03  0.94065707142E+03  0.00000000000E+00 0. -1.
          1   -1    0    0  501    0 -0.00000000000E+00 -0.00000000000E+00 -0.81154344637E+03  0.81154344637E+03  0.00000000000E+00 0. -1.
         25    2    1    2    0    0 -0.44642776139E+02  0.18953116755E+02  0.46507435584E+02  0.14191608858E+03  0.12500014614E+03 0.  0.
          2    1    1    2  501    0 -0.45870378882E+02  0.33102420507E+02 -0.75956332139E+03  0.76166679139E+03  0.00000000000E+00 0. -1.
          1    1    1    2  502    0  0.90513155021E+02 -0.52055537262E+02  0.84216951086E+03  0.84861763782E+03  0.00000000000E+00 0. -1.
         22    1    3    3    0    0 -0.81399604085E+02  0.22195455634E+02  0.59005744896E+02  0.10295732964E+03  0.00000000000E+00 0. -1.
         22    1    3    3    0    0  0.36756827946E+02 -0.32423388791E+01 -0.12498309312E+02  0.38958758935E+02  0.00000000000E+00 0. -1.
</event>
<event>
 7    1  0.5779468E-006  0.8292171E+02  0.7818608E-02  0.1414725E+00
          2   -1    0    0  502    0  0.00000000000E+00  0.00000000000E+00  0.36306318440E+03  0.36306318440E+03  0.00000000000E+00 0. -1.
          1   -1    0    0  501    0 -0.00000000000E+00 -0.00000000000E+00 -0.18290984162E+04  0.18290984162E+04  0.00000000000E+00 0. -1.
         25    2    1    2    0    0 -0.12555663045E+02 -0.56416368369E+02  0.37993434015E+02  0.14285240372E+03  0.12499142741E+03 0.  0.
          2    1    1    2  501    0  0.24025811930E+02 -0.29473306408E+02 -0.17695744382E+04  0.17699829400E+04  0.00000000000E+00 0. -1.
          1    1    1    2  502    0 -0.11470148885E+02  0.85889674777E+02  0.26554577241E+03  0.27932625690E+03  0.00000000000E+00 0. -1.
         22    1    3    3    0    0  0.31359952229E+02 -0.46510295531E+02 -0.28212655613E+02  0.62790191360E+02  0.00000000000E+00 0. -1.
         22    1    3    3    0    0 -0.43915615274E+02 -0.99060728382E+01  0.66206089628E+02  0.80062212359E+02  0.00000000000E+00 0. -1.
</event>
<event>
 7    1  0.5779468E-006  0.9375340E+02  0.7818608E-02  0.1311587E+00
          2   -1    0    0  502    0  0.00000000000E+00  0.00000000000E+00  0.27542264502E+04  0.27542264502E+04  0.00000000000E+00 0. -1.
          1   -1    0    0  501    0 -0.00000000000E+00 -0.00000000000E+00 -0.68065105339E+02  0.68065105339E+02  0.00000000000E+00 0. -1.
         25    2    1    2    0    0 -0.53580261366E+02  0.88777018799E+02  0.72253669736E+03  0.74056359791E+03  0.12499183990E+03 0.  0.
          2    1    1    2  501    0 -0.40550433869E+02 -0.68711973367E+02 -0.30401036717E+02  0.85380887817E+02  0.00000000000E+00 0. -1.
          1    1    1    2  502    0  0.94130695235E+02 -0.20065045432E+02  0.19940256842E+04  0.19963470698E+04  0.00000000000E+00 0. -1.
         22    1    3    3    0    0  0.12308434140E+01  0.93065885645E+02  0.29057891786E+03  0.30512109325E+03  0.00000000000E+00 0.  1.
         22    1    3    3    0    0 -0.54811104780E+02 -0.42888668455E+01  0.43195777951E+03  0.43544250466E+03  0.00000000000E+00 0.  1.
</event>
<event>
 7    1  0.5779468E-006  0.9720955E+02  0.7818608E-02  0.1435088E+00
          2   -1    0    0  502    0  0.00000000000E+00  0.00000000000E+00  0.32551109103E+03  0.32551109103E+03  0.00000000000E+00 0. -1.
          1   -1    0    0  501    0 -0.00000000000E+00 -0.00000000000E+00 -0.24776518697E+03  0.24776518697E+03  0.00000000000E+00 0. -1.
         25    2    1    2    0    0  0.84403996659E+02 -0.89306285140E+02  0.10676824182E+03  0.20525017087E+03  0.12501411106E+03 0.  0.
          2    1    1    2  501    0 -0.63293775281E+02  0.71271634037E+02 -0.18579202943E+03  0.20881672827E+03  0.00000000000E+00 0. -1.
          1    1    1    2  502    0 -0.21110221379E+02  0.18034651103E+02  0.15676969167E+03  0.15920937885E+03  0.00000000000E+00 0. -1.
         22    1    3    3    0    0  0.71526168716E+02  0.12084818907E+02  0.52376738760E+02  0.89472668578E+02  0.00000000000E+00 0.  1.
         22    1    3    3    0    0  0.12877827943E+02 -0.10139110405E+03  0.54391503059E+02  0.11577750229E+03  0.00000000000E+00 0.  1.
</event>
<event>
 7    1  0.5779468E-006  0.6531326E+02  0.7818608E-02  0.1457692E+00
          2   -1    0    0  502    0  0.00000000000E+00  0.00000000000E+00  0.95713859398E+03  0.95713859398E+03  0.00000000000E+00 0. -1.
          1   -1    0    0  501    0 -0.00000000000E+00 -0.00000000000E+00 -0.12739730901E+03  0.12739730901E+03  0.00000000000E+00 0. -1.
         25    2    1    2    0    0  0.52554674895E+02 -0.82959716079E+02  0.83730114318E+02  0.17966707090E+03  0.12500086390E+03 0.  0.
          2    1    1    2  501    0 -0.12049820098E+02  0.32812186587E+02 -0.74256382559E+02  0.82072212739E+02  0.00000000000E+00 0. -1.
          1    1    1    2  502    0 -0.40504854797E+02  0.50147529492E+02  0.82026755321E+03  0.82279661936E+03  0.00000000000E+00 0. -1.
         22    1    3    3    0    0  0.66102521717E+02 -0.74503867145E+02  0.54235675253E+01  0.99748607417E+02  0.00000000000E+00 0. -1.
         22    1    3    3    0    0 -0.13547846822E+02 -0.84558489344E+01  0.78306546793E+02  0.79918463482E+02  0.00000000000E+00 0. -1.
</event>
<event>
 7    1  0.5779468E-006  0.8781722E+02  0.7818608E-02  0.1413448E+00
          2   -1    0    0  502    0  0.00000000000E+00  0.00000000000E+00  0.76474130463E+03  0.76474130463E+03  0.00000000000E+00 0. -1.
          1   -1    0    0  501    0 -0.00000000000E+00 -0.00000000000E+00 -0.68147307559E+03  0.68147307559E+03  0.00000000000E+00 0. -1.
         25    2    1    2    0    0  0.15783265666E+02 -0.53969217257E+02 -0.60255448668E+01  0.13719761814E+03  0.12500036539E+03 0.  0.
          2    1    1    2  501    0 -0.70884545551E+01  0.89174309756E+02 -0.60610614548E+03  0.61267198671E+03  0.00000000000E+00 0. -1.
          1    1    1    2  502    0 -0.86948111108E+01 -0.35205092498E+02  0.69539991940E+03  0.69634477536E+03  0.00000000000E+00 0. -1.
         22    1    3    3    0    0 -0.29799930422E+02 -0.53975487340E+02 -0.45716930276E+02  0.76755630416E+02  0.00000000000E+00 0. -1.
         22    1    3    3    0    0  0.45583196088E+02  0.62700824107E-02  0.39691385409E+02  0.60441987729E+02  0.00000000000E+00 0. -1.
</event>
<event>
 7    1  0.5779468E-006  0.1104260E+03  0.7818608E-02  0.1262850E+00
          2   -1    0    0  502    0  0.00000000000E+00  0.00000000000E+00  0.21816346484E+04  0.21816346484E+04  0.00000000000E+00 0. -1.
          1   -1    0    0  501    0 -0.00000000000E+00 -0.00000000000E+00 -0.25668260155E+03  0.25668260155E+03  0.00000000000E+00 0. -1.
         25    2    1    2    0    0 -0.14078287567E+02 -0.74056055990E+01  0.19508437001E+03  0.23223998892E+03  0.12499783941E+03 0.  0.
          2    1    1    2  501    0  0.17376386245E+02 -0.10905027161E+03 -0.22347210941E+03  0.24926629179E+03  0.00000000000E+00 0. -1.
          1    1    1    2  502    0 -0.32980986780E+01  0.11645587721E+03  0.19533397862E+04  0.19568109692E+04  0.00000000000E+00 0. -1.
         22    1    3    3    0    0  0.27993632058E+02  0.21697185278E+01 -0.41538327861E+01  0.28383189410E+02  0.00000000000E+00 0. -1.
         22    1    3    3    0    0 -0.42071919625E+02 -0.95753241268E+01  0.19923820279E+03  0.20385679951E+03  0.00000000000E+00 0. -1.
</event>
<event>
 7    1  0.5779468E-006  0.1866185E+03  0.7818608E-02  0.1209465E+00
          2   -1    0    0  502    0  0.00000000000E+00  0.00000000000E+00  0.14245651606E+04  0.14245651606E+04  0.00000000000E+00 0. -1.
          1   -1    0    0  501    0 -0.00000000000E+00 -0.00000000000E+00 -0.62250035229E+02  0.62250035229E+02  0.00000000000E+00 0. -1.
         25    2    1    2    0    0 -0.10998220742E+03 -0.39644137391E+02  0.59037963613E+03  0.61468882167E+03  0.12500595649E+03 0.  0.
          2    1    1    2  501    0  0.18140938645E+03  0.12256176729E+03  0.22344187624E+03  0.31282107402E+03  0.00000000000E+00 0. -1.
          1    1    1    2  502    0 -0.71427179034E+02 -0.82917629901E+02  0.54849361296E+03  0.55930530009E+03  0.00000000000E+00 0. -1.
         22    1    3    3    0    0 -0.95922081566E+00  0.27257394610E+02  0.24266279406E+03  0.24419073956E+03  0.00000000000E+00 0.  1.
         22    1    3    3    0    0 -0.10902298660E+03 -0.66901532001E+02  0.34771684206E+03  0.37049808211E+03  0.00000000000E+00 0.  1.
</event>
<event>
 7    1  0.5779468E-006  0.3737441E+02  0.7818608E-02  0.1574063E+00
          2   -1    0    0  502    0  0.00000000000E+00  0.00000000000E+00  0.67651169645E+03  0.67651169645E+03  0.00000000000E+00 0. -1.
          1   -1    0    0  501    0 -0.00000000000E+00 -0.00000000000E+00 -0.39591520761E+02  0.39591520761E+02  0.00000000000E+00 0. -1.
         25    2    1    2    0    0 -0.57440035253E+02 -0.25271819531E+02  0.52865977773E+03  0.54684961353E+03  0.12500126685E+03 0.  0.
          2    1    1    2  501    0  0.29767541730E+02  0.21724478444E+02 -0.17243223973E+02  0.40686463071E+02  0.00000000000E+00 0. -1.
          1    1    1    2  502    0  0.27672493524E+02  0.35473410866E+01  0.12550362193E+03  0.12856714061E+03  0.00000000000E+00 0. -1.
         22    1    3    3    0    0 -0.80556564786E+02 -0.49647414640E+02  0.27177340081E+03  0.28777596720E+03  0.00000000000E+00 0. -1.
         22    1    3    3    0    0  0.23116529533E+02  0.24375595110E+02  0.25688637692E+03  0.25907364633E+03  0.00000000000E+00 0. -1.
</event>
<event>
 7    1  0.5779468E-006  0.1365684E+03  0.7818608E-02  0.1268128E+00
          2   -1    0    0  502    0  0.00000000000E+00  0.00000000000E+00  0.10545697655E+03  0.10545697655E+03  0.00000000000E+00 0. -1.
          1   -1    0    0  501    0 -0.00000000000E+00 -0.00000000000E+00 -0.18069351555E+04  0.18069351555E+04  0.00000000000E+00 0. -1.
         25    2    1    2    0    0 -0.98496183123E+01 -0.20607770002E+03 -0.41220047295E+03  0.47759861893E+03  0.12500470981E+03 0.  0.
          2    1    1    2  501    0 -0.15683060259E+02  0.80792765060E+02 -0.13035443356E+04  0.13061398333E+04  0.00000000000E+00 0. -1.
          1    1    1    2  502    0  0.25532678572E+02  0.12528493496E+03  0.14266629627E+02  0.12865367979E+03  0.00000000000E+00 0. -1.
         22    1    3    3    0    0  0.55619281920E+02 -0.90027598684E+02 -0.21457790524E+03  0.23925331861E+03  0.00000000000E+00 0.  1.
         22    1    3    3    0    0 -0.65468900232E+02 -0.11605010133E+03 -0.19762256771E+03  0.23834530032E+03  0.00000000000E+00 0.  1.
</event>
<event>
 7    1  0.6358263E-006  0.1038211E+03  0.7818608E-02  0.1331232E+00
          2   -1    0    0  502    0  0.00000000000E+00  0.00000000000E+00  0.11821792040E+04  0.11821792040E+04  0.00000000000E+00 0. -1.
          1   -1    0    0  501    0 -0.00000000000E+00 -0.00000000000E+00 -0.55960839484E+03  0.55960839484E+03  0.00000000000E+00 0. -1.
         25    2    1    2    0    0  0.57414727025E+02 -0.13177105714E+03 -0.24866716361E+03  0.31324193742E+03  0.12500036289E+03 0.  0.
          2    1    1    2  501    0 -0.62556915489E+02  0.71516508023E+02 -0.26973012344E+03  0.28597607957E+03  0.00000000000E+00 0. -1.
          1    1    1    2  502    0  0.51421884636E+01  0.60254549115E+02  0.11409680962E+04  0.11425695819E+04  0.00000000000E+00 0. -1.
         22    1    3    3    0    0  0.69188416071E+02 -0.59321725184E+02 -0.55759399265E+02  0.10684200767E+03  0.00000000000E+00 0. -1.
         22    1    3    3    0    0 -0.11773689046E+02 -0.72449331954E+02 -0.19290776435E+03  0.20639992975E+03  0.00000000000E+00 0. -1.
</event>
<event>
 7    1  0.5779468E-006  0.1276704E+03  0.7818608E-02  0.1268646E+00
          2   -1    0    0  502    0  0.00000000000E+00  0.00000000000E+00  0.23454048064E+04  0.23454048064E+04  0.00000000000E+00 0. -1.
          1   -1    0    0  501    0 -0.00000000000E+00 -0.00000000000E+00 -0.10456021025E+03  0.10456021025E+03  0.00000000000E+00 0. -1.
         25    2    1    2    0    0  0.11509896301E+03  0.80428587168E+02  0.40474489065E+03  0.44627323034E+03  0.12499936278E+03 0.  0.
          2    1    1    2  501    0 -0.38724461111E+02 -0.12332255950E+03 -0.32304631771E+02  0.13323523109E+03  0.00000000000E+00 0. -1.
          1    1    1    2  502    0 -0.76374501903E+02  0.42893972336E+02  0.18684043373E+04  0.18704565552E+04  0.00000000000E+00 0. -1.
         22    1    3    3    0    0  0.10124782611E+02  0.33418762073E+02  0.11828549730E+02  0.36867865006E+02  0.00000000000E+00 0.  1.
         22    1    3    3    0    0  0.10497418040E+03  0.47009825095E+02  0.39291634092E+03  0.40940536533E+03  0.00000000000E+00 0.  1.
</event>
<event>
 7    1  0.5779468E-006  0.4199502E+02  0.7818608E-02  0.1597741E+00
          2   -1    0    0  502    0  0.00000000000E+00  0.00000000000E+00  0.29551882400E+03  0.29551882400E+03  0.00000000000E+00 0. -1.
          1   -1    0    0  501    0 -0.00000000000E+00 -0.00000000000E+00 -0.34034865825E+03  0.34034865825E+03  0.00000000000E+00 0. -1.
         25    2    1    2    0    0  0.17444215303E+02 -0.52639343402E+02 -0.57159225585E+02  0.14821381204E+03  0.12499982355E+03 0.  0.
          2    1    1    2  501    0  0.84038436291E+01  0.19763599176E+02 -0.23542094502E+03  0.23639848941E+03  0.00000000000E+00 0. -1.
          1    1    1    2  502    0 -0.25848058932E+02  0.32875744226E+02  0.24775033636E+03  0.25125518079E+03  0.00000000000E+00 0. -1.
         22    1    3    3    0    0  0.63473405326E+00 -0.50910845385E+02  0.30225240131E+02  0.59210490677E+02  0.00000000000E+00 0.  1.
         22    1    3    3    0    0  0.16809481250E+02 -0.17284980165E+01 -0.87384465716E+02  0.89003321364E+02  0.00000000000E+00 0.  1.
</event>
<event>
 7    1  0.5779468E-006  0.1400641E+03  0.7818608E-02  0.1248293E+00
          2   -1    0    0  502    0  0.00000000000E+00  0.00000000000E+00  0.12937562422E+04  0.12937562422E+04  0.00000000000E+00 0. -1.
          1   -1    0    0  501    0 -0.00000000000E+00 -0.00000000000E+00 -0.27151312799E+04  0.27151312799E+04  0.00000000000E+00 0. -1.
         25    2    1    2    0    0  0.13244409253E+03  0.17420117527E+03 -0.57644639960E+03  0.62912409214E+03  0.12497673617E+03 0.  0.
          2    1    1    2  501    0 -0.10809551838E+03 -0.79713673725E+02 -0.21083280410E+04  0.21126017228E+04  0.00000000000E+00 0. -1.
          1    1    1    2  502    0 -0.24348574157E+02 -0.94487501548E+02  0.12633994028E+04  0.12671617071E+04  0.00000000000E+00 0. -1.
         22    1    3    3    0    0  0.38179403299E+02  0.14861454615E+03 -0.32602728201E+03  0.36033004146E+03  0.00000000000E+00 0.  1.
         22    1    3    3    0    0  0.94264689235E+02  0.25586629128E+02 -0.25041911758E+03  0.26879405068E+03  0.00000000000E+00 0.  1.
</event>
<event>
 7    1  0.5779468E-006  0.1598550E+03  0.7818608E-02  0.1316384E+00
          2   -1    0    0  502    0  0.00000000000E+00  0.00000000000E+00  0.53707194834E+03  0.53707194834E+03  0.00000000000E+00 0. -1.
          1   -1    0    0  501    0 -0.00000000000E+00 -0.00000000000E+00 -0.26057259951E+03  0.26057259951E+03  0.00000000000E+00 0. -1.
         25    2    1    2    0    0 -0.13533099593E+03  0.10915472651E+03  0.23138480180E+03  0.31526555733E+03  0.12499684939E+03 0.  0.
          2    1    1    2  501    0  0.42616796310E+02  0.13854322857E+02 -0.19335868191E+03  0.19848353448E+03  0.00000000000E+00 0. -1.
          1    1    1    2  502    0  0.92714199616E+02 -0.12300904936E+03  0.23847322894E+03  0.28389545604E+03  0.00000000000E+00 0. -1.
         22    1    3    3    0    0 -0.24647582065E+02  0.30596172486E+02 -0.79853010684E+01  0.40092319783E+02  0.00000000000E+00 0.  1.
         22    1    3    3    0    0 -0.11068341386E+03  0.78558554019E+02  0.23937010287E+03  0.27517323754E+03  0.00000000000E+00 0.  1.
</event>
<event>
 7    1  0.5779468E-006  0.9473283E+02  0.7818608E-02  0.1423138E+00
          2   -1    0    0  502    0  0.00000000000E+00  0.00000000000E+00  0.10223699067E+03  0.10223699067E+03  0.00000000000E+00 0. -1.
          1   -1    0    0  501    0 -0.00000000000E+00 -0.00000000000E+00 -0.82986777320E+03  0.82986777320E+03  0.00000000000E+00 0. -1.
         25    2    1    2    0    0  0.14145358988E+02  0.12243847056E+03 -0.47436778559E+03  0.50580760659E+03  0.12500107451E+03 0.  0.
          2    1    1    2  501    0  0.39813635171E+01 -0.30940787584E+02 -0.31363866514E+03  0.31518628756E+03  0.00000000000E+00 0. -1.
          1    1    1    2  502    0 -0.18126722505E+02 -0.91497682978E+02  0.60375668204E+02  0.11111086972E+03  0.00000000000E+00 0. -1.
         22    1    3    3    0    0  0.67903241679E+02  0.50059294419E+02 -0.20210342175E+03  0.21900359876E+03  0.00000000000E+00 0.  1.
         22    1    3    3    0    0 -0.53757882691E+02  0.72379176144E+02 -0.27226436384E+03  0.28680400783E+03  0.00000000000E+00 0.  1.
</event>
<event>
 7    1  0.6401805E-006  0.2029390E+03  0.7818608E-02  0.1193818E+00
          2   -1    0    0  502    0  0.00000000000E+00  0.00000000000E+00  0.15291373150E+04  0.15291373150E+04  0.00000000000E+00 0. -1.
          1   -1    0    0  501    0 -0.00000000000E+00 -0.00000000000E+00 -0.12970477162E+04  0.12970477162E+04  0.00000000000E+00 0. -1.
         25    2    1    2    0    0 -0.37946316954E+02  0.98363701704E+02 -0.31031588253E+03  0.35076514956E+03  0.12499960963E+03 0.  0.
          2    1    1    2  501    0 -0.11145616017E+03  0.42327498247E+02 -0.95580883837E+03  0.96321577451E+03  0.00000000000E+00 0. -1.
          1    1    1    2  502    0  0.14940247713E+03 -0.14069119995E+03  0.14982143197E+04  0.15122041072E+04  0.00000000000E+00 0. -1.
         22    1    3    3    0    0 -0.39147144556E+02  0.11114387246E+03 -0.15394006435E+03  0.19386336096E+03  0.00000000000E+00 0. -1.
         22    1    3    3    0    0  0.12008276015E+01 -0.12780170752E+02 -0.15637581819E+03  0.15690178860E+03  0.00000000000E+00 0. -1.
</event>
<event>
 7    1  0.5779468E-006  0.1608215E+03  0.7818608E-02  0.1319133E+00
          2   -1    0    0  502    0  0.00000000000E+00  0.00000000000E+00  0.93911558626E+02  0.93911558626E+02  0.00000000000E+00 0. -1.
          1   -1    0    0  501    0 -0.00000000000E+00 -0.00000000000E+00 -0.18118392538E+04  0.18118392538E+04  0.00000000000E+00 0. -1.
         25    2    1    2    0    0 -0.15392226089E+03 -0.26953763085E+02 -0.11186310318E+04  0.11363886411E+04  0.12500076200E+03 0.  0.
          2    1    1    2  501    0  0.81983521334E+01 -0.42678241104E+02 -0.60615507582E+03  0.60771096846E+03  0.00000000000E+00 0. -1.
          1    1    1    2  502    0  0.14572390876E+03  0.69632004189E+02  0.68584124048E+01  0.16165120294E+03  0.00000000000E+00 0. -1.
         22    1    3    3    0    0 -0.14843332288E+03  0.18313356452E+02 -0.73536092150E+03  0.75041556169E+03  0.00000000000E+00 0. -1.
         22    1    3    3    0    0 -0.54889380174E+01 -0.45267119537E+02 -0.38327011029E+03  0.38597307936E+03  0.00000000000E+00 0. -1.
</event>
<event>
 7    1  0.5779468E-006  0.7466728E+02  0.7818608E-02  0.1468436E+00
          2   -1    0    0  502    0  0.00000000000E+00  0.00000000000E+00  0.84527122452E+03  0.84527122452E+03  0.00000000000E+00 0. -1.
          1   -1    0    0  501    0 -0.00000000000E+00 -0.00000000000E+00 -0.19516937471E+03  0.19516937471E+03  0.00000000000E+00 0. -1.
         25    2    1    2    0    0  0.41259605585E+02  0.40145209543E+02  0.51274984664E+03  0.53089762205E+03  0.12500354782E+03 0.  0.
          2    1    1    2  501    0  0.24115671387E+02  0.14790038238E+02 -0.17933126136E+03  0.18154892492E+03  0.00000000000E+00 0. -1.
          1    1    1    2  502    0 -0.65375276971E+02 -0.54935247782E+02  0.31668326453E+03  0.32799405226E+03  0.00000000000E+00 0. -1.
         22    1    3    3    0    0  0.16061603451E+02  0.83727151450E+02  0.27655437544E+03  0.28939684443E+03  0.00000000000E+00 0.  1.
         22    1    3    3    0    0  0.25198002134E+02 -0.43581941907E+02  0.23619547121E+03  0.24150077762E+03  0.00000000000E+00 0.  1.
</event>
<event>
 7    1  0.5779468E-006  0.1253390E+03  0.7818608E-02  0.1297964E+00
          2   -1    0    0  502    0  0.00000000000E+00  0.00000000000E+00  0.46921062116E+03  0.46921062116E+03  0.00000000000E+00 0. -1.
          1   -1    0    0  501    0 -0.00000000000E+00 -0.00000000000E+00 -0.92948562394E+03  0.92948562394E+03  0.00000000000E+00 0. -1.
         25    2    1    2    0    0  0.10537407299E+03 -0.71511585785E+02 -0.36526350645E+03  0.40652221468E+03  0.12500111888E+03 0.  0.
          2    1    1    2  501    0 -0.12922356237E+03  0.82574622004E+01 -0.53325305100E+03  0.54874924251E+03  0.00000000000E+00 0. -1.
          1    1    1    2  502    0  0.23849489384E+02  0.63254123585E+02  0.43824155467E+03  0.44342478791E+03  0.00000000000E+00 0. -1.
         22    1    3    3    0    0  0.13123486391E+03 -0.55635596892E+02 -0.33302877011E+03  0.36225139181E+03  0.00000000000E+00 0.  1.
         22    1    3    3    0    0 -0.25860790921E+02 -0.15875988894E+02 -0.32234736340E+02  0.44270822868E+02  0.00000000000E+00 0.  1.
</event>
<event>
 7    1  0.5779468E-006  0.6265341E+02  0.7818608E-02  0.1422357E+00
          2   -1    0    0  502    0  0.00000000000E+00  0.00000000000E+00  0.28814961806E+04  0.28814961806E+04  0.00000000000E+00 0. -1.
          1   -1    0    0  501    0 -0.00000000000E+00 -0.00000000000E+00 -0.30267799637E+02  0.30267799637E+02  0.00000000000E+00 0. -1.
         25    2    1    2    0    0 -0.10283683570E+03  0.23095606676E+02  0.43630420748E+03  0.46593455443E+03  0.12499930290E+03 0.  0.
          2    1    1    2  501    0  0.47318925957E+02  0.35458956667E+01  0.22330356124E+02  0.52443292559E+02  0.00000000000E+00 0. -1.
          1    1    1    2  502    0  0.55517909740E+02 -0.26641502343E+02  0.23925938174E+04  0.23933861333E+04  0.00000000000E+00 0. -1.
         22    1    3    3    0    0 -0.11798934284E+03  0.42891969415E+02  0.41353485343E+03  0.43217158753E+03  0.00000000000E+00 0.  1.
         22    1    3    3    0    0  0.15152507141E+02 -0.19796362739E+02  0.22769354046E+02  0.33762966902E+02  0.00000000000E+00 0.  1.
</event>
<event>
 7    1  0.5779468E-006  0.9198953E+02  0.7818608E-02  0.1423050E+00
          2   -1    0    0  502    0  0.00000000000E+00  0.00000000000E+00  0.61002808236E+02  0.61002808236E+02  0.00000000000E+00 0. -1.
          1   -1    0    0  501    0 -0.00000000000E+00 -0.00000000000E+00 -0.48181004236E+03  0.48181004236E+03  0.00000000000E+00 0. -1.
         25    2    1    2    0    0 -0.60490449108E+02 -0.24098113131E+02 -0.95520494047E+02  0.17025723513E+03  0.12499419123E+03 0.  0.
          2    1    1    2  501    0  0.91635508920E+02  0.32064841707E+02 -0.32625497658E+03  0.34039319956E+03  0.00000000000E+00 0. -1.
          1    1    1    2  502    0 -0.31145059811E+02 -0.79667285757E+01  0.96823649584E+00  0.32162415904E+02  0.00000000000E+00 0. -1.
         22    1    3    3    0    0 -0.50412615106E+02  0.30609651165E+01 -0.12135317634E+03  0.13144350375E+03  0.00000000000E+00 0.  1.
         22    1    3    3    0    0 -0.10077834002E+02 -0.27159078248E+02  0.25832682294E+02  0.38813731384E+02  0.00000000000E+00 0.  1.
</event>
<event>
 7    1  0.5779468E-006  0.1899206E+03  0.7818608E-02  0.1308950E+00
          2   -1    0    0  502    0  0.00000000000E+00  0.00000000000E+00  0.14236926692E+04  0.14236926692E+04  0.00000000000E+00 0. -1.
          1   -1    0    0  501    0 -0.00000000000E+00 -0.00000000000E+00 -0.28072151721E+04  0.28072151721E+04  0.00000000000E+00 0. -1.
         25    2    1    2    0    0 -0.16991459682E+03  0.92903156169E+02 -0.54228196628E+03  0.58923400126E+03  0.12500004260E+03 0.  0.
          2    1    1    2  501    0  0.14399159995E+03 -0.12380993778E+03 -0.22371430824E+04  0.22451885561E+04  0.00000000000E+00 0. -1.
          1    1    1    2  502    0  0.25922996868E+02  0.30906781608E+02  0.13959025457E+04  0.13964852839E+04  0.00000000000E+00 0. -1.
         22    1    3    3    0    0 -0.12955758710E+03  0.10139238246E+03 -0.51278815668E+03  0.53853252198E+03  0.00000000000E+00 0.  1.
         22    1    3    3    0    0 -0.40357009720E+02 -0.84892262866E+01 -0.29493809591E+02  0.50701479275E+02  0.00000000000E+00 0.  1.
</event>
<event>
 7    1  0.5779468E-006  0.3851374E+02  0.7818608E-02  0.1563639E+00
          2   -1    0    0  502    0  0.00000000000E+00  0.00000000000E+00  0.92513326850E+03  0.92513326850E+03  0.00000000000E+00 0. -1.
          1   -1    0    0  501    0 -0.00000000000E+00 -0.00000000000E+00 -0.17183755219E+02  0.17183755219E+02  0.00000000000E+00 0. -1.
         25    2    1    2    0    0 -0.19243391134E+01 -0.20848378680E+02  0.41584860691E+03  0.43472934299E+03  0.12498471830E+03 0.  0.
          2    1    1    2  501    0 -0.23699750913E+02  0.34214754758E+02  0.52309399754E+02  0.66847594864E+02  0.00000000000E+00 0. -1.
          1    1    1    2  502    0  0.25624090026E+02 -0.13366376078E+02  0.43979150662E+03  0.44074008587E+03  0.00000000000E+00 0. -1.
         22    1    3    3    0    0 -0.26513552712E+02 -0.27533035083E+02  0.31482577804E+02  0.49519584040E+02  0.00000000000E+00 0.  1.
         22    1    3    3    0    0  0.24589213599E+02  0.66846564028E+01  0.38436602911E+03  0.38520975895E+03  0.00000000000E+00 0.  1.
</event>
<event>
 7    1  0.5779468E-006  0.3903067E+02  0.7818608E-02  0.1530267E+00
          2   -1    0    0  502    0  0.00000000000E+00  0.00000000000E+00  0.35721336142E+02  0.35721336142E+02  0.00000000000E+00 0. -1.
          1   -1    0    0  501    0 -0.00000000000E+00 -0.00000000000E+00 -0.67636419803E+03  0.67636419803E+03  0.00000000000E+00 0. -1.
         25    2    1    2    0    0 -0.19447917530E+01  0.80526626886E+01 -0.27881851414E+03  0.30566831869E+03  0.12499891853E+03 0.  0.
          2    1    1    2  501    0 -0.31472218266E+02  0.16134464597E+02 -0.36341776178E+03  0.36513462044E+03  0.00000000000E+00 0. -1.
          1    1    1    2  502    0  0.33417010019E+02 -0.24187127285E+02  0.15934140271E+01  0.41282595039E+02  0.00000000000E+00 0. -1.
         22    1    3    3    0    0 -0.31044825439E+02  0.23050945327E+02 -0.26860570385E+03  0.27137455925E+03  0.00000000000E+00 0.  1.
         22    1    3    3    0    0  0.29100033686E+02 -0.14998282638E+02 -0.10212810288E+02  0.34293759441E+02  0.00000000000E+00 0.  1.
</event>
<event>
 7    1  0.5779468E-006  0.1047651E+03  0.7818608E-02  0.1377376E+00
          2   -1    0    0  502    0  0.00000000000E+00  0.00000000000E+00  0.10590449461E+04  0.10590449461E+04  0.00000000000E+00 0. -1.
          1   -1    0    0  501    0 -0.00000000000E+00 -0.00000000000E+00 -0.26013222912E+02  0.26013222912E+02  0.00000000000E+00 0. -1.
         25    2    1    2    0    0  0.83469592196E+02 -0.21095803177E+02  0.55826042907E+03  0.57852536669E+03  0.12499875001E+03 0.  0.
          2    1    1    2  501    0  0.25846610863E+02 -0.31213001444E+02  0.47652119461E+02  0.62554162462E+02  0.00000000000E+00 0. -1.
          1    1    1    2  502    0 -0.10931620306E+03  0.52308804621E+02  0.42711917464E+03  0.44397863984E+03  0.00000000000E+00 0. -1.
         22    1    3    3    0    0 -0.25341711974E+02 -0.22055967592E+02  0.23623360924E+03  0.23861053247E+03  0.00000000000E+00 0. -1.
         22    1    3    3    0    0  0.10881130417E+03  0.96016441434E+00  0.32202681983E+03  0.33991483422E+03  0.00000000000E+00 0. -1.
</event>
<event>
 7    1  0.5779468E-006  0.3400414E+02  0.7818608E-02  0.1573918E+00
          2   -1    0    0  502    0  0.00000000000E+00  0.00000000000E+00  0.29301125523E+03  0.29301125523E+03  0.00000000000E+00 0. -1.
          1   -1    0    0  501    0 -0.00000000000E+00 -0.00000000000E+00 -0.76884277834E+02  0.76884277834E+02  0.00000000000E+00 0. -1.
         25    2    1    2    0    0 -0.95403619971E+01 -0.79026408232E+01  0.70335973110E+02  0.14396444946E+03  0.12500057342E+03 0.  0.
          2    1    1    2  501    0  0.34840102503E+02 -0.94731358765E+01 -0.30331220069E+02  0.47154596347E+02  0.00000000000E+00 0. -1.
          1    1    1    2  502    0 -0.25299740506E+02  0.17375776700E+02  0.17612222435E+03  0.17877648726E+03  0.00000000000E+00 0. -1.
         22    1    3    3    0    0 -0.44143659644E+02 -0.20797384468E+02  0.89814220842E+02  0.10221442243E+03  0.00000000000E+00 0.  1.
         22    1    3    3    0    0  0.34603297647E+02  0.12894743645E+02 -0.19478247733E+02  0.41750027024E+02  0.00000000000E+00 0.  1.
</event>
<event>
 7    1  0.5779468E-006  0.8785958E+02  0.7818608E-02  0.1356274E+00
          2   -1    0    0  502    0  0.00000000000E+00  0.00000000000E+00  0.16426690995E+04  0.16426690995E+04  0.00000000000E+00 0. -1.
          1   -1    0    0  501    0 -0.00000000000E+00 -0.00000000000E+00 -0.20279708081E+03  0.20279708081E+03  0.00000000000E+00 0. -1.
         25    2    1    2    0    0  0.10454479024E+03  0.95903694478E+02  0.52844429465E+03  0.56125208559E+03  0.12499359682E+03 0.  0.
          2    1    1    2  501    0 -0.72297662537E+02 -0.48182994219E+02 -0.17546464508E+03  0.19579681972E+03  0.00000000000E+00 0. -1.
          1    1    1    2  502    0 -0.32247127702E+02 -0.47720700260E+02  0.10868923692E+04  0.10884172750E+04  0.00000000000E+00 0. -1.
         22    1    3    3    0    0  0.80461270378E+02  0.79770360893E+02  0.18747628039E+03  0.21905406231E+03  0.00000000000E+00 0. -1.
         22    1    3    3    0    0  0.24083519862E+02  0.16133333585E+02  0.34096801426E+03  0.34219802327E+03  0.00000000000E+00 0. -1.
</event>
<event>
 7    1  0.5779468E-006  0.9992640E+02  0.7818608E-02  0.1373088E+00
          2   -1    0    0  502    0  0.00000000000E+00  0.00000000000E+00  0.35510600292E+04  0.35510600292E+04  0.00000000000E+00 0. -1.
          1   -1    0    0  501    0 -0.00000000000E+00 -0.00000000000E+00 -0.26793990726E+04  0.26793990726E+04  0.00000000000E+00 0. -1.
         25    2    1    2    0    0  0.10130504511E+03 -0.93514388395E+02 -0.27127503342E+03  0.32897227637E+03  0.12499984745E+03 0.  0.
          2    1    1    2  501    0 -0.16516287413E+02  0.40794021264E+02 -0.23783642436E+04  0.23787714088E+04  0.00000000000E+00 0. -1.
          1    1    1    2  502    0 -0.84788757693E+02  0.52720367130E+02  0.35213002337E+04  0.35227154166E+04  0.00000000000E+00 0. -1.
         22    1    3    3    0    0  0.56757462167E+02  0.14976245168E+02 -0.44484759093E+02  0.73651824298E+02  0.00000000000E+00 0. -1.
         22    1    3    3    0    0  0.44547582940E+02 -0.10849063356E+03 -0.22679027433E+03  0.25532045207E+03  0.00000000000E+00 0. -1.
</event>
<event>
 7    1  0.5779468E-006  0.5955735E+02  0.7818608E-02  0.1455417E+00
          2   -1    0    0  502    0  0.00000000000E+00  0.00000000000E+00  0.26485201275E+03  0.26485201275E+03  0.00000000000E+00 0. -1.
          1   -1    0    0  501    0 -0.00000000000E+00 -0.00000000000E+00 -0.61605596433E+02  0.61605596433E+02  0.00000000000E+00 0. -1.
         25    2    1    2    0    0 -0.52572478591E+02 -0.78625859831E+01  0.12389783905E+03  0.18385377086E+03  0.12500339505E+03 0.  0.
          2    1    1    2  501    0  0.66775736882E+01 -0.38398699867E+02 -0.12035092251E+01  0.38993570961E+02  0.00000000000E+00 0. -1.
          1    1    1    2  502    0  0.45894904903E+02  0.46261285850E+02  0.80552086495E+02  0.10361026736E+03  0.00000000000E+00 0. -1.
         22    1    3    3    0    0  0.38091699683E+02 -0.13174541279E+02  0.61989585442E+02  0.73940887376E+02  0.00000000000E+00 0. -1.
         22    1    3    3    0    0 -0.90664178274E+02  0.53119552963E+01  0.61908253608E+02  0.10991288349E+03  0.00000000000E+00 0. -1.
</event>
<event>
 7    1  0.5779468E-006  0.8227964E+02  0.7818608E-02  0.1328549E+00
          2   -1    0    0  502    0  0.00000000000E+00  0.00000000000E+00  0.43946173184E+03  0.43946173184E+03  0.00000000000E+00 0. -1.
          1   -1    0    0  501    0 -0.00000000000E+00 -0.00000000000E+00 -0.19140507266E+04  0.19140507266E+04  0.00000000000E+00 0. -1.
         25    2    1    2    0    0  0.62780545573E+01  0.71553252057E+02 -0.83505012976E+03  0.84740289074E+03  0.12499463260E+03 0.  0.
          2    1    1    2  501    0 -0.81056390158E+02 -0.37229205987E+02 -0.10670403764E+04  0.10707620263E+04  0.00000000000E+00 0. -1.
          1    1    1    2  502    0  0.74778335601E+02 -0.34324046070E+02  0.42750151135E+03  0.43534754142E+03  0.00000000000E+00 0. -1.
         22    1    3    3    0    0  0.50364550130E+02  0.24305616765E+02 -0.62842437820E+03  0.63090771911E+03  0.00000000000E+00 0. -1.
         22    1    3    3    0    0 -0.44086495573E+02  0.47247635292E+02 -0.20662575156E+03  0.21649517163E+03  0.00000000000E+00 0. -1.
</event>
<event>
 7    1  0.5779468E-006  0.7670887E+02  0.7818608E-02  0.1358474E+00
          2   -1    0    0  502    0  0.00000000000E+00  0.00000000000E+00  0.10795774132E+04  0.10795774132E+04  0.00000000000E+00 0. -1.
          1   -1    0    0  501    0 -0.00000000000E+00 -0.00000000000E+00 -0.49454347699E+02  0.49454347699E+02  0.00000000000E+00 0. -1.
         25    2    1    2    0    0 -0.21799788232E+02 -0.48039781133E+02  0.15140476363E+03  0.20329292638E+03  0.12498623976E+03 0.  0.
          2    1    1    2  501    0 -0.53920345186E+02  0.60316296424E+02  0.53568520575E+02  0.97031158067E+02  0.00000000000E+00 0. -1.
          1    1    1    2  502    0  0.75720133418E+02 -0.12276515291E+02  0.82514978131E+03  0.82870767646E+03  0.00000000000E+00 0. -1.
         22    1    3    3    0    0  0.20167266744E+02 -0.68991232452E+01 -0.15492937790E+02  0.26350477621E+02  0.00000000000E+00 0.  1.
         22    1    3    3    0    0 -0.41967054976E+02 -0.41140657888E+02  0.16689770142E+03  0.17694244876E+03  0.00000000000E+00 0.  1.
</event>
<event>
 7    1  0.5779468E-006  0.6325746E+02  0.7818608E-02  0.1385706E+00
          2   -1    0    0  502    0  0.00000000000E+00  0.00000000000E+00  0.26868216533E+04  0.26868216533E+04  0.00000000000E+00 0. -1.
          1   -1    0    0  501    0 -0.00000000000E+00 -0.00000000000E+00 -0.60430178069E+02  0.60430178069E+02  0.00000000000E+00 0. -1.
         25    2    1    2    0    0 -0.14959802079E+02 -0.34787601480E+02  0.21681055578E+04  0.21720359589E+04  0.12499809587E+03 0.  0.
          2    1    1    2  501    0  0.63486497578E+02 -0.49460178688E+01 -0.38548925769E+02  0.74438015459E+02  0.00000000000E+00 0. -1.
          1    1    1    2  502    0 -0.48526695499E+02  0.39733619348E+02  0.49683484319E+03  0.50077785703E+03  0.00000000000E+00 0. -1.
         22    1    3    3    0    0 -0.63432788973E+02 -0.48628694550E+02  0.13965202258E+04  0.13988056368E+04  0.00000000000E+00 0.  1.
         22    1    3    3    0    0  0.48472986894E+02  0.13841093070E+02  0.77158533204E+03  0.77323032205E+03  0.00000000000E+00 0.  1.
</event>
<event>
 7    1  0.5779468E-006  0.5238509E+02  0.7818608E-02  0.1481011E+00
          2   -1    0    0  502    0  0.00000000000E+00  0.00000000000E+00  0.36546209794E+03  0.36546209794E+03  0.00000000000E+00 0. -1.
          1   -1    0    0  501    0 -0.00000000000E+00 -0.00000000000E+00 -0.14393371971E+04  0.14393371971E+04  0.00000000000E+00 0. -1.
         25    2    1    2    0    0  0.24042930189E+02 -0.22996964835E+02  0.57593751604E+02  0.14159306833E+03  0.12499853556E+03 0.  0.
          2    1    1    2  501    0 -0.19162047220E+01  0.52491519450E+02 -0.13955627067E+04  0.13965508583E+04  0.00000000000E+00 0. -1.
          1    1    1    2  502    0 -0.22126725467E+02 -0.29494554615E+02  0.26409385597E+03  0.26665536839E+03  0.00000000000E+00 0. -1.
         22    1    3    3    0    0  0.72454030937E+02 -0.23482327769E+02  0.53357025108E+02  0.92994507606E+02  0.00000000000E+00 0. -1.
         22    1    3    3    0    0 -0.48411100749E+02  0.48536293418E+00  0.42367264957E+01  0.48598560722E+02  0.00000000000E+00 0. -1.
</event>
<event>
 7    1  0.5779468E-006  0.5445219E+02  0.7818608E-02  0.1561916E+00
          2   -1    0    0  502    0  0.00000000000E+00  0.00000000000E+00  0.12389476047E+04  0.12389476047E+04  0.00000000000E+00 0. -1.
          1   -1    0    0  501    0 -0.00000000000E+00 -0.00000000000E+00 -0.50598876693E+02  0.50598876693E+02  0.00000000000E+00 0. -1.
         25    2    1    2    0    0 -0.27043971859E+02  0.30595895534E+02  0.10071223720E+04  0.10156711420E+04  0.12499964506E+03 0.  0.
          2    1    1    2  501    0  0.47436312432E+02 -0.27250163218E+02 -0.29489731902E+02  0.62148366191E+02  0.00000000000E+00 0. -1.
          1    1    1    2  502    0 -0.20392340573E+02 -0.33457323163E+01  0.21071608797E+03  0.21172697327E+03  0.00000000000E+00 0. -1.
         22    1    3    3    0    0  0.36583462577E+02 -0.26885716976E+02  0.31408271548E+03  0.31734703981E+03  0.00000000000E+00 0. -1.
         22    1    3    3    0    0 -0.63627434436E+02  0.57481612510E+02  0.69303965649E+03  0.69832410216E+03  0.00000000000E+00 0. -1.
</event>
<event>
 7    1  0.5779468E-006  0.1559546E+03  0.7818608E-02  0.1204453E+00
          2   -1    0    0  502    0  0.00000000000E+00  0.00000000000E+00  0.14730372620E+04  0.14730372620E+04  0.00000000000E+00 0. -1.
          1   -1    0    0  501    0 -0.00000000000E+00 -0.00000000000E+00 -0.17055747397E+04  0.17055747397E+04  0.00000000000E+00 0. -1.
         25    2    1    2    0    0  0.25570270031E+03  0.96444248338E+02  0.11910690600E+03  0.32325912351E+03  0.12499856757E+03 0.  0.
          2    1    1    2  501    0 -0.13818999429E+03 -0.11931441407E+01 -0.15959320159E+04  0.16019041474E+04  0.00000000000E+00 0. -1.
          1    1    1    2  502    0 -0.11751270602E+03 -0.95251104197E+02  0.12442876322E+04  0.12534487308E+04  0.00000000000E+00 0. -1.
         22    1    3    3    0    0  0.12959485319E+03  0.11442853323E+03  0.62061092629E+02  0.18368531354E+03  0.00000000000E+00 0.  1.
         22    1    3    3    0    0  0.12610784712E+03 -0.17984284891E+02  0.57045813371E+02  0.13957380997E+03  0.00000000000E+00 0.  1.
</event>
<event>
 7    1  0.5779468E-006  0.1249205E+03  0.7818608E-02  0.1350331E+00
          2   -1    0    0  502    0  0.00000000000E+00  0.00000000000E+00  0.13804449632E+03  0.13804449632E+03  0.00000000000E+00 0. -1.
          1   -1    0    0  501    0 -0.00000000000E+00 -0.00000000000E+00 -0.47190154663E+03  0.47190154663E+03  0.00000000000E+00 0. -1.
         25    2    1    2    0    0  0.51214368975E+02  0.10679017938E+03 -0.79514001228E+02  0.18967007103E+03  0.12500082180E+03 0.  0.
          2    1    1    2  501    0  0.39853611911E+02 -0.15058794595E+02 -0.28439547004E+03  0.28756888054E+03  0.00000000000E+00 0. -1.
          1    1    1    2  502    0 -0.91067980886E+02 -0.91731384789E+02  0.30052420954E+02  0.13270709138E+03  0.00000000000E+00 0. -1.
         22    1    3    3    0    0  0.89885354045E+02  0.76047155571E+02 -0.76011538623E+02  0.14014385733E+03  0.00000000000E+00 0.  1.
         22    1    3    3    0    0 -0.38670985070E+02  0.30743023812E+02 -0.35024626052E+01  0.49526213703E+02  0.00000000000E+00 0.  1.
</event>
<event>
 7    1  0.5779468E-006  0.5376683E+02  0.7818608E-02  0.1472811E+00
          2   -1    0    0  502    0  0.00000000000E+00  0.00000000000E+00  0.18931365646E+04  0.18931365646E+04  0.00000000000E+00 0. -1.
          1   -1    0    0  501    0 -0.00000000000E+00 -0.00000000000E+00 -0.20015538766E+02  0.20015538766E+02  0.00000000000E+00 0. -1.
         25    2    1    2    0    0  0.87657249936E+02  0.14641200971E+02  0.10566030783E+04  0.10676769068E+04  0.12500301545E+03 0.  0.
          2    1    1    2  501    0 -0.49614808078E+02 -0.16233450533E+02  0.34594709433E+02  0.62625458222E+02  0.00000000000E+00 0. -1.
          1    1    1    2  502    0 -0.38042441858E+02  0.15922495619E+01  0.78192323811E+03  0.78284973841E+03  0.00000000000E+00 0. -1.
         22    1    3    3    0    0  0.14658971969E+02 -0.32799983896E+02  0.68779103406E+03  0.68872870634E+03  0.00000000000E+00 0. -1.
         22    1    3    3    0    0  0.72998277968E+02  0.47441184867E+02  0.36881204428E+03  0.37894820044E+03  0.00000000000E+00 0. -1.
</event>
<event>
 7    1  0.5779468E-006  0.3032022E+03  0.7818608E-02  0.1111705E+00
          2   -1    0    0  502    0  0.00000000000E+00  0.00000000000E+00  0.14127582893E+04  0.14127582893E+04  0.00000000000E+00 0. -1.
          1   -1    0    0  501    0 -0.00000000000E+00 -0.00000000000E+00 -0.23863418085E+04  0.23863418085E+04  0.00000000000E+00 0. -1.
         25    2    1    2    0    0 -0.10533469071E+03  0.10807065338E+03 -0.15090909150E+03  0.24733223806E+03  0.12500007559E+03 0.  0.
          2    1    1    2  501    0  0.15682570571E+03 -0.31202824419E+03 -0.21650380638E+04  0.21930220575E+04  0.00000000000E+00 0. -1.
          1    1    1    2  502    0 -0.51491014999E+02  0.20395759081E+03  0.13423636361E+04  0.13587458022E+04  0.00000000000E+00 0. -1.
         22    1    3    3    0    0 -0.39880210106E+02  0.12227006197E+03 -0.91912146889E+02  0.15807669644E+03  0.00000000000E+00 0. -1.
         22    1    3    3    0    0 -0.65454480604E+02 -0.14199408593E+02 -0.58996944608E+02  0.89255541613E+02  0.00000000000E+00 0. -1.
</event>
<event>
 7    1  0.5779468E-006  0.8014570E+02  0.7818608E-02  0.1431075E+00
          2   -1    0    0  502    0  0.00000000000E+00  0.00000000000E+00  0.27739127591E+04  0.27739127591E+04  0.00000000000E+00 0. -1.
          1   -1    0    0  501    0 -0.00000000000E+00 -0.00000000000E+00 -0.42961216525E+03  0.42961216525E+03  0.00000000000E+00 0. -1.
         25    2    1    2    0    0  0.10361492049E+03  0.63509289657E+01  0.79962483597E+03  0.81596609410E+03  0.12499760946E+03 0.  0.
          2    1    1    2  501    0 -0.75477006653E+02 -0.26677837802E+02 -0.41748511576E+03  0.42509094020E+03  0.00000000000E+00 0. -1.
          1    1    1    2  502    0 -0.28137913836E+02  0.20326908836E+02  0.19621608736E+04  0.19624678900E+04  0.00000000000E+00 0. -1.
         22    1    3    3    0    0  0.12460970731E+03  0.32664927390E+02  0.63357983918E+03  0.64654310703E+03  0.00000000000E+00 0.  1.
         22    1    3    3    0    0 -0.20994786820E+02 -0.26313998425E+02  0.16604499679E+03  0.16942298706E+03  0.00000000000E+00 0.  1.
</event>
<event>
 7    1  0.5779468E-006  0.1315745E+03  0.7818608E-02  0.1317075E+00
          2   -1    0    0  502    0  0.00000000000E+00  0.00000000000E+00  0.17723122480E+03  0.17723122480E+03  0.00000000000E+00 0. -1.
          1   -1    0    0  501    0 -0.00000000000E+00 -0.00000000000E+00 -0.10722775638E+04  0.10722775638E+04  0.00000000000E+00 0. -1.
         25    2    1    2    0    0  0.62930325608E+02 -0.10427304289E+03 -0.17600365983E+03  0.24786614990E+03  0.12500898622E+03 0.  0.
          2    1    1    2  501    0 -0.10985943235E+03  0.77342475033E+02 -0.84968361401E+03  0.86024019741E+03  0.00000000000E+00 0. -1.
          1    1    1    2  502    0  0.46929106744E+02  0.26930567855E+02  0.13064093485E+03  0.14140244129E+03  0.00000000000E+00 0. -1.
         22    1    3    3    0    0  0.95269540734E+02 -0.82117040701E+02 -0.16437860603E+03  0.20697782462E+03  0.00000000000E+00 0. -1.
         22    1    3    3    0    0 -0.32339215126E+02 -0.22156002187E+02 -0.11625053806E+02  0.40888325276E+02  0.00000000000E+00 0. -1.
</event>
<event>
 7    1  0.5779468E-006  0.1701810E+03  0.7818608E-02  0.1362901E+00
          2   -1    0    0  502    0  0.00000000000E+00  0.00000000000E+00  0.45057503515E+03  0.45057503515E+03  0.00000000000E+00 0. -1.
          1   -1    0    0  501    0 -0.00000000000E+00 -0.00000000000E+00 -0.18265764219E+03  0.18265764219E+03  0.00000000000E+00 0. -1.
         25    2    1    2    0    0  0.83896784687E+02  0.17407483487E+03 -0.40382139537E+02  0.23365893845E+03  0.12500025483E+03 0.  0.
          2    1    1    2  501    0 -0.19670995072E+02 -0.20098683016E+02 -0.17794765824E+02  0.33280005962E+02  0.00000000000E+00 0. -1.
          1    1    1    2  502    0 -0.64225789615E+02 -0.15397615185E+03  0.32609429832E+03  0.36629373293E+03  0.00000000000E+00 0. -1.
         22    1    3    3    0    0  0.26731386462E+00  0.67313917350E+01  0.32273222954E+02  0.32968833938E+02  0.00000000000E+00 0. -1.
         22    1    3    3    0    0  0.83629470822E+02  0.16734344313E+03 -0.72655362490E+02  0.20069010451E+03  0.00000000000E+00 0. -1.
</event>
<event>
 7    1  0.5779468E-006  0.8336850E+02  0.7818608E-02  0.1438587E+00
          2   -1    0    0  502    0  0.00000000000E+00  0.00000000000E+00  0.49640680091E+03  0.49640680091E+03  0.00000000000E+00 0. -1.
          1   -1    0    0  501    0 -0.00000000000E+00 -0.00000000000E+00 -0.12109736950E+03  0.12109736950E+03  0.00000000000E+00 0. -1.
         25    2    1    2    0    0 -0.27220078774E+02  0.82473250002E+02  0.25829891184E+03  0.29980936864E+03  0.12499824004E+03 0.  0.
          2    1    1    2  501    0 -0.43020908433E+01 -0.83387173440E+02 -0.81509024195E+02  0.11668611616E+03  0.00000000000E+00 0. -1.
          1    1    1    2  502    0  0.31522169617E+02  0.91392343782E+00  0.19851954376E+03  0.20100868560E+03  0.00000000000E+00 0. -1.
         22    1    3    3    0    0 -0.39543052953E+01 -0.85047583981E+01 -0.11088856070E+02  0.14523435362E+02  0.00000000000E+00 0. -1.
         22    1    3    3    0    0 -0.23265773478E+02  0.90978008400E+02  0.26938776791E+03  0.28528593328E+03  0.00000000000E+00 0. -1.
</event>
<event>
 7    1  0.5779468E-006  0.4999617E+02  0.7818608E-02  0.1548159E+00
          2   -1    0    0  502    0  0.00000000000E+00  0.00000000000E+00  0.15342497607E+03  0.15342497607E+03  0.00000000000E+00 0. -1.
          1   -1    0    0  501    0 -0.00000000000E+00 -0.00000000000E+00 -0.82835688047E+03  0.82835688047E+03  0.00000000000E+00 0. -1.
         25    2    1    2    0    0  0.35608198883E+02 -0.19504731793E+02  0.55872007605E+02  0.14281383743E+03  0.12500293012E+03 0.  0.
          2    1    1    2  501    0 -0.40822082993E+01 -0.24230118476E+02 -0.77120532368E+03  0.77159666558E+03  0.00000000000E+00 0. -1.
          1    1    1    2  502    0 -0.31525990584E+02  0.43734850269E+02  0.40401411678E+02  0.67371353526E+02  0.00000000000E+00 0. -1.
         22    1    3    3    0    0  0.42609005026E+02 -0.42747923430E+02  0.85408207503E+02  0.10458237985E+03  0.00000000000E+00 0.  1.
         22    1    3    3    0    0 -0.70008061423E+01  0.23243191637E+02 -0.29536199899E+02  0.38231457579E+02  0.00000000000E+00 0.  1.
</event>
<event>
 7    1  0.5779468E-006  0.7322272E+02  0.7818608E-02  0.1388931E+00
          2   -1    0    0  502    0  0.00000000000E+00  0.00000000000E+00  0.94944180299E+03  0.94944180299E+03  0.00000000000E+00 0. -1.
          1   -1    0    0  501    0 -0.00000000000E+00 -0.00000000000E+00 -0.17191487610E+03  0.17191487610E+03  0.00000000000E+00 0. -1.
         25    2    1    2    0    0 -0.98737934741E+02 -0.60795733128E+02  0.14251082665E+03  0.22221692835E+03  0.12500290641E+03 0.  0.
          2    1    1    2  501    0  0.52434941761E+02  0.61246890391E+01 -0.12503323421E+03  0.13572120170E+03  0.00000000000E+00 0. -1.
          1    1    1    2  502    0  0.46302992979E+02  0.54671044089E+02  0.76004933445E+03  0.76341854904E+03  0.00000000000E+00 0. -1.
         22    1    3    3    0    0 -0.74231131960E+02 -0.23950535156E+02  0.15728620231E+03  0.17556434297E+03  0.00000000000E+00 0. -1.
         22    1    3    3    0    0 -0.24506802781E+02 -0.36845197971E+02 -0.14775375665E+02  0.46652585375E+02  0.00000000000E+00 0. -1.
</event>
<event>
 7    1  0.5779468E-006  0.2415599E+03  0.7818608E-02  0.1202419E+00
          2   -1    0    0  502    0  0.00000000000E+00  0.00000000000E+00  0.30034676167E+03  0.30034676167E+03  0.00000000000E+00 0. -1.
          1   -1    0    0  501    0 -0.00000000000E+00 -0.00000000000E+00 -0.19421343644E+04  0.19421343644E+04  0.00000000000E+00 0. -1.
         25    2    1    2    0    0 -0.10045714093E+03  0.17438284833E+03  0.13763083419E+02  0.23730815971E+03  0.12499890097E+03 0.  0.
          2    1    1    2  501    0  0.18961634693E+03 -0.15519079704E+03 -0.18096201879E+04  0.18261335567E+04  0.00000000000E+00 0. -1.
          1    1    1    2  502    0 -0.89159206000E+02 -0.19192051291E+02  0.15406950174E+03  0.17903940967E+03  0.00000000000E+00 0. -1.
         22    1    3    3    0    0  0.45035452419E+01 -0.72698525364E+01 -0.22798793269E+02  0.24349900414E+02  0.00000000000E+00 0. -1.
         22    1    3    3    0    0 -0.10496068617E+03  0.18165270087E+03  0.36561876689E+02  0.21295825929E+03  0.00000000000E+00 0. -1.
</event>
<event>
 7    1  0.5779468E-006  0.1641111E+03  0.7818608E-02  0.1219203E+00
          2   -1    0    0  502    0  0.00000000000E+00  0.00000000000E+00  0.22655874310E+04  0.22655874310E+04  0.00000000000E+00 0. -1.
          1   -1    0    0  501    0 -0.00000000000E+00 -0.00000000000E+00 -0.85293834962E+03  0.85293834962E+03  0.00000000000E+00 0. -1.
         25    2    1    2    0    0 -0.16441701728E+03 -0.17818985107E+03 -0.51829645756E+03  0.58569887260E+03  0.12500949104E+03 0.  0.
          2    1    1    2  501    0  0.81494893664E+02  0.10253931537E+03 -0.28520097548E+03  0.31383964903E+03  0.00000000000E+00 0. -1.
          1    1    1    2  502    0  0.82922123619E+02  0.75650535696E+02  0.22161465145E+04  0.22189872590E+04  0.00000000000E+00 0. -1.
         22    1    3    3    0    0 -0.41645329806E+02 -0.11994914420E+02 -0.23070935729E+02  0.49096634732E+02  0.00000000000E+00 0.  1.
         22    1    3    3    0    0 -0.12277168748E+03 -0.16619493665E+03 -0.49522552183E+03  0.53660223787E+03  0.00000000000E+00 0.  1.
</event>
<event>
 7    1  0.5779468E-006  0.1505555E+03  0.7818608E-02  0.1300188E+00
          2   -1    0    0  502    0  0.00000000000E+00  0.00000000000E+00  0.12724752075E+04  0.12724752075E+04  0.00000000000E+00 0. -1.
          1   -1    0    0  501    0 -0.00000000000E+00 -0.00000000000E+00 -0.47085963077E+03  0.47085963077E+03  0.00000000000E+00 0. -1.
         25    2    1    2    0    0 -0.13826828088E+03 -0.14070676269E+02  0.95873546601E+02  0.21007731196E+03  0.12499855453E+03 0.  0.
          2    1    1    2  501    0  0.24612180099E+01 -0.55079711606E+02 -0.40670249576E+03  0.41042265079E+03  0.00000000000E+00 0. -1.
          1    1    1    2  502    0  0.13580706287E+03  0.69150387876E+02  0.11124445259E+04  0.11228348755E+04  0.00000000000E+00 0. -1.
         22    1    3    3    0    0 -0.10259134452E+03 -0.15361327121E+02  0.12610996610E+03  0.16329322672E+03  0.00000000000E+00 0.  1.
         22    1    3    3    0    0 -0.35676936368E+02  0.12906508520E+01 -0.30236419501E+02  0.46784085248E+02  0.00000000000E+00 0.  1.
</event>
<event>
 7    1  0.5779468E-006  0.1027217E+04  0.7818608E-02  0.1007267E+00
          2   -1    0    0  502    0  0.00000000000E+00  0.00000000000E+00  0.15627641177E+04  0.15627641177E+04  0.00000000000E+00 0. -1.
          1   -1    0    0  501    0 -0.00000000000E+00 -0.00000000000E+00 -0.10043920471E+04  0.10043920471E+04  0.00000000000E+00 0. -1.
         25    2    1    2    0    0 -0.98511295369E+03 -0.29585408189E+03  0.66200388310E+03  0.12295737079E+04  0.12500077074E+03 0.  0.
          2    1    1    2  501    0  0.92846076739E+02 -0.25256986700E+03 -0.10874216875E+03  0.29023575063E+03  0.00000000000E+00 0. -1.
          1    1    1    2  502    0  0.89226687695E+03  0.54842394889E+03  0.51103562085E+01  0.10473467063E+04  0.00000000000E+00 0. -1.
         22    1    3    3    0    0 -0.64050475617E+03 -0.16005321333E+03  0.48408141026E+03  0.81865632932E+03  0.00000000000E+00 0. -1.
         22    1    3    3    0    0 -0.34460819752E+03 -0.13580086857E+03  0.17792247283E+03  0.41091737861E+03  0.00000000000E+00 0. -1.
</event>
<event>
 7    1  0.5779468E-006  0.2399128E+03  0.7818608E-02  0.1267597E+00
          2   -1    0    0  502    0  0.00000000000E+00  0.00000000000E+00  0.18693854534E+04  0.18693854534E+04  0.00000000000E+00 0. -1.
          1   -1    0    0  501    0 -0.00000000000E+00 -0.00000000000E+00 -0.63366662212E+03  0.63366662212E+03  0.00000000000E+00 0. -1.
         25    2    1    2    0    0 -0.24568962925E+03 -0.96344409135E+02  0.39244009013E+03  0.48916376676E+03  0.12500530897E+03 0.  0.
          2    1    1    2  501    0  0.41802715363E+02 -0.21681827669E+02 -0.57462262272E+03  0.57654898075E+03  0.00000000000E+00 0. -1.
          1    1    1    2  502    0  0.20388691389E+03  0.11802623680E+03  0.14179013639E+04  0.14373393281E+04  0.00000000000E+00 0. -1.
         22    1    3    3    0    0 -0.63073069295E+01  0.12299993234E+02 -0.31631328243E+01  0.14180175018E+02  0.00000000000E+00 0. -1.
         22    1    3    3    0    0 -0.23938232232E+03 -0.10864440237E+03  0.39560322296E+03  0.47498359174E+03  0.00000000000E+00 0. -1.
</event>
<event>
 7    1  0.5779468E-006  0.8722900E+02  0.7818608E-02  0.1348916E+00
          2   -1    0    0  502    0  0.00000000000E+00  0.00000000000E+00  0.39628496014E+03  0.39628496014E+03  0.00000000000E+00 0. -1.
          1   -1    0    0  501    0 -0.00000000000E+00 -0.00000000000E+00 -0.11613963959E+04  0.11613963959E+04  0.00000000000E+00 0. -1.
         25    2    1    2    0    0  0.12586355159E+03  0.49848546086E+02 -0.58822163977E+03  0.61640579155E+03  0.12499956477E+03 0.  0.
          2    1    1    2  501    0 -0.38984660543E+02 -0.47893417070E+02 -0.55240002548E+03  0.55584113855E+03  0.00000000000E+00 0. -1.
          1    1    1    2  502    0 -0.86878891051E+02 -0.19551290159E+01  0.37551022949E+03  0.38543442593E+03  0.00000000000E+00 0. -1.
         22    1    3    3    0    0  0.47057040066E+01  0.56172382259E+02 -0.11781365306E+03  0.13060450615E+03  0.00000000000E+00 0.  1.
         22    1    3    3    0    0  0.12115784759E+03 -0.63238361728E+01 -0.47040798671E+03  0.48580128540E+03  0.00000000000E+00 0.  1.
</event>
<event>
 7    1  0.5779468E-006  0.6865437E+02  0.7818608E-02  0.1365451E+00
          2   -1    0    0  502    0  0.00000000000E+00  0.00000000000E+00  0.44805898206E+03  0.44805898206E+03  0.00000000000E+00 0. -1.
          1   -1    0    0  501    0 -0.00000000000E+00 -0.00000000000E+00 -0.47047187161E+02  0.47047187161E+02  0.00000000000E+00 0. -1.
         25    2    1    2    0    0 -0.17786042159E+02  0.36445866120E+02  0.21895556814E+03  0.25536626718E+03  0.12500298053E+03 0.  0.
          2    1    1    2  501    0 -0.35393674812E+02 -0.79212588247E+02  0.88444795983E+02  0.12389442397E+03  0.00000000000E+00 0. -1.
          1    1    1    2  502    0  0.53179716971E+02  0.42766722128E+02  0.93611430781E+02  0.11584547808E+03  0.00000000000E+00 0. -1.
         22    1    3    3    0    0  0.33353665599E+02 -0.32642334650E+01  0.17238030030E+03  0.17560777363E+03  0.00000000000E+00 0.  1.
         22    1    3    3    0    0 -0.51139707758E+02  0.39710099585E+02  0.46575267844E+02  0.79758493550E+02  0.00000000000E+00 0.  1.
</event>
<event>
 7    1  0.5779468E-006  0.1684762E+03  0.7818608E-02  0.1202302E+00
          2   -1    0    0  502    0  0.00000000000E+00  0.00000000000E+00  0.19754870610E+03  0.19754870610E+03  0.00000000000E+00 0. -1.
          1   -1    0    0  501    0 -0.00000000000E+00 -0.00000000000E+00 -0.99140860811E+03  0.99140860811E+03  0.00000000000E+00 0. -1.
         25    2    1    2    0    0  0.15820250998E+03  0.23793596848E+03 -0.21364285344E+03  0.37803693673E+03  0.12500838951E+03 0.  0.
          2    1    1    2  501    0 -0.78326835247E+02 -0.13419369607E+03 -0.64597900227E+03  0.66440342606E+03  0.00000000000E+00 0. -1.
          1    1    1    2  502    0 -0.79875674732E+02 -0.10374227241E+03  0.65761953705E+02  0.14651695142E+03  0.00000000000E+00 0. -1.
         22    1    3    3    0    0  0.11253220839E+03  0.22657104282E+03 -0.13593070122E+03  0.28718476788E+03  0.00000000000E+00 0. -1.
         22    1    3    3    0    0  0.45670301585E+02  0.11364925665E+02 -0.77712152221E+02  0.90852168851E+02  0.00000000000E+00 0. -1.
</event>
<event>
 7    1  0.5779468E-006  0.1929043E+03  0.7818608E-02  0.1230789E+00
          2   -1    0    0  502    0  0.00000000000E+00  0.00000000000E+00  0.26134289918E+04  0.26134289918E+04  0.00000000000E+00 0. -1.
          1   -1    0    0  501    0 -0.00000000000E+00 -0.00000000000E+00 -0.22070404871E+03  0.22070404871E+03  0.00000000000E+00 0. -1.
         25    2    1    2    0    0 -0.12412286366E+02  0.11442250414E+03  0.10612193739E+03  0.20033335780E+03  0.12500005739E+03 0.  0.
          2    1    1    2  501    0 -0.35005088870E+01  0.84568247493E+02 -0.15896687499E+03  0.18009583391E+03  0.00000000000E+00 0. -1.
          1    1    1    2  502    0  0.15912795253E+02 -0.19899075163E+03  0.24455698807E+04  0.24537038488E+04  0.00000000000E+00 0. -1.
         22    1    3    3    0    0  0.33669822644E+02  0.11449070254E+03  0.54680467594E+02  0.13126968981E+03  0.00000000000E+00 0.  1.
         22    1    3    3    0    0 -0.46082109010E+02 -0.68198407621E-01  0.51441469795E+02  0.69063667992E+02  0.00000000000E+00 0.  1.
</event>
<event>
 7    1  0.5779468E-006  0.6096073E+02  0.7818608E-02  0.1455278E+00
          2   -1    0    0  502    0  0.00000000000E+00  0.00000000000E+00  0.64960607028E+03  0.64960607028E+03  0.00000000000E+00 0. -1.
          1   -1    0    0  501    0 -0.00000000000E+00 -0.00000000000E+00 -0.14310435423E+04  0.14310435423E+04  0.00000000000E+00 0. -1.
         25    2    1    2    0    0 -0.63050937950E+02  0.39489437158E+02 -0.35974681108E+03  0.38804172381E+03  0.12499509956E+03 0.  0.
          2    1    1    2  501    0  0.27802556738E+02 -0.53994971846E+02 -0.10557041766E+04  0.10574496431E+04  0.00000000000E+00 0. -1.
          1    1    1    2  502    0  0.35248381212E+02  0.14505534687E+02  0.63401351571E+03  0.63515824565E+03  0.00000000000E+00 0. -1.
         22    1    3    3    0    0 -0.26047266041E+02  0.75276560988E+02 -0.29365913281E+03  0.30427077905E+03  0.00000000000E+00 0. -1.
         22    1    3    3    0    0 -0.37003671909E+02 -0.35787123830E+02 -0.66087678273E+02  0.83770944762E+02  0.00000000000E+00 0. -1.
</event>
<event>
 7    1  0.5779468E-006  0.7771655E+02  0.7818608E-02  0.1359194E+00
          2   -1    0    0  502    0  0.00000000000E+00  0.00000000000E+00  0.27544325332E+04  0.27544325332E+04  0.00000000000E+00 0. -1.
          1   -1    0    0  501    0 -0.00000000000E+00 -0.00000000000E+00 -0.14059343917E+04  0.14059343917E+04  0.00000000000E+00 0. -1.
         25    2    1    2    0    0  0.46780694379E+02 -0.29746345093E+02  0.37032720569E+03  0.39476672997E+03  0.12500101361E+03 0.  0.
          2    1    1    2  501    0 -0.72501416447E+02 -0.28342140769E+02 -0.13922017456E+04  0.13943763598E+04  0.00000000000E+00 0. -1.
          1    1    1    2  502    0  0.25720722068E+02  0.58088485862E+02  0.23703726814E+04  0.23712238351E+04  0.00000000000E+00 0. -1.
         22    1    3    3    0    0  0.19126290662E+02 -0.78237085407E+02  0.20409222261E+03  0.21940941607E+03  0.00000000000E+00 0. -1.
         22    1    3    3    0    0  0.27654403717E+02  0.48490740314E+02  0.16623498308E+03  0.17535731391E+03  0.00000000000E+00 0. -1.
</event>
<event>
 7    1  0.5779468E-006  0.8905574E+02  0.7818608E-02  0.1344227E+00
          2   -1    0    0  502    0  0.00000000000E+00  0.00000000000E+00  0.65813751588E+03  0.65813751588E+03  0.00000000000E+00 0. -1.
          1   -1    0    0  501    0 -0.00000000000E+00 -0.00000000000E+00 -0.73130809220E+03  0.73130809220E+03  0.00000000000E+00 0. -1.
         25    2    1    2    0    0  0.91778175600E+02  0.23298319945E+02  0.18324939737E+03  0.24118718552E+03  0.12499948637E+03 0.  0.
          2    1    1    2  501    0 -0.80472639974E+02  0.38647987044E+02 -0.69725605347E+03  0.70294773403E+03  0.00000000000E+00 0. -1.
          1    1    1    2  502    0 -0.11305535626E+02 -0.61946306990E+02  0.44083607978E+03  0.44531068853E+03  0.00000000000E+00 0. -1.
         22    1    3    3    0    0  0.75503097303E+02  0.71264226788E+02  0.10270435396E+03  0.14603935101E+03  0.00000000000E+00 0. -1.
         22    1    3    3    0    0  0.16275078296E+02 -0.47965906843E+02  0.80545043412E+02  0.95147834505E+02  0.00000000000E+00 0. -1.
</event>
<event>
 7    1  0.5779468E-006  0.1250265E+03  0.7818608E-02  0.1266761E+00
          2   -1    0    0  502    0  0.00000000000E+00  0.00000000000E+00  0.26712314659E+04  0.26712314659E+04  0.00000000000E+00 0. -1.
          1   -1    0    0  501    0 -0.00000000000E+00 -0.00000000000E+00 -0.20504994884E+03  0.20504994884E+03  0.00000000000E+00 0. -1.
         25    2    1    2    0    0  0.12818009144E+03  0.10599138834E+03  0.85846727881E+03  0.88332150353E+03  0.12500599808E+03 0.  0.
          2    1    1    2  501    0 -0.74252834348E+01 -0.90796572650E+02 -0.17966517550E+03  0.20144162362E+03  0.00000000000E+00 0. -1.
          1    1    1    2  502    0 -0.12075480800E+03 -0.15194815686E+02  0.17873794137E+04  0.17915182875E+04  0.00000000000E+00 0. -1.
         22    1    3    3    0    0  0.13196662932E+03  0.96874465564E+02  0.85795759423E+03  0.87343636679E+03  0.00000000000E+00 0.  1.
         22    1    3    3    0    0 -0.37865378770E+01  0.91169227717E+01  0.50968458225E+00  0.98851367362E+01  0.00000000000E+00 0.  1.
</event>
<event>
 7    1  0.5779468E-006  0.7854804E+02  0.7818608E-02  0.1444703E+00
          2   -1    0    0  502    0  0.00000000000E+00  0.00000000000E+00  0.41245883511E+03  0.41245883511E+03  0.00000000000E+00 0. -1.
          1   -1    0    0  501    0 -0.00000000000E+00 -0.00000000000E+00 -0.28506949089E+04  0.28506949089E+04  0.00000000000E+00 0. -1.
         25    2    1    2    0    0  0.37154273705E+02 -0.43076527563E+02 -0.47474402488E+03  0.49420943516E+03  0.12500019742E+03 0.  0.
          2    1    1    2  501    0 -0.93240635396E+01 -0.30589303864E+02 -0.23622594229E+04  0.23624758675E+04  0.00000000000E+00 0. -1.
          1    1    1    2  502    0 -0.27830210165E+02  0.73665831427E+02  0.39876737393E+03  0.40646844137E+03  0.00000000000E+00 0. -1.
         22    1    3    3    0    0 -0.30256813726E+02 -0.53403964567E+02 -0.30803095035E+03  0.31408681059E+03  0.00000000000E+00 0.  1.
         22    1    3    3    0    0  0.67411087430E+02  0.10327437003E+02 -0.16671307453E+03  0.18012262457E+03  0.00000000000E+00 0.  1.
</event>
<event>
 7    1  0.5779468E-006  0.8624965E+02  0.7818608E-02  0.1395169E+00
          2   -1    0    0  502    0  0.00000000000E+00  0.00000000000E+00  0.89290592293E+03  0.89290592293E+03  0.00000000000E+00 0. -1.
          1   -1    0    0  501    0 -0.00000000000E+00 -0.00000000000E+00 -0.26750005393E+03  0.26750005393E+03  0.00000000000E+00 0. -1.
         25    2    1    2    0    0 -0.10022826042E+03 -0.67939543441E+02 -0.15804117867E+02  0.17474679625E+03  0.12500074762E+03 0.  0.
          2    1    1    2  501    0  0.58980024447E+02  0.57161548713E+02 -0.16183432688E+03  0.18148398081E+03  0.00000000000E+00 0. -1.
          1    1    1    2  502    0  0.41248235977E+02  0.10777994728E+02  0.80304431374E+03  0.80417519980E+03  0.00000000000E+00 0. -1.
         22    1    3    3    0    0 -0.59196992423E+02 -0.39247664044E+02  0.53732260906E+02  0.89060759636E+02  0.00000000000E+00 0. -1.
         22    1    3    3    0    0 -0.41031268000E+02 -0.28691879398E+02 -0.69536378772E+02  0.85686036610E+02  0.00000000000E+00 0. -1.
</event>
<event>
 7    1  0.5779468E-006  0.9090813E+02  0.7818608E-02  0.1351616E+00
          2   -1    0    0  502    0  0.00000000000E+00  0.00000000000E+00  0.18115796895E+03  0.18115796895E+03  0.00000000000E+00 0. -1.
          1   -1    0    0  501    0 -0.00000000000E+00 -0.00000000000E+00 -0.14109059657E+04  0.14109059657E+04  0.00000000000E+00 0. -1.
         25    2    1    2    0    0 -0.42707536108E+02  0.13732785117E+03 -0.14576534912E+03  0.23990829587E+03  0.12500232428E+03 0.  0.
          2    1    1    2  501    0  0.84651582558E+01 -0.57284222205E+02 -0.12031672636E+04  0.12045599218E+04  0.00000000000E+00 0. -1.
          1    1    1    2  502    0  0.34242377852E+02 -0.80043628970E+02  0.11918461598E+03  0.14759571696E+03  0.00000000000E+00 0. -1.
         22    1    3    3    0    0 -0.52014294178E+02 -0.38440608550E+00 -0.47864680700E+02  0.70687072548E+02  0.00000000000E+00 0. -1.
         22    1    3    3    0    0  0.93067580699E+01  0.13771225726E+03 -0.97900668424E+02  0.16922122332E+03  0.00000000000E+00 0. -1.
</event>
<event>
 7    1  0.5779468E-006  0.7996186E+02  0.7818608E-02  0.1502580E+00
          2   -1    0    0  502    0  0.00000000000E+00  0.00000000000E+00  0.32332154229E+04  0.32332154229E+04  0.00000000000E+00 0. -1.
          1   -1    0    0  501    0 -0.00000000000E+00 -0.00000000000E+00 -0.76498316978E+03  0.76498316978E+03  0.00000000000E+00 0. -1.
         25    2    1    2    0    0 -0.50171585923E+02 -0.31565229567E+02 -0.36844698559E+03  0.39356259295E+03  0.12499912651E+03 0.  0.
          2    1    1    2  501    0 -0.18632141104E+02 -0.92301684826E+01 -0.38319982240E+03  0.38376354253E+03  0.00000000000E+00 0. -1.
          1    1    1    2  502    0  0.68803727027E+02  0.40795398050E+02  0.32198790611E+04  0.32208724572E+04  0.00000000000E+00 0. -1.
         22    1    3    3    0    0 -0.81699954416E+02  0.13387566552E+02 -0.20259423369E+03  0.21885733484E+03  0.00000000000E+00 0.  1.
         22    1    3    3    0    0  0.31528368492E+02 -0.44952796119E+02 -0.16585275190E+03  0.17470525811E+03  0.00000000000E+00 0.  1.
</event>
<event>
 7    1  0.5779468E-006  0.1388892E+03  0.7818608E-02  0.1288690E+00
          2   -1    0    0  502    0  0.00000000000E+00  0.00000000000E+00  0.11293418599E+04  0.11293418599E+04  0.00000000000E+00 0. -1.
          1   -1    0    0  501    0 -0.00000000000E+00 -0.00000000000E+00 -0.61522230551E+02  0.61522230551E+02  0.00000000000E+00 0. -1.
         25    2    1    2    0    0  0.13754275370E+03 -0.38269104908E+02  0.44558224835E+03  0.48430446291E+03  0.12499895703E+03 0.  0.
          2    1    1    2  501    0  0.15019970827E+01  0.66493511928E+02 -0.18615832265E+01  0.66536520918E+02  0.00000000000E+00 0. -1.
          1    1    1    2  502    0 -0.13904475078E+03 -0.28224407019E+02  0.62409896423E+03  0.64002310663E+03  0.00000000000E+00 0. -1.
         22    1    3    3    0    0  0.91090718461E+02  0.36397998183E+00  0.39542135381E+03  0.40577789309E+03  0.00000000000E+00 0. -1.
         22    1    3    3    0    0  0.46452035241E+02 -0.38633084890E+02  0.50160894546E+02  0.78526569820E+02  0.00000000000E+00 0. -1.
</event>
<event>
 7    1  0.5779468E-006  0.9089271E+02  0.7818608E-02  0.1372037E+00
          2   -1    0    0  502    0  0.00000000000E+00  0.00000000000E+00  0.31100533490E+02  0.31100533490E+02  0.00000000000E+00 0. -1.
          1   -1    0    0  501    0 -0.00000000000E+00 -0.00000000000E+00 -0.20220991088E+04  0.20220991088E+04  0.00000000000E+00 0. -1.
         25    2    1    2    0    0 -0.42520564224E+02 -0.43209791085E+02 -0.58532380667E+03  0.60158462322E+03  0.12500006325E+03 0.  0.
          2    1    1    2  501    0  0.90968520990E+01 -0.47950673512E+02 -0.13235411347E+04  0.13244406951E+04  0.00000000000E+00 0. -1.
          1    1    1    2  502    0  0.33423712125E+02  0.91160464597E+02 -0.82133633999E+02  0.12717432395E+03  0.00000000000E+00 0. -1.
         22    1    3    3    0    0  0.43394924661E+02 -0.24324600408E+02 -0.17475355221E+03  0.18169647680E+03  0.00000000000E+00 0.  1.
         22    1    3    3    0    0 -0.85915488886E+02 -0.18885190677E+02 -0.41057025446E+03  0.41988814642E+03  0.00000000000E+00 0.  1.
</event>
<event>
 7    1  0.5779468E-006  0.5898270E+02  0.7818608E-02  0.1441432E+00
          2   -1    0    0  502    0  0.00000000000E+00  0.00000000000E+00  0.10360405377E+04  0.10360405377E+04  0.00000000000E+00 0. -1.
          1   -1    0    0  501    0 -0.00000000000E+00 -0.00000000000E+00 -0.20589585597E+03  0.20589585597E+03  0.00000000000E+00 0. -1.
         25    2    1    2    0    0  0.13358509318E+02 -0.54198763798E+02  0.10356482102E+03  0.17165121814E+03  0.12499005067E+03 0.  0.
          2    1    1    2  501    0  0.30192459105E+02  0.51481943568E+02 -0.16612189695E+03  0.17651759048E+03  0.00000000000E+00 0. -1.
          1    1    1    2  502    0 -0.43550968423E+02  0.27168202303E+01  0.89270175766E+03  0.89376758505E+03  0.00000000000E+00 0. -1.
         22    1    3    3    0    0  0.10541625897E+02 -0.22263550968E+02 -0.27385182467E+02  0.36833948974E+02  0.00000000000E+00 0.  1.
         22    1    3    3    0    0  0.28168834207E+01 -0.31935212830E+02  0.13095000349E+03  0.13481726916E+03  0.00000000000E+00 0.  1.
</event>
<event>
 7    1  0.5779468E-006  0.1585532E+03  0.7818608E-02  0.1298354E+00
          2   -1    0    0  502    0  0.00000000000E+00  0.00000000000E+00  0.49137989901E+03  0.49137989901E+03  0.00000000000E+00 0. -1.
          1   -1    0    0  501    0 -0.00000000000E+00 -0.00000000000E+00 -0.99918167973E+03  0.99918167973E+03  0.00000000000E+00 0. -1.
         25    2    1    2    0    0 -0.15021228084E+03  0.11193100928E+03 -0.62305860298E+03  0.66251084819E+03  0.12500528416E+03 0.  0.
          2    1    1    2  501    0  0.98757272913E+02 -0.98231777040E+02 -0.34117973176E+03  0.36851877881E+03  0.00000000000E+00 0. -1.
          1    1    1    2  502    0  0.51455007925E+02 -0.13699232236E+02  0.45643655403E+03  0.45953195173E+03  0.00000000000E+00 0. -1.
         22    1    3    3    0    0 -0.91414856231E+02  0.12397890556E+03 -0.34159763108E+03  0.37472174546E+03  0.00000000000E+00 0. -1.
         22    1    3    3    0    0 -0.58797424607E+02 -0.12047896279E+02 -0.28146097191E+03  0.28778910274E+03  0.00000000000E+00 0. -1.
</event>
<event>
 7    1  0.5779468E-006  0.4227358E+02  0.7818608E-02  0.1557350E+00
          2   -1    0    0  502    0  0.00000000000E+00  0.00000000000E+00  0.19910347327E+04  0.19910347327E+04  0.00000000000E+00 0. -1.
          1   -1    0    0  501    0 -0.00000000000E+00 -0.00000000000E+00 -0.66066605049E+03  0.66066605049E+03  0.00000000000E+00 0. -1.
         25    2    1    2    0    0 -0.24638882140E+02  0.20227647678E+02  0.20800685990E+03  0.24476001215E+03  0.12499751012E+03 0.  0.
          2    1    1    2  501    0  0.75541562984E+01 -0.41649390947E+02 -0.64148555065E+03  0.64288058669E+03  0.00000000000E+00 0. -1.
          1    1    1    2  502    0  0.17084725842E+02  0.21421743269E+02  0.17638473730E+04  0.17640601844E+04  0.00000000000E+00 0. -1.
         22    1    3    3    0    0  0.35843122490E+02  0.29146182433E+02  0.26555533975E+02  0.53286262441E+02  0.00000000000E+00 0. -1.
         22    1    3    3    0    0 -0.60482004630E+02 -0.89185347547E+01  0.18145132593E+03  0.19147374971E+03  0.00000000000E+00 0. -1.
</event>
<event>
 7    1  0.5779468E-006  0.9734354E+02  0.7818608E-02  0.1359353E+00
          2   -1    0    0  502    0  0.00000000000E+00  0.00000000000E+00  0.77096516072E+03  0.77096516072E+03  0.00000000000E+00 0. -1.
          1   -1    0    0  501    0 -0.00000000000E+00 -0.00000000000E+00 -0.35541630192E+03  0.35541630192E+03  0.00000000000E+00 0. -1.
         25    2    1    2    0    0 -0.12926077522E+03  0.30108653263E+02 -0.13565642350E+02  0.18282015055E+03  0.12499720710E+03 0.  0.
          2    1    1    2  501    0  0.94028476978E+02  0.62813104059E+01 -0.24761366112E+03  0.26494024707E+03  0.00000000000E+00 0. -1.
          1    1    1    2  502    0  0.35232298243E+02 -0.36389963669E+02  0.67672816227E+03  0.67862106503E+03  0.00000000000E+00 0. -1.
         22    1    3    3    0    0 -0.78392741858E+02  0.77131125085E+02 -0.24549448029E+02  0.11268233150E+03  0.00000000000E+00 0. -1.
         22    1    3    3    0    0 -0.50868033363E+02 -0.47022471821E+02  0.10983805679E+02  0.70137819054E+02  0.00000000000E+00 0. -1.
</event>
<event>
 7    1  0.5779468E-006  0.7993399E+02  0.7818608E-02  0.1404376E+00
          2   -1    0    0  502    0  0.00000000000E+00  0.00000000000E+00  0.97997950160E+02  0.97997950160E+02  0.00000000000E+00 0. -1.
          1   -1    0    0  501    0 -0.00000000000E+00 -0.00000000000E+00 -0.13639517789E+04  0.13639517789E+04  0.00000000000E+00 0. -1.
         25    2    1    2    0    0 -0.43657155688E+02 -0.10377489782E+03 -0.74746928526E+02  0.18408390034E+03  0.12499840951E+03 0.  0.
          2    1    1    2  501    0  0.49771107493E+01  0.42475899556E+02 -0.12035759504E+04  0.12043355189E+04  0.00000000000E+00 0. -1.
          1    1    1    2  502    0  0.38680044939E+02  0.61298998262E+02  0.12369050170E+02  0.73530309849E+02  0.00000000000E+00 0. -1.
         22    1    3    3    0    0 -0.41702643812E+02  0.52406448234E+01  0.13143417186E+02  0.44037759643E+02  0.00000000000E+00 0. -1.
         22    1    3    3    0    0 -0.19545118766E+01 -0.10901554264E+03 -0.87890345713E+02  0.14004614069E+03  0.00000000000E+00 0. -1.
</event>
<event>
 7    1  0.5779468E-006  0.1078628E+03  0.7818608E-02  0.1412051E+00
          2   -1    0    0  502    0  0.00000000000E+00  0.00000000000E+00  0.18438342126E+04  0.18438342126E+04  0.00000000000E+00 0. -1.
          1   -1    0    0  501    0 -0.00000000000E+00 -0.00000000000E+00 -0.36862493177E+03  0.36862493177E+03  0.00000000000E+00 0. -1.
         25    2    1    2    0    0 -0.52810235968E+02  0.67695858003E+02  0.19665600279E+02  0.15291949446E+03  0.12500394289E+03 0.  0.
          2    1    1    2  501    0  0.46463016602E+01  0.29482095771E+02 -0.29958249768E+03  0.30106553274E+03  0.00000000000E+00 0. -1.
          1    1    1    2  502    0  0.48163934308E+02 -0.97177953774E+02  0.17551261782E+04  0.17584741172E+04  0.00000000000E+00 0. -1.
         22    1    3    3    0    0  0.26506781885E+02  0.56749993539E+02  0.34469861744E+02  0.71493654413E+02  0.00000000000E+00 0.  1.
         22    1    3    3    0    0 -0.79317017854E+02  0.10945864464E+02 -0.14804261465E+02  0.81425840049E+02  0.00000000000E+00 0.  1.
</event>
<event>
 7    1  0.5779468E-006  0.6074784E+02  0.7818608E-02  0.1428248E+00
          2   -1    0    0  502    0  0.00000000000E+00  0.00000000000E+00  0.15556731573E+04  0.15556731573E+04  0.00000000000E+00 0. -1.
          1   -1    0    0  501    0 -0.00000000000E+00 -0.00000000000E+00 -0.15304528424E+04  0.15304528424E+04  0.00000000000E+00 0. -1.
         25    2    1    2    0    0  0.28663917350E+02 -0.24586463350E+02  0.38542153069E+02  0.13614960866E+03  0.12500041615E+03 0.  0.
          2    1    1    2  501    0 -0.60186652903E+02 -0.99892034329E+01 -0.14806480137E+04  0.14819044361E+04  0.00000000000E+00 0. -1.
          1    1    1    2  502    0  0.31522735553E+02  0.34575666783E+02  0.14673261755E+04  0.14680719549E+04  0.00000000000E+00 0. -1.
         22    1    3    3    0    0 -0.29592308403E+02  0.33927040138E+02 -0.20669606359E-01  0.45019431320E+02  0.00000000000E+00 0.  1.
         22    1    3    3    0    0  0.58256225754E+02 -0.58513503489E+02  0.38562822675E+02  0.91130177341E+02  0.00000000000E+00 0.  1.
</event>
<event>
 7    1  0.5779468E-006  0.7044546E+02  0.7818608E-02  0.1490304E+00
          2   -1    0    0  502    0  0.00000000000E+00  0.00000000000E+00  0.16852327267E+04  0.16852327267E+04  0.00000000000E+00 0. -1.
          1   -1    0    0  501    0 -0.00000000000E+00 -0.00000000000E+00 -0.17769080573E+04  0.17769080573E+04  0.00000000000E+00 0. -1.
         25    2    1    2    0    0  0.52422829977E+02 -0.77550819279E+02 -0.10081854402E+03  0.18587993084E+03  0.12499874878E+03 0.  0.
          2    1    1    2  501    0 -0.31586331452E+02  0.62523774441E+02 -0.16327073324E+04  0.16342093355E+04  0.00000000000E+00 0. -1.
          1    1    1    2  502    0 -0.20836498524E+02  0.15027044839E+02  0.16418505458E+04  0.16420515177E+04  0.00000000000E+00 0. -1.
         22    1    3    3    0    0  0.90499477150E+01  0.20492461147E+02  0.15843580723E+02  0.27438322974E+02  0.00000000000E+00 0.  1.
         22    1    3    3    0    0  0.43372882262E+02 -0.98043280427E+02 -0.11666212475E+03  0.15844160786E+03  0.00000000000E+00 0.  1.
</event>
<event>
 7    1  0.5779468E-006  0.5663444E+02  0.7818608E-02  0.1551934E+00
          2   -1    0    0  502    0  0.00000000000E+00  0.00000000000E+00  0.22061948325E+02  0.22061948325E+02  0.00000000000E+00 0. -1.
          1   -1    0    0  501    0 -0.00000000000E+00 -0.00000000000E+00 -0.11659245070E+04  0.11659245070E+04  0.00000000000E+00 0. -1.
         25    2    1    2    0    0 -0.34947401698E+02  0.46248954685E+02 -0.29916530994E+03  0.32937196122E+03  0.12500287787E+03 0.  0.
          2    1    1    2  501    0  0.15504329806E+02 -0.54628531697E+02 -0.83198218298E+03  0.83391786977E+03  0.00000000000E+00 0. -1.
          1    1    1    2  502    0  0.19443071892E+02  0.83795770115E+01 -0.12715065722E+02  0.24696624300E+02  0.00000000000E+00 0. -1.
         22    1    3    3    0    0  0.21884499144E+02 -0.12971524450E+02 -0.77142839039E+01  0.26583865886E+02  0.00000000000E+00 0. -1.
         22    1    3    3    0    0 -0.56831900842E+02  0.59220479135E+02 -0.29145102603E+03  0.30278809534E+03  0.00000000000E+00 0. -1.
</event>
<event>
 7    1  0.5779468E-006  0.7790845E+02  0.7818608E-02  0.1414109E+00
          2   -1    0    0  502    0  0.00000000000E+00  0.00000000000E+00  0.26350118448E+03  0.26350118448E+03  0.00000000000E+00 0. -1.
          1   -1    0    0  501    0 -0.00000000000E+00 -0.00000000000E+00 -0.13670845596E+03  0.13670845596E+03  0.00000000000E+00 0. -1.
         25    2    1    2    0    0  0.10352818170E+03 -0.21600298632E+02  0.27515076975E+02  0.16603169497E+03  0.12499914786E+03 0.  0.
          2    1    1    2  501    0 -0.37963959433E+02 -0.14576215213E+02 -0.51624472750E+02  0.65717687516E+02  0.00000000000E+00 0. -1.
          1    1    1    2  502    0 -0.65564222266E+02  0.36176513845E+02  0.15090212429E+03  0.16846025796E+03  0.00000000000E+00 0. -1.
         22    1    3    3    0    0  0.76687845366E+02  0.46794559924E+02  0.91768563071E+01  0.90304878921E+02  0.00000000000E+00 0. -1.
         22    1    3    3    0    0  0.26840336334E+02 -0.68394858556E+02  0.18338220668E+02  0.75726816047E+02  0.00000000000E+00 0. -1.
</event>
<event>
 7    1  0.5779468E-006  0.1330811E+03  0.7818608E-02  0.1415411E+00
          2   -1    0    0  502    0  0.00000000000E+00  0.00000000000E+00  0.11960912872E+04  0.11960912872E+04  0.00000000000E+00 0. -1.
          1   -1    0    0  501    0 -0.00000000000E+00 -0.00000000000E+00 -0.48922959240E+03  0.48922959240E+03  0.00000000000E+00 0. -1.
         25    2    1    2    0    0  0.12079888063E+03 -0.18566713218E+02  0.72897637708E+03  0.74964566988E+03  0.12499991856E+03 0.  0.
          2    1    1    2  501    0  0.23502826279E+02  0.17469066832E+01 -0.46703885395E+03  0.46763311006E+03  0.00000000000E+00 0. -1.
          1    1    1    2  502    0 -0.14430170691E+03  0.16819806535E+02  0.44492417166E+03  0.46804209964E+03  0.00000000000E+00 0. -1.
         22    1    3    3    0    0 -0.24331560004E+02 -0.13132147137E+02  0.16324879624E+03  0.16557369228E+03  0.00000000000E+00 0.  1.
         22    1    3    3    0    0  0.14513044063E+03 -0.54345660811E+01  0.56572758084E+03  0.58407197761E+03  0.00000000000E+00 0.  1.
</event>
<event>
 7    1  0.5779468E-006  0.1077415E+03  0.7818608E-02  0.1343652E+00
          2   -1    0    0  502    0  0.00000000000E+00  0.00000000000E+00  0.28513571011E+04  0.28513571011E+04  0.00000000000E+00 0. -1.
          1   -1    0    0  501    0 -0.00000000000E+00 -0.00000000000E+00 -0.31739847668E+04  0.31739847668E+04  0.00000000000E+00 0. -1.
         25    2    1    2    0    0 -0.46478687307E+02 -0.41056435839E+02  0.98211239649E+03  0.99197554788E+03  0.12499931577E+03 0.  0.
          2    1    1    2  501    0  0.98740860216E+02  0.43222911966E+02 -0.31677694915E+04  0.31696027399E+04  0.00000000000E+00 0. -1.
          1    1    1    2  502    0 -0.52262172909E+02 -0.21664761278E+01  0.18630294293E+04  0.18637635802E+04  0.00000000000E+00 0. -1.
         22    1    3    3    0    0 -0.25593726221E+02 -0.16628465858E+02  0.93163704383E+03  0.93213686020E+03  0.00000000000E+00 0. -1.
         22    1    3    3    0    0 -0.20884961086E+02 -0.24427969981E+02  0.50475352660E+02  0.59838687679E+02  0.00000000000E+00 0. -1.
</event>
<event>
 7    1  0.5779468E-006  0.4120261E+03  0.7818608E-02  0.1185642E+00
          2   -1    0    0  502    0  0.00000000000E+00  0.00000000000E+00  0.14538209248E+04  0.14538209248E+04  0.00000000000E+00 0. -1.
          1   -1    0    0  501    0 -0.00000000000E+00 -0.00000000000E+00 -0.65400951009E+03  0.65400951009E+03  0.00000000000E+00 0. -1.
         25    2    1    2    0    0  0.34114039780E+03 -0.13128651899E+03 -0.57265967892E+02  0.39054842340E+03  0.12504302803E+03 0.  0.
          2    1    1    2  501    0  0.35115930234E+02 -0.53834509669E+02 -0.39327211860E+03  0.39848995251E+03  0.00000000000E+00 0. -1.
          1    1    1    2  502    0 -0.37625632804E+03  0.18512102866E+03  0.12503495012E+04  0.13187920590E+04  0.00000000000E+00 0. -1.
         22    1    3    3    0    0  0.28969764852E+03 -0.15359145385E+03 -0.63977077699E+02  0.33407802790E+03  0.00000000000E+00 0. -1.
         22    1    3    3    0    0  0.51442749283E+02  0.22304934861E+02  0.67111098067E+01  0.56470395498E+02  0.00000000000E+00 0. -1.
</event>
<event>
 7    1  0.5779468E-006  0.6754063E+02  0.7818608E-02  0.1383583E+00
          2   -1    0    0  502    0  0.00000000000E+00  0.00000000000E+00  0.68715033719E+03  0.68715033719E+03  0.00000000000E+00 0. -1.
          1   -1    0    0  501    0 -0.00000000000E+00 -0.00000000000E+00 -0.10009337333E+04  0.10009337333E+04  0.00000000000E+00 0. -1.
         25    2    1    2    0    0  0.59719215729E+02  0.89950832476E+02  0.57240874876E+02  0.17481171662E+03  0.12500032608E+03 0.  0.
          2    1    1    2  501    0 -0.30841914777E+00 -0.59758984926E+02 -0.93925142531E+03  0.94115061034E+03  0.00000000000E+00 0. -1.
          1    1    1    2  502    0 -0.59410796582E+02 -0.30191847549E+02  0.56822715437E+03  0.57212174349E+03  0.00000000000E+00 0. -1.
         22    1    3    3    0    0  0.28748193966E+02 -0.26733047100E+02 -0.39681676912E+01  0.39457075644E+02  0.00000000000E+00 0. -1.
         22    1    3    3    0    0  0.30971021763E+02  0.11668387958E+03  0.61209042567E+02  0.13535464098E+03  0.00000000000E+00 0. -1.
</event>
<event>
 7    1  0.5779468E-006  0.1256099E+03  0.7818608E-02  0.1259750E+00
          2   -1    0    0  502    0  0.00000000000E+00  0.00000000000E+00  0.24744813178E+04  0.24744813178E+04  0.00000000000E+00 0. -1.
          1   -1    0    0  501    0 -0.00000000000E+00 -0.00000000000E+00 -0.18680293308E+04  0.18680293308E+04  0.00000000000E+00 0. -1.
         25    2    1    2    0    0  0.96452412923E+02 -0.15597711191E+03  0.39293628300E+03  0.45128240128E+03  0.12499982324E+03 0.  0.
          2    1    1    2  501    0 -0.11023915477E+03  0.59851630546E+02 -0.18355658185E+04  0.18398469401E+04  0.00000000000E+00 0. -1.
          1    1    1    2  502    0  0.13786741846E+02  0.96125481368E+02  0.20490815224E+04  0.20513813073E+04  0.00000000000E+00 0. -1.
         22    1    3    3    0    0  0.44711082179E+01 -0.79742834761E+02  0.67364569420E+02  0.10448394957E+03  0.00000000000E+00 0. -1.
         22    1    3    3    0    0  0.91981304705E+02 -0.76234277153E+02  0.32557171358E+03  0.34679845172E+03  0.00000000000E+00 0. -1.
</event>
<event>
 7    1  0.5779468E-006  0.1869629E+03  0.7818608E-02  0.1340571E+00
          2   -1    0    0  502    0  0.00000000000E+00  0.00000000000E+00  0.22176852718E+04  0.22176852718E+04  0.00000000000E+00 0. -1.
          1   -1    0    0  501    0 -0.00000000000E+00 -0.00000000000E+00 -0.13308915250E+04  0.13308915250E+04  0.00000000000E+00 0. -1.
         25    2    1    2    0    0 -0.18780547267E+03 -0.85975697160E+02 -0.25346193270E+02  0.24275405310E+03  0.12499753885E+03 0.  0.
          2    1    1    2  501    0  0.10254883473E+02  0.29207627827E+02 -0.11925212453E+04  0.11929229517E+04  0.00000000000E+00 0. -1.
          1    1    1    2  502    0  0.17755058919E+03  0.56768069333E+02  0.21046611854E+04  0.21128997919E+04  0.00000000000E+00 0. -1.
         22    1    3    3    0    0 -0.19332742949E+03 -0.51090444997E+02 -0.11970321751E+01  0.19996790105E+03  0.00000000000E+00 0.  1.
         22    1    3    3    0    0  0.55219568262E+01 -0.34885252163E+02 -0.24149161095E+02  0.42786152050E+02  0.00000000000E+00 0.  1.
</event>
<event>
 7    1  0.5779468E-006  0.9577401E+02  0.7818608E-02  0.1476388E+00
          2   -1    0    0  502    0  0.00000000000E+00  0.00000000000E+00  0.17109189296E+04  0.17109189296E+04  0.00000000000E+00 0. -1.
          1   -1    0    0  501    0 -0.00000000000E+00 -0.00000000000E+00 -0.29655051279E+03  0.29655051279E+03  0.00000000000E+00 0. -1.
         25    2    1    2    0    0  0.87699513321E+02  0.75164002847E+02 -0.55611908506E+02  0.17904753444E+03  0.12499801303E+03 0.  0.
          2    1    1    2  501    0 -0.11729503442E+02 -0.17223479920E+02 -0.17722606220E+03  0.17844692946E+03  0.00000000000E+00 0. -1.
          1    1    1    2  502    0 -0.75970009879E+02 -0.57940522927E+02  0.16472063875E+04  0.16499749785E+04  0.00000000000E+00 0. -1.
         22    1    3    3    0    0  0.83335481316E+02  0.68807328948E+02  0.14032317242E+02  0.10897778164E+03  0.00000000000E+00 0.  1.
         22    1    3    3    0    0  0.43640320056E+01  0.63566738993E+01 -0.69644225748E+02  0.70069752807E+02  0.00000000000E+00 0.  1.
</event>
<event>
 7    1  0.5779468E-006  0.4063849E+02  0.7818608E-02  0.1568493E+00
          2   -1    0    0  502    0  0.00000000000E+00  0.00000000000E+00  0.56438672205E+03  0.56438672205E+03  0.00000000000E+00 0. -1.
          1   -1    0    0  501    0 -0.00000000000E+00 -0.00000000000E+00 -0.82745555986E+03  0.82745555986E+03  0.00000000000E+00 0. -1.
         25    2    1    2    0    0 -0.41700675070E+02  0.35198037064E+02  0.17116638352E+03  0.21886235934E+03  0.12499981349E+03 0.  0.
          2    1    1    2  501    0  0.39673651599E+02 -0.87091203908E+01 -0.80261565542E+03  0.80364279237E+03  0.00000000000E+00 0. -1.
          1    1    1    2  502    0  0.20270234714E+01 -0.26488916673E+02  0.36838043408E+03  0.36933713020E+03  0.00000000000E+00 0. -1.
         22    1    3    3    0    0 -0.52186495964E+02  0.74907684772E+02  0.91625248260E+02  0.12934364197E+03  0.00000000000E+00 0.  1.
         22    1    3    3    0    0  0.10485820893E+02 -0.39709647707E+02  0.79541135261E+02  0.89518717369E+02  0.00000000000E+00 0.  1.
</event>
<event>
 7    1  0.5779468E-006  0.1703767E+03  0.7818608E-02  0.1308461E+00
          2   -1    0    0  502    0  0.00000000000E+00  0.00000000000E+00  0.65790783315E+03  0.65790783315E+03  0.00000000000E+00 0. -1.
          1   -1    0    0  501    0 -0.00000000000E+00 -0.00000000000E+00 -0.39813487474E+03  0.39813487474E+03  0.00000000000E+00 0. -1.
         25    2    1    2    0    0 -0.19597898472E+03 -0.38238619771E+02 -0.10531645733E+03  0.25804347584E+03  0.12499969898E+03 0.  0.
          2    1    1    2  501    0  0.38887088135E+02 -0.22974728869E+02 -0.20168478676E+03  0.20668042240E+03  0.00000000000E+00 0. -1.
          1    1    1    2  502    0  0.15709189658E+03  0.61213348640E+02  0.56677420250E+03  0.59131880965E+03  0.00000000000E+00 0. -1.
         22    1    3    3    0    0 -0.12145319783E+03  0.19404010017E+02 -0.90221837687E+01  0.12332394199E+03  0.00000000000E+00 0. -1.
         22    1    3    3    0    0 -0.74525786888E+02 -0.57642629788E+02 -0.96294273563E+02  0.13471953385E+03  0.00000000000E+00 0. -1.
</event>
<event>
 7    1  0.5779468E-006  0.1048557E+03  0.7818608E-02  0.1419968E+00
          2   -1    0    0  502    0  0.00000000000E+00  0.00000000000E+00  0.12399556006E+04  0.12399556006E+04  0.00000000000E+00 0. -1.
          1   -1    0    0  501    0 -0.00000000000E+00 -0.00000000000E+00 -0.72684103821E+03  0.72684103821E+03  0.00000000000E+00 0. -1.
         25    2    1    2    0    0  0.11831679389E+03 -0.67996037189E+01  0.13789063591E+03  0.22064455566E+03  0.12500037656E+03 0.  0.
          2    1    1    2  501    0 -0.10310208481E+03 -0.17745521241E+02 -0.68127382691E+03  0.68925972656E+03  0.00000000000E+00 0. -1.
          1    1    1    2  502    0 -0.15214709083E+02  0.24545124960E+02  0.10564977534E+04  0.10568923566E+04  0.00000000000E+00 0. -1.
         22    1    3    3    0    0  0.77655873520E+02  0.16468052001E+02  0.47754175718E+01  0.79526322949E+02  0.00000000000E+00 0. -1.
         22    1    3    3    0    0  0.40660920371E+02 -0.23267655720E+02  0.13311521834E+03  0.14111823271E+03  0.00000000000E+00 0. -1.
</event>
<event>
 7    1  0.5779468E-006  0.3065388E+03  0.7818608E-02  0.1252321E+00
          2   -1    0    0  502    0  0.00000000000E+00  0.00000000000E+00  0.13318400988E+04  0.13318400988E+04  0.00000000000E+00 0. -1.
          1   -1    0    0  501    0 -0.00000000000E+00 -0.00000000000E+00 -0.78477044078E+03  0.78477044078E+03  0.00000000000E+00 0. -1.
         25    2    1    2    0    0 -0.27052427796E+03  0.21376007038E+03 -0.45440250141E+03  0.58394009859E+03  0.12501061073E+03 0.  0.
          2    1    1    2  501    0  0.40891524324E+02 -0.12726372926E+02 -0.24533914215E+03  0.24904893495E+03  0.00000000000E+00 0. -1.
          1    1    1    2  502    0  0.22963275364E+03 -0.20103369745E+03  0.12468113016E+04  0.12836215060E+04  0.00000000000E+00 0. -1.
         22    1    3    3    0    0 -0.19916276837E+03  0.18421931316E+03 -0.26434349729E+03  0.37878760303E+03  0.00000000000E+00 0.  1.
         22    1    3    3    0    0 -0.71361509594E+02  0.29540757218E+02 -0.19005900412E+03  0.20515249556E+03  0.00000000000E+00 0.  1.
</event>
<event>
 7    1  0.5779468E-006  0.4657969E+02  0.7818608E-02  0.1548894E+00
          2   -1    0    0  502    0  0.00000000000E+00  0.00000000000E+00  0.15700113919E+04  0.15700113919E+04  0.00000000000E+00 0. -1.
          1   -1    0    0  501    0 -0.00000000000E+00 -0.00000000000E+00 -0.12285044174E+04  0.12285044174E+04  0.00000000000E+00 0. -1.
         25    2    1    2    0    0 -0.40721004887E+02  0.16137765569E+02  0.48902710781E+03  0.50664728165E+03  0.12500131248E+03 0.  0.
          2    1    1    2  501    0  0.45576503361E+02  0.96586423065E+01 -0.12190886556E+04  0.12199785479E+04  0.00000000000E+00 0. -1.
          1    1    1    2  502    0 -0.48554984746E+01 -0.25796407875E+02  0.10715685223E+04  0.10718899797E+04  0.00000000000E+00 0. -1.
         22    1    3    3    0    0 -0.47500373627E+02  0.57511245714E+02  0.41431259455E+03  0.42097357979E+03  0.00000000000E+00 0.  1.
         22    1    3    3    0    0  0.67793687399E+01 -0.41373480145E+02  0.74714513253E+02  0.85673701861E+02  0.00000000000E+00 0.  1.
</event>
<event>
 7    1  0.5779468E-006  0.4139626E+02  0.7818608E-02  0.1500695E+00
          2   -1    0    0  502    0  0.00000000000E+00  0.00000000000E+00  0.67193442066E+03  0.67193442066E+03  0.00000000000E+00 0. -1.
          1   -1    0    0  501    0 -0.00000000000E+00 -0.00000000000E+00 -0.37339867580E+03  0.37339867580E+03  0.00000000000E+00 0. -1.
         25    2    1    2    0    0 -0.71986282084E+02  0.33142214711E+02 -0.32580380241E+03  0.35784522055E+03  0.12499861199E+03 0.  0.
          2    1    1    2  501    0  0.31276288338E+02 -0.26023213596E+02 -0.17520450317E+02  0.44298758869E+02  0.00000000000E+00 0. -1.
          1    1    1    2  502    0  0.40709993747E+02 -0.71190011143E+01  0.64185999759E+03  0.64318911703E+03  0.00000000000E+00 0. -1.
         22    1    3    3    0    0 -0.86401820914E+02  0.61853290469E+02 -0.29410738125E+03  0.31271433594E+03  0.00000000000E+00 0.  1.
         22    1    3    3    0    0  0.14415538829E+02 -0.28711075758E+02 -0.31696421164E+02  0.45130884608E+02  0.00000000000E+00 0.  1.
</event>
<event>
 7    1  0.5779468E-006  0.1963961E+03  0.7818608E-02  0.1250100E+00
          2   -1    0    0  502    0  0.00000000000E+00  0.00000000000E+00  0.20675982555E+04  0.20675982555E+04  0.00000000000E+00 0. -1.
          1   -1    0    0  501    0 -0.00000000000E+00 -0.00000000000E+00 -0.11372407412E+03  0.11372407412E+03  0.00000000000E+00 0. -1.
         25    2    1    2    0    0 -0.22776540913E+01  0.19413085032E+03  0.14755903295E+04  0.14935480421E+04  0.12500783437E+03 0.  0.
          2    1    1    2  501    0  0.69928327653E+02 -0.18444169263E+03 -0.73164754212E+01  0.19738855033E+03  0.00000000000E+00 0. -1.
          1    1    1    2  502    0 -0.67650673561E+02 -0.96891576882E+01  0.48560032730E+03  0.49038573723E+03  0.00000000000E+00 0. -1.
         22    1    3    3    0    0 -0.11143355659E+02  0.57318750452E+02  0.15124865261E+03  0.16212886370E+03  0.00000000000E+00 0. -1.
         22    1    3    3    0    0  0.88657015674E+01  0.13681209986E+03  0.13243416769E+04  0.13314191784E+04  0.00000000000E+00 0. -1.
</event>
<event>
 7    1  0.5779468E-006  0.9038306E+02  0.7818608E-02  0.1475285E+00
          2   -1    0    0  502    0  0.00000000000E+00  0.00000000000E+00  0.14984791281E+04  0.14984791281E+04  0.00000000000E+00 0. -1.
          1   -1    0    0  501    0 -0.00000000000E+00 -0.00000000000E+00 -0.98965904566E+02  0.98965904566E+02  0.00000000000E+00 0. -1.
         25    2    1    2    0    0  0.29213877585E+02  0.96239214770E+02  0.18872542271E+03  0.24769004403E+03  0.12497053905E+03 0.  0.
          2    1    1    2  501    0 -0.42598808448E+02 -0.78459426783E+02 -0.40665993648E+02  0.98103329055E+02  0.00000000000E+00 0. -1.
          1    1    1    2  502    0  0.13384930862E+02 -0.17779787988E+02  0.12514537944E+04  0.12516516595E+04  0.00000000000E+00 0. -1.
         22    1    3    3    0    0  0.43505642180E+02  0.12123773818E+03  0.17021448554E+03  0.21345796108E+03  0.00000000000E+00 0. -1.
         22    1    3    3    0    0 -0.14291764595E+02 -0.24998523413E+02  0.18510937167E+02  0.34232082947E+02  0.00000000000E+00 0. -1.
</event>
<event>
 7    1  0.5779468E-006  0.8256603E+02  0.7818608E-02  0.1391705E+00
          2   -1    0    0  502    0  0.00000000000E+00  0.00000000000E+00  0.65086692705E+03  0.65086692705E+03  0.00000000000E+00 0. -1.
          1   -1    0    0  501    0 -0.00000000000E+00 -0.00000000000E+00 -0.44382422513E+03  0.44382422513E+03  0.00000000000E+00 0. -1.
         25    2    1    2    0    0  0.43302942527E+02  0.10771437318E+03  0.29513944125E+03  0.34089515701E+03  0.12499874906E+03 0.  0.
          2    1    1    2  501    0 -0.32928982448E+02 -0.31812334260E+02 -0.41526344736E+03  0.41777993394E+03  0.00000000000E+00 0. -1.
          1    1    1    2  502    0 -0.10373960079E+02 -0.75902038918E+02  0.32716670802E+03  0.33601606122E+03  0.00000000000E+00 0. -1.
         22    1    3    3    0    0  0.61445726146E+02  0.81682485487E+02  0.29156698731E+03  0.30896425972E+03  0.00000000000E+00 0.  1.
         22    1    3    3    0    0 -0.18142783619E+02  0.26031887691E+02  0.35724539436E+01  0.31930897284E+02  0.00000000000E+00 0.  1.
</event>
<event>
 7    1  0.5779468E-006  0.6803553E+02  0.7818608E-02  0.1431157E+00
          2   -1    0    0  502    0  0.00000000000E+00  0.00000000000E+00  0.15910894291E+03  0.15910894291E+03  0.00000000000E+00 0. -1.
          1   -1    0    0  501    0 -0.00000000000E+00 -0.00000000000E+00 -0.19496103383E+04  0.19496103383E+04  0.00000000000E+00 0. -1.
         25    2    1    2    0    0 -0.92461929905E+01  0.69614994153E+02  0.49141842252E+01  0.14345955959E+03  0.12499902614E+03 0.  0.
          2    1    1    2  501    0  0.40221920017E+02 -0.72224780632E+01 -0.18657915520E+04  0.18662390207E+04  0.00000000000E+00 0. -1.
          1    1    1    2  502    0 -0.30975727026E+02 -0.62392516090E+02  0.70375972335E+02  0.99020700921E+02  0.00000000000E+00 0. -1.
         22    1    3    3    0    0  0.11272065294E+02 -0.12114951976E+02 -0.43314540498E+02  0.46367886904E+02  0.00000000000E+00 0.  1.
         22    1    3    3    0    0 -0.20518258285E+02  0.81729946129E+02  0.48228724723E+02  0.97091672690E+02  0.00000000000E+00 0.  1.
</event>
<event>
 7    1  0.5779468E-006  0.3324856E+03  0.7818608E-02  0.1243310E+00
          2   -1    0    0  502    0  0.00000000000E+00  0.00000000000E+00  0.21768060101E+04  0.21768060101E+04  0.00000000000E+00 0. -1.
          1   -1    0    0  501    0 -0.00000000000E+00 -0.00000000000E+00 -0.38099534042E+03  0.38099534042E+03  0.00000000000E+00 0. -1.
         25    2    1    2    0    0  0.30774515476E+03  0.18152705059E+02  0.20808711897E+02  0.33330908712E+03  0.12500137632E+03 0.  0.
          2    1    1    2  501    0 -0.35037567073E+03 -0.25248128913E+02 -0.87073896145E+02  0.36191496521E+03  0.00000000000E+00 0. -1.
          1    1    1    2  502    0  0.42630515970E+02  0.70954238537E+01  0.18620758539E+04  0.18625772982E+04  0.00000000000E+00 0. -1.
         22    1    3    3    0    0  0.11171517073E+03  0.78511459350E+01  0.68525564781E+02  0.13129231848E+03  0.00000000000E+00 0.  1.
         22    1    3    3    0    0  0.19602998404E+03  0.10301559124E+02 -0.47716852884E+02  0.20201676864E+03  0.00000000000E+00 0.  1.
</event>
<event>
 7    1  0.5779468E-006  0.1070602E+03  0.7818608E-02  0.1394225E+00
          2   -1    0    0  502    0  0.00000000000E+00  0.00000000000E+00  0.11998221838E+04  0.11998221838E+04  0.00000000000E+00 0. -1.
          1   -1    0    0  501    0 -0.00000000000E+00 -0.00000000000E+00 -0.10815437158E+03  0.10815437158E+03  0.00000000000E+00 0. -1.
         25    2    1    2    0    0  0.79575018965E+02  0.69158072048E+02  0.12404703353E+03  0.20524961484E+03  0.12499886115E+03 0.  0.
          2    1    1    2  501    0 -0.10040886539E+03 -0.41526336317E+02 -0.23361872023E+02  0.11114024438E+03  0.00000000000E+00 0. -1.
          1    1    1    2  502    0  0.20833846424E+02 -0.27631735731E+02  0.99098265075E+03  0.99158669619E+03  0.00000000000E+00 0. -1.
         22    1    3    3    0    0  0.71495899448E+02  0.39208792603E+01  0.11955947505E+03  0.13936105987E+03  0.00000000000E+00 0. -1.
         22    1    3    3    0    0  0.80791195168E+01  0.65237192787E+02  0.44875584785E+01  0.65888554970E+02  0.00000000000E+00 0. -1.
</event>
<event>
 7    1  0.5779468E-006  0.1089302E+03  0.7818608E-02  0.1445139E+00
          2   -1    0    0  502    0  0.00000000000E+00  0.00000000000E+00  0.50966671021E+03  0.50966671021E+03  0.00000000000E+00 0. -1.
          1   -1    0    0  501    0 -0.00000000000E+00 -0.00000000000E+00 -0.37451197613E+03  0.37451197613E+03  0.00000000000E+00 0. -1.
         25    2    1    2    0    0 -0.66185549319E+02  0.11042879077E+03  0.23965483503E+02  0.18103695359E+03  0.12499995759E+03 0.  0.
          2    1    1    2  501    0  0.60933003462E+02 -0.88051966975E+02 -0.28594817689E+03  0.30533971191E+03  0.00000000000E+00 0. -1.
          1    1    1    2  502    0  0.52525458568E+01 -0.22376823795E+02  0.39713742748E+03  0.39780202084E+03  0.00000000000E+00 0. -1.
         22    1    3    3    0    0 -0.17614952572E+01  0.11404599114E+03  0.23775144816E+02  0.11651115171E+03  0.00000000000E+00 0.  1.
         22    1    3    3    0    0 -0.64424054061E+02 -0.36172003726E+01  0.19033868722E+00  0.64525801886E+02  0.00000000000E+00 0.  1.
</event>
<event>
 7    1  0.5779468E-006  0.9714433E+02  0.7818608E-02  0.1324100E+00
          2   -1    0    0  502    0  0.00000000000E+00  0.00000000000E+00  0.68580866927E+03  0.68580866927E+03  0.00000000000E+00 0. -1.
          1   -1    0    0  501    0 -0.00000000000E+00 -0.00000000000E+00 -0.10127929988E+04  0.10127929988E+04  0.00000000000E+00 0. -1.
         25    2    1    2    0    0  0.97792618132E+02 -0.11169268116E+02 -0.98440304708E+01  0.15940456974E+03  0.12499905282E+03 0.  0.
          2    1    1    2  501    0 -0.80665624102E+02 -0.55496302297E+02 -0.92363446680E+03  0.92880967412E+03  0.00000000000E+00 0. -1.
          1    1    1    2  502    0 -0.17126994030E+02  0.66665570413E+02  0.60649416771E+03  0.61038742424E+03  0.00000000000E+00 0. -1.
         22    1    3    3    0    0  0.17951989411E+02  0.34379063321E+02 -0.46407387461E+02  0.60480075476E+02  0.00000000000E+00 0. -1.
         22    1    3    3    0    0  0.79840628721E+02 -0.45548331437E+02  0.36563356990E+02  0.98924494265E+02  0.00000000000E+00 0. -1.
</event>
<event>
 7    1  0.5779468E-006  0.1166178E+03  0.7818608E-02  0.1303518E+00
          2   -1    0    0  502    0  0.00000000000E+00  0.00000000000E+00  0.72460579044E+03  0.72460579044E+03  0.00000000000E+00 0. -1.
          1   -1    0    0  501    0 -0.00000000000E+00 -0.00000000000E+00 -0.15302158192E+04  0.15302158192E+04  0.00000000000E+00 0. -1.
         25    2    1    2    0    0  0.15841029769E+03 -0.23777771339E+02 -0.33201001353E+03  0.38924934416E+03  0.12500079208E+03 0.  0.
          2    1    1    2  501    0 -0.97958735674E+02  0.57114855013E+02 -0.11651150158E+04  0.11706199301E+04  0.00000000000E+00 0. -1.
          1    1    1    2  502    0 -0.60451562013E+02 -0.33337083674E+02  0.69151500058E+03  0.69495233544E+03  0.00000000000E+00 0. -1.
         22    1    3    3    0    0  0.14169554888E+03  0.68770394948E+00 -0.15593410644E+03  0.21069776235E+03  0.00000000000E+00 0.  1.
         22    1    3    3    0    0  0.16714748810E+02 -0.24465475289E+02 -0.17607590709E+03  0.17855158181E+03  0.00000000000E+00 0.  1.
</event>
<event>
 7    1  0.5779468E-006  0.3239654E+02  0.7818608E-02  0.1601362E+00
          2   -1    0    0  502    0  0.00000000000E+00  0.00000000000E+00  0.11391978394E+04  0.11391978394E+04  0.00000000000E+00 0. -1.
          1   -1    0    0  501    0 -0.00000000000E+00 -0.00000000000E+00 -0.21361041995E+03  0.21361041995E+03  0.00000000000E+00 0. -1.
         25    2    1    2    0    0  0.27504440652E+02  0.21801318294E+02  0.32406459591E+03  0.34910642178E+03  0.12500255865E+03 0.  0.
          2    1    1    2  501    0 -0.23878295030E+01 -0.32341913850E+02 -0.19954901471E+03  0.20216703587E+03  0.00000000000E+00 0. -1.
          1    1    1    2  502    0 -0.25116611149E+02  0.10540595556E+02  0.80107183820E+03  0.80153480166E+03  0.00000000000E+00 0. -1.
         22    1    3    3    0    0 -0.12028523200E+02  0.31369951946E+02  0.29993989149E+03  0.30181566852E+03  0.00000000000E+00 0. -1.
         22    1    3    3    0    0  0.39532963852E+02 -0.95686336519E+01  0.24124704425E+02  0.47290753266E+02  0.00000000000E+00 0. -1.
</event>
<event>
 7    1  0.5779468E-006  0.1453447E+03  0.7818608E-02  0.1265195E+00
          2   -1    0    0  502    0  0.00000000000E+00  0.00000000000E+00  0.49922698910E+03  0.49922698910E+03  0.00000000000E+00 0. -1.
          1   -1    0    0  501    0 -0.00000000000E+00 -0.00000000000E+00 -0.25448112737E+04  0.25448112737E+04  0.00000000000E+00 0. -1.
         25    2    1    2    0    0  0.34155099889E+02  0.16921691372E+03 -0.30465346706E+02  0.21530161490E+03  0.12500285312E+03 0.  0.
          2    1    1    2  501    0  0.39698730748E+02 -0.13960796810E+03 -0.24158380903E+04  0.24201942179E+04  0.00000000000E+00 0. -1.
          1    1    1    2  502    0 -0.73853830637E+02 -0.29608945627E+02  0.40071915242E+03  0.40854242996E+03  0.00000000000E+00 0. -1.
         22    1    3    3    0    0  0.40747057705E+02  0.10348359830E+03 -0.76319374379E+02  0.13488448664E+03  0.00000000000E+00 0. -1.
         22    1    3    3    0    0 -0.65919578154E+01  0.65733315421E+02  0.45854027673E+02  0.80417128262E+02  0.00000000000E+00 0. -1.
</event>
<event>
 7    1  0.5779468E-006  0.1149682E+03  0.7818608E-02  0.1348788E+00
          2   -1    0    0  502    0  0.00000000000E+00  0.00000000000E+00  0.76655076660E+03  0.76655076660E+03  0.00000000000E+00 0. -1.
          1   -1    0    0  501    0 -0.00000000000E+00 -0.00000000000E+00 -0.30695556504E+03  0.30695556504E+03  0.00000000000E+00 0. -1.
         25    2    1    2    0    0 -0.44543749511E+02  0.58922485620E+02  0.87524263081E+02  0.16953788840E+03  0.12500637601E+03 0.  0.
          2    1    1    2  501    0 -0.30591352925E+02  0.35557240876E+02 -0.25810629651E+03  0.26233377318E+03  0.00000000000E+00 0. -1.
          1    1    1    2  502    0  0.75135102436E+02 -0.94479726496E+02  0.63017723498E+03  0.64163467006E+03  0.00000000000E+00 0. -1.
         22    1    3    3    0    0 -0.38872170137E+02 -0.63585017599E+01  0.95713308068E+02  0.10350127293E+03  0.00000000000E+00 0.  1.
         22    1    3    3    0    0 -0.56715793746E+01  0.65280987380E+02 -0.81890449875E+01  0.66036615477E+02  0.00000000000E+00 0.  1.
</event>
<event>
 7    1  0.5779468E-006  0.1217771E+03  0.7818608E-02  0.1344780E+00
          2   -1    0    0  502    0  0.00000000000E+00  0.00000000000E+00  0.10079626817E+03  0.10079626817E+03  0.00000000000E+00 0. -1.
          1   -1    0    0  501    0 -0.00000000000E+00 -0.00000000000E+00 -0.56974274499E+03  0.56974274499E+03  0.00000000000E+00 0. -1.
         25    2    1    2    0    0  0.13449612460E+03 -0.22184564462E+01 -0.10366738408E+03  0.21087006285E+03  0.12500051122E+03 0.  0.
          2    1    1    2  501    0 -0.11429795783E+03 -0.38921701597E+02 -0.38953213248E+03  0.40781638546E+03  0.00000000000E+00 0. -1.
          1    1    1    2  502    0 -0.20198166770E+02  0.41140158043E+02  0.24253039733E+02  0.51852564844E+02  0.00000000000E+00 0. -1.
         22    1    3    3    0    0 -0.18846632002E+02  0.97867951743E+01  0.58794942197E+01  0.22035093598E+02  0.00000000000E+00 0.  1.
         22    1    3    3    0    0  0.15334275660E+03 -0.12005251620E+02 -0.10954687830E+03  0.18883496925E+03  0.00000000000E+00 0.  1.
</event>
<event>
 7    1  0.5779468E-006  0.4224704E+02  0.7818608E-02  0.1560468E+00
          2   -1    0    0  502    0  0.00000000000E+00  0.00000000000E+00  0.22739810122E+03  0.22739810122E+03  0.00000000000E+00 0. -1.
          1   -1    0    0  501    0 -0.00000000000E+00 -0.00000000000E+00 -0.17024316292E+04  0.17024316292E+04  0.00000000000E+00 0. -1.
         25    2    1    2    0    0 -0.43257746349E+02 -0.50924262539E+02  0.30691683035E+02  0.14502142044E+03  0.12499887938E+03 0.  0.
          2    1    1    2  501    0  0.21417835020E+02  0.16242726836E+02 -0.16421449117E+04  0.16423648988E+04  0.00000000000E+00 0. -1.
          1    1    1    2  502    0  0.21839911330E+02  0.34681535703E+02  0.13641970069E+03  0.14244341116E+03  0.00000000000E+00 0. -1.
         22    1    3    3    0    0 -0.72437013074E+02 -0.32926896651E+01 -0.13547161225E+02  0.73766443899E+02  0.00000000000E+00 0. -1.
         22    1    3    3    0    0  0.29179266725E+02 -0.47631572874E+02  0.44238844260E+02  0.71254976545E+02  0.00000000000E+00 0. -1.
</event>
<event>
 7    1  0.5779468E-006  0.3196033E+03  0.7818608E-02  0.1288510E+00
          2   -1    0    0  502    0  0.00000000000E+00  0.00000000000E+00  0.92568200638E+03  0.92568200638E+03  0.00000000000E+00 0. -1.
          1   -1    0    0  501    0 -0.00000000000E+00 -0.00000000000E+00 -0.32867282817E+03  0.32867282817E+03  0.00000000000E+00 0. -1.
         25    2    1    2    0    0  0.24956492180E+03 -0.19910517494E+03  0.11921184825E+03  0.36299044957E+03  0.12500032334E+03 0.  0.
          2    1    1    2  501    0 -0.26735179256E+03  0.17626104721E+03 -0.82208771091E+02  0.33061037460E+03  0.00000000000E+00 0. -1.
          1    1    1    2  502    0  0.17786870758E+02  0.22844127725E+02  0.56000610105E+03  0.56075401038E+03  0.00000000000E+00 0. -1.
         22    1    3    3    0    0  0.17452566754E+03 -0.73760491446E+02  0.10392723656E+03  0.21610342252E+03  0.00000000000E+00 0. -1.
         22    1    3    3    0    0  0.75039254262E+02 -0.12534468349E+03  0.15284611693E+02  0.14688702704E+03  0.00000000000E+00 0. -1.
</event>
<event>
 7    1  0.5779468E-006  0.1285336E+03  0.7818608E-02  0.1393782E+00
          2   -1    0    0  502    0  0.00000000000E+00  0.00000000000E+00  0.23457335056E+04  0.23457335056E+04  0.00000000000E+00 0. -1.
          1   -1    0    0  501    0 -0.00000000000E+00 -0.00000000000E+00 -0.24912219981E+04  0.24912219981E+04  0.00000000000E+00 0. -1.
         25    2    1    2    0    0 -0.91229010133E+02 -0.51954371164E+02  0.10366874174E+04  0.10494605224E+04  0.12499839152E+03 0.  0.
          2    1    1    2  501    0  0.11971165247E+03  0.46905369621E+02 -0.24830113591E+04  0.24863379502E+04  0.00000000000E+00 0. -1.
          1    1    1    2  502    0 -0.28482642334E+02  0.50490015427E+01  0.13008354493E+04  0.13011570310E+04  0.00000000000E+00 0. -1.
         22    1    3    3    0    0 -0.19881886977E+02 -0.18605047990E+01  0.73902883769E+03  0.73929856881E+03  0.00000000000E+00 0.  1.
         22    1    3    3    0    0 -0.71347123156E+02 -0.50093866365E+02  0.29765857966E+03  0.31016195363E+03  0.00000000000E+00 0.  1.
</event>
<event>
 7    1  0.5779468E-006  0.7923941E+02  0.7818608E-02  0.1500515E+00
          2   -1    0    0  502    0  0.00000000000E+00  0.00000000000E+00  0.13365313820E+04  0.13365313820E+04  0.00000000000E+00 0. -1.
          1   -1    0    0  501    0 -0.00000000000E+00 -0.00000000000E+00 -0.92211857425E+03  0.92211857425E+03  0.00000000000E+00 0. -1.
         25    2    1    2    0    0 -0.51801561355E+02 -0.64574708822E+02  0.16247206283E+03  0.22107712548E+03  0.12499851772E+03 0.  0.
          2    1    1    2  501    0  0.63792225874E+02  0.46992395719E+02 -0.89095893900E+03  0.89447502163E+03  0.00000000000E+00 0. -1.
          1    1    1    2  502    0 -0.11990664519E+02  0.17582313103E+02  0.11428996839E+04  0.11430978092E+04  0.00000000000E+00 0. -1.
         22    1    3    3    0    0 -0.41875113275E+02 -0.96025757980E+02  0.78641039197E+02  0.13099192476E+03  0.00000000000E+00 0.  1.
         22    1    3    3    0    0 -0.99264480792E+01  0.31451049158E+02  0.83831023630E+02  0.90085200713E+02  0.00000000000E+00 0.  1.
</event>
<event>
 7    1  0.5779468E-006  0.1118526E+03  0.7818608E-02  0.1321004E+00
          2   -1    0    0  502    0  0.00000000000E+00  0.00000000000E+00  0.29949022356E+04  0.29949022356E+04  0.00000000000E+00 0. -1.
          1   -1    0    0  501    0 -0.00000000000E+00 -0.00000000000E+00 -0.62060510137E+02  0.62060510137E+02  0.00000000000E+00 0. -1.
         25    2    1    2    0    0  0.21735359541E+02  0.51793719402E+02  0.11580219337E+04  0.11661023473E+04  0.12499948103E+03 0.  0.
          2    1    1    2  501    0 -0.67771171037E+02 -0.92495983808E+02 -0.31028824387E+00  0.11466706120E+03  0.00000000000E+00 0. -1.
          1    1    1    2  502    0  0.46035811496E+02  0.40702264406E+02  0.17751300800E+04  0.17761933373E+04  0.00000000000E+00 0. -1.
         22    1    3    3    0    0  0.46662459968E+02 -0.77082677326E+01  0.18519348635E+03  0.19113720189E+03  0.00000000000E+00 0. -1.
         22    1    3    3    0    0 -0.24927100427E+02  0.59501987134E+02  0.97282844734E+03  0.97496514541E+03  0.00000000000E+00 0. -1.
</event>
<event>
 7    1  0.5779468E-006  0.5555242E+02  0.7818608E-02  0.1512048E+00
          2   -1    0    0  502    0  0.00000000000E+00  0.00000000000E+00  0.14541690254E+04  0.14541690254E+04  0.00000000000E+00 0. -1.
          1   -1    0    0  501    0 -0.00000000000E+00 -0.00000000000E+00 -0.47293386029E+03  0.47293386029E+03  0.00000000000E+00 0. -1.
         25    2    1    2    0    0 -0.39658432685E+02 -0.45012754421E+02  0.14686254357E+03  0.20197037617E+03  0.12499794719E+03 0.  0.
          2    1    1    2  501    0  0.51937502738E+02  0.19779310351E+02 -0.44349153793E+03  0.44696025497E+03  0.00000000000E+00 0. -1.
          1    1    1    2  502    0 -0.12279070053E+02  0.25233444070E+02  0.12778641594E+04  0.12781722545E+04  0.00000000000E+00 0. -1.
         22    1    3    3    0    0 -0.42539604076E+02 -0.31426834327E+02  0.16830707793E+03  0.17642147350E+03  0.00000000000E+00 0. -1.
         22    1    3    3    0    0  0.28811713914E+01 -0.13585920094E+02 -0.21444534362E+02  0.25548902666E+02  0.00000000000E+00 0. -1.
</event>
<event>
 7    1  0.5779468E-006  0.1090320E+03  0.7818608E-02  0.1356389E+00
          2   -1    0    0  502    0  0.00000000000E+00  0.00000000000E+00  0.28043110532E+03  0.28043110532E+03  0.00000000000E+00 0. -1.
          1   -1    0    0  501    0 -0.00000000000E+00 -0.00000000000E+00 -0.12734075342E+04  0.12734075342E+04  0.00000000000E+00 0. -1.
         25    2    1    2    0    0 -0.88838485299E+02 -0.42842189755E+02 -0.74914842865E+03  0.76588239419E+03  0.12499897552E+03 0.  0.
          2    1    1    2  501    0 -0.20471641979E+02  0.41601492832E+02 -0.50380337469E+03  0.50593241908E+03  0.00000000000E+00 0. -1.
          1    1    1    2  502    0  0.10931012728E+03  0.12406969222E+01  0.25997537445E+03  0.28202382626E+03  0.00000000000E+00 0. -1.
         22    1    3    3    0    0 -0.42373865695E+02  0.25838114518E+02 -0.51685716578E+03  0.51923451587E+03  0.00000000000E+00 0.  1.
         22    1    3    3    0    0 -0.46464619604E+02 -0.68680304273E+02 -0.23229126287E+03  0.24664787832E+03  0.00000000000E+00 0.  1.
</event>
<event>
 7    1  0.5779468E-006  0.5298506E+02  0.7818608E-02  0.1460111E+00
          2   -1    0    0  502    0  0.00000000000E+00  0.00000000000E+00  0.10042852405E+04  0.10042852405E+04  0.00000000000E+00 0. -1.
          1   -1    0    0  501    0 -0.00000000000E+00 -0.00000000000E+00 -0.25586679045E+02  0.25586679045E+02  0.00000000000E+00 0. -1.
         25    2    1    2    0    0  0.58887242758E+01  0.17520654835E+02  0.20176158734E+03  0.23806767557E+03  0.12500731822E+03 0.  0.
          2    1    1    2  501    0  0.31513937717E+02 -0.55050074154E+02  0.15308898812E+03  0.16571022062E+03  0.00000000000E+00 0. -1.
          1    1    1    2  502    0 -0.37402661993E+02  0.37529419319E+02  0.62384798596E+03  0.62609402331E+03  0.00000000000E+00 0. -1.
         22    1    3    3    0    0  0.65078264467E+01  0.17358648501E+02  0.21951816636E+03  0.22029956842E+03  0.00000000000E+00 0. -1.
         22    1    3    3    0    0 -0.61910217085E+00  0.16200633462E+00 -0.17756579020E+02  0.17768107160E+02  0.00000000000E+00 0. -1.
</event>
<event>
 7    1  0.5779468E-006  0.9375619E+02  0.7818608E-02  0.1317467E+00
          2   -1    0    0  502    0  0.00000000000E+00  0.00000000000E+00  0.94642252125E+03  0.94642252125E+03  0.00000000000E+00 0. -1.
          1   -1    0    0  501    0 -0.00000000000E+00 -0.00000000000E+00 -0.30920205147E+03  0.30920205147E+03  0.00000000000E+00 0. -1.
         25    2    1    2    0    0 -0.21504489649E+02 -0.81673865481E+01 -0.11277768841E+03  0.16992022298E+03  0.12499970358E+03 0.  0.
          2    1    1    2  501    0  0.72169074138E+02  0.87055427522E+02 -0.14608079526E+03  0.18473392073E+03  0.00000000000E+00 0. -1.
          1    1    1    2  502    0 -0.50664584489E+02 -0.78888040974E+02  0.89607895345E+03  0.90097042901E+03  0.00000000000E+00 0. -1.
         22    1    3    3    0    0 -0.91670930042E+01  0.27492813428E+01 -0.13879576405E+03  0.13912533292E+03  0.00000000000E+00 0. -1.
         22    1    3    3    0    0 -0.12337396645E+02 -0.10916667891E+02  0.26018075638E+02  0.30794890059E+02  0.00000000000E+00 0. -1.
</event>
<event>
 7    1  0.5779468E-006  0.1076078E+03  0.7818608E-02  0.1376348E+00
          2   -1    0    0  502    0  0.00000000000E+00  0.00000000000E+00  0.37825948099E+03  0.37825948099E+03  0.00000000000E+00 0. -1.
          1   -1    0    0  501    0 -0.00000000000E+00 -0.00000000000E+00 -0.11168455603E+03  0.11168455603E+03  0.00000000000E+00 0. -1.
         25    2    1    2    0    0 -0.11406004210E+03  0.19928160775E+02  0.14440143401E+03  0.22334491768E+03  0.12499741323E+03 0.  0.
          2    1    1    2  501    0  0.21898266506E+02  0.33220134719E+02 -0.50188859626E+02  0.64047115917E+02  0.00000000000E+00 0. -1.
          1    1    1    2  502    0  0.92161775597E+02 -0.53148295494E+02  0.17236235058E+03  0.20255200343E+03  0.00000000000E+00 0. -1.
         22    1    3    3    0    0 -0.55207291887E+02  0.70093007808E+02  0.10061437594E+03  0.13447723773E+03  0.00000000000E+00 0.  1.
         22    1    3    3    0    0 -0.58852750216E+02 -0.50164847033E+02  0.43787058072E+02  0.88867679954E+02  0.00000000000E+00 0.  1.
</event>
<event>
 7    1  0.5779468E-006  0.1148895E+03  0.7818608E-02  0.1281959E+00
          2   -1    0    0  502    0  0.00000000000E+00  0.00000000000E+00  0.14772805323E+04  0.14772805323E+04  0.00000000000E+00 0. -1.
          1   -1    0    0  501    0 -0.00000000000E+00 -0.00000000000E+00 -0.17573560628E+03  0.17573560628E+03  0.00000000000E+00 0. -1.
         25    2    1    2    0    0 -0.82271322159E+02  0.58615976697E+02  0.46629578873E+03  0.49321389973E+03  0.12499514044E+03 0.  0.
          2    1    1    2  501    0  0.18110940960E+02 -0.11539465599E+03 -0.13913093139E+03  0.18166273388E+03  0.00000000000E+00 0. -1.
          1    1    1    2  502    0  0.64160381199E+02  0.56778679290E+02  0.97438006865E+03  0.97813950494E+03  0.00000000000E+00 0. -1.
         22    1    3    3    0    0 -0.94448316387E+02  0.87875294347E+02  0.37177466156E+03  0.39352122027E+03  0.00000000000E+00 0. -1.
         22    1    3    3    0    0  0.12176994228E+02 -0.29259317651E+02  0.94521127170E+02  0.99692679467E+02  0.00000000000E+00 0. -1.
</event>
<event>
 7    1  0.5779468E-006  0.6078466E+02  0.7818608E-02  0.1426767E+00
          2   -1    0    0  502    0  0.00000000000E+00  0.00000000000E+00  0.14955012937E+04  0.14955012937E+04  0.00000000000E+00 0. -1.
          1   -1    0    0  501    0 -0.00000000000E+00 -0.00000000000E+00 -0.89692803383E+03  0.89692803383E+03  0.00000000000E+00 0. -1.
         25    2    1    2    0    0  0.16156800693E+02 -0.92422850016E+00  0.27325360847E+03  0.30092317658E+03  0.12500130901E+03 0.  0.
          2    1    1    2  501    0  0.47216476371E+02 -0.26351380789E+01 -0.88162561716E+03  0.88289301075E+03  0.00000000000E+00 0. -1.
          1    1    1    2  502    0 -0.63373277064E+02  0.35593665790E+01  0.12069452686E+04  0.12086131402E+04  0.00000000000E+00 0. -1.
         22    1    3    3    0    0 -0.18219911182E+02 -0.56857443194E+02  0.14587874462E+03  0.15762405318E+03  0.00000000000E+00 0. -1.
         22    1    3    3    0    0  0.34376711874E+02  0.55933214694E+02  0.12737486385E+03  0.14329912340E+03  0.00000000000E+00 0. -1.
</event>
<event>
 7    1  0.9431824E-006  0.9290582E+02  0.7818608E-02  0.1315916E+00
          2   -1    0    0  502    0  0.00000000000E+00  0.00000000000E+00  0.27079552962E+04  0.27079552962E+04  0.00000000000E+00 0. -1.
          1   -1    0    0  501    0 -0.00000000000E+00 -0.00000000000E+00 -0.83958493924E+03  0.83958493924E+03  0.00000000000E+00 0. -1.
         25    2    1    2    0    0 -0.11790084316E+03  0.10604925347E+03 -0.17607174663E+03  0.26790645498E+03  0.12500222270E+03 0.  0.
          2    1    1    2  501    0  0.73368237988E+02 -0.24747476099E+02 -0.61435803109E+03  0.61921815726E+03  0.00000000000E+00 0. -1.
          1    1    1    2  502    0  0.44532605176E+02 -0.81301777375E+02  0.26588001347E+04  0.26604156232E+04  0.00000000000E+00 0. -1.
         22    1    3    3    0    0 -0.11604572286E+03  0.32080743560E+02 -0.14278850415E+03  0.18677350138E+03  0.00000000000E+00 0.  1.
         22    1    3    3    0    0 -0.18551203029E+01  0.73968509914E+02 -0.33283242481E+02  0.81132953602E+02  0.00000000000E+00 0.  1.
</event>
<event>
 7    1  0.5779468E-006  0.6194111E+02  0.7818608E-02  0.1397763E+00
          2   -1    0    0  502    0  0.00000000000E+00  0.00000000000E+00  0.92516614480E+03  0.92516614480E+03  0.00000000000E+00 0. -1.
          1   -1    0    0  501    0 -0.00000000000E+00 -0.00000000000E+00 -0.88131419893E+03  0.88131419893E+03  0.00000000000E+00 0. -1.
         25    2    1    2    0    0  0.38845220578E+02  0.36978030045E+02  0.11306988940E+03  0.17687778656E+03  0.12499850248E+03 0.  0.
          2    1    1    2  501    0 -0.52594974404E+02  0.24806326018E+02 -0.84712805124E+03  0.84912161694E+03  0.00000000000E+00 0. -1.
          1    1    1    2  502    0  0.13749753826E+02 -0.61784356063E+02  0.77791010771E+03  0.78048094023E+03  0.00000000000E+00 0. -1.
         22    1    3    3    0    0  0.79527894671E+01 -0.23789106114E+01 -0.26943565232E+02  0.28193293235E+02  0.00000000000E+00 0.  1.
         22    1    3    3    0    0  0.30892431111E+02  0.39356940656E+02  0.14001345463E+03  0.14868449333E+03  0.00000000000E+00 0.  1.
</event>
<event>
 7    1  0.5779468E-006  0.9672981E+02  0.7818608E-02  0.1412103E+00
          2   -1    0    0  502    0  0.00000000000E+00  0.00000000000E+00  0.69191079934E+02  0.69191079934E+02  0.00000000000E+00 0. -1.
          1   -1    0    0  501    0 -0.00000000000E+00 -0.00000000000E+00 -0.22202865340E+04  0.22202865340E+04  0.00000000000E+00 0. -1.
         25    2    1    2    0    0  0.58591561607E+02  0.80405271420E+02 -0.12940206463E+04  0.13038440990E+04  0.12498809034E+03 0.  0.
          2    1    1    2  501    0 -0.30888710678E+02  0.12354070997E+02 -0.88441395077E+03  0.88503941824E+03  0.00000000000E+00 0. -1.
          1    1    1    2  502    0 -0.27702850929E+02 -0.92759342418E+02  0.27339142970E+02  0.10059409671E+03  0.00000000000E+00 0. -1.
         22    1    3    3    0    0 -0.13103653746E+02 -0.20422574877E+02 -0.81707766147E+02  0.85234654659E+02  0.00000000000E+00 0. -1.
         22    1    3    3    0    0  0.71695215353E+02  0.10082784630E+03 -0.12123128801E+04  0.12186094444E+04  0.00000000000E+00 0. -1.
</event>
<event>
 7    1  0.5779468E-006  0.6212836E+02  0.7818608E-02  0.1450793E+00
          2   -1    0    0  502    0  0.00000000000E+00  0.00000000000E+00  0.42243849893E+02  0.42243849893E+02  0.00000000000E+00 0. -1.
          1   -1    0    0  501    0 -0.00000000000E+00 -0.00000000000E+00 -0.13704613332E+04  0.13704613332E+04  0.00000000000E+00 0. -1.
         25    2    1    2    0    0 -0.57939202145E+02  0.64912613661E+02 -0.56120671280E+03  0.58150492830E+03  0.12499763433E+03 0.  0.
          2    1    1    2  501    0  0.37995165167E+02 -0.70891505007E+01 -0.76902995703E+03  0.77000062561E+03  0.00000000000E+00 0. -1.
          1    1    1    2  502    0  0.19944036978E+02 -0.57823463160E+02  0.20191864841E+01  0.61199629222E+02  0.00000000000E+00 0. -1.
         22    1    3    3    0    0 -0.80205745513E+02  0.17257145310E+01 -0.37834603924E+03  0.38675788953E+03  0.00000000000E+00 0. -1.
         22    1    3    3    0    0  0.22266543368E+02  0.63186899130E+02 -0.18286067356E+03  0.19474703877E+03  0.00000000000E+00 0. -1.
</event>
<event>
 7    1  0.5779468E-006  0.4966430E+02  0.7818608E-02  0.1573649E+00
          2   -1    0    0  502    0  0.00000000000E+00  0.00000000000E+00  0.46356675801E+03  0.46356675801E+03  0.00000000000E+00 0. -1.
          1   -1    0    0  501    0 -0.00000000000E+00 -0.00000000000E+00 -0.13674505897E+04  0.13674505897E+04  0.00000000000E+00 0. -1.
         25    2    1    2    0    0 -0.80569575862E+01 -0.65314124717E+02 -0.48074419891E+03  0.50106563566E+03  0.12498374693E+03 0.  0.
          2    1    1    2  501    0 -0.45656043238E+01  0.48469354543E+02 -0.87562483102E+03  0.87697717631E+03  0.00000000000E+00 0. -1.
          1    1    1    2  502    0  0.12622561910E+02  0.16844770175E+02  0.45248519827E+03  0.45297453571E+03  0.00000000000E+00 0. -1.
         22    1    3    3    0    0  0.47147261730E+02 -0.36921823166E+01 -0.90104714113E+02  0.10176126967E+03  0.00000000000E+00 0.  1.
         22    1    3    3    0    0 -0.55204219316E+02 -0.61621942401E+02 -0.39063948480E+03  0.39930436599E+03  0.00000000000E+00 0.  1.
</event>
<event>
 7    1  0.5779468E-006  0.1062991E+03  0.7818608E-02  0.1309299E+00
          2   -1    0    0  502    0  0.00000000000E+00  0.00000000000E+00  0.13593773280E+04  0.13593773280E+04  0.00000000000E+00 0. -1.
          1   -1    0    0  501    0 -0.00000000000E+00 -0.00000000000E+00 -0.22653439064E+03  0.22653439064E+03  0.00000000000E+00 0. -1.
         25    2    1    2    0    0 -0.80427232951E+02  0.13023675863E+03  0.42236218573E+03  0.46630897078E+03  0.12499634875E+03 0.  0.
          2    1    1    2  501    0  0.65392136941E+02 -0.29756207505E+02 -0.19532403522E+03  0.20811785650E+03  0.00000000000E+00 0. -1.
          1    1    1    2  502    0  0.15035096010E+02 -0.10048055113E+03  0.90580478683E+03  0.91148489133E+03  0.00000000000E+00 0. -1.
         22    1    3    3    0    0  0.13928044701E+02 -0.11801289212E+02  0.99712877695E+02  0.10137020684E+03  0.00000000000E+00 0. -1.
         22    1    3    3    0    0 -0.94355277652E+02  0.14203804785E+03  0.32264930803E+03  0.36493876394E+03  0.00000000000E+00 0. -1.
</event>
<event>
 7    1  0.5779468E-006  0.1924132E+03  0.7818608E-02  0.1332396E+00
          2   -1    0    0  502    0  0.00000000000E+00  0.00000000000E+00  0.31447321499E+04  0.31447321499E+04  0.00000000000E+00 0. -1.
          1   -1    0    0  501    0 -0.00000000000E+00 -0.00000000000E+00 -0.10683383393E+04  0.10683383393E+04  0.00000000000E+00 0. -1.
         25    2    1    2    0    0 -0.34000146222E+02  0.17229384802E+03  0.11550948035E+03  0.24455913556E+03  0.12500220288E+03 0.  0.
          2    1    1    2  501    0 -0.30756656981E+02  0.98597127129E+01 -0.10004010784E+04  0.10009223264E+04  0.00000000000E+00 0. -1.
          1    1    1    2  502    0  0.64756803203E+02 -0.18215356074E+03  0.29612854086E+04  0.29675890272E+04  0.00000000000E+00 0. -1.
         22    1    3    3    0    0  0.26941234872E+02  0.46048846404E+02  0.86152254727E+02  0.10133379193E+03  0.00000000000E+00 0.  1.
         22    1    3    3    0    0 -0.60941381094E+02  0.12624500162E+03  0.29357225627E+02  0.14322534364E+03  0.00000000000E+00 0.  1.
</event>
<event>
 7    1  0.5779468E-006  0.1247584E+03  0.7818608E-02  0.1249549E+00
          2   -1    0    0  502    0  0.00000000000E+00  0.00000000000E+00  0.14931159665E+04  0.14931159665E+04  0.00000000000E+00 0. -1.
          1   -1    0    0  501    0 -0.00000000000E+00 -0.00000000000E+00 -0.24835064840E+03  0.24835064840E+03  0.00000000000E+00 0. -1.
         25    2    1    2    0    0  0.94309425476E+02  0.44030661669E+02  0.82823220009E+03  0.84405372408E+03  0.12500057983E+03 0.  0.
          2    1    1    2  501    0 -0.10911423042E+03  0.63127801772E+02 -0.21902665024E+03  0.25271269884E+03  0.00000000000E+00 0. -1.
          1    1    1    2  502    0  0.14804804942E+02 -0.10715846344E+03  0.63555976825E+03  0.64470019199E+03  0.00000000000E+00 0. -1.
         22    1    3    3    0    0  0.62625560099E+02 -0.35646322992E+02  0.27834515141E+03  0.28752155473E+03  0.00000000000E+00 0. -1.
         22    1    3    3    0    0  0.31683865377E+02  0.79676984661E+02  0.54988704869E+03  0.55653216935E+03  0.00000000000E+00 0. -1.
</event>
<event>
 7    1  0.5779468E-006  0.1351114E+03  0.7818608E-02  0.1389287E+00
          2   -1    0    0  502    0  0.00000000000E+00  0.00000000000E+00  0.17059789543E+04  0.17059789543E+04  0.00000000000E+00 0. -1.
          1   -1    0    0  501    0 -0.00000000000E+00 -0.00000000000E+00 -0.94080445590E+02  0.94080445590E+02  0.00000000000E+00 0. -1.
         25    2    1    2    0    0 -0.10741645222E+03 -0.99594972380E+02  0.68710486990E+03  0.71358052964E+03  0.12500646905E+03 0.  0.
          2    1    1    2  501    0  0.27948755429E+02 -0.57203093063E+01 -0.73844405024E+02  0.79163444986E+02  0.00000000000E+00 0. -1.
          1    1    1    2  502    0  0.79467696795E+02  0.10531528169E+03  0.99863804379E+03  0.10073154252E+04  0.00000000000E+00 0. -1.
         22    1    3    3    0    0 -0.11175362337E+03 -0.31708592640E+02  0.32488188178E+03  0.34502542557E+03  0.00000000000E+00 0. -1.
         22    1    3    3    0    0  0.43371711463E+01 -0.67886379740E+02  0.36222298812E+03  0.36855510407E+03  0.00000000000E+00 0. -1.
</event>
<event>
 7    1  0.5779468E-006  0.1529630E+03  0.7818608E-02  0.1254827E+00
          2   -1    0    0  502    0  0.00000000000E+00  0.00000000000E+00  0.33098559298E+03  0.33098559298E+03  0.00000000000E+00 0. -1.
          1   -1    0    0  501    0 -0.00000000000E+00 -0.00000000000E+00 -0.61504827758E+03  0.61504827758E+03  0.00000000000E+00 0. -1.
         25    2    1    2    0    0  0.88315729118E+02 -0.10194280564E+03 -0.19100621129E+03  0.26514317510E+03  0.12500210766E+03 0.  0.
          2    1    1    2  501    0 -0.15863022493E+03  0.56511927200E+02 -0.36198317388E+03  0.39923547481E+03  0.00000000000E+00 0. -1.
          1    1    1    2  502    0  0.70314495817E+02  0.45430878443E+02  0.26892670057E+03  0.28165522065E+03  0.00000000000E+00 0. -1.
         22    1    3    3    0    0  0.58340852214E+02  0.15596284375E+02 -0.83561227075E+02  0.10309887387E+03  0.00000000000E+00 0. -1.
         22    1    3    3    0    0  0.29974876904E+02 -0.11753909002E+03 -0.10744498422E+03  0.16204430123E+03  0.00000000000E+00 0. -1.
</event>
<event>
 7    1  0.5779468E-006  0.7738067E+02  0.7818608E-02  0.1365605E+00
          2   -1    0    0  502    0  0.00000000000E+00  0.00000000000E+00  0.12683862981E+04  0.12683862981E+04  0.00000000000E+00 0. -1.
          1   -1    0    0  501    0 -0.00000000000E+00 -0.00000000000E+00 -0.81895709374E+03  0.81895709374E+03  0.00000000000E+00 0. -1.
         25    2    1    2    0    0  0.10076739042E+03 -0.16680889345E+02  0.30326602550E+03  0.34355259283E+03  0.12500313107E+03 0.  0.
          2    1    1    2  501    0 -0.54167915300E+02  0.55216977007E+02 -0.79596976160E+03  0.79971928761E+03  0.00000000000E+00 0. -1.
          1    1    1    2  502    0 -0.46599475121E+02 -0.38536087662E+02  0.94213294048E+03  0.94407151142E+03  0.00000000000E+00 0. -1.
         22    1    3    3    0    0  0.31245342363E+02 -0.65202315043E+02  0.10076855220E+03  0.12402384617E+03  0.00000000000E+00 0.  1.
         22    1    3    3    0    0  0.69522048058E+02  0.48521425698E+02  0.20249747329E+03  0.21952874666E+03  0.00000000000E+00 0.  1.
</event>
<event>
 7    1  0.5779468E-006  0.2919979E+02  0.7818608E-02  0.1617056E+00
          2   -1    0    0  502    0  0.00000000000E+00  0.00000000000E+00  0.49482118792E+03  0.49482118792E+03  0.00000000000E+00 0. -1.
          1   -1    0    0  501    0 -0.00000000000E+00 -0.00000000000E+00 -0.59629457442E+03  0.59629457442E+03  0.00000000000E+00 0. -1.
         25    2    1    2    0    0  0.36414304183E+02 -0.29284765215E+02  0.16091206243E+03  0.20904918741E+03  0.12500108760E+03 0.  0.
          2    1    1    2  501    0 -0.89270558995E+01  0.27780902696E+02 -0.57124142645E+03  0.57198622201E+03  0.00000000000E+00 0. -1.
          1    1    1    2  502    0 -0.27487248284E+02  0.15038625194E+01  0.30885597751E+03  0.31008035292E+03  0.00000000000E+00 0. -1.
         22    1    3    3    0    0 -0.29273154390E+02  0.17563431158E+02  0.63889374730E+01  0.34730537053E+02  0.00000000000E+00 0. -1.
         22    1    3    3    0    0  0.65687458573E+02 -0.46848196373E+02  0.15452312496E+03  0.17431865036E+03  0.00000000000E+00 0. -1.
</event>
<event>
 7    1  0.5779468E-006  0.4707144E+02  0.7818608E-02  0.1495961E+00
          2   -1    0    0  502    0  0.00000000000E+00  0.00000000000E+00  0.87438266034E+02  0.87438266034E+02  0.00000000000E+00 0. -1.
          1   -1    0    0  501    0 -0.00000000000E+00 -0.00000000000E+00 -0.20181245848E+04  0.20181245848E+04  0.00000000000E+00 0. -1.
         25    2    1    2    0    0  0.32171612235E+02  0.22907081572E+01 -0.20480555191E+03  0.24209565866E+03  0.12499893548E+03 0.  0.
          2    1    1    2  501    0 -0.27255232596E+02 -0.38929397317E+02 -0.17893694307E+04  0.17900003646E+04  0.00000000000E+00 0. -1.
          1    1    1    2  502    0 -0.49163796383E+01  0.36638689160E+02  0.63488663798E+02  0.73466827637E+02  0.00000000000E+00 0. -1.
         22    1    3    3    0    0 -0.24981020768E+01 -0.51115403492E+02 -0.14859732346E+03  0.15716293942E+03  0.00000000000E+00 0. -1.
         22    1    3    3    0    0  0.34669714311E+02  0.53406111650E+02 -0.56208228449E+02  0.84932719239E+02  0.00000000000E+00 0. -1.
</event>
<event>
 7    1  0.5779468E-006  0.1610132E+03  0.7818608E-02  0.1228556E+00
          2   -1    0    0  502    0  0.00000000000E+00  0.00000000000E+00  0.16094786166E+04  0.16094786166E+04  0.00000000000E+00 0. -1.
          1   -1    0    0  501    0 -0.00000000000E+00 -0.00000000000E+00 -0.11280816611E+04  0.11280816611E+04  0.00000000000E+00 0. -1.
         25    2    1    2    0    0 -0.14040214803E+02 -0.15540716573E+03 -0.43447624354E+03  0.47826964204E+03  0.12499491789E+03 0.  0.
          2    1    1    2  501    0  0.11494181998E+03  0.13117599768E+03 -0.65865053091E+03  0.68135107413E+03  0.00000000000E+00 0. -1.
          1    1    1    2  502    0 -0.10090160518E+03  0.24231168046E+02  0.15745237299E+04  0.15779395615E+04  0.00000000000E+00 0. -1.
         22    1    3    3    0    0 -0.51627340923E+02 -0.10126064392E+03 -0.36592036338E+03  0.38316682095E+03  0.00000000000E+00 0. -1.
         22    1    3    3    0    0  0.37587126120E+02 -0.54146521813E+02 -0.68555880160E+02  0.95102821088E+02  0.00000000000E+00 0. -1.
</event>
<event>
 7    1  0.5779468E-006  0.8117771E+02  0.7818608E-02  0.1386006E+00
          2   -1    0    0  502    0  0.00000000000E+00  0.00000000000E+00  0.23460873196E+04  0.23460873196E+04  0.00000000000E+00 0. -1.
          1   -1    0    0  501    0 -0.00000000000E+00 -0.00000000000E+00 -0.11113838738E+03  0.11113838738E+03  0.00000000000E+00 0. -1.
         25    2    1    2    0    0 -0.12171883932E+02 -0.49002009962E+02  0.17366215919E+03  0.21984371057E+03  0.12499343904E+03 0.  0.
          2    1    1    2  501    0 -0.48217152107E+02 -0.72211300473E+01 -0.80442489809E+02  0.94063981646E+02  0.00000000000E+00 0. -1.
          1    1    1    2  502    0  0.60389036039E+02  0.56223140010E+02  0.21417292628E+04  0.21433180148E+04  0.00000000000E+00 0. -1.
         22    1    3    3    0    0  0.54002105027E+02 -0.30570519784E+02  0.55947092792E+02  0.83551548275E+02  0.00000000000E+00 0. -1.
         22    1    3    3    0    0 -0.66173988959E+02 -0.18431490179E+02  0.11771506640E+03  0.13629216229E+03  0.00000000000E+00 0. -1.
</event>
<event>
 7    1  0.5779468E-006  0.8270650E+02  0.7818608E-02  0.1330739E+00
          2   -1    0    0  502    0  0.00000000000E+00  0.00000000000E+00  0.48539909599E+03  0.48539909599E+03  0.00000000000E+00 0. -1.
          1   -1    0    0  501    0 -0.00000000000E+00 -0.00000000000E+00 -0.24616556308E+03  0.24616556308E+03  0.00000000000E+00 0. -1.
         25    2    1    2    0    0  0.61146072576E+02  0.38830507516E+02  0.23671924061E+03  0.27731033259E+03  0.12497348192E+03 0.  0.
          2    1    1    2  501    0 -0.48235066318E+02  0.59043919333E+02 -0.20811294968E+03  0.22163890872E+03  0.00000000000E+00 0. -1.
          1    1    1    2  502    0 -0.12911006258E+02 -0.97874426848E+02  0.21062724198E+03  0.23261541776E+03  0.00000000000E+00 0. -1.
         22    1    3    3    0    0  0.37669222505E+02  0.49653441581E+02  0.24286814351E+03  0.25073765117E+03  0.00000000000E+00 0. -1.
         22    1    3    3    0    0  0.23476850071E+02 -0.10822934066E+02 -0.61489028981E+01  0.26572681421E+02  0.00000000000E+00 0. -1.
</event>
<event>
 7    1  0.5779468E-006  0.1028763E+03  0.7818608E-02  0.1400755E+00
          2   -1    0    0  502    0  0.00000000000E+00  0.00000000000E+00  0.15070701817E+04  0.15070701817E+04  0.00000000000E+00 0. -1.
          1   -1    0    0  501    0 -0.00000000000E+00 -0.00000000000E+00 -0.34809576568E+03  0.34809576568E+03  0.00000000000E+00 0. -1.
         25    2    1    2    0    0  0.28877460734E+02 -0.68824360325E+02  0.18741640615E+03  0.23731822376E+03  0.12499731885E+03 0.  0.
          2    1    1    2  501    0 -0.49948367785E+01 -0.33825295834E+02 -0.32008806557E+03  0.32190910014E+03  0.00000000000E+00 0. -1.
          1    1    1    2  502    0 -0.23882623955E+02  0.10264965616E+03  0.12916460755E+04  0.12959386235E+04  0.00000000000E+00 0. -1.
         22    1    3    3    0    0 -0.53418716799E+01 -0.58691765971E+02  0.14411614706E+02  0.60670863058E+02  0.00000000000E+00 0. -1.
         22    1    3    3    0    0  0.34219332414E+02 -0.10132594355E+02  0.17300479145E+03  0.17664736070E+03  0.00000000000E+00 0. -1.
</event>
<event>
 7    1  0.5779468E-006  0.9168218E+02  0.7818608E-02  0.1318979E+00
          2   -1    0    0  502    0  0.00000000000E+00  0.00000000000E+00  0.10851067468E+03  0.10851067468E+03  0.00000000000E+00 0. -1.
          1   -1    0    0  501    0 -0.00000000000E+00 -0.00000000000E+00 -0.80935909524E+03  0.80935909524E+03  0.00000000000E+00 0. -1.
         25    2    1    2    0    0  0.85152446127E+02 -0.92362982639E+02 -0.57501172051E+02  0.18631225228E+03  0.12499604361E+03 0.  0.
          2    1    1    2  501    0 -0.88324504714E+01  0.90759567014E+02 -0.64865790698E+03  0.65503617570E+03  0.00000000000E+00 0. -1.
          1    1    1    2  502    0 -0.76319995656E+02  0.16034156245E+01  0.53106584808E+01  0.76521341938E+02  0.00000000000E+00 0. -1.
         22    1    3    3    0    0  0.13554136255E+02 -0.10295703430E+03 -0.24131947604E+02  0.10661245901E+03  0.00000000000E+00 0.  1.
         22    1    3    3    0    0  0.71598309872E+02  0.10594051657E+02 -0.33369224447E+02  0.79699793269E+02  0.00000000000E+00 0.  1.
</event>
<event>
 7    1  0.5779468E-006  0.1684836E+03  0.7818608E-02  0.1264857E+00
          2   -1    0    0  502    0  0.00000000000E+00  0.00000000000E+00  0.49720625468E+03  0.49720625468E+03  0.00000000000E+00 0. -1.
          1   -1    0    0  501    0 -0.00000000000E+00 -0.00000000000E+00 -0.10982276757E+04  0.10982276757E+04  0.00000000000E+00 0. -1.
         25    2    1    2    0    0 -0.19779884728E+03 -0.11958561748E+03 -0.35664431615E+03  0.44299604280E+03  0.12500088722E+03 0.  0.
          2    1    1    2  501    0  0.46599903986E+02  0.50705985414E+02 -0.68141332266E+03  0.68488448976E+03  0.00000000000E+00 0. -1.
          1    1    1    2  502    0  0.15119894329E+03  0.68879632065E+02  0.43703621778E+03  0.46755339783E+03  0.00000000000E+00 0. -1.
         22    1    3    3    0    0 -0.17100658827E+03 -0.38981698960E+02 -0.26741402526E+03  0.31980163694E+03  0.00000000000E+00 0.  1.
         22    1    3    3    0    0 -0.26792259012E+02 -0.80603918518E+02 -0.89230290892E+02  0.12319440586E+03  0.00000000000E+00 0.  1.
</event>
<event>
 7    1  0.5779468E-006  0.2633509E+02  0.7818608E-02  0.1658079E+00
          2   -1    0    0  502    0  0.00000000000E+00  0.00000000000E+00  0.57614052665E+02  0.57614052665E+02  0.00000000000E+00 0. -1.
          1   -1    0    0  501    0 -0.00000000000E+00 -0.00000000000E+00 -0.62662870278E+03  0.62662870278E+03  0.00000000000E+00 0. -1.
         25    2    1    2    0    0  0.47746263993E+02  0.11714649637E+02 -0.93359293690E+02  0.16358069682E+03  0.12500299161E+03 0.  0.
          2    1    1    2  501    0 -0.23642978305E+02 -0.47878047245E+01 -0.49078196655E+03  0.49137445211E+03  0.00000000000E+00 0. -1.
          1    1    1    2  502    0 -0.24103285688E+02 -0.69268449124E+01  0.15126610127E+02  0.29287606514E+02  0.00000000000E+00 0. -1.
         22    1    3    3    0    0 -0.15559699570E+02 -0.38096461141E+02 -0.11858825857E+01  0.41168567132E+02  0.00000000000E+00 0.  1.
         22    1    3    3    0    0  0.63305963562E+02  0.49811110778E+02 -0.92173411104E+02  0.12241212969E+03  0.00000000000E+00 0.  1.
</event>
<event>
 7    1  0.5779468E-006  0.1513024E+03  0.7818608E-02  0.1235510E+00
          2   -1    0    0  502    0  0.00000000000E+00  0.00000000000E+00  0.14548183116E+04  0.14548183116E+04  0.00000000000E+00 0. -1.
          1   -1    0    0  501    0 -0.00000000000E+00 -0.00000000000E+00 -0.59063199757E+03  0.59063199757E+03  0.00000000000E+00 0. -1.
         25    2    1    2    0    0 -0.26708921794E+02  0.23702085403E+03 -0.14553707384E+03  0.30610251208E+03  0.12500182513E+03 0.  0.
          2    1    1    2  501    0  0.28996118131E+02 -0.13424140126E+03 -0.34987697069E+03  0.37586623059E+03  0.00000000000E+00 0. -1.
          1    1    1    2  502    0 -0.22871963376E+01 -0.10277945277E+03  0.13596003585E+04  0.13634815665E+04  0.00000000000E+00 0. -1.
         22    1    3    3    0    0  0.37092758148E+02  0.17980146083E+03 -0.99787011060E+02  0.20895426676E+03  0.00000000000E+00 0.  1.
         22    1    3    3    0    0 -0.63801679941E+02  0.57219393208E+02 -0.45750062784E+02  0.97148245312E+02  0.00000000000E+00 0.  1.
</event>
<event>
 7    1  0.5779468E-006  0.6506631E+02  0.7818608E-02  0.1400465E+00
          2   -1    0    0  502    0  0.00000000000E+00  0.00000000000E+00  0.18914971713E+03  0.18914971713E+03  0.00000000000E+00 0. -1.
          1   -1    0    0  501    0 -0.00000000000E+00 -0.00000000000E+00 -0.11698711702E+04  0.11698711702E+04  0.00000000000E+00 0. -1.
         25    2    1    2    0    0  0.52257984245E+01  0.37005982345E+02 -0.18117748582E+03  0.22326367240E+03  0.12499853738E+03 0.  0.
          2    1    1    2  501    0  0.47946552998E+02 -0.47432859177E+02 -0.96207283761E+03  0.96443397542E+03  0.00000000000E+00 0. -1.
          1    1    1    2  502    0 -0.53172351422E+02  0.10426876832E+02  0.16252887033E+03  0.17132323954E+03  0.00000000000E+00 0. -1.
         22    1    3    3    0    0  0.53135089491E+02 -0.18774047444E+02 -0.68280033798E+02  0.88532285682E+02  0.00000000000E+00 0.  1.
         22    1    3    3    0    0 -0.47909291066E+02  0.55780029789E+02 -0.11289745202E+03  0.13473138672E+03  0.00000000000E+00 0.  1.
</event>
<event>
 7    1  0.5779468E-006  0.6763440E+02  0.7818608E-02  0.1422738E+00
          2   -1    0    0  502    0  0.00000000000E+00  0.00000000000E+00  0.20225360940E+04  0.20225360940E+04  0.00000000000E+00 0. -1.
          1   -1    0    0  501    0 -0.00000000000E+00 -0.00000000000E+00 -0.18698301408E+03  0.18698301408E+03  0.00000000000E+00 0. -1.
         25    2    1    2    0    0 -0.75278892653E+02  0.67685166335E+02 -0.34538638223E+02  0.16453412831E+03  0.12502147186E+03 0.  0.
          2    1    1    2  501    0  0.12939369286E+02 -0.41875311309E+02 -0.81334901107E+02  0.92392289250E+02  0.00000000000E+00 0. -1.
          1    1    1    2  502    0  0.62339523367E+02 -0.25809855027E+02  0.19514266192E+04  0.19525926905E+04  0.00000000000E+00 0. -1.
         22    1    3    3    0    0  0.13274168089E+02  0.66195592792E+02 -0.34829391952E+02  0.75968062943E+02  0.00000000000E+00 0. -1.
         22    1    3    3    0    0 -0.88553060742E+02  0.14895735427E+01  0.29075372838E+00  0.88566065363E+02  0.00000000000E+00 0. -1.
</event>
<event>
 7    1  0.5779468E-006  0.9606608E+02  0.7818608E-02  0.1424027E+00
          2   -1    0    0  502    0  0.00000000000E+00  0.00000000000E+00  0.87171755992E+03  0.87171755992E+03  0.00000000000E+00 0. -1.
          1   -1    0    0  501    0 -0.00000000000E+00 -0.00000000000E+00 -0.65670529337E+02  0.65670529337E+02  0.00000000000E+00 0. -1.
         25    2    1    2    0    0 -0.64377377462E+02 -0.21372730193E+02  0.69951439258E+03  0.71382953570E+03  0.12502391887E+03 0.  0.
          2    1    1    2  501    0  0.94841340763E+02  0.23723469519E+02 -0.14406706264E+02  0.98819209212E+02  0.00000000000E+00 0. -1.
          1    1    1    2  502    0 -0.30463963302E+02 -0.23507393262E+01  0.12093934427E+03  0.12473934434E+03  0.00000000000E+00 0. -1.
         22    1    3    3    0    0 -0.23721941076E+02 -0.64516741138E+02  0.52589540797E+03  0.53036885326E+03  0.00000000000E+00 0.  1.
         22    1    3    3    0    0 -0.40655436386E+02  0.43144010944E+02  0.17361898460E+03  0.18346068244E+03  0.00000000000E+00 0.  1.
</event>
<event>
 7    1  0.5779468E-006  0.7873153E+02  0.7818608E-02  0.1409193E+00
          2   -1    0    0  502    0  0.00000000000E+00  0.00000000000E+00  0.15419874698E+04  0.15419874698E+04  0.00000000000E+00 0. -1.
          1   -1    0    0  501    0 -0.00000000000E+00 -0.00000000000E+00 -0.20254279395E+04  0.20254279395E+04  0.00000000000E+00 0. -1.
         25    2    1    2    0    0 -0.92877044522E+02  0.63876633764E+02 -0.96106757805E+02  0.19382172985E+03  0.12499593723E+03 0.  0.
          2    1    1    2  501    0  0.73474418469E+02 -0.26840772859E+02 -0.18793572308E+04  0.18809844546E+04  0.00000000000E+00 0. -1.
          1    1    1    2  502    0  0.19402626054E+02 -0.37035860905E+02  0.14920235189E+04  0.14926092248E+04  0.00000000000E+00 0. -1.
         22    1    3    3    0    0  0.24211144735E+01  0.41686202391E+02 -0.85814350504E+02  0.95434291623E+02  0.00000000000E+00 0. -1.
         22    1    3    3    0    0 -0.95298158996E+02  0.22190431373E+02 -0.10292407302E+02  0.98387438226E+02  0.00000000000E+00 0. -1.
</event>
<event>
 7    1  0.5779468E-006  0.6983712E+02  0.7818608E-02  0.1412058E+00
          2   -1    0    0  502    0  0.00000000000E+00  0.00000000000E+00  0.37866921993E+03  0.37866921993E+03  0.00000000000E+00 0. -1.
          1   -1    0    0  501    0 -0.00000000000E+00 -0.00000000000E+00 -0.14073801912E+04  0.14073801912E+04  0.00000000000E+00 0. -1.
         25    2    1    2    0    0  0.33044509502E+02  0.22197952866E+01 -0.98492050705E+02  0.16255096747E+03  0.12500106349E+03 0.  0.
          2    1    1    2  501    0  0.24914001199E+02  0.38781226440E+02 -0.12728020190E+04  0.12736363965E+04  0.00000000000E+00 0. -1.
          1    1    1    2  502    0 -0.57958510700E+02 -0.41001021727E+02  0.34258309840E+03  0.34986204718E+03  0.00000000000E+00 0. -1.
         22    1    3    3    0    0  0.50729066887E+02  0.54294358222E+02 -0.55457636558E+02  0.92719280706E+02  0.00000000000E+00 0. -1.
         22    1    3    3    0    0 -0.17684557385E+02 -0.52074562936E+02 -0.43034414147E+02  0.69831686761E+02  0.00000000000E+00 0. -1.
</event>
<event>
 7    1  0.5779468E-006  0.7925648E+02  0.7818608E-02  0.1353075E+00
          2   -1    0    0  502    0  0.00000000000E+00  0.00000000000E+00  0.95515525207E+03  0.95515525207E+03  0.00000000000E+00 0. -1.
          1   -1    0    0  501    0 -0.00000000000E+00 -0.00000000000E+00 -0.36758986630E+03  0.36758986630E+03  0.00000000000E+00 0. -1.
         25    2    1    2    0    0 -0.33226884881E+02  0.10401847266E+03  0.80403599592E+02  0.18442913820E+03  0.12500199860E+03 0.  0.
          2    1    1    2  501    0 -0.30815108065E+02 -0.57912487874E+02 -0.31024715418E+03  0.31710680191E+03  0.00000000000E+00 0. -1.
          1    1    1    2  502    0  0.64041992946E+02 -0.46105984788E+02  0.81740894036E+03  0.82120917827E+03  0.00000000000E+00 0. -1.
         22    1    3    3    0    0 -0.45942467594E+02 -0.12805648470E+02  0.15309094556E+02  0.50090551379E+02  0.00000000000E+00 0.  1.
         22    1    3    3    0    0  0.12715582713E+02  0.11682412113E+03  0.65094505036E+02  0.13433858682E+03  0.00000000000E+00 0.  1.
</event>
<event>
 7    1  0.5779468E-006  0.5604490E+02  0.7818608E-02  0.1439338E+00
          2   -1    0    0  502    0  0.00000000000E+00  0.00000000000E+00  0.71628546196E+03  0.71628546196E+03  0.00000000000E+00 0. -1.
          1   -1    0    0  501    0 -0.00000000000E+00 -0.00000000000E+00 -0.10924072636E+03  0.10924072636E+03  0.00000000000E+00 0. -1.
         25    2    1    2    0    0 -0.11311743632E+02 -0.47826921620E+02  0.40439587016E+02  0.14027392471E+03  0.12500417506E+03 0.  0.
          2    1    1    2  501    0  0.53217307942E+02  0.27336395589E+02 -0.43118641816E+02  0.73746712879E+02  0.00000000000E+00 0. -1.
          1    1    1    2  502    0 -0.41905564311E+02  0.20490526031E+02  0.60972379041E+03  0.61150555072E+03  0.00000000000E+00 0. -1.
         22    1    3    3    0    0 -0.99815416753E+01 -0.84557512795E+02  0.54307924921E+02  0.10098987501E+03  0.00000000000E+00 0. -1.
         22    1    3    3    0    0 -0.13302019563E+01  0.36730591175E+02 -0.13868337905E+02  0.39284049709E+02  0.00000000000E+00 0. -1.
</event>
<event>
 7    1  0.5779468E-006  0.3720456E+02  0.7818608E-02  0.1571520E+00
          2   -1    0    0  502    0  0.00000000000E+00  0.00000000000E+00  0.37370195618E+03  0.37370195618E+03  0.00000000000E+00 0. -1.
          1   -1    0    0  501    0 -0.00000000000E+00 -0.00000000000E+00 -0.45840928974E+03  0.45840928974E+03  0.00000000000E+00 0. -1.
         25    2    1    2    0    0 -0.20935929656E+02 -0.31102663128E+02 -0.20487598877E+02  0.13211745003E+03  0.12501835901E+03 0.  0.
          2    1    1    2  501    0  0.27919330556E+02 -0.55935972972E+01 -0.38047554068E+03  0.38153953191E+03  0.00000000000E+00 0. -1.
          1    1    1    2  502    0 -0.69834008998E+01  0.36696260425E+02  0.31625580600E+03  0.31845426398E+03  0.00000000000E+00 0. -1.
         22    1    3    3    0    0 -0.25326636665E+02  0.33106085073E+02  0.29129968455E+02  0.50852792017E+02  0.00000000000E+00 0. -1.
         22    1    3    3    0    0  0.43907070091E+01 -0.64208748201E+02 -0.49617567332E+02  0.81264658011E+02  0.00000000000E+00 0. -1.
</event>
<event>
 7    1  0.5779468E-006  0.8333852E+02  0.7818608E-02  0.1346595E+00
          2   -1    0    0  502    0  0.00000000000E+00  0.00000000000E+00  0.15843633118E+03  0.15843633118E+03  0.00000000000E+00 0. -1.
          1   -1    0    0  501    0 -0.00000000000E+00 -0.00000000000E+00 -0.77193171488E+03  0.77193171488E+03  0.00000000000E+00 0. -1.
         25    2    1    2    0    0 -0.13506588592E+02 -0.63025931498E+02 -0.50252144785E+03  0.52183118365E+03  0.12500113080E+03 0.  0.
          2    1    1    2  501    0  0.65860754156E+02 -0.31070275056E+01 -0.24304475737E+03  0.25182939988E+03  0.00000000000E+00 0. -1.
          1    1    1    2  502    0 -0.52354165564E+02  0.66132959004E+02  0.13207082151E+03  0.15670746253E+03  0.00000000000E+00 0. -1.
         22    1    3    3    0    0  0.23810759634E+02 -0.29405564450E+02 -0.34757667370E+02  0.51378350849E+02  0.00000000000E+00 0. -1.
         22    1    3    3    0    0 -0.37317348226E+02 -0.33620367048E+02 -0.46776378048E+03  0.47045283280E+03  0.00000000000E+00 0. -1.
</event>
<event>
 7    1  0.5779468E-006  0.4614502E+02  0.7818608E-02  0.1567094E+00
          2   -1    0    0  502    0  0.00000000000E+00  0.00000000000E+00  0.47434593696E+03  0.47434593696E+03  0.00000000000E+00 0. -1.
          1   -1    0    0  501    0 -0.00000000000E+00 -0.00000000000E+00 -0.17300876058E+03  0.17300876058E+03  0.00000000000E+00 0. -1.
         25    2    1    2    0    0  0.22491741807E+02 -0.33415462925E+02  0.11403370761E+03  0.17393486893E+03  0.12500872188E+03 0.  0.
          2    1    1    2  501    0 -0.27561156834E+01  0.46360856209E+02 -0.13885114855E+03  0.14641231716E+03  0.00000000000E+00 0. -1.
          1    1    1    2  502    0 -0.19735626124E+02 -0.12945393284E+02  0.32615461733E+03  0.32700751146E+03  0.00000000000E+00 0. -1.
         22    1    3    3    0    0 -0.45068543312E+02 -0.30742662677E+02  0.19976960940E+02  0.58097881830E+02  0.00000000000E+00 0. -1.
         22    1    3    3    0    0  0.67560285119E+02 -0.26728002482E+01  0.94056746665E+02  0.11583698710E+03  0.00000000000E+00 0. -1.
</event>
<event>
 7    1  0.5779468E-006  0.4784418E+02  0.7818608E-02  0.1537249E+00
          2   -1    0    0  502    0  0.00000000000E+00  0.00000000000E+00  0.12541089541E+04  0.12541089541E+04  0.00000000000E+00 0. -1.
          1   -1    0    0  501    0 -0.00000000000E+00 -0.00000000000E+00 -0.21269035384E+02  0.21269035384E+02  0.00000000000E+00 0. -1.
         25    2    1    2    0    0  0.56733184176E+02  0.69159112143E+01  0.72723292937E+03  0.74010790119E+03  0.12500195126E+03 0.  0.
          2    1    1    2  501    0 -0.44302085101E+02  0.17680802297E+02  0.24963941152E+02  0.53837569336E+02  0.00000000000E+00 0. -1.
          1    1    1    2  502    0 -0.12431099075E+02 -0.24596713512E+02  0.48064304822E+03  0.48143251899E+03  0.00000000000E+00 0. -1.
         22    1    3    3    0    0  0.43895257111E+02 -0.56466833982E+02  0.33170674584E+03  0.33932972486E+03  0.00000000000E+00 0.  1.
         22    1    3    3    0    0  0.12837927065E+02  0.63382745197E+02  0.39552618353E+03  0.40077817632E+03  0.00000000000E+00 0.  1.
</event>
<event>
 7    1  0.5779468E-006  0.7194237E+02  0.7818608E-02  0.1374104E+00
          2   -1    0    0  502    0  0.00000000000E+00  0.00000000000E+00  0.88294808736E+01  0.88294808736E+01  0.00000000000E+00 0. -1.
          1   -1    0    0  501    0 -0.00000000000E+00 -0.00000000000E+00 -0.27551410920E+04  0.27551410920E+04  0.00000000000E+00 0. -1.
         25    2    1    2    0    0 -0.45816451271E+02 -0.10104960382E+01 -0.88235994738E+03  0.89234741117E+03  0.12499862871E+03 0.  0.
          2    1    1    2  501    0  0.51973923888E+02  0.61317523370E+02 -0.15369145999E+04  0.15390151444E+04  0.00000000000E+00 0. -1.
          1    1    1    2  502    0 -0.61574726174E+01 -0.60307027332E+02 -0.32703706387E+03  0.33260801728E+03  0.00000000000E+00 0. -1.
         22    1    3    3    0    0 -0.41923512940E+02  0.37887283155E+02 -0.79047787494E+03  0.79249498291E+03  0.00000000000E+00 0. -1.
         22    1    3    3    0    0 -0.38929383301E+01 -0.38897779193E+02 -0.91882072432E+02  0.99852428260E+02  0.00000000000E+00 0. -1.
</event>
<event>
 7    1  0.5779468E-006  0.4200730E+02  0.7818608E-02  0.1545341E+00
          2   -1    0    0  502    0  0.00000000000E+00  0.00000000000E+00  0.62080885441E+03  0.62080885441E+03  0.00000000000E+00 0. -1.
          1   -1    0    0  501    0 -0.00000000000E+00 -0.00000000000E+00 -0.33360581113E+03  0.33360581113E+03  0.00000000000E+00 0. -1.
         25    2    1    2    0    0 -0.24235335871E+02 -0.39433945990E+02  0.24800047164E+03  0.28154796443E+03  0.12499053860E+03 0.  0.
          2    1    1    2  501    0  0.39654999590E+02  0.13955519388E+02 -0.31480959075E+03  0.31760408364E+03  0.00000000000E+00 0. -1.
          1    1    1    2  502    0 -0.15419663720E+02  0.25478426602E+02  0.35401216239E+03  0.35526261747E+03  0.00000000000E+00 0. -1.
         22    1    3    3    0    0  0.21745706608E+02 -0.64249657632E+02  0.76384560278E+02  0.10215427211E+03  0.00000000000E+00 0.  1.
         22    1    3    3    0    0 -0.45981042479E+02  0.24815711641E+02  0.17161591136E+03  0.17939369232E+03  0.00000000000E+00 0.  1.
</event>
<event>
 7    1  0.5779468E-006  0.7222856E+02  0.7818608E-02  0.1471242E+00
          2   -1    0    0  502    0  0.00000000000E+00  0.00000000000E+00  0.44090566095E+03  0.44090566095E+03  0.00000000000E+00 0. -1.
          1   -1    0    0  501    0 -0.00000000000E+00 -0.00000000000E+00 -0.10819680300E+03  0.10819680300E+03  0.00000000000E+00 0. -1.
         25    2    1    2    0    0 -0.46205564462E+02 -0.21775128592E+02  0.44725931516E+02  0.14224543613E+03  0.12499697891E+03 0.  0.
          2    1    1    2  501    0  0.74850450959E+02  0.22791003384E+02 -0.32768092562E+02  0.84827871211E+02  0.00000000000E+00 0. -1.
          1    1    1    2  502    0 -0.28644886497E+02 -0.10158747920E+01  0.32075101899E+03  0.32202915661E+03  0.00000000000E+00 0. -1.
         22    1    3    3    0    0  0.27529833681E+02  0.32903068393E+02  0.96303034758E+01  0.43968697925E+02  0.00000000000E+00 0.  1.
         22    1    3    3    0    0 -0.73735398144E+02 -0.54678196985E+02  0.35095628041E+02  0.98276738206E+02  0.00000000000E+00 0.  1.
</event>
<event>
 7    1  0.5779468E-006  0.1122220E+03  0.7818608E-02  0.1383919E+00
          2   -1    0    0  502    0  0.00000000000E+00  0.00000000000E+00  0.41642392153E+02  0.41642392153E+02  0.00000000000E+00 0. -1.
          1   -1    0    0  501    0 -0.00000000000E+00 -0.00000000000E+00 -0.11172989277E+04  0.11172989277E+04  0.00000000000E+00 0. -1.
         25    2    1    2    0    0  0.90935915850E+02  0.15292562251E+02 -0.33625672344E+03  0.37039912946E+03  0.12499491105E+03 0.  0.
          2    1    1    2  501    0  0.30502441034E+02 -0.18871816564E+02 -0.60997687946E+03  0.61103055394E+03  0.00000000000E+00 0. -1.
          1    1    1    2  502    0 -0.12143835688E+03  0.35792543133E+01 -0.12942293265E+03  0.17751163646E+03  0.00000000000E+00 0. -1.
         22    1    3    3    0    0  0.45782346387E+02 -0.35386029063E+02 -0.50849144517E+02  0.77031355899E+02  0.00000000000E+00 0. -1.
         22    1    3    3    0    0  0.45153569463E+02  0.50678591314E+02 -0.28540757893E+03  0.29336777356E+03  0.00000000000E+00 0. -1.
</event>
<event>
 7    1  0.5779468E-006  0.1328574E+03  0.7818608E-02  0.1396488E+00
          2   -1    0    0  502    0  0.00000000000E+00  0.00000000000E+00  0.17735476439E+04  0.17735476439E+04  0.00000000000E+00 0. -1.
          1   -1    0    0  501    0 -0.00000000000E+00 -0.00000000000E+00 -0.17647305795E+04  0.17647305795E+04  0.00000000000E+00 0. -1.
         25    2    1    2    0    0  0.13330197061E+03  0.84636558591E+02 -0.77965150413E+02  0.21595400245E+03  0.12499921631E+03 0.  0.
          2    1    1    2  501    0 -0.11534904899E+03 -0.63953735105E+02 -0.16149724470E+04  0.16203491871E+04  0.00000000000E+00 0. -1.
          1    1    1    2  502    0 -0.17952921622E+02 -0.20682823486E+02  0.17017546619E+04  0.17019750338E+04  0.00000000000E+00 0. -1.
         22    1    3    3    0    0  0.42474420960E+02 -0.23774831499E+02  0.95954155006E+01  0.49612408199E+02  0.00000000000E+00 0. -1.
         22    1    3    3    0    0  0.90827549648E+02  0.10841139009E+03 -0.87560565914E+02  0.16634159426E+03  0.00000000000E+00 0. -1.
</event>
<event>
 7    1  0.5779468E-006  0.7367716E+02  0.7818608E-02  0.1361723E+00
          2   -1    0    0  502    0  0.00000000000E+00  0.00000000000E+00  0.43930261859E+03  0.43930261859E+03  0.00000000000E+00 0. -1.
          1   -1    0    0  501    0 -0.00000000000E+00 -0.00000000000E+00 -0.36001389649E+03  0.36001389649E+03  0.00000000000E+00 0. -1.
         25    2    1    2    0    0  0.23765235156E+02  0.13140513451E+03 -0.88013151437E+02  0.20298762003E+03  0.12500225311E+03 0.  0.
          2    1    1    2  501    0 -0.14092826732E+02 -0.66519057954E+02 -0.20619365380E+03  0.21711567356E+03  0.00000000000E+00 0. -1.
          1    1    1    2  502    0 -0.96724084239E+01 -0.64886076551E+02  0.37349552734E+03  0.37921322149E+03  0.00000000000E+00 0. -1.
         22    1    3    3    0    0 -0.25721992923E+02  0.88921102504E+02  0.10796267704E+01  0.92572938727E+02  0.00000000000E+00 0.  1.
         22    1    3    3    0    0  0.49487228078E+02  0.42484032001E+02 -0.89092778207E+02  0.11041468130E+03  0.00000000000E+00 0.  1.
</event>
<event>
 7    1  0.5779468E-006  0.6269250E+02  0.7818608E-02  0.1492800E+00
          2   -1    0    0  502    0  0.00000000000E+00  0.00000000000E+00  0.19345812775E+03  0.19345812775E+03  0.00000000000E+00 0. -1.
          1   -1    0    0  501    0 -0.00000000000E+00 -0.00000000000E+00 -0.10790480374E+04  0.10790480374E+04  0.00000000000E+00 0. -1.
         25    2    1    2    0    0 -0.25171080915E+02  0.83201824596E+02 -0.34599625609E+03  0.37801513975E+03  0.12500363882E+03 0.  0.
          2    1    1    2  501    0  0.26252585329E+02 -0.54852193495E+02 -0.71460870961E+03  0.71719144531E+03  0.00000000000E+00 0. -1.
          1    1    1    2  502    0 -0.10815044145E+01 -0.28349631101E+02  0.17501505608E+03  0.17729958006E+03  0.00000000000E+00 0. -1.
         22    1    3    3    0    0 -0.16233708182E+01  0.99299682747E+02 -0.33142422988E+03  0.34598422287E+03  0.00000000000E+00 0. -1.
         22    1    3    3    0    0 -0.23547710096E+02 -0.16097858151E+02 -0.14572026215E+02  0.32030916875E+02  0.00000000000E+00 0. -1.
</event>
<event>
 7    1  0.5779468E-006  0.2444224E+03  0.7818608E-02  0.1233540E+00
          2   -1    0    0  502    0  0.00000000000E+00  0.00000000000E+00  0.15600866105E+03  0.15600866105E+03  0.00000000000E+00 0. -1.
          1   -1    0    0  501    0 -0.00000000000E+00 -0.00000000000E+00 -0.10435641899E+04  0.10435641899E+04  0.00000000000E+00 0. -1.
         25    2    1    2    0    0  0.18773328265E+03 -0.68439963207E+02 -0.17738121541E+03  0.29498648705E+03  0.12500047194E+03 0.  0.
          2    1    1    2  501    0 -0.25260335422E+03  0.65507652933E+02 -0.77200720812E+03  0.81492014121E+03  0.00000000000E+00 0. -1.
          1    1    1    2  502    0  0.64870071573E+02  0.29323102735E+01  0.61832894675E+02  0.89666222700E+02  0.00000000000E+00 0. -1.
         22    1    3    3    0    0  0.19153686650E+03 -0.91421241603E+02 -0.16305194398E+03  0.26763809721E+03  0.00000000000E+00 0. -1.
         22    1    3    3    0    0 -0.38035838557E+01  0.22981278397E+02 -0.14329271435E+02  0.27348389838E+02  0.00000000000E+00 0. -1.
</event>
<event>
 7    1  0.5779468E-006  0.9848800E+02  0.7818608E-02  0.1305116E+00
          2   -1    0    0  502    0  0.00000000000E+00  0.00000000000E+00  0.15147095332E+03  0.15147095332E+03  0.00000000000E+00 0. -1.
          1   -1    0    0  501    0 -0.00000000000E+00 -0.00000000000E+00 -0.18308512400E+04  0.18308512400E+04  0.00000000000E+00 0. -1.
         25    2    1    2    0    0  0.61161974591E+02  0.14668039959E+03 -0.61299948918E+03  0.64548348482E+03  0.12499851472E+03 0.  0.
          2    1    1    2  501    0 -0.65048871928E+02 -0.66219187451E+02 -0.11876393899E+04  0.11912613722E+04  0.00000000000E+00 0. -1.
          1    1    1    2  502    0  0.38868973366E+01 -0.80461212142E+02  0.12125859235E+03  0.14557733632E+03  0.00000000000E+00 0. -1.
         22    1    3    3    0    0  0.14747871597E+02  0.58543715529E+01 -0.28595942806E+03  0.28639931543E+03  0.00000000000E+00 0.  1.
         22    1    3    3    0    0  0.46414102994E+02  0.14082602804E+03 -0.32704006112E+03  0.35908416939E+03  0.00000000000E+00 0.  1.
</event>
<event>
 7    1  0.5779468E-006  0.6434274E+02  0.7818608E-02  0.1395503E+00
          2   -1    0    0  502    0  0.00000000000E+00  0.00000000000E+00  0.23309678746E+04  0.23309678746E+04  0.00000000000E+00 0. -1.
          1   -1    0    0  501    0 -0.00000000000E+00 -0.00000000000E+00 -0.10507183172E+02  0.10507183172E+02  0.00000000000E+00 0. -1.
         25    2    1    2    0    0 -0.10456198499E+03 -0.82294200540E+01  0.14590846599E+04  0.14681805522E+04  0.12500062738E+03 0.  0.
          2    1    1    2  501    0  0.56103775290E+02 -0.21777910561E+02  0.18547588911E+03  0.19499542669E+03  0.00000000000E+00 0. -1.
          1    1    1    2  502    0  0.48458209700E+02  0.30007330615E+02  0.67590014240E+03  0.67829907893E+03  0.00000000000E+00 0. -1.
         22    1    3    3    0    0 -0.13369353900E+03 -0.42748834821E+01  0.11885979548E+04  0.11961008883E+04  0.00000000000E+00 0. -1.
         22    1    3    3    0    0  0.29131554008E+02 -0.39545365719E+01  0.27048670516E+03  0.27207966382E+03  0.00000000000E+00 0. -1.
</event>
<event>
 7    1  0.5779468E-006  0.1616946E+03  0.7818608E-02  0.1317171E+00
          2   -1    0    0  502    0  0.00000000000E+00  0.00000000000E+00  0.26471641773E+03  0.26471641773E+03  0.00000000000E+00 0. -1.
          1   -1    0    0  501    0 -0.00000000000E+00 -0.00000000000E+00 -0.25383519127E+04  0.25383519127E+04  0.00000000000E+00 0. -1.
         25    2    1    2    0    0 -0.12922514869E+03 -0.16068335105E+02 -0.26871023923E+02  0.18249467760E+03  0.12499969991E+03 0.  0.
          2    1    1    2  501    0 -0.43985228563E+02  0.67911441958E+00 -0.23929764579E+04  0.23933807657E+04  0.00000000000E+00 0. -1.
          1    1    1    2  502    0  0.17321037725E+03  0.15389220685E+02  0.14621198680E+03  0.22719288718E+03  0.00000000000E+00 0. -1.
         22    1    3    3    0    0 -0.16541912996E+02 -0.51764832725E+02  0.16172771181E+02  0.56699129802E+02  0.00000000000E+00 0.  1.
         22    1    3    3    0    0 -0.11268323569E+03  0.35696497621E+02 -0.43043795104E+02  0.12579554780E+03  0.00000000000E+00 0.  1.
</event>
<event>
 7    1  0.5779468E-006  0.1652714E+03  0.7818608E-02  0.1233419E+00
          2   -1    0    0  502    0  0.00000000000E+00  0.00000000000E+00  0.13082838493E+03  0.13082838493E+03  0.00000000000E+00 0. -1.
          1   -1    0    0  501    0 -0.00000000000E+00 -0.00000000000E+00 -0.10203650792E+04  0.10203650792E+04  0.00000000000E+00 0. -1.
         25    2    1    2    0    0 -0.83464046994E+02  0.27884100886E+02 -0.63117899391E+02  0.16538435960E+03  0.12499738779E+03 0.  0.
          2    1    1    2  501    0  0.15266579182E+03 -0.94643752886E+02 -0.86407233337E+03  0.88254477578E+03  0.00000000000E+00 0. -1.
          1    1    1    2  502    0 -0.69201744823E+02  0.66759651999E+02  0.37653538533E+02  0.10326432872E+03  0.00000000000E+00 0. -1.
         22    1    3    3    0    0 -0.39866554384E+02 -0.37131731888E+02  0.13201602445E+02  0.56057024347E+02  0.00000000000E+00 0.  1.
         22    1    3    3    0    0 -0.43597492609E+02  0.65015832774E+02 -0.76319501835E+02  0.10932733525E+03  0.00000000000E+00 0.  1.
</event>
<event>
 7    1  0.8691856E-006  0.4455246E+02  0.7818608E-02  0.1518643E+00
          2   -1    0    0  502    0  0.00000000000E+00  0.00000000000E+00  0.18186492712E+04  0.18186492712E+04  0.00000000000E+00 0. -1.
          1   -1    0    0  501    0 -0.00000000000E+00 -0.00000000000E+00 -0.90053304204E+03  0.90053304204E+03  0.00000000000E+00 0. -1.
         25    2    1    2    0    0 -0.31537388670E+02 -0.56591651259E+02 -0.18611909167E+03  0.23336906882E+03  0.12499433636E+03 0.  0.
          2    1    1    2  501    0  0.45498669764E+00  0.44171213095E+02 -0.68992651426E+03  0.69133920630E+03  0.00000000000E+00 0. -1.
          1    1    1    2  502    0  0.31082401972E+02  0.12420438164E+02  0.17941618351E+04  0.17944740381E+04  0.00000000000E+00 0. -1.
         22    1    3    3    0    0 -0.73833508964E+02 -0.29529562095E+02 -0.66581127231E+02  0.10371320353E+03  0.00000000000E+00 0.  1.
         22    1    3    3    0    0  0.42296120294E+02 -0.27062089164E+02 -0.11953796444E+03  0.12965586529E+03  0.00000000000E+00 0.  1.
</event>
<event>
 7    1  0.5779468E-006  0.1767746E+03  0.7818608E-02  0.1238246E+00
          2   -1    0    0  502    0  0.00000000000E+00  0.00000000000E+00  0.28806362439E+03  0.28806362439E+03  0.00000000000E+00 0. -1.
          1   -1    0    0  501    0 -0.00000000000E+00 -0.00000000000E+00 -0.14515507988E+04  0.14515507988E+04  0.00000000000E+00 0. -1.
         25    2    1    2    0    0 -0.17297355262E+03  0.13515415655E+03  0.98801698948E+01  0.25280329885E+03  0.12500157685E+03 0.  0.
          2    1    1    2  501    0  0.16513492592E+02 -0.83959452519E+02 -0.12850398021E+04  0.12878855454E+04  0.00000000000E+00 0. -1.
          1    1    1    2  502    0  0.15646006003E+03 -0.51194704027E+02  0.11167245783E+03  0.19892557890E+03  0.00000000000E+00 0. -1.
         22    1    3    3    0    0 -0.85840616730E+02  0.29946418756E+01  0.34575025810E+02  0.92590559834E+02  0.00000000000E+00 0.  1.
         22    1    3    3    0    0 -0.87132935892E+02  0.13215951467E+03 -0.24694855915E+02  0.16021273902E+03  0.00000000000E+00 0.  1.
</event>
<event>
 7    1  0.5779468E-006  0.2815200E+02  0.7818608E-02  0.1622638E+00
          2   -1    0    0  502    0  0.00000000000E+00  0.00000000000E+00  0.10122373376E+04  0.10122373376E+04  0.00000000000E+00 0. -1.
          1   -1    0    0  501    0 -0.00000000000E+00 -0.00000000000E+00 -0.22755413425E+03  0.22755413425E+03  0.00000000000E+00 0. -1.
         25    2    1    2    0    0  0.38632902910E+01 -0.41211774904E+02 -0.42010393343E+02  0.13821735245E+03  0.12500331182E+03 0.  0.
          2    1    1    2  501    0 -0.20511011451E+02  0.18517597923E+02 -0.13584349962E+03  0.13862560879E+03  0.00000000000E+00 0. -1.
          1    1    1    2  502    0  0.16647721160E+02  0.22694176981E+02  0.96253709629E+03  0.96294851058E+03  0.00000000000E+00 0. -1.
         22    1    3    3    0    0  0.11501706911E+02 -0.11368992041E+02 -0.84333752147E+02  0.85870396489E+02  0.00000000000E+00 0. -1.
         22    1    3    3    0    0 -0.76384166201E+01 -0.29842782863E+02  0.42323358804E+02  0.52346955956E+02  0.00000000000E+00 0. -1.
</event>
<event>
 7    1  0.5779468E-006  0.5991976E+02  0.7818608E-02  0.1421105E+00
          2   -1    0    0  502    0  0.00000000000E+00  0.00000000000E+00  0.30883662533E+03  0.30883662533E+03  0.00000000000E+00 0. -1.
          1   -1    0    0  501    0 -0.00000000000E+00 -0.00000000000E+00 -0.64458679938E+03  0.64458679938E+03  0.00000000000E+00 0. -1.
         25    2    1    2    0    0 -0.85161316067E+02 -0.12510371666E+02  0.23484420411E+03  0.27961954184E+03  0.12500531516E+03 0.  0.
          2    1    1    2  501    0  0.43809218468E+02  0.40786907641E+02 -0.60821615561E+03  0.61115440880E+03  0.00000000000E+00 0. -1.
          1    1    1    2  502    0  0.41352097599E+02 -0.28276535975E+02  0.37621777449E+02  0.62649474068E+02  0.00000000000E+00 0. -1.
         22    1    3    3    0    0 -0.69825324800E+02 -0.62672263362E+02  0.11240881735E+03  0.14642107361E+03  0.00000000000E+00 0.  1.
         22    1    3    3    0    0 -0.15335991267E+02  0.50161891696E+02  0.12243538676E+03  0.13319846823E+03  0.00000000000E+00 0.  1.
</event>
<event>
 7    1  0.5779468E-006  0.2859302E+03  0.7818608E-02  0.1279941E+00
          2   -1    0    0  502    0  0.00000000000E+00  0.00000000000E+00  0.15542106128E+04  0.15542106128E+04  0.00000000000E+00 0. -1.
          1   -1    0    0  501    0 -0.00000000000E+00 -0.00000000000E+00 -0.10083251820E+04  0.10083251820E+04  0.00000000000E+00 0. -1.
         25    2    1    2    0    0  0.26785732755E+03 -0.44751231955E+01  0.60377468173E+03  0.67226234912E+03  0.12500090038E+03 0.  0.
          2    1    1    2  501    0 -0.28540128252E+03 -0.25916598019E+02 -0.95265226887E+03  0.99482255076E+03  0.00000000000E+00 0. -1.
          1    1    1    2  502    0  0.17543954974E+02  0.30391721215E+02  0.89476301789E+03  0.89545089494E+03  0.00000000000E+00 0. -1.
         22    1    3    3    0    0  0.16511759525E+03  0.19295414927E+02  0.22929393301E+03  0.28321695044E+03  0.00000000000E+00 0.  1.
         22    1    3    3    0    0  0.10273973230E+03 -0.23770538123E+02  0.37448074872E+03  0.38904539868E+03  0.00000000000E+00 0.  1.
</event>
<event>
 7    1  0.5779468E-006  0.3209095E+03  0.7818608E-02  0.1223440E+00
          2   -1    0    0  502    0  0.00000000000E+00  0.00000000000E+00  0.11611306920E+04  0.11611306920E+04  0.00000000000E+00 0. -1.
          1   -1    0    0  501    0 -0.00000000000E+00 -0.00000000000E+00 -0.33620154120E+04  0.33620154120E+04  0.00000000000E+00 0. -1.
         25    2    1    2    0    0 -0.31159025436E+03 -0.42585084774E+02 -0.52118084432E+01  0.33845621547E+03  0.12499388298E+03 0.  0.
          2    1    1    2  501    0  0.30637275293E+03  0.97245944403E+02 -0.31813185177E+04  0.31975159966E+04  0.00000000000E+00 0. -1.
          1    1    1    2  502    0  0.52175014355E+01 -0.54660859629E+02  0.98564560619E+03  0.98717389193E+03  0.00000000000E+00 0. -1.
         22    1    3    3    0    0 -0.11279078495E+03  0.41115433735E+02  0.18452404092E+02  0.12146082198E+03  0.00000000000E+00 0. -1.
         22    1    3    3    0    0 -0.19879946942E+03 -0.83700518509E+02 -0.23664212535E+02  0.21699539348E+03  0.00000000000E+00 0. -1.
</event>
<event>
 7    1  0.5779468E-006  0.2536039E+02  0.7818608E-02  0.1687638E+00
          2   -1    0    0  502    0  0.00000000000E+00  0.00000000000E+00  0.12097058096E+04  0.12097058096E+04  0.00000000000E+00 0. -1.
          1   -1    0    0  501    0 -0.00000000000E+00 -0.00000000000E+00 -0.40343363112E+03  0.40343363112E+03  0.00000000000E+00 0. -1.
         25    2    1    2    0    0 -0.27040824216E+02  0.11931680176E+02  0.61802660104E+02  0.14254296342E+03  0.12500142583E+03 0.  0.
          2    1    1    2  501    0  0.92463863703E+01 -0.23635027305E+02 -0.36251739670E+03  0.36340469602E+03  0.00000000000E+00 0. -1.
          1    1    1    2  502    0  0.17794437846E+02  0.11703347129E+02  0.11069869150E+04  0.11071917812E+04  0.00000000000E+00 0. -1.
         22    1    3    3    0    0  0.71968113201E+01  0.45405251650E+02 -0.18087707132E+02  0.49402389820E+02  0.00000000000E+00 0.  1.
         22    1    3    3    0    0 -0.34237635536E+02 -0.33473571474E+02  0.79890367236E+02  0.93140573605E+02  0.00000000000E+00 0.  1.
</event>
<event>
 7    1  0.5779468E-006  0.1338039E+03  0.7818608E-02  0.1381543E+00
          2   -1    0    0  502    0  0.00000000000E+00  0.00000000000E+00  0.18497934001E+04  0.18497934001E+04  0.00000000000E+00 0. -1.
          1   -1    0    0  501    0 -0.00000000000E+00 -0.00000000000E+00 -0.42191591590E+03  0.42191591590E+03  0.00000000000E+00 0. -1.
         25    2    1    2    0    0  0.10303115595E+03 -0.64536872163E+02  0.14677454486E+03  0.22792094732E+03  0.12499905697E+03 0.  0.
          2    1    1    2  501    0 -0.96139127596E+02  0.94421752714E+02 -0.36929167494E+03  0.39310881498E+03  0.00000000000E+00 0. -1.
          1    1    1    2  502    0 -0.68920283534E+01 -0.29884880550E+02  0.16503946143E+04  0.16506795537E+04  0.00000000000E+00 0. -1.
         22    1    3    3    0    0  0.12578924812E+03 -0.72598385405E+02  0.14237115311E+03  0.20337897075E+03  0.00000000000E+00 0. -1.
         22    1    3    3    0    0 -0.22758092168E+02  0.80615132416E+01  0.44033917426E+01  0.24541976565E+02  0.00000000000E+00 0. -1.
</event>
<event>
 7    1  0.5779468E-006  0.7537851E+02  0.7818608E-02  0.1497940E+00
          2   -1    0    0  502    0  0.00000000000E+00  0.00000000000E+00  0.37455546378E+03  0.37455546378E+03  0.00000000000E+00 0. -1.
          1   -1    0    0  501    0 -0.00000000000E+00 -0.00000000000E+00 -0.67365770152E+03  0.67365770152E+03  0.00000000000E+00 0. -1.
         25    2    1    2    0    0  0.62561820285E+02 -0.69688356665E+02 -0.32405458340E+02  0.15951738566E+03  0.12500093674E+03 0.  0.
          2    1    1    2  501    0 -0.50636889022E+01  0.22201521307E+02 -0.57299657925E+03  0.57344888903E+03  0.00000000000E+00 0. -1.
          1    1    1    2  502    0 -0.57498131382E+02  0.47486835358E+02  0.30629979985E+03  0.31524689060E+03  0.00000000000E+00 0. -1.
         22    1    3    3    0    0 -0.22755425629E+02 -0.43705070636E+02  0.23151955432E+02  0.54442222908E+02  0.00000000000E+00 0.  1.
         22    1    3    3    0    0  0.85317245913E+02 -0.25983286029E+02 -0.55557413773E+02  0.10507516276E+03  0.00000000000E+00 0.  1.
</event>
<event>
 7    1  0.5779468E-006  0.5739367E+02  0.7818608E-02  0.1470470E+00
          2   -1    0    0  502    0  0.00000000000E+00  0.00000000000E+00  0.77458498857E+02  0.77458498857E+02  0.00000000000E+00 0. -1.
          1   -1    0    0  501    0 -0.00000000000E+00 -0.00000000000E+00 -0.10247809420E+04  0.10247809420E+04  0.00000000000E+00 0. -1.
         25    2    1    2    0    0 -0.47655918534E+02  0.15762048669E+02 -0.96357968017E+02  0.16561842563E+03  0.12500030463E+03 0.  0.
          2    1    1    2  501    0 -0.91701139069E+01 -0.35093140503E+02 -0.87219804811E+03  0.87295191999E+03  0.00000000000E+00 0. -1.
          1    1    1    2  502    0  0.56826032441E+02  0.19331091835E+02  0.21233572934E+02  0.63669095283E+02  0.00000000000E+00 0. -1.
         22    1    3    3    0    0 -0.25007596300E+01 -0.37916606492E+02  0.89955865097E+01  0.39049243569E+02  0.00000000000E+00 0.  1.
         22    1    3    3    0    0 -0.45155158905E+02  0.53678655161E+02 -0.10535355453E+03  0.12656918206E+03  0.00000000000E+00 0.  1.
</event>
<event>
 7    1  0.5779468E-006  0.1526248E+03  0.7818608E-02  0.1222978E+00
          2   -1    0    0  502    0  0.00000000000E+00  0.00000000000E+00  0.50117774468E+03  0.50117774468E+03  0.00000000000E+00 0. -1.
          1   -1    0    0  501    0 -0.00000000000E+00 -0.00000000000E+00 -0.11808851553E+04  0.11808851553E+04  0.00000000000E+00 0. -1.
         25    2    1    2    0    0 -0.56113913573E+02  0.91154032272E+01  0.20573435063E+03  0.24734865146E+03  0.12499148162E+03 0.  0.
          2    1    1    2  501    0  0.10469362728E+03 -0.11446485973E+03 -0.11423463388E+04  0.11528304808E+04  0.00000000000E+00 0. -1.
          1    1    1    2  502    0 -0.48579713707E+02  0.10534945651E+03  0.25690457752E+03  0.28188376775E+03  0.00000000000E+00 0. -1.
         22    1    3    3    0    0 -0.90623009851E+02 -0.60170944981E+01  0.18031091235E+03  0.20189294305E+03  0.00000000000E+00 0.  1.
         22    1    3    3    0    0  0.34509096278E+02  0.15132497725E+02  0.25423438286E+02  0.45455708416E+02  0.00000000000E+00 0.  1.
</event>
<event>
 7    1  0.5779468E-006  0.9184114E+02  0.7818608E-02  0.1365133E+00
          2   -1    0    0  502    0  0.00000000000E+00  0.00000000000E+00  0.19910311992E+04  0.19910311992E+04  0.00000000000E+00 0. -1.
          1   -1    0    0  501    0 -0.00000000000E+00 -0.00000000000E+00 -0.86895643997E+03  0.86895643997E+03  0.00000000000E+00 0. -1.
         25    2    1    2    0    0 -0.28459878262E+02 -0.89004104903E+02  0.26871587834E+02  0.15836231085E+03  0.12499937562E+03 0.  0.
          2    1    1    2  501    0 -0.22687944928E+02  0.89354625257E+02 -0.80021961632E+03  0.80551252395E+03  0.00000000000E+00 0. -1.
          1    1    1    2  502    0  0.51147823190E+02 -0.35052035454E+00  0.18954227877E+04  0.18961128044E+04  0.00000000000E+00 0. -1.
         22    1    3    3    0    0 -0.65806869837E+01  0.30612206422E+02 -0.70977265281E+01  0.32105923831E+02  0.00000000000E+00 0. -1.
         22    1    3    3    0    0 -0.21879191279E+02 -0.11961631132E+03  0.33969314362E+02  0.12625638702E+03  0.00000000000E+00 0. -1.
</event>
<event>
 7    1  0.5779468E-006  0.2096258E+03  0.7818608E-02  0.1310116E+00
          2   -1    0    0  502    0  0.00000000000E+00  0.00000000000E+00  0.22360655143E+03  0.22360655143E+03  0.00000000000E+00 0. -1.
          1   -1    0    0  501    0 -0.00000000000E+00 -0.00000000000E+00 -0.14871520862E+04  0.14871520862E+04  0.00000000000E+00 0. -1.
         25    2    1    2    0    0 -0.18841031542E+03 -0.52818481613E+02 -0.24459640469E+03  0.33725926599E+03  0.12501268878E+03 0.  0.
          2    1    1    2  501    0  0.21142798471E+03  0.24927875921E+02 -0.11847882171E+04  0.12037633950E+04  0.00000000000E+00 0. -1.
          1    1    1    2  502    0 -0.23017669289E+02  0.27890605692E+02  0.16583908703E+03  0.16973597666E+03  0.00000000000E+00 0. -1.
         22    1    3    3    0    0 -0.45357163780E+01 -0.45077354587E+02 -0.71272961847E+02  0.84453393715E+02  0.00000000000E+00 0. -1.
         22    1    3    3    0    0 -0.18387459904E+03 -0.77411270260E+01 -0.17332344284E+03  0.25280587228E+03  0.00000000000E+00 0. -1.
</event>
<event>
 7    1  0.5779468E-006  0.5684350E+02  0.7818608E-02  0.1449359E+00
          2   -1    0    0  502    0  0.00000000000E+00  0.00000000000E+00  0.39118492060E+03  0.39118492060E+03  0.00000000000E+00 0. -1.
          1   -1    0    0  501    0 -0.00000000000E+00 -0.00000000000E+00 -0.79455174431E+02  0.79455174431E+02  0.00000000000E+00 0. -1.
         25    2    1    2    0    0 -0.22340310856E+02  0.55028050667E+02  0.70010709902E+02  0.15508996432E+03  0.12499688669E+03 0.  0.
          2    1    1    2  501    0  0.53287137190E+02 -0.25617315275E+02 -0.10235196809E+02  0.60004375553E+02  0.00000000000E+00 0. -1.
          1    1    1    2  502    0 -0.30946826334E+02 -0.29410735392E+02  0.25195423308E+03  0.25554575517E+03  0.00000000000E+00 0. -1.
         22    1    3    3    0    0  0.33102885109E+02 -0.26926094632E+01 -0.16627251281E+02  0.37141844777E+02  0.00000000000E+00 0. -1.
         22    1    3    3    0    0 -0.55443195965E+02  0.57720660131E+02  0.86637961184E+02  0.11794811954E+03  0.00000000000E+00 0. -1.
</event>
<event>
 7    1  0.5779468E-006  0.1305302E+03  0.7818608E-02  0.1262748E+00
          2   -1    0    0  502    0  0.00000000000E+00  0.00000000000E+00  0.17065907537E+04  0.17065907537E+04  0.00000000000E+00 0. -1.
          1   -1    0    0  501    0 -0.00000000000E+00 -0.00000000000E+00 -0.13182135689E+04  0.13182135689E+04  0.00000000000E+00 0. -1.
         25    2    1    2    0    0 -0.18569786806E+02 -0.14774837944E+03  0.45186801048E+02  0.19960282818E+03  0.12500008567E+03 0.  0.
          2    1    1    2  501    0 -0.72871198433E+02  0.54070691289E+02 -0.12366360198E+04  0.12399606835E+04  0.00000000000E+00 0. -1.
          1    1    1    2  502    0  0.91440985239E+02  0.93677688154E+02  0.15798264035E+04  0.15852408108E+04  0.00000000000E+00 0. -1.
         22    1    3    3    0    0 -0.31619936082E+02 -0.15768298304E+03  0.65366325897E+02  0.17359867528E+03  0.00000000000E+00 0.  1.
         22    1    3    3    0    0  0.13050149276E+02  0.99346035987E+01 -0.20179524849E+02  0.26004152898E+02  0.00000000000E+00 0.  1.
</event>
<event>
 7    1  0.5779468E-006  0.1214620E+03  0.7818608E-02  0.1390930E+00
          2   -1    0    0  502    0  0.00000000000E+00  0.00000000000E+00  0.94046068772E+03  0.94046068772E+03  0.00000000000E+00 0. -1.
          1   -1    0    0  501    0 -0.00000000000E+00 -0.00000000000E+00 -0.12536502785E+04  0.12536502785E+04  0.00000000000E+00 0. -1.
         25    2    1    2    0    0  0.20443406560E+02  0.95434195187E+02 -0.51080612908E+02  0.16661494454E+03  0.12500276895E+03 0.  0.
          2    1    1    2  501    0 -0.45557192820E+02 -0.11414514696E+03 -0.11412243568E+04  0.11478229850E+04  0.00000000000E+00 0. -1.
          1    1    1    2  502    0  0.25113786260E+02  0.18710951768E+02  0.87911537892E+03  0.87967303666E+03  0.00000000000E+00 0. -1.
         22    1    3    3    0    0 -0.10555161592E+02  0.64087475361E+01 -0.69479491548E+02  0.70568287687E+02  0.00000000000E+00 0. -1.
         22    1    3    3    0    0  0.30998568152E+02  0.89025447651E+02  0.18398878640E+02  0.96046656850E+02  0.00000000000E+00 0. -1.
</event>
<event>
 7    1  0.5779468E-006  0.1460785E+03  0.7818608E-02  0.1339698E+00
          2   -1    0    0  502    0  0.00000000000E+00  0.00000000000E+00  0.69076124367E+03  0.69076124367E+03  0.00000000000E+00 0. -1.
          1   -1    0    0  501    0 -0.00000000000E+00 -0.00000000000E+00 -0.65926231462E+02  0.65926231462E+02  0.00000000000E+00 0. -1.
         25    2    1    2    0    0  0.14673204410E+03  0.57583114808E+02  0.38579424723E+03  0.43509564833E+03  0.12499965650E+03 0.  0.
          2    1    1    2  501    0 -0.87118911094E+01 -0.38957902704E+02 -0.53761080166E+01  0.40280488666E+02  0.00000000000E+00 0. -1.
          1    1    1    2  502    0 -0.13802015299E+03 -0.18625212105E+02  0.24441687300E+03  0.28131133814E+03  0.00000000000E+00 0. -1.
         22    1    3    3    0    0  0.44502532843E+02  0.72499297935E+02  0.10048867227E+03  0.13166091631E+03  0.00000000000E+00 0.  1.
         22    1    3    3    0    0  0.10222951126E+03 -0.14916183126E+02  0.28530557496E+03  0.30343473202E+03  0.00000000000E+00 0.  1.
</event>
<event>
 7    1  0.5779468E-006  0.8324637E+02  0.7818608E-02  0.1373067E+00
          2   -1    0    0  502    0  0.00000000000E+00  0.00000000000E+00  0.85051118781E+03  0.85051118781E+03  0.00000000000E+00 0. -1.
          1   -1    0    0  501    0 -0.00000000000E+00 -0.00000000000E+00 -0.45735165481E+03  0.45735165481E+03  0.00000000000E+00 0. -1.
         25    2    1    2    0    0  0.11296415014E+02  0.95891857142E+02 -0.10198451583E+03  0.18800612219E+03  0.12499041265E+03 0.  0.
          2    1    1    2  501    0 -0.48350015650E+02 -0.21310986213E+02 -0.30795315004E+03  0.31245323613E+03  0.00000000000E+00 0. -1.
          1    1    1    2  502    0  0.37053600636E+02 -0.74580870929E+02  0.80309719887E+03  0.80740348430E+03  0.00000000000E+00 0. -1.
         22    1    3    3    0    0 -0.45193155652E+02  0.79432158482E+02 -0.32592124044E+02  0.97026468908E+02  0.00000000000E+00 0.  1.
         22    1    3    3    0    0  0.56489570667E+02  0.16459698659E+02 -0.69392391783E+02  0.90979653282E+02  0.00000000000E+00 0.  1.
</event>
<event>
 7    1  0.5779468E-006  0.9037789E+02  0.7818608E-02  0.1401345E+00
          2   -1    0    0  502    0  0.00000000000E+00  0.00000000000E+00  0.24846451414E+03  0.24846451414E+03  0.00000000000E+00 0. -1.
          1   -1    0    0  501    0 -0.00000000000E+00 -0.00000000000E+00 -0.14603200254E+04  0.14603200254E+04  0.00000000000E+00 0. -1.
         25    2    1    2    0    0  0.56554140543E+02  0.10149390500E+03 -0.75407992047E+03  0.77314939505E+03  0.12499630809E+03 0.  0.
          2    1    1    2  501    0 -0.23960229912E+02 -0.80556660857E+02 -0.69257784499E+03  0.69765861250E+03  0.00000000000E+00 0. -1.
          1    1    1    2  502    0 -0.32593910631E+02 -0.20937244144E+02  0.23480225420E+03  0.23797653199E+03  0.00000000000E+00 0. -1.
         22    1    3    3    0    0 -0.39826961218E+02  0.22693774029E+02 -0.18249068543E+03  0.18815962502E+03  0.00000000000E+00 0.  1.
         22    1    3    3    0    0  0.96381101761E+02  0.78800130973E+02 -0.57158923505E+03  0.58498977003E+03  0.00000000000E+00 0.  1.
</event>
<event>
 7    1  0.5779468E-006  0.2466902E+03  0.7818608E-02  0.1180484E+00
          2   -1    0    0  502    0  0.00000000000E+00  0.00000000000E+00  0.40696634690E+03  0.40696634690E+03  0.00000000000E+00 0. -1.
          1   -1    0    0  501    0 -0.00000000000E+00 -0.00000000000E+00 -0.20698621328E+04  0.20698621328E+04  0.00000000000E+00 0. -1.
         25    2    1    2    0    0 -0.12095401137E+03  0.19491717757E+03  0.14310741797E+02  0.26163480375E+03  0.12500157688E+03 0.  0.
          2    1    1    2  501    0  0.20505449501E+02 -0.24824345644E+03 -0.19257891645E+04  0.19418314019E+04  0.00000000000E+00 0. -1.
          1    1    1    2  502    0  0.10044856187E+03  0.53326278870E+02  0.24858263678E+03  0.27336227411E+03  0.00000000000E+00 0. -1.
         22    1    3    3    0    0 -0.24549263026E+02 -0.11084691261E+02 -0.17288204074E+02  0.32006541450E+02  0.00000000000E+00 0.  1.
         22    1    3    3    0    0 -0.96404748347E+02  0.20600186883E+03  0.31598945871E+02  0.22962826230E+03  0.00000000000E+00 0.  1.
</event>
<event>
 7    1  0.5779468E-006  0.1794354E+03  0.7818608E-02  0.1249310E+00
          2   -1    0    0  502    0  0.00000000000E+00  0.00000000000E+00  0.20195896611E+04  0.20195896611E+04  0.00000000000E+00 0. -1.
          1   -1    0    0  501    0 -0.00000000000E+00 -0.00000000000E+00 -0.50513949286E+02  0.50513949286E+02  0.00000000000E+00 0. -1.
         25    2    1    2    0    0 -0.14249565189E+03 -0.17402981649E+03  0.67938482201E+03  0.72648462762E+03  0.12499915982E+03 0.  0.
          2    1    1    2  501    0  0.72005870930E+02  0.14728468580E+03  0.23669388917E+03  0.28792641645E+03  0.00000000000E+00 0. -1.
          1    1    1    2  502    0  0.70489780959E+02  0.26745130695E+02  0.10529970007E+04  0.10556925664E+04  0.00000000000E+00 0. -1.
         22    1    3    3    0    0  0.89635537249E+01 -0.21438845574E+02  0.13775380208E+02  0.27013524294E+02  0.00000000000E+00 0. -1.
         22    1    3    3    0    0 -0.15145920561E+03 -0.15259097092E+03  0.66560944181E+03  0.69947110333E+03  0.00000000000E+00 0. -1.
</event>
<event>
 7    1  0.5779468E-006  0.1298098E+03  0.7818608E-02  0.1255350E+00
          2   -1    0    0  502    0  0.00000000000E+00  0.00000000000E+00  0.14351614211E+04  0.14351614211E+04  0.00000000000E+00 0. -1.
          1   -1    0    0  501    0 -0.00000000000E+00 -0.00000000000E+00 -0.11425360039E+04  0.11425360039E+04  0.00000000000E+00 0. -1.
         25    2    1    2    0    0  0.17954808427E+03 -0.90210933160E+02 -0.74472498583E+02  0.24809117240E+03  0.12501019860E+03 0.  0.
          2    1    1    2  501    0 -0.50933291002E+02  0.83883916842E+02 -0.97571268963E+03  0.98063549005E+03  0.00000000000E+00 0. -1.
          1    1    1    2  502    0 -0.12861479327E+03  0.63270163174E+01  0.13428106054E+04  0.13489707625E+04  0.00000000000E+00 0. -1.
         22    1    3    3    0    0  0.12578152775E+03 -0.23414935671E+01 -0.92010063438E+01  0.12613934293E+03  0.00000000000E+00 0. -1.
         22    1    3    3    0    0  0.53766556514E+02 -0.87869439593E+02 -0.65271492239E+02  0.12195182948E+03  0.00000000000E+00 0. -1.
</event>
<event>
 7    1  0.5779468E-006  0.8701369E+02  0.7818608E-02  0.1460823E+00
          2   -1    0    0  502    0  0.00000000000E+00  0.00000000000E+00  0.63194698560E+02  0.63194698560E+02  0.00000000000E+00 0. -1.
          1   -1    0    0  501    0 -0.00000000000E+00 -0.00000000000E+00 -0.10957888249E+04  0.10957888249E+04  0.00000000000E+00 0. -1.
         25    2    1    2    0    0 -0.55400478286E+02  0.35532828383E+02 -0.29557945725E+03  0.32760441387E+03  0.12500256618E+03 0.  0.
          2    1    1    2  501    0  0.80242358418E+02 -0.41907660375E+02 -0.77788144739E+03  0.78313130079E+03  0.00000000000E+00 0. -1.
          1    1    1    2  502    0 -0.24841880132E+02  0.63748319917E+01  0.40866778266E+02  0.48247808834E+02  0.00000000000E+00 0. -1.
         22    1    3    3    0    0 -0.19380534184E+02 -0.37035696839E+02 -0.18988729177E+03  0.19443361726E+03  0.00000000000E+00 0. -1.
         22    1    3    3    0    0 -0.36019944102E+02  0.72568525222E+02 -0.10569216548E+03  0.13317079661E+03  0.00000000000E+00 0. -1.
</event>
<event>
 7    1  0.5779468E-006  0.8116755E+02  0.7818608E-02  0.1503007E+00
          2   -1    0    0  502    0  0.00000000000E+00  0.00000000000E+00  0.75270974284E+02  0.75270974284E+02  0.00000000000E+00 0. -1.
          1   -1    0    0  501    0 -0.00000000000E+00 -0.00000000000E+00 -0.17096491391E+04  0.17096491391E+04  0.00000000000E+00 0. -1.
         25    2    1    2    0    0  0.42523651122E+02 -0.44413558650E+02  0.21846119457E+01  0.13932102173E+03  0.12499899788E+03 0.  0.
          2    1    1    2  501    0 -0.52657032257E+02  0.62146932911E+02 -0.16101573548E+04  0.16122163973E+04  0.00000000000E+00 0. -1.
          1    1    1    2  502    0  0.10133381135E+02 -0.17733374261E+02 -0.26405421874E+02  0.33382694323E+02  0.00000000000E+00 0. -1.
         22    1    3    3    0    0  0.68809568998E+02 -0.71302790777E+02 -0.10479808534E+02  0.99642717472E+02  0.00000000000E+00 0. -1.
         22    1    3    3    0    0 -0.26285917876E+02  0.26889232126E+02  0.12664420480E+02  0.39678304261E+02  0.00000000000E+00 0. -1.
</event>
<event>
 7    1  0.5779468E-006  0.7821912E+02  0.7818608E-02  0.1428002E+00
          2   -1    0    0  502    0  0.00000000000E+00  0.00000000000E+00  0.97018350132E+03  0.97018350132E+03  0.00000000000E+00 0. -1.
          1   -1    0    0  501    0 -0.00000000000E+00 -0.00000000000E+00 -0.14828452862E+04  0.14828452862E+04  0.00000000000E+00 0. -1.
         25    2    1    2    0    0  0.46477299126E+02 -0.24740943211E+02  0.25538062181E+03  0.28916206870E+03  0.12499274529E+03 0.  0.
          2    1    1    2  501    0  0.34645688540E+02  0.11183232052E+02 -0.14633041639E+04  0.14637569690E+04  0.00000000000E+00 0. -1.
          1    1    1    2  502    0 -0.81122987666E+02  0.13557711159E+02  0.69526175721E+03  0.70010974975E+03  0.00000000000E+00 0. -1.
         22    1    3    3    0    0  0.26294457168E+02 -0.29857877294E+02  0.26374096108E+03  0.26672492546E+03  0.00000000000E+00 0. -1.
         22    1    3    3    0    0  0.20182841958E+02  0.51169340828E+01 -0.83603392698E+01  0.22437143237E+02  0.00000000000E+00 0. -1.
</event>
<event>
 7    1  0.5779468E-006  0.3947934E+02  0.7818608E-02  0.1609766E+00
          2   -1    0    0  502    0  0.00000000000E+00  0.00000000000E+00  0.10098518936E+04  0.10098518936E+04  0.00000000000E+00 0. -1.
          1   -1    0    0  501    0 -0.00000000000E+00 -0.00000000000E+00 -0.59195492044E+03  0.59195492044E+03  0.00000000000E+00 0. -1.
         25    2    1    2    0    0  0.45266360034E+02  0.25654298094E+00  0.33928822258E+03  0.36440518104E+03  0.12500211526E+03 0.  0.
          2    1    1    2  501    0 -0.10544472353E+02  0.18458007898E+02 -0.57860996472E+03  0.57900032403E+03  0.00000000000E+00 0. -1.
          1    1    1    2  502    0 -0.34721887681E+02 -0.18714550879E+02  0.65721871526E+03  0.65840130892E+03  0.00000000000E+00 0. -1.
         22    1    3    3    0    0  0.78250425672E+02 -0.33019769423E+02  0.24082410771E+03  0.25536187097E+03  0.00000000000E+00 0.  1.
         22    1    3    3    0    0 -0.32984065638E+02  0.33276312404E+02  0.98464114873E+02  0.10904331007E+03  0.00000000000E+00 0.  1.
</event>
<event>
 7    1  0.5779468E-006  0.6776140E+02  0.7818608E-02  0.1471295E+00
          2   -1    0    0  502    0  0.00000000000E+00  0.00000000000E+00  0.19572611064E+03  0.19572611064E+03  0.00000000000E+00 0. -1.
          1   -1    0    0  501    0 -0.00000000000E+00 -0.00000000000E+00 -0.10590804817E+04  0.10590804817E+04  0.00000000000E+00 0. -1.
         25    2    1    2    0    0  0.18205153354E+02 -0.49153038366E+02 -0.36048552903E+03  0.38512593605E+03  0.12499888476E+03 0.  0.
          2    1    1    2  501    0  0.30501622943E+02  0.15486614970E+01 -0.67959719121E+03  0.68028309522E+03  0.00000000000E+00 0. -1.
          1    1    1    2  502    0 -0.48706776298E+02  0.47604376869E+02  0.17672834915E+03  0.18939756109E+03  0.00000000000E+00 0. -1.
         22    1    3    3    0    0 -0.65303232154E+01  0.29392925400E+02 -0.22179948478E+03  0.22383386838E+03  0.00000000000E+00 0.  1.
         22    1    3    3    0    0  0.24735476570E+02 -0.78545963766E+02 -0.13868604425E+03  0.16129206767E+03  0.00000000000E+00 0.  1.
</event>
<event>
 7    1  0.5779468E-006  0.1106677E+03  0.7818608E-02  0.1342979E+00
          2   -1    0    0  502    0  0.00000000000E+00  0.00000000000E+00  0.33218561378E+02  0.33218561378E+02  0.00000000000E+00 0. -1.
          1   -1    0    0  501    0 -0.00000000000E+00 -0.00000000000E+00 -0.12479619737E+04  0.12479619737E+04  0.00000000000E+00 0. -1.
         25    2    1    2    0    0 -0.18097267582E+02  0.85350225048E+02 -0.30560590395E+03  0.34151411573E+03  0.12499900283E+03 0.  0.
          2    1    1    2  501    0 -0.32876062939E+02  0.39276844708E+02 -0.60367212860E+03  0.60584118785E+03  0.00000000000E+00 0. -1.
          1    1    1    2  502    0  0.50973330521E+02 -0.12462706976E+03 -0.30546537973E+03  0.33382523146E+03  0.00000000000E+00 0. -1.
         22    1    3    3    0    0 -0.59084751036E+01 -0.13415858128E+02 -0.18308201009E+03  0.18366795514E+03  0.00000000000E+00 0. -1.
         22    1    3    3    0    0 -0.12188792478E+02  0.98766083176E+02 -0.12252389386E+03  0.15784616060E+03  0.00000000000E+00 0. -1.
</event>
<event>
 7    1  0.1048047E-005  0.4949966E+02  0.7818608E-02  0.1470768E+00
          2   -1    0    0  502    0  0.00000000000E+00  0.00000000000E+00  0.88776000362E+03  0.88776000362E+03  0.00000000000E+00 0. -1.
          1   -1    0    0  501    0 -0.00000000000E+00 -0.00000000000E+00 -0.14479181303E+04  0.14479181303E+04  0.00000000000E+00 0. -1.
         25    2    1    2    0    0  0.75557207337E+01 -0.68732059037E+01 -0.39943564139E+03  0.41866270184E+03  0.12500118569E+03 0.  0.
          2    1    1    2  501    0 -0.39224557888E+02  0.34409663313E+02 -0.10377116971E+04  0.10390226933E+04  0.00000000000E+00 0. -1.
          1    1    1    2  502    0  0.31668837155E+02 -0.27536457409E+02  0.87698921181E+03  0.87799273879E+03  0.00000000000E+00 0. -1.
         22    1    3    3    0    0 -0.72188774901E+01  0.46656745468E+02 -0.69078620251E+02  0.83670902145E+02  0.00000000000E+00 0.  1.
         22    1    3    3    0    0  0.14774598224E+02 -0.53529951372E+02 -0.33035702114E+03  0.33499179969E+03  0.00000000000E+00 0.  1.
</event>
<event>
 7    1  0.5779468E-006  0.5348670E+02  0.7818608E-02  0.1468965E+00
          2   -1    0    0  502    0  0.00000000000E+00  0.00000000000E+00  0.49099664020E+02  0.49099664020E+02  0.00000000000E+00 0. -1.
          1   -1    0    0  501    0 -0.00000000000E+00 -0.00000000000E+00 -0.11589867526E+04  0.11589867526E+04  0.00000000000E+00 0. -1.
         25    2    1    2    0    0  0.73371769057E+02 -0.99963997853E+01 -0.18144693708E+03  0.23244656736E+03  0.12500028479E+03 0.  0.
          2    1    1    2  501    0 -0.25548616564E+02  0.29918531944E+02 -0.92267482877E+03  0.92351323218E+03  0.00000000000E+00 0. -1.
          1    1    1    2  502    0 -0.47823152493E+02 -0.19922132158E+02 -0.57653227448E+01  0.52126617101E+02  0.00000000000E+00 0. -1.
         22    1    3    3    0    0 -0.70661005802E+01  0.20414908495E+02 -0.13095362488E+03  0.13272358545E+03  0.00000000000E+00 0. -1.
         22    1    3    3    0    0  0.80437869637E+02 -0.30411308281E+02 -0.50493312204E+02  0.99722981907E+02  0.00000000000E+00 0. -1.
</event>
<event>
 7    1  0.5779468E-006  0.5391543E+02  0.7818608E-02  0.1437288E+00
          2   -1    0    0  502    0  0.00000000000E+00  0.00000000000E+00  0.35301311852E+03  0.35301311852E+03  0.00000000000E+00 0. -1.
          1   -1    0    0  501    0 -0.00000000000E+00 -0.00000000000E+00 -0.14063322638E+04  0.14063322638E+04  0.00000000000E+00 0. -1.
         25    2    1    2    0    0 -0.43951357227E+01  0.23477674684E+02 -0.14402526878E+03  0.19219603855E+03  0.12500208303E+03 0.  0.
          2    1    1    2  501    0 -0.48301415066E+02 -0.95655547304E+01 -0.12354701309E+04  0.12364509577E+04  0.00000000000E+00 0. -1.
          1    1    1    2  502    0  0.52696550789E+02 -0.13912119954E+02  0.32617625443E+03  0.33069838599E+03  0.00000000000E+00 0. -1.
         22    1    3    3    0    0  0.42010764933E+02 -0.24404082648E+02 -0.10306041838E+03  0.11393820017E+03  0.00000000000E+00 0. -1.
         22    1    3    3    0    0 -0.46405900656E+02  0.47881757332E+02 -0.40964850397E+02  0.78257838386E+02  0.00000000000E+00 0. -1.
</event>
<event>
 7    1  0.5779468E-006  0.7076243E+02  0.7818608E-02  0.1476695E+00
          2   -1    0    0  502    0  0.00000000000E+00  0.00000000000E+00  0.20573965570E+04  0.20573965570E+04  0.00000000000E+00 0. -1.
          1   -1    0    0  501    0 -0.00000000000E+00 -0.00000000000E+00 -0.62235314796E+03  0.62235314796E+03  0.00000000000E+00 0. -1.
         25    2    1    2    0    0 -0.58092057150E+02 -0.67445030816E+02  0.11501943083E+04  0.11603860939E+04  0.12500168287E+03 0.  0.
          2    1    1    2  501    0  0.30163675278E+02  0.63982378214E+02 -0.61501001394E+03  0.61906454370E+03  0.00000000000E+00 0. -1.
          1    1    1    2  502    0  0.27928381872E+02  0.34626526023E+01  0.89985911469E+03  0.90029906740E+03  0.00000000000E+00 0. -1.
         22    1    3    3    0    0 -0.31843143004E+02 -0.46976258477E+02  0.16239010723E+03  0.17202122411E+03  0.00000000000E+00 0.  1.
         22    1    3    3    0    0 -0.26248914146E+02 -0.20468772339E+02  0.98780420110E+03  0.98836486979E+03  0.00000000000E+00 0.  1.
</event>
<event>
 7    1  0.5779468E-006  0.3708991E+02  0.7818608E-02  0.1627207E+00
          2   -1    0    0  502    0  0.00000000000E+00  0.00000000000E+00  0.54844399124E+03  0.54844399124E+03  0.00000000000E+00 0. -1.
          1   -1    0    0  501    0 -0.00000000000E+00 -0.00000000000E+00 -0.42070450036E+03  0.42070450036E+03  0.00000000000E+00 0. -1.
         25    2    1    2    0    0 -0.23616618534E+02  0.51597679446E+02  0.38814977504E+03  0.41170913072E+03  0.12499638098E+03 0.  0.
          2    1    1    2  501    0  0.19273317661E+02 -0.31641728276E+02 -0.40737805875E+03  0.40905933859E+03  0.00000000000E+00 0. -1.
          1    1    1    2  502    0  0.43433008728E+01 -0.19955951170E+02  0.14696777459E+03  0.14838002230E+03  0.00000000000E+00 0. -1.
         22    1    3    3    0    0 -0.19205198373E+02  0.14568581104E+02  0.24712786508E+01  0.24232012259E+02  0.00000000000E+00 0. -1.
         22    1    3    3    0    0 -0.44114201605E+01  0.37029098342E+02  0.38567849639E+03  0.38747711846E+03  0.00000000000E+00 0. -1.
</event>
<event>
 7    1  0.5779468E-006  0.5239887E+02  0.7818608E-02  0.1447673E+00
          2   -1    0    0  502    0  0.00000000000E+00  0.00000000000E+00  0.32624383945E+03  0.32624383945E+03  0.00000000000E+00 0. -1.
          1   -1    0    0  501    0 -0.00000000000E+00 -0.00000000000E+00 -0.16487824520E+04  0.16487824520E+04  0.00000000000E+00 0. -1.
         25    2    1    2    0    0  0.31812780830E+02 -0.40823423353E+02 -0.12664720712E+03  0.18532831302E+03  0.12501385369E+03 0.  0.
          2    1    1    2  501    0 -0.52723701835E+02 -0.11505274070E+01 -0.14904737639E+04  0.14914064347E+04  0.00000000000E+00 0. -1.
          1    1    1    2  502    0  0.20910921005E+02  0.41973950760E+02  0.29458235848E+03  0.29829154378E+03  0.00000000000E+00 0. -1.
         22    1    3    3    0    0  0.31092855210E+02  0.20924279922E+02 -0.11696415862E+03  0.12282184470E+03  0.00000000000E+00 0.  1.
         22    1    3    3    0    0  0.71992561951E+00 -0.61747703275E+02 -0.96830485078E+01  0.62506468314E+02  0.00000000000E+00 0.  1.
</event>
<event>
 7    1  0.5779468E-006  0.6285127E+02  0.7818608E-02  0.1484104E+00
          2   -1    0    0  502    0  0.00000000000E+00  0.00000000000E+00  0.21710349555E+04  0.21710349555E+04  0.00000000000E+00 0. -1.
          1   -1    0    0  501    0 -0.00000000000E+00 -0.00000000000E+00 -0.24702959708E+02  0.24702959708E+02  0.00000000000E+00 0. -1.
         25    2    1    2    0    0  0.41308820015E+02  0.67736011219E+02  0.27776316033E+03  0.31475548804E+03  0.12499623271E+03 0.  0.
          2    1    1    2  501    0  0.77922647924E+01 -0.29042598401E+02  0.34162537186E+02  0.45511216853E+02  0.00000000000E+00 0. -1.
          1    1    1    2  502    0 -0.49101084808E+02 -0.38693412818E+02  0.18344062983E+04  0.18354712103E+04  0.00000000000E+00 0. -1.
         22    1    3    3    0    0 -0.45987969018E+01  0.83096404711E+02  0.23792858427E+03  0.25206382649E+03  0.00000000000E+00 0.  1.
         22    1    3    3    0    0  0.45907616917E+02 -0.15360393492E+02  0.39834576056E+02  0.62691661557E+02  0.00000000000E+00 0.  1.
</event>
<event>
 7    1  0.5779468E-006  0.9278131E+02  0.7818608E-02  0.1362662E+00
          2   -1    0    0  502    0  0.00000000000E+00  0.00000000000E+00  0.79592850677E+03  0.79592850677E+03  0.00000000000E+00 0. -1.
          1   -1    0    0  501    0 -0.00000000000E+00 -0.00000000000E+00 -0.11424900431E+03  0.11424900431E+03  0.00000000000E+00 0. -1.
         25    2    1    2    0    0 -0.59972403969E+02 -0.84040500403E+02  0.18932958429E+02  0.16322474961E+03  0.12499746808E+03 0.  0.
          2    1    1    2  501    0  0.88004621773E+01  0.91318445813E+02  0.10137293484E+02  0.92299899239E+02  0.00000000000E+00 0. -1.
          1    1    1    2  502    0  0.51171941792E+02 -0.72779454101E+01  0.65260925055E+03  0.65465286222E+03  0.00000000000E+00 0. -1.
         22    1    3    3    0    0 -0.92013572180E+02 -0.28157575083E+02  0.51621740052E+00  0.96226882836E+02  0.00000000000E+00 0.  1.
         22    1    3    3    0    0  0.32041168211E+02 -0.55882925320E+02  0.18416741028E+02  0.66997866778E+02  0.00000000000E+00 0.  1.
</event>
<event>
 7    1  0.5779468E-006  0.1366458E+03  0.7818608E-02  0.1359467E+00
          2   -1    0    0  502    0  0.00000000000E+00  0.00000000000E+00  0.59322765541E+03  0.59322765541E+03  0.00000000000E+00 0. -1.
          1   -1    0    0  501    0 -0.00000000000E+00 -0.00000000000E+00 -0.26552343097E+03  0.26552343097E+03  0.00000000000E+00 0. -1.
         25    2    1    2    0    0  0.43999966758E+02  0.12688137048E+03  0.20369251268E+03  0.27413299498E+03  0.12499351967E+03 0.  0.
          2    1    1    2  501    0 -0.34121385021E+02  0.11628148394E+02 -0.21514031037E+03  0.21813948725E+03  0.00000000000E+00 0. -1.
          1    1    1    2  502    0 -0.98785817363E+01 -0.13850951888E+03  0.33915202212E+03  0.36647860416E+03  0.00000000000E+00 0. -1.
         22    1    3    3    0    0  0.55755592562E+02  0.13054795899E+03  0.10987391769E+03  0.17950970305E+03  0.00000000000E+00 0. -1.
         22    1    3    3    0    0 -0.11755625804E+02 -0.36665885074E+01  0.93818594993E+02  0.94623291930E+02  0.00000000000E+00 0. -1.
</event>
<event>
 7    1  0.5779468E-006  0.3675554E+02  0.7818608E-02  0.1614511E+00
          2   -1    0    0  502    0  0.00000000000E+00  0.00000000000E+00  0.25632461574E+04  0.25632461574E+04  0.00000000000E+00 0. -1.
          1   -1    0    0  501    0 -0.00000000000E+00 -0.00000000000E+00 -0.98663333249E+03  0.98663333249E+03  0.00000000000E+00 0. -1.
         25    2    1    2    0    0  0.46120609732E+02 -0.14220108829E+02 -0.67819756647E+02  0.15018739461E+03  0.12500964752E+03 0.  0.
          2    1    1    2  501    0 -0.98166447107E+01  0.19911762680E+02 -0.87735548112E+03  0.87763630568E+03  0.00000000000E+00 0. -1.
          1    1    1    2  502    0 -0.36303965022E+02 -0.56916538509E+01  0.25217880627E+04  0.25220557896E+04  0.00000000000E+00 0. -1.
         22    1    3    3    0    0  0.55388215335E+02 -0.39870938016E+02 -0.91445020143E+02  0.11410406568E+03  0.00000000000E+00 0.  1.
         22    1    3    3    0    0 -0.92676056023E+01  0.25650829187E+02  0.23625263495E+02  0.36083328932E+02  0.00000000000E+00 0.  1.
</event>
<event>
 7    1  0.5779468E-006  0.8636588E+02  0.7818608E-02  0.1367837E+00
          2   -1    0    0  502    0  0.00000000000E+00  0.00000000000E+00  0.21747543127E+04  0.21747543127E+04  0.00000000000E+00 0. -1.
          1   -1    0    0  501    0 -0.00000000000E+00 -0.00000000000E+00 -0.57388464639E+02  0.57388464639E+02  0.00000000000E+00 0. -1.
         25    2    1    2    0    0 -0.69647198087E+02  0.24701618010E+02  0.20411606899E+03  0.25049894476E+03  0.12500179827E+03 0.  0.
          2    1    1    2  501    0  0.54131259609E+02 -0.75569377937E+02  0.30049626644E+02  0.97692907676E+02  0.00000000000E+00 0. -1.
          1    1    1    2  502    0  0.15515938478E+02  0.50867759927E+02  0.18832001524E+04  0.18839509249E+04  0.00000000000E+00 0. -1.
         22    1    3    3    0    0 -0.63180860790E+02  0.51859446531E+02  0.20688307085E+03  0.22244511316E+03  0.00000000000E+00 0. -1.
         22    1    3    3    0    0 -0.64663372968E+01 -0.27157828521E+02 -0.27670018607E+01  0.28053831597E+02  0.00000000000E+00 0. -1.
</event>
<event>
 7    1  0.5779468E-006  0.1593984E+03  0.7818608E-02  0.1222094E+00
          2   -1    0    0  502    0  0.00000000000E+00  0.00000000000E+00  0.68325887062E+03  0.68325887062E+03  0.00000000000E+00 0. -1.
          1   -1    0    0  501    0 -0.00000000000E+00 -0.00000000000E+00 -0.26339401168E+03  0.26339401168E+03  0.00000000000E+00 0. -1.
         25    2    1    2    0    0  0.18358206413E+03  0.15221946569E+03  0.25286339769E+03  0.36937473748E+03  0.12499863517E+03 0.  0.
          2    1    1    2  501    0 -0.10737541823E+03 -0.32243363255E+02 -0.17448212262E+03  0.20739606078E+03  0.00000000000E+00 0. -1.
          1    1    1    2  502    0 -0.76206645897E+02 -0.11997610243E+03  0.34148358388E+03  0.36988208404E+03  0.00000000000E+00 0. -1.
         22    1    3    3    0    0  0.86248060985E+02 -0.11085048897E+01  0.64385222445E+02  0.10763555953E+03  0.00000000000E+00 0.  1.
         22    1    3    3    0    0  0.97334003140E+02  0.15332797058E+03  0.18847817525E+03  0.26173917795E+03  0.00000000000E+00 0.  1.
</event>
<event>
 7    1  0.5779468E-006  0.6743192E+02  0.7818608E-02  0.1421075E+00
          2   -1    0    0  502    0  0.00000000000E+00  0.00000000000E+00  0.22648622145E+03  0.22648622145E+03  0.00000000000E+00 0. -1.
          1   -1    0    0  501    0 -0.00000000000E+00 -0.00000000000E+00 -0.15827439130E+04  0.15827439130E+04  0.00000000000E+00 0. -1.
         25    2    1    2    0    0 -0.25003653861E+01 -0.63131222092E+02 -0.81876949935E+03  0.83066261956E+03  0.12500036581E+03 0.  0.
          2    1    1    2  501    0  0.46248141294E+02  0.54849343847E+02 -0.75406039163E+03  0.75746578491E+03  0.00000000000E+00 0. -1.
          1    1    1    2  502    0 -0.43747775908E+02  0.82818782454E+01  0.21657219946E+03  0.22110172994E+03  0.00000000000E+00 0. -1.
         22    1    3    3    0    0 -0.49798943292E+02 -0.40101739053E+01 -0.16161541896E+03  0.16916134278E+03  0.00000000000E+00 0. -1.
         22    1    3    3    0    0  0.47298577906E+02 -0.59121048187E+02 -0.65715408039E+03  0.66150127678E+03  0.00000000000E+00 0. -1.
</event>
<event>
 7    1  0.5779468E-006  0.6675629E+02  0.7818608E-02  0.1385882E+00
          2   -1    0    0  502    0  0.00000000000E+00  0.00000000000E+00  0.29509704461E+03  0.29509704461E+03  0.00000000000E+00 0. -1.
          1   -1    0    0  501    0 -0.00000000000E+00 -0.00000000000E+00 -0.36401749894E+03  0.36401749894E+03  0.00000000000E+00 0. -1.
         25    2    1    2    0    0  0.10028274344E+02  0.42516221483E+01 -0.32844199170E+02  0.12970019698E+03  0.12499902840E+03 0.  0.
          2    1    1    2  501    0  0.54264379315E+02  0.24029523285E+02 -0.27450925053E+03  0.28085115182E+03  0.00000000000E+00 0. -1.
          1    1    1    2  502    0 -0.64292653659E+02 -0.28281145434E+02  0.23843299537E+03  0.24856319475E+03  0.00000000000E+00 0. -1.
         22    1    3    3    0    0  0.34090825552E+02 -0.40032495300E+02  0.20386858648E+02  0.56395115677E+02  0.00000000000E+00 0.  1.
         22    1    3    3    0    0 -0.24062551208E+02  0.44284117448E+02 -0.53231057819E+02  0.73305081306E+02  0.00000000000E+00 0.  1.
</event>
<event>
 7    1  0.5779468E-006  0.1772766E+03  0.7818608E-02  0.1366074E+00
          2   -1    0    0  502    0  0.00000000000E+00  0.00000000000E+00  0.69836677610E+03  0.69836677610E+03  0.00000000000E+00 0. -1.
          1   -1    0    0  501    0 -0.00000000000E+00 -0.00000000000E+00 -0.12136521269E+04  0.12136521269E+04  0.00000000000E+00 0. -1.
         25    2    1    2    0    0  0.10129864399E+03  0.16733888340E+03 -0.40396887473E+03  0.46591858902E+03  0.12500225068E+03 0.  0.
          2    1    1    2  501    0 -0.79934954626E+02 -0.15201425337E+03 -0.76897238707E+03  0.78791907090E+03  0.00000000000E+00 0. -1.
          1    1    1    2  502    0 -0.21363689367E+02 -0.15324630025E+02  0.65765591098E+03  0.65818124309E+03  0.00000000000E+00 0. -1.
         22    1    3    3    0    0  0.43586759146E+02  0.11407216091E+03 -0.34982653222E+03  0.37052782097E+03  0.00000000000E+00 0. -1.
         22    1    3    3    0    0  0.57711884847E+02  0.53266722485E+02 -0.54142342504E+02  0.95390768047E+02  0.00000000000E+00 0. -1.
</event>
<event>
 7    1  0.5779468E-006  0.1864577E+03  0.7818608E-02  0.1188008E+00
          2   -1    0    0  502    0  0.00000000000E+00  0.00000000000E+00  0.92416984072E+02  0.92416984072E+02  0.00000000000E+00 0. -1.
          1   -1    0    0  501    0 -0.00000000000E+00 -0.00000000000E+00 -0.10613187509E+04  0.10613187509E+04  0.00000000000E+00 0. -1.
         25    2    1    2    0    0  0.10680854745E+03  0.17462929990E+02 -0.31902459205E+03  0.35932590696E+03  0.12500158938E+03 0.  0.
          2    1    1    2  501    0  0.13462268281E+03 -0.31892216329E+02 -0.47820296450E+03  0.49781367543E+03  0.00000000000E+00 0. -1.
          1    1    1    2  502    0 -0.24143123027E+03  0.14429286339E+02 -0.17167421028E+03  0.29659615258E+03  0.00000000000E+00 0. -1.
         22    1    3    3    0    0  0.13334272724E+03  0.21357627366E+02 -0.23398947293E+03  0.27016199695E+03  0.00000000000E+00 0.  1.
         22    1    3    3    0    0 -0.26534179787E+02 -0.38946973757E+01 -0.85035119111E+02  0.89163910002E+02  0.00000000000E+00 0.  1.
</event>
<event>
 7    1  0.5779468E-006  0.4137563E+02  0.7818608E-02  0.1531908E+00
          2   -1    0    0  502    0  0.00000000000E+00  0.00000000000E+00  0.21722505969E+03  0.21722505969E+03  0.00000000000E+00 0. -1.
          1   -1    0    0  501    0 -0.00000000000E+00 -0.00000000000E+00 -0.29702612139E+03  0.29702612139E+03  0.00000000000E+00 0. -1.
         25    2    1    2    0    0  0.12685451884E+02 -0.38616532313E+01 -0.59024995825E+01  0.12583737252E+03  0.12499748704E+03 0.  0.
          2    1    1    2  501    0  0.12877664277E+02 -0.30387844747E+02 -0.22703715584E+03  0.22942346323E+03  0.00000000000E+00 0. -1.
          1    1    1    2  502    0 -0.25563116161E+02  0.34249497978E+02  0.15313859372E+03  0.15899034533E+03  0.00000000000E+00 0. -1.
         22    1    3    3    0    0 -0.11960415667E+02 -0.30009791995E+01  0.56976347126E+02  0.58295467670E+02  0.00000000000E+00 0.  1.
         22    1    3    3    0    0  0.24645867551E+02 -0.86067403185E+00 -0.62878846708E+02  0.67541904848E+02  0.00000000000E+00 0.  1.
</event>
<event>
 7    1  0.5779468E-006  0.1162788E+03  0.7818608E-02  0.1371288E+00
          2   -1    0    0  502    0  0.00000000000E+00  0.00000000000E+00  0.26363307604E+04  0.26363307604E+04  0.00000000000E+00 0. -1.
          1   -1    0    0  501    0 -0.00000000000E+00 -0.00000000000E+00 -0.64991842135E+02  0.64991842135E+02  0.00000000000E+00 0. -1.
         25    2    1    2    0    0  0.22101366852E+02 -0.84663714852E+02  0.11485370757E+04  0.11586277334E+04  0.12499758128E+03 0.  0.
          2    1    1    2  501    0 -0.55192925869E+02  0.10411975619E+03 -0.15221055646E+01  0.11785372078E+03  0.00000000000E+00 0. -1.
          1    1    1    2  502    0  0.33091559017E+02 -0.19456041343E+02  0.14243239482E+04  0.14248411484E+04  0.00000000000E+00 0. -1.
         22    1    3    3    0    0  0.37494635888E+02 -0.24280839702E+02  0.11742666417E+03  0.12563609495E+03  0.00000000000E+00 0. -1.
         22    1    3    3    0    0 -0.15393269036E+02 -0.60382875150E+02  0.10311104115E+04  0.10329916384E+04  0.00000000000E+00 0. -1.
</event>
<event>
 7    1  0.5779468E-006  0.8620439E+02  0.7818608E-02  0.1417927E+00
          2   -1    0    0  502    0  0.00000000000E+00  0.00000000000E+00  0.13160861367E+04  0.13160861367E+04  0.00000000000E+00 0. -1.
          1   -1    0    0  501    0 -0.00000000000E+00 -0.00000000000E+00 -0.24177574531E+03  0.24177574531E+03  0.00000000000E+00 0. -1.
         25    2    1    2    0    0 -0.89260321273E+01 -0.11710420212E+03  0.41613858002E+02  0.17649574695E+03  0.12500386918E+03 0.  0.
          2    1    1    2  501    0 -0.11038070471E+02  0.33932741453E+02 -0.17097525328E+03  0.17465911707E+03  0.00000000000E+00 0. -1.
          1    1    1    2  502    0  0.19964102598E+02  0.83171460672E+02  0.12036717866E+04  0.12067070180E+04  0.00000000000E+00 0. -1.
         22    1    3    3    0    0 -0.36252863668E+02 -0.11382690791E+03 -0.80329987066E+01  0.11973038110E+03  0.00000000000E+00 0.  1.
         22    1    3    3    0    0  0.27326831540E+02 -0.32772942102E+01  0.49646856708E+02  0.56765365853E+02  0.00000000000E+00 0.  1.
</event>
<event>
 7    1  0.5779468E-006  0.9961733E+02  0.7818608E-02  0.1455194E+00
          2   -1    0    0  502    0  0.00000000000E+00  0.00000000000E+00  0.81175192683E+03  0.81175192683E+03  0.00000000000E+00 0. -1.
          1   -1    0    0  501    0 -0.00000000000E+00 -0.00000000000E+00 -0.78278699070E+03  0.78278699070E+03  0.00000000000E+00 0. -1.
         25    2    1    2    0    0  0.77082960217E+01  0.88672153518E+02  0.70558573251E+02  0.16889282279E+03  0.12499641872E+03 0.  0.
          2    1    1    2  501    0 -0.30072709333E+02 -0.95348185549E+02 -0.73001490828E+03  0.73682929546E+03  0.00000000000E+00 0. -1.
          1    1    1    2  502    0  0.22364413311E+02  0.66760320306E+01  0.68842127117E+03  0.68881679929E+03  0.00000000000E+00 0. -1.
         22    1    3    3    0    0  0.18147525742E+01 -0.44122345738E+01  0.75348260688E+02  0.75499149197E+02  0.00000000000E+00 0. -1.
         22    1    3    3    0    0  0.58935434475E+01  0.93084388092E+02 -0.47896874366E+01  0.93393673590E+02  0.00000000000E+00 0. -1.
</event>
<event>
 7    1  0.5779468E-006  0.1086350E+03  0.7818608E-02  0.1283934E+00
          2   -1    0    0  502    0  0.00000000000E+00  0.00000000000E+00  0.59146821242E+03  0.59146821242E+03  0.00000000000E+00 0. -1.
          1   -1    0    0  501    0 -0.00000000000E+00 -0.00000000000E+00 -0.62849029658E+03  0.62849029658E+03  0.00000000000E+00 0. -1.
         25    2    1    2    0    0 -0.19095206886E+03  0.20279289376E+02  0.20360887670E+03  0.30652072114E+03  0.12499774254E+03 0.  0.
          2    1    1    2  501    0  0.10261391699E+03 -0.30517624220E+02 -0.56605085582E+03  0.57608550816E+03  0.00000000000E+00 0. -1.
          1    1    1    2  502    0  0.88338151874E+02  0.10238334844E+02  0.32541989496E+03  0.33735227969E+03  0.00000000000E+00 0. -1.
         22    1    3    3    0    0 -0.95343967355E+02 -0.44290134462E+02  0.13904291246E+03  0.17431299328E+03  0.00000000000E+00 0. -1.
         22    1    3    3    0    0 -0.95608101504E+02  0.64569423838E+02  0.64565964235E+02  0.13220772786E+03  0.00000000000E+00 0. -1.
</event>
<event>
 7    1  0.5779468E-006  0.9705773E+02  0.7818608E-02  0.1362808E+00
          2   -1    0    0  502    0  0.00000000000E+00  0.00000000000E+00  0.26531794649E+03  0.26531794649E+03  0.00000000000E+00 0. -1.
          1   -1    0    0  501    0 -0.00000000000E+00 -0.00000000000E+00 -0.14301135444E+03  0.14301135444E+03  0.00000000000E+00 0. -1.
         25    2    1    2    0    0  0.61995742947E+02 -0.11965291499E+02  0.52209616297E+02  0.14946602223E+03  0.12501042925E+03 0.  0.
          2    1    1    2  501    0 -0.10847117034E+03 -0.46285106293E+01 -0.56927594856E+02  0.12258943250E+03  0.00000000000E+00 0. -1.
          1    1    1    2  502    0  0.46475427394E+02  0.16593802128E+02  0.12702457061E+03  0.13627384620E+03  0.00000000000E+00 0. -1.
         22    1    3    3    0    0  0.58486247514E+02 -0.27090536054E+02  0.88794598135E+02  0.10972246329E+03  0.00000000000E+00 0.  1.
         22    1    3    3    0    0  0.35094954325E+01  0.15125244555E+02 -0.36584981838E+02  0.39743558939E+02  0.00000000000E+00 0.  1.
</event>
<event>
 7    1  0.5779468E-006  0.4458389E+02  0.7818608E-02  0.1598337E+00
          2   -1    0    0  502    0  0.00000000000E+00  0.00000000000E+00  0.17003383510E+03  0.17003383510E+03  0.00000000000E+00 0. -1.
          1   -1    0    0  501    0 -0.00000000000E+00 -0.00000000000E+00 -0.15730179852E+04  0.15730179852E+04  0.00000000000E+00 0. -1.
         25    2    1    2    0    0  0.32197529019E+02 -0.56061729625E+02  0.10258445526E+03  0.17415042786E+03  0.12500081064E+03 0.  0.
          2    1    1    2  501    0 -0.23129034480E+02  0.38060437795E+02 -0.15336711181E+04  0.15343176489E+04  0.00000000000E+00 0. -1.
          1    1    1    2  502    0 -0.90684945393E+01  0.18001291830E+02  0.28102512712E+02  0.34583743601E+02  0.00000000000E+00 0. -1.
         22    1    3    3    0    0  0.58093346697E+02 -0.28339732487E+02 -0.14816310772E+00  0.64637445186E+02  0.00000000000E+00 0.  1.
         22    1    3    3    0    0 -0.25895817678E+02 -0.27721997137E+02  0.10273261836E+03  0.10951298268E+03  0.00000000000E+00 0.  1.
</event>
<event>
 7    1  0.5779468E-006  0.3678916E+02  0.7818608E-02  0.1588410E+00
          2   -1    0    0  502    0  0.00000000000E+00  0.00000000000E+00  0.53085081673E+03  0.53085081673E+03  0.00000000000E+00 0. -1.
          1   -1    0    0  501    0 -0.00000000000E+00 -0.00000000000E+00 -0.11177573046E+03  0.11177573046E+03  0.00000000000E+00 0. -1.
         25    2    1    2    0    0  0.10229784210E+02 -0.47383914135E+02  0.14037710253E+03  0.19411316799E+03  0.12499722904E+03 0.  0.
          2    1    1    2  501    0  0.15200279242E+02  0.21024536531E+02 -0.81976539459E+02  0.85983909234E+02  0.00000000000E+00 0. -1.
          1    1    1    2  502    0 -0.25430063452E+02  0.26359377605E+02  0.36067452320E+03  0.36252946998E+03  0.00000000000E+00 0. -1.
         22    1    3    3    0    0 -0.52309608464E+02 -0.37809757778E+01  0.85025659772E+02  0.99899718394E+02  0.00000000000E+00 0. -1.
         22    1    3    3    0    0  0.62539392674E+02 -0.43602938358E+02  0.55351442756E+02  0.94213449596E+02  0.00000000000E+00 0. -1.
</event>
<event>
 7    1  0.5779468E-006  0.9502624E+02  0.7818608E-02  0.1320973E+00
          2   -1    0    0  502    0  0.00000000000E+00  0.00000000000E+00  0.12943238261E+04  0.12943238261E+04  0.00000000000E+00 0. -1.
          1   -1    0    0  501    0 -0.00000000000E+00 -0.00000000000E+00 -0.10770830376E+03  0.10770830376E+03  0.00000000000E+00 0. -1.
         25    2    1    2    0    0  0.38969360836E+02  0.31311735282E+02  0.45027877700E+03  0.46997490433E+03  0.12500559120E+03 0.  0.
          2    1    1    2  501    0  0.72312043161E+02 -0.23442430311E+01 -0.79883356437E+02  0.10777698130E+03  0.00000000000E+00 0. -1.
          1    1    1    2  502    0 -0.11128140400E+03 -0.28967492251E+02  0.81622010177E+03  0.82428024422E+03  0.00000000000E+00 0. -1.
         22    1    3    3    0    0  0.61375943987E+02  0.58035450435E+02  0.39976733137E+03  0.40859397846E+03  0.00000000000E+00 0. -1.
         22    1    3    3    0    0 -0.22406583151E+02 -0.26723715153E+02  0.50511445631E+02  0.61380925863E+02  0.00000000000E+00 0. -1.
</event>
<event>
 7    1  0.5779468E-006  0.8585149E+02  0.7818608E-02  0.1335626E+00
          2   -1    0    0  502    0  0.00000000000E+00  0.00000000000E+00  0.21942190470E+04  0.21942190470E+04  0.00000000000E+00 0. -1.
          1   -1    0    0  501    0 -0.00000000000E+00 -0.00000000000E+00 -0.10356680243E+03  0.10356680243E+03  0.00000000000E+00 0. -1.
         25    2    1    2    0    0  0.92306987144E+01 -0.98075775181E+02  0.28906162810E+03  0.32999676097E+03  0.12504868625E+03 0.  0.
          2    1    1    2  501    0  0.56560298906E+02  0.41872347397E+02 -0.67017425197E+02  0.97178681659E+02  0.00000000000E+00 0. -1.
          1    1    1    2  502    0 -0.65790997620E+02  0.56203427784E+02  0.18686080417E+04  0.18706104068E+04  0.00000000000E+00 0. -1.
         22    1    3    3    0    0  0.17456711640E+02 -0.21226391904E+02  0.23275736781E+03  0.23437424936E+03  0.00000000000E+00 0. -1.
         22    1    3    3    0    0 -0.82260129260E+01 -0.76849383277E+02  0.56304260295E+02  0.95622511607E+02  0.00000000000E+00 0. -1.
</event>
<event>
 7    1  0.5779468E-006  0.6659030E+02  0.7818608E-02  0.1448465E+00
          2   -1    0    0  502    0  0.00000000000E+00  0.00000000000E+00  0.62070657653E+03  0.62070657653E+03  0.00000000000E+00 0. -1.
          1   -1    0    0  501    0 -0.00000000000E+00 -0.00000000000E+00 -0.18731573735E+04  0.18731573735E+04  0.00000000000E+00 0. -1.
         25    2    1    2    0    0  0.86677488057E+01 -0.86050233419E+02 -0.60334963335E+02  0.16353900316E+03  0.12499970085E+03 0.  0.
          2    1    1    2  501    0  0.20121585559E+02  0.63313128410E+02 -0.17600018620E+04  0.17612552298E+04  0.00000000000E+00 0. -1.
          1    1    1    2  502    0 -0.28789334365E+02  0.22737105009E+02  0.56788602832E+03  0.56906971706E+03  0.00000000000E+00 0. -1.
         22    1    3    3    0    0 -0.53025086934E+02 -0.32456686961E+02 -0.52630506503E+02  0.81455918064E+02  0.00000000000E+00 0. -1.
         22    1    3    3    0    0  0.61692835740E+02 -0.53593546458E+02 -0.77044568323E+01  0.82083085095E+02  0.00000000000E+00 0. -1.
</event>
<event>
 7    1  0.5779468E-006  0.9811862E+02  0.7818608E-02  0.1384998E+00
          2   -1    0    0  502    0  0.00000000000E+00  0.00000000000E+00  0.56978736720E+02  0.56978736720E+02  0.00000000000E+00 0. -1.
          1   -1    0    0  501    0 -0.00000000000E+00 -0.00000000000E+00 -0.14589947833E+04  0.14589947833E+04  0.00000000000E+00 0. -1.
         25    2    1    2    0    0 -0.68065716178E+02  0.77886842800E+02 -0.30533005434E+03  0.34575318433E+03  0.12497807962E+03 0.  0.
          2    1    1    2  501    0 -0.20570918148E+02 -0.35080702536E+02 -0.10664842859E+04  0.10672593641E+04  0.00000000000E+00 0. -1.
          1    1    1    2  502    0  0.88636634325E+02 -0.42806140264E+02 -0.30201706333E+02  0.10296097151E+03  0.00000000000E+00 0. -1.
         22    1    3    3    0    0 -0.10084217640E+03  0.42577792601E+02 -0.24651619721E+03  0.26972624725E+03  0.00000000000E+00 0. -1.
         22    1    3    3    0    0  0.32776460227E+02  0.35309050199E+02 -0.58813857132E+02  0.76026937080E+02  0.00000000000E+00 0. -1.
</event>
<event>
 7    1  0.5779468E-006  0.9663868E+02  0.7818608E-02  0.1299779E+00
          2   -1    0    0  502    0  0.00000000000E+00  0.00000000000E+00  0.12636338614E+04  0.12636338614E+04  0.00000000000E+00 0. -1.
          1   -1    0    0  501    0 -0.00000000000E+00 -0.00000000000E+00 -0.39608303714E+03  0.39608303714E+03  0.00000000000E+00 0. -1.
         25    2    1    2    0    0 -0.58183233349E+02 -0.40817458951E+02 -0.58725103753E+02  0.15531148970E+03  0.12498666898E+03 0.  0.
          2    1    1    2  501    0  0.10187984090E+03 -0.33509438589E+02 -0.27752159801E+03  0.29752415334E+03  0.00000000000E+00 0. -1.
          1    1    1    2  502    0 -0.43696607551E+02  0.74326897540E+02  0.12037975260E+04  0.12068812555E+04  0.00000000000E+00 0. -1.
         22    1    3    3    0    0 -0.65761096258E+01 -0.73311873481E+02 -0.58987167337E+02  0.94325828496E+02  0.00000000000E+00 0. -1.
         22    1    3    3    0    0 -0.51607123724E+02  0.32494414530E+02  0.26206358380E+00  0.60985661200E+02  0.00000000000E+00 0. -1.
</event>
<event>
 7    1  0.5779468E-006  0.5765604E+02  0.7818608E-02  0.1446929E+00
          2   -1    0    0  502    0  0.00000000000E+00  0.00000000000E+00  0.17769879078E+04  0.17769879078E+04  0.00000000000E+00 0. -1.
          1   -1    0    0  501    0 -0.00000000000E+00 -0.00000000000E+00 -0.19691154540E+03  0.19691154540E+03  0.00000000000E+00 0. -1.
         25    2    1    2    0    0 -0.34038006195E+02  0.15573174202E+02  0.59840885988E+02  0.14355124794E+03  0.12499967811E+03 0.  0.
          2    1    1    2  501    0  0.55339420331E+02  0.21611411772E+02 -0.14908059040E+03  0.16048217033E+03  0.00000000000E+00 0. -1.
          1    1    1    2  502    0 -0.21301414136E+02 -0.37184585974E+02  0.16693160668E+04  0.16698660349E+04  0.00000000000E+00 0. -1.
         22    1    3    3    0    0  0.11827185782E+02  0.36419186807E+02  0.80466162698E+02  0.89112529033E+02  0.00000000000E+00 0. -1.
         22    1    3    3    0    0 -0.45865191978E+02 -0.20846012605E+02 -0.20625276710E+02  0.54438718905E+02  0.00000000000E+00 0. -1.
</event>
<event>
 7    1  0.5779468E-006  0.5701622E+02  0.7818608E-02  0.1470347E+00
          2   -1    0    0  502    0  0.00000000000E+00  0.00000000000E+00  0.56146414928E+03  0.56146414928E+03  0.00000000000E+00 0. -1.
          1   -1    0    0  501    0 -0.00000000000E+00 -0.00000000000E+00 -0.21204940429E+04  0.21204940429E+04  0.00000000000E+00 0. -1.
         25    2    1    2    0    0 -0.13269732136E+02 -0.60914367634E+02 -0.33630781138E+01  0.13974573631E+03  0.12502365595E+03 0.  0.
          2    1    1    2  501    0  0.35588494414E+02  0.83005369472E+01 -0.20471205695E+04  0.20474467187E+04  0.00000000000E+00 0. -1.
          1    1    1    2  502    0 -0.22318762278E+02  0.52613830687E+02  0.49145375401E+03  0.49476573715E+03  0.00000000000E+00 0. -1.
         22    1    3    3    0    0 -0.66962604045E+02 -0.51026915904E+02  0.57924105981E+01  0.84387727234E+02  0.00000000000E+00 0. -1.
         22    1    3    3    0    0  0.53692871910E+02 -0.98874517304E+01 -0.91554887119E+01  0.55358009079E+02  0.00000000000E+00 0. -1.
</event>
<event>
 7    1  0.5779468E-006  0.1328576E+03  0.7818608E-02  0.1325515E+00
          2   -1    0    0  502    0  0.00000000000E+00  0.00000000000E+00  0.73082259335E+02  0.73082259335E+02  0.00000000000E+00 0. -1.
          1   -1    0    0  501    0 -0.00000000000E+00 -0.00000000000E+00 -0.91673085405E+03  0.91673085405E+03  0.00000000000E+00 0. -1.
         25    2    1    2    0    0 -0.22747602099E+02 -0.86982750259E+02 -0.75675748375E+02  0.17156646870E+03  0.12499912818E+03 0.  0.
          2    1    1    2  501    0  0.22715507023E+02  0.13668304179E+03 -0.75399197899E+03  0.76661734428E+03  0.00000000000E+00 0. -1.
          1    1    1    2  502    0  0.32095076608E-01 -0.49700291530E+02 -0.13980867350E+02  0.51629300404E+02  0.00000000000E+00 0. -1.
         22    1    3    3    0    0 -0.37845483647E+02 -0.35731418738E+01  0.20645760947E+02  0.43258472238E+02  0.00000000000E+00 0. -1.
         22    1    3    3    0    0  0.15097881547E+02 -0.83409608385E+02 -0.96321509322E+02  0.12830799646E+03  0.00000000000E+00 0. -1.
</event>
<event>
 7    1  0.5779468E-006  0.7052423E+02  0.7818608E-02  0.1438483E+00
          2   -1    0    0  502    0  0.00000000000E+00  0.00000000000E+00  0.52459551797E+02  0.52459551797E+02  0.00000000000E+00 0. -1.
          1   -1    0    0  501    0 -0.00000000000E+00 -0.00000000000E+00 -0.15817205262E+04  0.15817205262E+04  0.00000000000E+00 0. -1.
         25    2    1    2    0    0 -0.85317806336E+02  0.61240236530E+01 -0.13048569679E+03  0.19992078574E+03  0.12500068705E+03 0.  0.
          2    1    1    2  501    0  0.22794030136E+02 -0.29534777117E+02 -0.13525291363E+04  0.13530435822E+04  0.00000000000E+00 0. -1.
          1    1    1    2  502    0  0.62523776200E+02  0.23410753464E+02 -0.46246141308E+02  0.81215710019E+02  0.00000000000E+00 0. -1.
         22    1    3    3    0    0  0.28263755755E+02  0.83993325887E+00 -0.19985420115E+01  0.28346773139E+02  0.00000000000E+00 0. -1.
         22    1    3    3    0    0 -0.11358156209E+03  0.52840903942E+01 -0.12848715478E+03  0.17157401260E+03  0.00000000000E+00 0. -1.
</event>
<event>
 7    1  0.5779468E-006  0.1030175E+03  0.7818608E-02  0.1315608E+00
          2   -1    0    0  502    0  0.00000000000E+00  0.00000000000E+00  0.19483721844E+04  0.19483721844E+04  0.00000000000E+00 0. -1.
          1   -1    0    0  501    0 -0.00000000000E+00 -0.00000000000E+00 -0.28042017543E+03  0.28042017543E+03  0.00000000000E+00 0. -1.
         25    2    1    2    0    0  0.58807570916E+02  0.16050000996E+03  0.43394432037E+01  0.21180807935E+03  0.12500099246E+03 0.  0.
          2    1    1    2  501    0 -0.33150456251E+02 -0.61678708535E+02 -0.16827036143E+03  0.18225841646E+03  0.00000000000E+00 0. -1.
          1    1    1    2  502    0 -0.25657114665E+02 -0.98821301428E+02  0.18318829272E+04  0.18347258640E+04  0.00000000000E+00 0. -1.
         22    1    3    3    0    0  0.45766694316E+02  0.18140729349E+03  0.50002433523E+01  0.18715821883E+03  0.00000000000E+00 0.  1.
         22    1    3    3    0    0  0.13040876601E+02 -0.20907283529E+02 -0.66080014866E+00  0.24649860525E+02  0.00000000000E+00 0.  1.
</event>
<event>
 7    1  0.5779468E-006  0.1497453E+03  0.7818608E-02  0.1311423E+00
          2   -1    0    0  502    0  0.00000000000E+00  0.00000000000E+00  0.72330095726E+03  0.72330095726E+03  0.00000000000E+00 0. -1.
          1   -1    0    0  501    0 -0.00000000000E+00 -0.00000000000E+00 -0.12024922347E+03  0.12024922347E+03  0.00000000000E+00 0. -1.
         25    2    1    2    0    0 -0.32898473244E+02  0.10963287243E+03  0.18395731645E+03  0.25013425452E+03  0.12500069899E+03 0.  0.
          2    1    1    2  501    0 -0.82566471246E+01  0.49340421955E+02 -0.65117949041E+02  0.82115752129E+02  0.00000000000E+00 0. -1.
          1    1    1    2  502    0  0.41155120369E+02 -0.15897329438E+03  0.48421236638E+03  0.51130017408E+03  0.00000000000E+00 0. -1.
         22    1    3    3    0    0 -0.27227736059E+02  0.10652310265E+03  0.58560327508E+02  0.12457059431E+03  0.00000000000E+00 0. -1.
         22    1    3    3    0    0 -0.56707371854E+01  0.31097697776E+01  0.12539698895E+03  0.12556366021E+03  0.00000000000E+00 0. -1.
</event>
<event>
 7    1  0.5779468E-006  0.1230533E+03  0.7818608E-02  0.1391550E+00
          2   -1    0    0  502    0  0.00000000000E+00  0.00000000000E+00  0.24831905320E+04  0.24831905320E+04  0.00000000000E+00 0. -1.
          1   -1    0    0  501    0 -0.00000000000E+00 -0.00000000000E+00 -0.77217347914E+03  0.77217347914E+03  0.00000000000E+00 0. -1.
         25    2    1    2    0    0  0.53015901785E+02 -0.94641725215E+02  0.27611101593E+03  0.32191437848E+03  0.12499532777E+03 0.  0.
          2    1    1    2  501    0 -0.83529969812E+02  0.90763143781E+02 -0.74408585004E+03  0.75424064883E+03  0.00000000000E+00 0. -1.
          1    1    1    2  502    0  0.30514068027E+02  0.38785814337E+01  0.21789918870E+04  0.21792089839E+04  0.00000000000E+00 0. -1.
         22    1    3    3    0    0  0.10886699975E+02 -0.72648570961E+02  0.26234593986E+03  0.27243664816E+03  0.00000000000E+00 0. -1.
         22    1    3    3    0    0  0.42129201810E+02 -0.21993154254E+02  0.13765076070E+02  0.49477730328E+02  0.00000000000E+00 0. -1.
</event>
<event>
 7    1  0.5779468E-006  0.2016844E+03  0.7818608E-02  0.1219723E+00
          2   -1    0    0  502    0  0.00000000000E+00  0.00000000000E+00  0.38127623354E+03  0.38127623354E+03  0.00000000000E+00 0. -1.
          1   -1    0    0  501    0 -0.00000000000E+00 -0.00000000000E+00 -0.16148127522E+04  0.16148127522E+04  0.00000000000E+00 0. -1.
         25    2    1    2    0    0  0.10379815803E+03 -0.56810561439E+02  0.25538613239E+02  0.17400726084E+03  0.12499923423E+03 0.  0.
          2    1    1    2  501    0 -0.19171983322E+03  0.79637437408E+02 -0.15260347257E+04  0.15400911011E+04  0.00000000000E+00 0. -1.
          1    1    1    2  502    0  0.87921675188E+02 -0.22826875968E+02  0.26695959372E+03  0.28199062380E+03  0.00000000000E+00 0. -1.
         22    1    3    3    0    0  0.97543166290E+02 -0.15683108236E+02 -0.31242105386E+02  0.10361804053E+03  0.00000000000E+00 0. -1.
         22    1    3    3    0    0  0.62549917403E+01 -0.41127453204E+02  0.56780718625E+02  0.70389220313E+02  0.00000000000E+00 0. -1.
</event>
<event>
 7    1  0.5779468E-006  0.3629153E+02  0.7818608E-02  0.1628128E+00
          2   -1    0    0  502    0  0.00000000000E+00  0.00000000000E+00  0.11768215688E+04  0.11768215688E+04  0.00000000000E+00 0. -1.
          1   -1    0    0  501    0 -0.00000000000E+00 -0.00000000000E+00 -0.16115452170E+03  0.16115452170E+03  0.00000000000E+00 0. -1.
         25    2    1    2    0    0  0.17968510701E+02  0.34220203259E+02 -0.54243041790E+02  0.14164338252E+03  0.12500660199E+03 0.  0.
          2    1    1    2  501    0 -0.20666290346E+02  0.19813076339E+01 -0.61207545023E+02  0.64632690679E+02  0.00000000000E+00 0. -1.
          1    1    1    2  502    0  0.26977796448E+01 -0.36201510893E+02  0.11311176339E+04  0.11317000173E+04  0.00000000000E+00 0. -1.
         22    1    3    3    0    0 -0.14986777275E+02  0.21525899421E+02  0.36111749658E+02  0.44632121867E+02  0.00000000000E+00 0. -1.
         22    1    3    3    0    0  0.32955287976E+02  0.12694303838E+02 -0.90354791448E+02  0.97011260651E+02  0.00000000000E+00 0. -1.
</event>
<event>
 7    1  0.5779468E-006  0.1453937E+03  0.7818608E-02  0.1245249E+00
          2   -1    0    0  502    0  0.00000000000E+00  0.00000000000E+00  0.35832737640E+03  0.35832737640E+03  0.00000000000E+00 0. -1.
          1   -1    0    0  501    0 -0.00000000000E+00 -0.00000000000E+00 -0.94482792920E+03  0.94482792920E+03  0.00000000000E+00 0. -1.
         25    2    1    2    0    0  0.69689203810E+02  0.56762103516E+02 -0.18722396301E+03  0.24239775548E+03  0.12500135204E+03 0.  0.
          2    1    1    2  501    0 -0.67848671446E+02 -0.15366005626E+03 -0.71294130735E+03  0.73246171425E+03  0.00000000000E+00 0. -1.
          1    1    1    2  502    0 -0.18405323640E+01  0.96897952746E+02  0.31366471757E+03  0.32829583588E+03  0.00000000000E+00 0. -1.
         22    1    3    3    0    0  0.84607899778E+02  0.83932766797E+02 -0.16780740297E+03  0.20582159882E+03  0.00000000000E+00 0.  1.
         22    1    3    3    0    0 -0.14918695968E+02 -0.27170663281E+02 -0.19416560037E+02  0.36576156662E+02  0.00000000000E+00 0.  1.
</event>
<event>
 7    1  0.5779468E-006  0.8270391E+02  0.7818608E-02  0.1323219E+00
          2   -1    0    0  502    0  0.00000000000E+00  0.00000000000E+00  0.31235488582E+04  0.31235488582E+04  0.00000000000E+00 0. -1.
          1   -1    0    0  501    0 -0.00000000000E+00 -0.00000000000E+00 -0.27323732519E+02  0.27323732519E+02  0.00000000000E+00 0. -1.
         25    2    1    2    0    0  0.19943043943E+02  0.58596424071E+02  0.52146338127E+03  0.53979684506E+03  0.12500124003E+03 0.  0.
          2    1    1    2  501    0  0.62148738065E+02 -0.68640149637E+02  0.10526725113E+03  0.14019675440E+03  0.00000000000E+00 0. -1.
          1    1    1    2  502    0 -0.82091782008E+02  0.10043725566E+02  0.24694944932E+04  0.24708789912E+04  0.00000000000E+00 0. -1.
         22    1    3    3    0    0  0.45553486598E+02  0.87665724092E+02  0.41200939946E+03  0.42368873547E+03  0.00000000000E+00 0.  1.
         22    1    3    3    0    0 -0.25610442655E+02 -0.29069300021E+02  0.10945398182E+03  0.11610810959E+03  0.00000000000E+00 0.  1.
</event>
<event>
 7    1  0.5779468E-006  0.5887365E+02  0.7818608E-02  0.1483880E+00
          2   -1    0    0  502    0  0.00000000000E+00  0.00000000000E+00  0.15257102350E+04  0.15257102350E+04  0.00000000000E+00 0. -1.
          1   -1    0    0  501    0 -0.00000000000E+00 -0.00000000000E+00 -0.42539469123E+02  0.42539469123E+02  0.00000000000E+00 0. -1.
         25    2    1    2    0    0  0.48070647155E+02  0.45681767765E+02  0.53684297762E+03  0.55517808986E+03  0.12499887129E+03 0.  0.
          2    1    1    2  501    0  0.89232532397E+01 -0.30888838702E+02 -0.24523125945E+02  0.40436722306E+02  0.00000000000E+00 0. -1.
          1    1    1    2  502    0 -0.56993900394E+02 -0.14792929063E+02  0.97085091420E+03  0.97263489195E+03  0.00000000000E+00 0. -1.
         22    1    3    3    0    0  0.98558398964E+01 -0.12195251634E+02  0.41252285036E+03  0.41282074053E+03  0.00000000000E+00 0.  1.
         22    1    3    3    0    0  0.38214807258E+02  0.57877019399E+02  0.12432012726E+03  0.14235734934E+03  0.00000000000E+00 0.  1.
</event>
<event>
 7    1  0.5779468E-006  0.1096383E+03  0.7818608E-02  0.1371974E+00
          2   -1    0    0  502    0  0.00000000000E+00  0.00000000000E+00  0.26909344101E+03  0.26909344101E+03  0.00000000000E+00 0. -1.
          1   -1    0    0  501    0 -0.00000000000E+00 -0.00000000000E+00 -0.33892060810E+04  0.33892060810E+04  0.00000000000E+00 0. -1.
         25    2    1    2    0    0  0.11561138850E+03  0.87293906303E+02 -0.10851122526E+04  0.11018541147E+04  0.12501067985E+03 0.  0.
          2    1    1    2  501    0 -0.81166315722E+02 -0.66024925347E+02 -0.22929512834E+04  0.22953371973E+04  0.00000000000E+00 0. -1.
          1    1    1    2  502    0 -0.34445072774E+02 -0.21268980957E+02  0.25795089598E+03  0.26110820999E+03  0.00000000000E+00 0. -1.
         22    1    3    3    0    0 -0.17028760809E+02  0.21008037282E+02 -0.56836558117E+02  0.62942121538E+02  0.00000000000E+00 0. -1.
         22    1    3    3    0    0  0.13264014931E+03  0.66285869021E+02 -0.10282756945E+04  0.10389119931E+04  0.00000000000E+00 0. -1.
</event>
<event>
 7    1  0.5779468E-006  0.3114993E+02  0.7818608E-02  0.1621901E+00
          2   -1    0    0  502    0  0.00000000000E+00  0.00000000000E+00  0.68709653949E+03  0.68709653949E+03  0.00000000000E+00 0. -1.
          1   -1    0    0  501    0 -0.00000000000E+00 -0.00000000000E+00 -0.19909594598E+04  0.19909594598E+04  0.00000000000E+00 0. -1.
         25    2    1    2    0    0  0.28843724027E+02  0.20774558957E+02 -0.19780981787E+03  0.23668014154E+03  0.12500089056E+03 0.  0.
          2    1    1    2  501    0 -0.23068969863E+02  0.98445660390E+01 -0.17732622077E+04  0.17734395818E+04  0.00000000000E+00 0. -1.
          1    1    1    2  502    0 -0.57747541642E+01 -0.30619124996E+02  0.66720910528E+03  0.66793627598E+03  0.00000000000E+00 0. -1.
         22    1    3    3    0    0 -0.65500561081E+01  0.25384502740E+02 -0.19924137921E+03  0.20095871069E+03  0.00000000000E+00 0.  1.
         22    1    3    3    0    0  0.35393780136E+02 -0.46099437833E+01  0.14315613411E+01  0.35721430848E+02  0.00000000000E+00 0.  1.
</event>
<event>
 7    1  0.5779468E-006  0.7193829E+02  0.7818608E-02  0.1427585E+00
          2   -1    0    0  502    0  0.00000000000E+00  0.00000000000E+00  0.34105334463E+04  0.34105334463E+04  0.00000000000E+00 0. -1.
          1   -1    0    0  501    0 -0.00000000000E+00 -0.00000000000E+00 -0.20478800687E+03  0.20478800687E+03  0.00000000000E+00 0. -1.
         25    2    1    2    0    0 -0.99546188060E+02  0.37772762249E+02  0.14373956243E+04  0.14467436392E+04  0.12499900629E+03 0.  0.
          2    1    1    2  501    0  0.59878644672E+02 -0.39612409486E+02 -0.19346702573E+03  0.20635911687E+03  0.00000000000E+00 0. -1.
          1    1    1    2  502    0  0.39667543387E+02  0.18396472374E+01  0.19618168408E+04  0.19622186971E+04  0.00000000000E+00 0. -1.
         22    1    3    3    0    0 -0.10626905111E+03 -0.16541974024E+02  0.10516213730E+04  0.10571065510E+04  0.00000000000E+00 0. -1.
         22    1    3    3    0    0  0.67228630518E+01  0.54314736273E+02  0.38577425136E+03  0.38963708817E+03  0.00000000000E+00 0. -1.
</event>
<event>
 7    1  0.5779468E-006  0.7743163E+02  0.7818608E-02  0.1368589E+00
          2   -1    0    0  502    0  0.00000000000E+00  0.00000000000E+00  0.89600388143E+02  0.89600388143E+02  0.00000000000E+00 0. -1.
          1   -1    0    0  501    0 -0.00000000000E+00 -0.00000000000E+00 -0.19462987021E+04  0.19462987021E+04  0.00000000000E+00 0. -1.
         25    2    1    2    0    0  0.14838812437E+02 -0.13548541109E+02 -0.98877774324E+02  0.16063262637E+03  0.12498909184E+03 0.  0.
          2    1    1    2  501    0 -0.57946456648E+02  0.53756697856E+02 -0.18006609368E+04  0.18023949023E+04  0.00000000000E+00 0. -1.
          1    1    1    2  502    0  0.43107644211E+02 -0.40208156747E+02  0.42840397181E+02  0.72871561594E+02  0.00000000000E+00 0. -1.
         22    1    3    3    0    0 -0.19226010255E+01  0.14661604467E+02 -0.12045553348E+03  0.12135977334E+03  0.00000000000E+00 0.  1.
         22    1    3    3    0    0  0.16761413462E+02 -0.28210145576E+02  0.21577759154E+02  0.39272853026E+02  0.00000000000E+00 0.  1.
</event>
<event>
 7    1  0.5779468E-006  0.2408728E+03  0.7818608E-02  0.1273343E+00
          2   -1    0    0  502    0  0.00000000000E+00  0.00000000000E+00  0.56769309417E+03  0.56769309417E+03  0.00000000000E+00 0. -1.
          1   -1    0    0  501    0 -0.00000000000E+00 -0.00000000000E+00 -0.12691843185E+04  0.12691843185E+04  0.00000000000E+00 0. -1.
         25    2    1    2    0    0  0.21293032750E+03 -0.10468965215E+03 -0.17938506672E+03  0.32264919860E+03  0.12499702220E+03 0.  0.
          2    1    1    2  501    0 -0.23331313453E+03  0.65278108250E+02 -0.10027185733E+04  0.10315719982E+04  0.00000000000E+00 0. -1.
          1    1    1    2  502    0  0.20382807033E+02  0.39411543904E+02  0.48061241569E+03  0.48265621589E+03  0.00000000000E+00 0. -1.
         22    1    3    3    0    0  0.21126320350E+03 -0.69665337025E+02 -0.18209780015E+03  0.28748045004E+03  0.00000000000E+00 0. -1.
         22    1    3    3    0    0  0.16671239969E+01 -0.35024315129E+02  0.27127334295E+01  0.35168748561E+02  0.00000000000E+00 0. -1.
</event>
<event>
 7    1  0.5779468E-006  0.4532429E+02  0.7818608E-02  0.1493142E+00
          2   -1    0    0  502    0  0.00000000000E+00  0.00000000000E+00  0.91564365774E+03  0.91564365774E+03  0.00000000000E+00 0. -1.
          1   -1    0    0  501    0 -0.00000000000E+00 -0.00000000000E+00 -0.44334354215E+03  0.44334354215E+03  0.00000000000E+00 0. -1.
         25    2    1    2    0    0 -0.29992300447E+02  0.77472087976E+02  0.14358917565E+03  0.20771149711E+03  0.12499900866E+03 0.  0.
          2    1    1    2  501    0  0.92892095910E+01 -0.38030680665E+02 -0.40967804209E+03  0.41154431141E+03  0.00000000000E+00 0. -1.
          1    1    1    2  502    0  0.20703090856E+02 -0.39441407311E+02  0.73838898204E+03  0.73973139137E+03  0.00000000000E+00 0. -1.
         22    1    3    3    0    0  0.48960955450E+02  0.23167114014E+02  0.55443708927E+02  0.77510613401E+02  0.00000000000E+00 0. -1.
         22    1    3    3    0    0 -0.78953255897E+02  0.54304973962E+02  0.88145466722E+02  0.13020088370E+03  0.00000000000E+00 0. -1.
</event>
<event>
 7    1  0.5779468E-006  0.1042578E+03  0.7818608E-02  0.1322717E+00
          2   -1    0    0  502    0  0.00000000000E+00  0.00000000000E+00  0.10308789859E+04  0.10308789859E+04  0.00000000000E+00 0. -1.
          1   -1    0    0  501    0 -0.00000000000E+00 -0.00000000000E+00 -0.33953565459E+02  0.33953565459E+02  0.00000000000E+00 0. -1.
         25    2    1    2    0    0  0.75215469833E+02  0.64493051598E+00  0.41822262606E+03  0.44293632138E+03  0.12499854805E+03 0.  0.
          2    1    1    2  501    0 -0.10521073170E+03 -0.58227890399E+02  0.17094905352E+03  0.20900565586E+03  0.00000000000E+00 0. -1.
          1    1    1    2  502    0  0.29995261863E+02  0.57582959883E+02  0.40775374083E+03  0.41289057408E+03  0.00000000000E+00 0. -1.
         22    1    3    3    0    0  0.88438958961E+02  0.27605815644E+02  0.17633909547E+03  0.19919590134E+03  0.00000000000E+00 0.  1.
         22    1    3    3    0    0 -0.13223489127E+02 -0.26960885128E+02  0.24188353060E+03  0.24374042005E+03  0.00000000000E+00 0.  1.
</event>
<event>
 7    1  0.5779468E-006  0.6909941E+02  0.7818608E-02  0.1498929E+00
          2   -1    0    0  502    0  0.00000000000E+00  0.00000000000E+00  0.10274011856E+04  0.10274011856E+04  0.00000000000E+00 0. -1.
          1   -1    0    0  501    0 -0.00000000000E+00 -0.00000000000E+00 -0.62719058566E+03  0.62719058566E+03  0.00000000000E+00 0. -1.
         25    2    1    2    0    0 -0.47989928406E+02 -0.43951070853E+02  0.12830710686E+02  0.14150656403E+03  0.12499900267E+03 0.  0.
          2    1    1    2  501    0  0.31115698607E+02  0.61950573297E+02 -0.56055685022E+03  0.56482744494E+03  0.00000000000E+00 0. -1.
          1    1    1    2  502    0  0.16874229798E+02 -0.17999502444E+02  0.94793673946E+03  0.94825776229E+03  0.00000000000E+00 0. -1.
         22    1    3    3    0    0 -0.48988524752E+02  0.23298261426E+01 -0.45595356049E+02  0.66964469239E+02  0.00000000000E+00 0. -1.
         22    1    3    3    0    0  0.99859634669E+00 -0.46280896996E+02  0.58426066734E+02  0.74542094788E+02  0.00000000000E+00 0. -1.
</event>
<event>
 7    1  0.5779468E-006  0.7020454E+02  0.7818608E-02  0.1433991E+00
          2   -1    0    0  502    0  0.00000000000E+00  0.00000000000E+00  0.16032563216E+03  0.16032563216E+03  0.00000000000E+00 0. -1.
          1   -1    0    0  501    0 -0.00000000000E+00 -0.00000000000E+00 -0.57441798801E+03  0.57441798801E+03  0.00000000000E+00 0. -1.
         25    2    1    2    0    0  0.18652676638E+02 -0.35965594620E+02 -0.48072884832E+02  0.13992077134E+03  0.12500149460E+03 0.  0.
          2    1    1    2  501    0 -0.56318015685E+02  0.45128995758E+02 -0.47432778340E+03  0.47978661012E+03  0.00000000000E+00 0. -1.
          1    1    1    2  502    0  0.37665339047E+02 -0.91634011383E+01  0.10830831238E+03  0.11503623871E+03  0.00000000000E+00 0. -1.
         22    1    3    3    0    0  0.32922624020E+02 -0.26554790786E+02  0.35127979080E+02  0.54982097089E+02  0.00000000000E+00 0.  1.
         22    1    3    3    0    0 -0.14269947382E+02 -0.94108038338E+01 -0.83200863912E+02  0.84938674247E+02  0.00000000000E+00 0.  1.
</event>
<event>
 7    1  0.5779468E-006  0.1021914E+03  0.7818608E-02  0.1425226E+00
          2   -1    0    0  502    0  0.00000000000E+00  0.00000000000E+00  0.27322974337E+03  0.27322974337E+03  0.00000000000E+00 0. -1.
          1   -1    0    0  501    0 -0.00000000000E+00 -0.00000000000E+00 -0.16773817018E+04  0.16773817018E+04  0.00000000000E+00 0. -1.
         25    2    1    2    0    0 -0.51283608049E+02  0.56206056162E+02 -0.93159650497E+02  0.17347071792E+03  0.12499696112E+03 0.  0.
          2    1    1    2  501    0 -0.17524756428E+02  0.22425769607E+02 -0.15322173335E+04  0.15324816440E+04  0.00000000000E+00 0. -1.
          1    1    1    2  502    0  0.68808364477E+02 -0.78631825769E+02  0.22122502559E+03  0.24465908320E+03  0.00000000000E+00 0. -1.
         22    1    3    3    0    0  0.33355859593E+02  0.51251431826E+02 -0.45391638356E+02  0.76155915502E+02  0.00000000000E+00 0.  1.
         22    1    3    3    0    0 -0.84639467642E+02  0.49546243365E+01 -0.47768012141E+02  0.97314802414E+02  0.00000000000E+00 0.  1.
</event>
<event>
 7    1  0.5779468E-006  0.4220760E+02  0.7818608E-02  0.1584876E+00
          2   -1    0    0  502    0  0.00000000000E+00  0.00000000000E+00  0.26241415991E+02  0.26241415991E+02  0.00000000000E+00 0. -1.
          1   -1    0    0  501    0 -0.00000000000E+00 -0.00000000000E+00 -0.12466913757E+04  0.12466913757E+04  0.00000000000E+00 0. -1.
         25    2    1    2    0    0  0.18566803675E+02  0.32497196345E+02 -0.97333281561E+03  0.98203328045E+03  0.12494718888E+03 0.  0.
          2    1    1    2  501    0 -0.39790543610E+02 -0.23358307599E+02 -0.26025821350E+03  0.26431654430E+03  0.00000000000E+00 0. -1.
          1    1    1    2  502    0  0.21223739936E+02 -0.91388887457E+01  0.13141069425E+02  0.26582966915E+02  0.00000000000E+00 0. -1.
         22    1    3    3    0    0  0.37646501321E+02 -0.40259149917E+02 -0.43046543465E+03  0.43397989428E+03  0.00000000000E+00 0.  1.
         22    1    3    3    0    0 -0.19079697646E+02  0.72756346262E+02 -0.54286738096E+03  0.54805338617E+03  0.00000000000E+00 0.  1.
</event>
<event>
 7    1  0.5779468E-006  0.8545424E+02  0.7818608E-02  0.1351016E+00
          2   -1    0    0  502    0  0.00000000000E+00  0.00000000000E+00  0.18620806124E+04  0.18620806124E+04  0.00000000000E+00 0. -1.
          1   -1    0    0  501    0 -0.00000000000E+00 -0.00000000000E+00 -0.57038780234E+02  0.57038780234E+02  0.00000000000E+00 0. -1.
         25    2    1    2    0    0 -0.96046860359E+02  0.69818753085E+02  0.23444517368E+03  0.29101818372E+03  0.12500954414E+03 0.  0.
          2    1    1    2  501    0  0.79991749144E+02 -0.10019072605E+02  0.29627482564E+02  0.85888587543E+02  0.00000000000E+00 0. -1.
          1    1    1    2  502    0  0.16055111214E+02 -0.59799680479E+02  0.15409691759E+04  0.15422126214E+04  0.00000000000E+00 0. -1.
         22    1    3    3    0    0 -0.29407203163E+02 -0.60828231716E+01  0.16673621055E+03  0.16941885446E+03  0.00000000000E+00 0.  1.
         22    1    3    3    0    0 -0.66639657195E+02  0.75901576256E+02  0.67708963128E+02  0.12159932926E+03  0.00000000000E+00 0.  1.
</event>
<event>
 7    1  0.5779468E-006  0.9562809E+02  0.7818608E-02  0.1425680E+00
          2   -1    0    0  502    0  0.00000000000E+00  0.00000000000E+00  0.18856621387E+04  0.18856621387E+04  0.00000000000E+00 0. -1.
          1   -1    0    0  501    0 -0.00000000000E+00 -0.00000000000E+00 -0.31710325074E+03  0.31710325074E+03  0.00000000000E+00 0. -1.
         25    2    1    2    0    0 -0.69141083727E+02  0.19913767345E+01 -0.22952056919E+03  0.27035143228E+03  0.12500300083E+03 0.  0.
          2    1    1    2  501    0 -0.25546053520E+02 -0.16311443505E+02 -0.62452617657E+02  0.69418970692E+02  0.00000000000E+00 0. -1.
          1    1    1    2  502    0  0.94687137246E+02  0.14320066771E+02  0.18605320748E+04  0.18629949865E+04  0.00000000000E+00 0. -1.
         22    1    3    3    0    0  0.16793835541E+02  0.15099270511E+01 -0.15700517496E+03  0.15790800409E+03  0.00000000000E+00 0. -1.
         22    1    3    3    0    0 -0.85934919267E+02  0.48144968335E+00 -0.72515394227E+02  0.11244342819E+03  0.00000000000E+00 0. -1.
</event>
<event>
 7    1  0.5779468E-006  0.4816857E+02  0.7818608E-02  0.1525151E+00
          2   -1    0    0  502    0  0.00000000000E+00  0.00000000000E+00  0.71693409867E+02  0.71693409867E+02  0.00000000000E+00 0. -1.
          1   -1    0    0  501    0 -0.00000000000E+00 -0.00000000000E+00 -0.30711182805E+04  0.30711182805E+04  0.00000000000E+00 0. -1.
         25    2    1    2    0    0  0.18412208037E+02 -0.38489604106E+01 -0.16952301410E+03  0.21146482567E+03  0.12500198513E+03 0.  0.
          2    1    1    2  501    0 -0.47475184301E+02  0.96913081338E+01 -0.28760714374E+04  0.28764795719E+04  0.00000000000E+00 0. -1.
          1    1    1    2  502    0  0.29062976263E+02 -0.58423477232E+01  0.46169580888E+02  0.54867292767E+02  0.00000000000E+00 0. -1.
         22    1    3    3    0    0  0.47113330365E+02 -0.37156058651E+02 -0.15325875479E+03  0.16458579681E+03  0.00000000000E+00 0.  1.
         22    1    3    3    0    0 -0.28701122328E+02  0.33307098240E+02 -0.16264259314E+02  0.46879028862E+02  0.00000000000E+00 0.  1.
</event>
<event>
 7    1  0.5779468E-006  0.2419592E+03  0.7818608E-02  0.1205181E+00
          2   -1    0    0  502    0  0.00000000000E+00  0.00000000000E+00  0.56293636583E+03  0.56293636583E+03  0.00000000000E+00 0. -1.
          1   -1    0    0  501    0 -0.00000000000E+00 -0.00000000000E+00 -0.25291721057E+03  0.25291721057E+03  0.00000000000E+00 0. -1.
         25    2    1    2    0    0 -0.25974423581E+03 -0.11089883010E+03  0.11873546017E+02  0.30908211591E+03  0.12500061890E+03 0.  0.
          2    1    1    2  501    0  0.21176585985E+03  0.36677964313E+02  0.21077815380E+02  0.21594982465E+03  0.00000000000E+00 0. -1.
          1    1    1    2  502    0  0.47978375961E+02  0.74220865787E+02  0.27706779387E+03  0.29082163585E+03  0.00000000000E+00 0. -1.
         22    1    3    3    0    0 -0.74459198449E+02 -0.42297240883E+01  0.52834031682E+02  0.91397470990E+02  0.00000000000E+00 0.  1.
         22    1    3    3    0    0 -0.18528503736E+03 -0.10666910601E+03 -0.40960485665E+02  0.21768464492E+03  0.00000000000E+00 0.  1.
</event>
<event>
 7    1  0.5779468E-006  0.5375114E+02  0.7818608E-02  0.1426707E+00
          2   -1    0    0  502    0  0.00000000000E+00  0.00000000000E+00  0.13554261736E+03  0.13554261736E+03  0.00000000000E+00 0. -1.
          1   -1    0    0  501    0 -0.00000000000E+00 -0.00000000000E+00 -0.59864326580E+03  0.59864326580E+03  0.00000000000E+00 0. -1.
         25    2    1    2    0    0 -0.50362917093E+01  0.30619788108E+02 -0.39931132887E+02  0.13484303377E+03  0.12500085090E+03 0.  0.
          2    1    1    2  501    0  0.54269280670E+02 -0.96762648092E+01 -0.50147994026E+03  0.50450065947E+03  0.00000000000E+00 0. -1.
          1    1    1    2  502    0 -0.49232988961E+02 -0.20943523299E+02  0.78310424708E+02  0.94842189917E+02  0.00000000000E+00 0. -1.
         22    1    3    3    0    0  0.57300508090E+02  0.21525553724E+02 -0.18651573218E+01  0.61238684688E+02  0.00000000000E+00 0. -1.
         22    1    3    3    0    0 -0.62336799799E+02  0.90942343840E+01 -0.38065975565E+02  0.73604349083E+02  0.00000000000E+00 0. -1.
</event>
<event>
 7    1  0.5779468E-006  0.3518791E+02  0.7818608E-02  0.1562102E+00
          2   -1    0    0  502    0  0.00000000000E+00  0.00000000000E+00  0.20311528041E+03  0.20311528041E+03  0.00000000000E+00 0. -1.
          1   -1    0    0  501    0 -0.00000000000E+00 -0.00000000000E+00 -0.17501741931E+03  0.17501741931E+03  0.00000000000E+00 0. -1.
         25    2    1    2    0    0 -0.47349175158E+02  0.23596090598E+02  0.35075532907E+02  0.14019408526E+03  0.12500147460E+03 0.  0.
          2    1    1    2  501    0  0.34494045174E+02  0.56436068596E+01 -0.11765886795E+03  0.12274077831E+03  0.00000000000E+00 0. -1.
          1    1    1    2  502    0  0.12855129984E+02 -0.29239697458E+02  0.11068119615E+03  0.11519783615E+03  0.00000000000E+00 0. -1.
         22    1    3    3    0    0 -0.57435882340E+02  0.50472989445E+02  0.63800252082E+02  0.99583509726E+02  0.00000000000E+00 0. -1.
         22    1    3    3    0    0  0.10086707182E+02 -0.26876898847E+02 -0.28724719175E+02  0.40610575533E+02  0.00000000000E+00 0. -1.
</event>
<event>
 7    1  0.5779468E-006  0.1582013E+03  0.7818608E-02  0.1254914E+00
          2   -1    0    0  502    0  0.00000000000E+00  0.00000000000E+00  0.44649481193E+03  0.44649481193E+03  0.00000000000E+00 0. -1.
          1   -1    0    0  501    0 -0.00000000000E+00 -0.00000000000E+00 -0.86721931531E+03  0.86721931531E+03  0.00000000000E+00 0. -1.
         25    2    1    2    0    0  0.88429192712E+02  0.21090604897E+03 -0.23035758157E+02  0.26164132266E+03  0.12499780779E+03 0.  0.
          2    1    1    2  501    0 -0.17663591674E+02 -0.78920291655E+02 -0.70531145559E+03  0.70993285901E+03  0.00000000000E+00 0. -1.
          1    1    1    2  502    0 -0.70765601037E+02 -0.13198575731E+03  0.30762271037E+03  0.34213994558E+03  0.00000000000E+00 0. -1.
         22    1    3    3    0    0  0.37825407148E+01  0.68088843641E+02 -0.60823350935E+02  0.91377668287E+02  0.00000000000E+00 0.  1.
         22    1    3    3    0    0  0.84646651997E+02  0.14281720533E+03  0.37787592777E+02  0.17026365437E+03  0.00000000000E+00 0.  1.
</event>
<event>
 7    1  0.5779468E-006  0.9658643E+02  0.7818608E-02  0.1335611E+00
          2   -1    0    0  502    0  0.00000000000E+00  0.00000000000E+00  0.59195200023E+02  0.59195200023E+02  0.00000000000E+00 0. -1.
          1   -1    0    0  501    0 -0.00000000000E+00 -0.00000000000E+00 -0.56055900376E+03  0.56055900376E+03  0.00000000000E+00 0. -1.
         25    2    1    2    0    0  0.13174091065E+03  0.32727966657E+02 -0.22306688109E+03  0.28949982301E+03  0.12499810696E+03 0.  0.
          2    1    1    2  501    0 -0.72212211749E+02 -0.51964852044E+02 -0.24221077007E+03  0.25803295625E+03  0.00000000000E+00 0. -1.
          1    1    1    2  502    0 -0.59528698901E+02  0.19236885388E+02 -0.36086152578E+02  0.72221424523E+02  0.00000000000E+00 0. -1.
         22    1    3    3    0    0  0.86498203289E+02  0.48362278688E+02 -0.22028654707E+03  0.24155126162E+03  0.00000000000E+00 0. -1.
         22    1    3    3    0    0  0.45242707361E+02 -0.15634312031E+02 -0.27803340246E+01  0.47948561390E+02  0.00000000000E+00 0. -1.
</event>
<event>
 7    1  0.5779468E-006  0.1999568E+03  0.7818608E-02  0.1195995E+00
          2   -1    0    0  502    0  0.00000000000E+00  0.00000000000E+00  0.23294019278E+04  0.23294019278E+04  0.00000000000E+00 0. -1.
          1   -1    0    0  501    0 -0.00000000000E+00 -0.00000000000E+00 -0.61028508463E+03  0.61028508463E+03  0.00000000000E+00 0. -1.
         25    2    1    2    0    0 -0.18246550128E+03  0.20926776642E+03  0.55625118683E+03  0.63413530292E+03  0.12500216932E+03 0.  0.
          2    1    1    2  501    0  0.17596880076E+03 -0.91297275832E+02 -0.55205265168E+03  0.58656827535E+03  0.00000000000E+00 0. -1.
          1    1    1    2  502    0  0.64967005204E+01 -0.11797049059E+03  0.17149183080E+04  0.17189834341E+04  0.00000000000E+00 0. -1.
         22    1    3    3    0    0 -0.25540299219E+02  0.10274434890E+03  0.13047027044E+03  0.16802142597E+03  0.00000000000E+00 0. -1.
         22    1    3    3    0    0 -0.15692520207E+03  0.10652341752E+03  0.42578091639E+03  0.46611387695E+03  0.00000000000E+00 0. -1.
</event>
<event>
 7    1  0.5779468E-006  0.1343989E+03  0.7818608E-02  0.1387550E+00
          2   -1    0    0  502    0  0.00000000000E+00  0.00000000000E+00  0.19157853387E+04  0.19157853387E+04  0.00000000000E+00 0. -1.
          1   -1    0    0  501    0 -0.00000000000E+00 -0.00000000000E+00 -0.20218296621E+04  0.20218296621E+04  0.00000000000E+00 0. -1.
         25    2    1    2    0    0 -0.29009509838E+02 -0.10488812889E+03  0.34806982030E+03  0.38551646287E+03  0.12500908806E+03 0.  0.
          2    1    1    2  501    0  0.21146668547E+02  0.13288858155E+03 -0.20007096613E+04  0.20052295892E+04  0.00000000000E+00 0. -1.
          1    1    1    2  502    0  0.78628412904E+01 -0.28000452654E+02  0.15465955176E+04  0.15468689487E+04  0.00000000000E+00 0. -1.
         22    1    3    3    0    0 -0.49258987497E+02 -0.99098433634E+02  0.15039750779E+03  0.18672535379E+03  0.00000000000E+00 0. -1.
         22    1    3    3    0    0  0.20249477659E+02 -0.57896952587E+01  0.19767231252E+03  0.19879110909E+03  0.00000000000E+00 0. -1.
</event>
<event>
 7    1  0.5779468E-006  0.1257800E+03  0.7818608E-02  0.1263708E+00
          2   -1    0    0  502    0  0.00000000000E+00  0.00000000000E+00  0.13929488807E+04  0.13929488807E+04  0.00000000000E+00 0. -1.
          1   -1    0    0  501    0 -0.00000000000E+00 -0.00000000000E+00 -0.64364472954E+03  0.64364472954E+03  0.00000000000E+00 0. -1.
         25    2    1    2    0    0 -0.16597653362E+03  0.13060889880E+03  0.17558241501E+03  0.30176390730E+03  0.12500150851E+03 0.  0.
          2    1    1    2  501    0  0.80186473457E+02 -0.93965536980E+02 -0.57206570423E+03  0.58525085444E+03  0.00000000000E+00 0. -1.
          1    1    1    2  502    0  0.85790060159E+02 -0.36643361819E+02  0.11457874404E+04  0.11495788485E+04  0.00000000000E+00 0. -1.
         22    1    3    3    0    0 -0.16332264143E+03  0.91829905772E+02  0.18331938342E+03  0.26213167137E+03  0.00000000000E+00 0. -1.
         22    1    3    3    0    0 -0.26538921842E+01  0.38778993027E+02 -0.77369684173E+01  0.39632235923E+02  0.00000000000E+00 0. -1.
</event>
<event>
 7    1  0.5779468E-006  0.4752538E+02  0.7818608E-02  0.1533928E+00
          2   -1    0    0  502    0  0.00000000000E+00  0.00000000000E+00  0.10698169505E+03  0.10698169505E+03  0.00000000000E+00 0. -1.
          1   -1    0    0  501    0 -0.00000000000E+00 -0.00000000000E+00 -0.34364839171E+03  0.34364839171E+03  0.00000000000E+00 0. -1.
         25    2    1    2    0    0  0.63985376787E+02 -0.11899992690E+02 -0.75125217101E+02  0.15970203156E+03  0.12500080948E+03 0.  0.
          2    1    1    2  501    0 -0.39155509641E+02  0.25591116139E+02 -0.22055255494E+03  0.22545839672E+03  0.00000000000E+00 0. -1.
          1    1    1    2  502    0 -0.24829867146E+02 -0.13691123449E+02  0.59011075379E+02  0.65469658477E+02  0.00000000000E+00 0. -1.
         22    1    3    3    0    0  0.31459454586E+01  0.52143550409E+02 -0.33447519125E+02  0.62028891315E+02  0.00000000000E+00 0.  1.
         22    1    3    3    0    0  0.60839431328E+02 -0.64043543100E+02 -0.41677697976E+02  0.97673140247E+02  0.00000000000E+00 0.  1.
</event>
<event>
 7    1  0.5779468E-006  0.5014034E+02  0.7818608E-02  0.1508332E+00
          2   -1    0    0  502    0  0.00000000000E+00  0.00000000000E+00  0.60110484307E+03  0.60110484307E+03  0.00000000000E+00 0. -1.
          1   -1    0    0  501    0 -0.00000000000E+00 -0.00000000000E+00 -0.28698900914E+03  0.28698900914E+03  0.00000000000E+00 0. -1.
         25    2    1    2    0    0  0.75877447071E+02 -0.16582209331E+02  0.13888421723E+03  0.20235724688E+03  0.12500909139E+03 0.  0.
          2    1    1    2  501    0 -0.31580903021E+02 -0.43884072752E+01 -0.25285315406E+03  0.25485550626E+03  0.00000000000E+00 0. -1.
          1    1    1    2  502    0 -0.44296544049E+02  0.20970616606E+02  0.42808477076E+03  0.43088109907E+03  0.00000000000E+00 0. -1.
         22    1    3    3    0    0  0.35660356980E+02  0.51807811272E+02  0.36114186992E+02  0.72525477391E+02  0.00000000000E+00 0. -1.
         22    1    3    3    0    0  0.40217090091E+02 -0.68390020604E+02  0.10277003023E+03  0.12983176949E+03  0.00000000000E+00 0. -1.
</event>
<event>
 7    1  0.5779468E-006  0.5304749E+02  0.7818608E-02  0.1448386E+00
          2   -1    0    0  502    0  0.00000000000E+00  0.00000000000E+00  0.26971648282E+03  0.26971648282E+03  0.00000000000E+00 0. -1.
          1   -1    0    0  501    0 -0.00000000000E+00 -0.00000000000E+00 -0.28628005282E+03  0.28628005282E+03  0.00000000000E+00 0. -1.
         25    2    1    2    0    0 -0.26365349835E+01  0.25287368829E+02 -0.13297176608E+03  0.18426267395E+03  0.12499936038E+03 0.  0.
          2    1    1    2  501    0  0.45507806523E+02  0.72237679078E+01 -0.12038655275E+03  0.12890331788E+03  0.00000000000E+00 0. -1.
          1    1    1    2  502    0 -0.42871271539E+02 -0.32511136737E+02  0.23679474883E+03  0.24283054381E+03  0.00000000000E+00 0. -1.
         22    1    3    3    0    0 -0.14672817186E+02 -0.11586796099E+02  0.19452428787E+02  0.26980407590E+02  0.00000000000E+00 0. -1.
         22    1    3    3    0    0  0.12036282202E+02  0.36874164928E+02 -0.15242419487E+03  0.15728226636E+03  0.00000000000E+00 0. -1.
</event>
<event>
 7    1  0.5779468E-006  0.1073962E+03  0.7818608E-02  0.1372001E+00
          2   -1    0    0  502    0  0.00000000000E+00  0.00000000000E+00  0.20553708981E+04  0.20553708981E+04  0.00000000000E+00 0. -1.
          1   -1    0    0  501    0 -0.00000000000E+00 -0.00000000000E+00 -0.10387017317E+03  0.10387017317E+03  0.00000000000E+00 0. -1.
         25    2    1    2    0    0  0.10736132035E+03 -0.11885619741E+02  0.17774041492E+03  0.24265770885E+03  0.12499354986E+03 0.  0.
          2    1    1    2  501    0 -0.36794135371E+01  0.41154168939E+02 -0.63722066222E+02  0.75945410847E+02  0.00000000000E+00 0. -1.
          1    1    1    2  502    0 -0.10368190681E+03 -0.29268549199E+02  0.18374823762E+04  0.18406379515E+04  0.00000000000E+00 0. -1.
         22    1    3    3    0    0  0.15690166964E+02  0.44706004318E+02  0.19521740745E+02  0.51243599826E+02  0.00000000000E+00 0. -1.
         22    1    3    3    0    0  0.91671153383E+02 -0.56591624058E+02  0.15821867417E+03  0.19141410902E+03  0.00000000000E+00 0. -1.
</event>
<event>
 7    1  0.5779468E-006  0.4161375E+02  0.7818608E-02  0.1577459E+00
          2   -1    0    0  502    0  0.00000000000E+00  0.00000000000E+00  0.25616618028E+03  0.25616618028E+03  0.00000000000E+00 0. -1.
          1   -1    0    0  501    0 -0.00000000000E+00 -0.00000000000E+00 -0.97544091604E+03  0.97544091604E+03  0.00000000000E+00 0. -1.
         25    2    1    2    0    0  0.44510186652E+02  0.72480604139E+00 -0.48487998327E+02  0.14127063952E+03  0.12499850218E+03 0.  0.
          2    1    1    2  501    0 -0.91155346367E+01 -0.22777824862E+02 -0.87831600877E+03  0.87865859897E+03  0.00000000000E+00 0. -1.
          1    1    1    2  502    0 -0.35394652015E+02  0.22053018821E+02  0.20752927135E+03  0.21167785783E+03  0.00000000000E+00 0. -1.
         22    1    3    3    0    0 -0.25223100407E+02 -0.92046324660E+01  0.26962889130E+02  0.38051641794E+02  0.00000000000E+00 0. -1.
         22    1    3    3    0    0  0.69733287059E+02  0.99294385074E+01 -0.75450887457E+02  0.10321899772E+03  0.00000000000E+00 0. -1.
</event>
<event>
 7    1  0.5779468E-006  0.5376099E+02  0.7818608E-02  0.1489101E+00
          2   -1    0    0  502    0  0.00000000000E+00  0.00000000000E+00  0.39977317484E+02  0.39977317484E+02  0.00000000000E+00 0. -1.
          1   -1    0    0  501    0 -0.00000000000E+00 -0.00000000000E+00 -0.11559729076E+04  0.11559729076E+04  0.00000000000E+00 0. -1.
         25    2    1    2    0    0 -0.21530195708E+00  0.23999062961E+02 -0.69598993951E+03  0.70753280898E+03  0.12499871399E+03 0.  0.
          2    1    1    2  501    0  0.20996752150E+02  0.26673326447E+02 -0.43118556889E+03  0.43251973916E+03  0.00000000000E+00 0. -1.
          1    1    1    2  502    0 -0.20781450193E+02 -0.50672389408E+02  0.11179918247E+02  0.55897676986E+02  0.00000000000E+00 0. -1.
         22    1    3    3    0    0 -0.47329052091E+02  0.13173979888E+02 -0.57714712398E+03  0.57923431842E+03  0.00000000000E+00 0.  1.
         22    1    3    3    0    0  0.47113750134E+02  0.10825083073E+02 -0.11884281553E+03  0.12829849055E+03  0.00000000000E+00 0.  1.
</event>
<event>
 7    1  0.5779468E-006  0.1202979E+03  0.7818608E-02  0.1272372E+00
          2   -1    0    0  502    0  0.00000000000E+00  0.00000000000E+00  0.16599689927E+04  0.16599689927E+04  0.00000000000E+00 0. -1.
          1   -1    0    0  501    0 -0.00000000000E+00 -0.00000000000E+00 -0.71213825179E+03  0.71213825179E+03  0.00000000000E+00 0. -1.
         25    2    1    2    0    0  0.63073577798E+02  0.26854110958E+02  0.53271070917E+02  0.15219041622E+03  0.12499878520E+03 0.  0.
          2    1    1    2  501    0 -0.47060319285E+02 -0.11508981792E+03 -0.65553870718E+03  0.66722660052E+03  0.00000000000E+00 0. -1.
          1    1    1    2  502    0 -0.16013258513E+02  0.88235706958E+02  0.15500983772E+04  0.15526902278E+04  0.00000000000E+00 0. -1.
         22    1    3    3    0    0  0.67613706510E+02  0.44541708090E+02  0.83858370592E+02  0.11656673362E+03  0.00000000000E+00 0. -1.
         22    1    3    3    0    0 -0.45401287119E+01 -0.17687597132E+02 -0.30587299675E+02  0.35623682606E+02  0.00000000000E+00 0. -1.
</event>
<event>
 7    1  0.5779468E-006  0.2581749E+03  0.7818608E-02  0.1170596E+00
          2   -1    0    0  502    0  0.00000000000E+00  0.00000000000E+00  0.70408495734E+03  0.70408495734E+03  0.00000000000E+00 0. -1.
          1   -1    0    0  501    0 -0.00000000000E+00 -0.00000000000E+00 -0.26911543226E+04  0.26911543226E+04  0.00000000000E+00 0. -1.
         25    2    1    2    0    0  0.37276655031E+02 -0.36918813586E+03 -0.53720035615E+03  0.66475555765E+03  0.12500520030E+03 0.  0.
          2    1    1    2  501    0  0.13469232728E+02  0.12079658209E+03 -0.20632227689E+04  0.20667998037E+04  0.00000000000E+00 0. -1.
          1    1    1    2  502    0 -0.50745887758E+02  0.24839155377E+03  0.61335375981E+03  0.66368391858E+03  0.00000000000E+00 0. -1.
         22    1    3    3    0    0 -0.32636522178E+02 -0.62217087542E+02 -0.15057428394E+03  0.16615872997E+03  0.00000000000E+00 0.  1.
         22    1    3    3    0    0  0.69913177208E+02 -0.30697104832E+03 -0.38662607221E+03  0.49859682768E+03  0.00000000000E+00 0.  1.
</event>
<event>
 7    1  0.5779468E-006  0.6298140E+02  0.7818608E-02  0.1402355E+00
          2   -1    0    0  502    0  0.00000000000E+00  0.00000000000E+00  0.94814688987E+03  0.94814688987E+03  0.00000000000E+00 0. -1.
          1   -1    0    0  501    0 -0.00000000000E+00 -0.00000000000E+00 -0.66489362128E+03  0.66489362128E+03  0.00000000000E+00 0. -1.
         25    2    1    2    0    0  0.32878356013E+02 -0.10880509578E+03 -0.80446018005E+02  0.18712290792E+03  0.12499554269E+03 0.  0.
          2    1    1    2  501    0 -0.29618675794E+02  0.53752352124E+02 -0.52848189946E+03  0.53203355099E+03  0.00000000000E+00 0. -1.
          1    1    1    2  502    0 -0.32596802186E+01  0.55052743661E+02  0.89218118606E+03  0.89388405225E+03  0.00000000000E+00 0. -1.
         22    1    3    3    0    0 -0.62884903220E+01 -0.12572505241E+03 -0.54385245236E+02  0.13712800157E+03  0.00000000000E+00 0.  1.
         22    1    3    3    0    0  0.39166846335E+02  0.16919956626E+02 -0.26060772768E+02  0.49994906354E+02  0.00000000000E+00 0.  1.
</event>
<event>
 7    1  0.5779468E-006  0.1236376E+03  0.7818608E-02  0.1240261E+00
          2   -1    0    0  502    0  0.00000000000E+00  0.00000000000E+00  0.21368657315E+04  0.21368657315E+04  0.00000000000E+00 0. -1.
          1   -1    0    0  501    0 -0.00000000000E+00 -0.00000000000E+00 -0.92837477049E+02  0.92837477049E+02  0.00000000000E+00 0. -1.
         25    2    1    2    0    0 -0.24620279802E+02  0.37350021155E+02  0.64653538218E+03  0.66002527668E+03  0.12499673269E+03 0.  0.
          2    1    1    2  501    0  0.13060720903E+03  0.18630826212E+02 -0.31523696452E+02  0.13564326070E+03  0.00000000000E+00 0. -1.
          1    1    1    2  502    0 -0.10598692923E+03 -0.55980847367E+02  0.14290165687E+04  0.14340346712E+04  0.00000000000E+00 0. -1.
         22    1    3    3    0    0 -0.31344008870E+02  0.76324650177E+02  0.29662539131E+03  0.30788719019E+03  0.00000000000E+00 0.  1.
         22    1    3    3    0    0  0.67237290677E+01 -0.38974629022E+02  0.34990999087E+03  0.35213808648E+03  0.00000000000E+00 0.  1.
</event>
<event>
 7    1  0.5779468E-006  0.8402826E+02  0.7818608E-02  0.1424672E+00
          2   -1    0    0  502    0  0.00000000000E+00  0.00000000000E+00  0.77396678173E+03  0.77396678173E+03  0.00000000000E+00 0. -1.
          1   -1    0    0  501    0 -0.00000000000E+00 -0.00000000000E+00 -0.12643187766E+03  0.12643187766E+03  0.00000000000E+00 0. -1.
         25    2    1    2    0    0  0.31859118570E+02 -0.65958647693E+02  0.14282626665E+03  0.20345135733E+03  0.12501026242E+03 0.  0.
          2    1    1    2  501    0  0.33225998441E+02  0.10212064834E+02 -0.89800701454E+02  0.96293401758E+02  0.00000000000E+00 0. -1.
          1    1    1    2  502    0 -0.65085117010E+02  0.55746582859E+02  0.59450933887E+03  0.60065390031E+03  0.00000000000E+00 0. -1.
         22    1    3    3    0    0  0.43192690521E+01  0.35198010762E+02  0.16002783611E+02  0.38905592529E+02  0.00000000000E+00 0.  1.
         22    1    3    3    0    0  0.27539849518E+02 -0.10115665846E+03  0.12682348304E+03  0.16454576480E+03  0.00000000000E+00 0.  1.
</event>
<event>
 7    1  0.5779468E-006  0.1234885E+03  0.7818608E-02  0.1335342E+00
          2   -1    0    0  502    0  0.00000000000E+00  0.00000000000E+00  0.19929242784E+03  0.19929242784E+03  0.00000000000E+00 0. -1.
          1   -1    0    0  501    0 -0.00000000000E+00 -0.00000000000E+00 -0.87814993921E+03  0.87814993921E+03  0.00000000000E+00 0. -1.
         25    2    1    2    0    0  0.71583633537E+02  0.31945115648E+02 -0.24772759834E+03  0.28833795932E+03  0.12500043519E+03 0.  0.
          2    1    1    2  501    0  0.46331440982E+02  0.16090417362E+02 -0.58631979277E+03  0.58836757503E+03  0.00000000000E+00 0. -1.
          1    1    1    2  502    0 -0.11791507452E+03 -0.48035533011E+02  0.15518987975E+03  0.20073683271E+03  0.00000000000E+00 0. -1.
         22    1    3    3    0    0  0.45937579164E+02  0.64243154590E+02 -0.68872829073E+02  0.10478984052E+03  0.00000000000E+00 0.  1.
         22    1    3    3    0    0  0.25646054373E+02 -0.32298038941E+02 -0.17885476927E+03  0.18354811880E+03  0.00000000000E+00 0.  1.
</event>
<event>
 7    1  0.5779468E-006  0.1092296E+03  0.7818608E-02  0.1409025E+00
          2   -1    0    0  502    0  0.00000000000E+00  0.00000000000E+00  0.16205680845E+04  0.16205680845E+04  0.00000000000E+00 0. -1.
          1   -1    0    0  501    0 -0.00000000000E+00 -0.00000000000E+00 -0.27951580527E+02  0.27951580527E+02  0.00000000000E+00 0. -1.
         25    2    1    2    0    0  0.11672247823E+03 -0.19838571780E+02  0.70367099394E+03  0.72442764833E+03  0.12499937635E+03 0.  0.
          2    1    1    2  501    0 -0.10739997052E+03 -0.88615038700E+01  0.15089790680E+03  0.18542777083E+03  0.00000000000E+00 0. -1.
          1    1    1    2  502    0 -0.93225077077E+01  0.28700075650E+02  0.73804760320E+03  0.73866424584E+03  0.00000000000E+00 0. -1.
         22    1    3    3    0    0 -0.26468279651E+00  0.11889123240E+02  0.16346996589E+01  0.12003897341E+02  0.00000000000E+00 0. -1.
         22    1    3    3    0    0  0.11698716102E+03 -0.31727695020E+02  0.70203629429E+03  0.71242375099E+03  0.00000000000E+00 0. -1.
</event>
<event>
 7    1  0.5779468E-006  0.9201842E+02  0.7818608E-02  0.1426555E+00
          2   -1    0    0  502    0  0.00000000000E+00  0.00000000000E+00  0.64595851395E+03  0.64595851395E+03  0.00000000000E+00 0. -1.
          1   -1    0    0  501    0 -0.00000000000E+00 -0.00000000000E+00 -0.36197716827E+03  0.36197716827E+03  0.00000000000E+00 0. -1.
         25    2    1    2    0    0  0.67478009112E+02 -0.16639945307E+02  0.32410348757E+03  0.35425643236E+03  0.12499751886E+03 0.  0.
          2    1    1    2  501    0 -0.80815859988E+02  0.44943703560E+02 -0.33990946925E+03  0.35226351926E+03  0.00000000000E+00 0. -1.
          1    1    1    2  502    0  0.13337850876E+02 -0.28303758253E+02  0.29978732737E+03  0.30141573059E+03  0.00000000000E+00 0. -1.
         22    1    3    3    0    0  0.63814196709E+02 -0.18574036789E+02  0.33555752146E+03  0.34207615636E+03  0.00000000000E+00 0. -1.
         22    1    3    3    0    0  0.36638124032E+01  0.19340914823E+01 -0.11454033886E+02  0.12180276001E+02  0.00000000000E+00 0. -1.
</event>
<event>
 7    1  0.5779468E-006  0.1445669E+03  0.7818608E-02  0.1311991E+00
          2   -1    0    0  502    0  0.00000000000E+00  0.00000000000E+00  0.15257445418E+04  0.15257445418E+04  0.00000000000E+00 0. -1.
          1   -1    0    0  501    0 -0.00000000000E+00 -0.00000000000E+00 -0.13258827022E+04  0.13258827022E+04  0.00000000000E+00 0. -1.
         25    2    1    2    0    0 -0.33456668883E+02  0.12931738947E+03 -0.14095074432E+03  0.23094192382E+03  0.12499889576E+03 0.  0.
          2    1    1    2  501    0  0.84152669143E+02 -0.11995782110E+03 -0.11347754333E+04  0.11441970261E+04  0.00000000000E+00 0. -1.
          1    1    1    2  502    0 -0.50696000260E+02 -0.93595683692E+01  0.14755880172E+04  0.14764882940E+04  0.00000000000E+00 0. -1.
         22    1    3    3    0    0 -0.53596765943E+02  0.14675353890E+03 -0.11818597385E+03  0.19590083949E+03  0.00000000000E+00 0.  1.
         22    1    3    3    0    0  0.20140097060E+02 -0.17436149427E+02 -0.22764770471E+02  0.35041084330E+02  0.00000000000E+00 0.  1.
</event>
<event>
 7    1  0.5779468E-006  0.2034641E+03  0.7818608E-02  0.1258083E+00
          2   -1    0    0  502    0  0.00000000000E+00  0.00000000000E+00  0.12924113251E+03  0.12924113251E+03  0.00000000000E+00 0. -1.
          1   -1    0    0  501    0 -0.00000000000E+00 -0.00000000000E+00 -0.16501515460E+04  0.16501515460E+04  0.00000000000E+00 0. -1.
         25    2    1    2    0    0  0.55131961241E+02 -0.22840200186E+03 -0.22137790358E+03  0.34618068947E+03  0.12500354379E+03 0.  0.
          2    1    1    2  501    0  0.24000804374E+02  0.56017797757E+02 -0.12295113827E+04  0.12310208254E+04  0.00000000000E+00 0. -1.
          1    1    1    2  502    0 -0.79132765615E+02  0.17238420410E+03 -0.70021127206E+02  0.20219116369E+03  0.00000000000E+00 0. -1.
         22    1    3    3    0    0 -0.21451097784E+02 -0.10151034345E+03 -0.38219530905E+02  0.11056777092E+03  0.00000000000E+00 0. -1.
         22    1    3    3    0    0  0.76583059025E+02 -0.12689165841E+03 -0.18315837268E+03  0.23561291855E+03  0.00000000000E+00 0. -1.
</event>
<event>
 7    1  0.5779468E-006  0.1457197E+03  0.7818608E-02  0.1421208E+00
          2   -1    0    0  502    0  0.00000000000E+00  0.00000000000E+00  0.26783766057E+03  0.26783766057E+03  0.00000000000E+00 0. -1.
          1   -1    0    0  501    0 -0.00000000000E+00 -0.00000000000E+00 -0.15763845425E+04  0.15763845425E+04  0.00000000000E+00 0. -1.
         25    2    1    2    0    0  0.91035438554E+02 -0.10911710245E+03  0.14743493055E+03  0.23989112809E+03  0.12496680148E+03 0.  0.
          2    1    1    2  501    0 -0.10819318109E+03  0.97747648747E+02 -0.15251813647E+04  0.15321352951E+04  0.00000000000E+00 0. -1.
          1    1    1    2  502    0  0.17157742532E+02  0.11369453701E+02  0.69199552215E+02  0.72195779883E+02  0.00000000000E+00 0. -1.
         22    1    3    3    0    0  0.10741369024E+03 -0.11624136492E+03  0.15403110029E+03  0.22085138810E+03  0.00000000000E+00 0. -1.
         22    1    3    3    0    0 -0.16378251684E+02  0.71242624691E+01 -0.65961697370E+01  0.19039739997E+02  0.00000000000E+00 0. -1.
</event>
<event>
 7    1  0.5779468E-006  0.9662731E+02  0.7818608E-02  0.1307930E+00
          2   -1    0    0  502    0  0.00000000000E+00  0.00000000000E+00  0.14749377632E+04  0.14749377632E+04  0.00000000000E+00 0. -1.
          1   -1    0    0  501    0 -0.00000000000E+00 -0.00000000000E+00 -0.17144956074E+03  0.17144956074E+03  0.00000000000E+00 0. -1.
         25    2    1    2    0    0 -0.10145803987E+03  0.61192919760E+02  0.23055487422E+02  0.17376769548E+03  0.12500139682E+03 0.  0.
          2    1    1    2  501    0  0.28038133493E+02 -0.93029554610E+02 -0.70041372969E+02  0.11977657905E+03  0.00000000000E+00 0. -1.
          1    1    1    2  502    0  0.73419906381E+02  0.31836634850E+02  0.13504740880E+04  0.13528430494E+04  0.00000000000E+00 0. -1.
         22    1    3    3    0    0 -0.83473109713E+02  0.94571972048E+02  0.39867737038E+02  0.13229155075E+03  0.00000000000E+00 0. -1.
         22    1    3    3    0    0 -0.17984930160E+02 -0.33379052288E+02 -0.16812249616E+02  0.41476144730E+02  0.00000000000E+00 0. -1.
</event>
<event>
 7    1  0.5779468E-006  0.2618430E+03  0.7818608E-02  0.1268843E+00
          2   -1    0    0  502    0  0.00000000000E+00  0.00000000000E+00  0.61940897350E+03  0.61940897350E+03  0.00000000000E+00 0. -1.
          1   -1    0    0  501    0 -0.00000000000E+00 -0.00000000000E+00 -0.17504930273E+04  0.17504930273E+04  0.00000000000E+00 0. -1.
         25    2    1    2    0    0  0.23205859095E+03  0.90967085583E+01  0.24649581419E+03  0.36099729829E+03  0.12499969287E+03 0.  0.
          2    1    1    2  501    0 -0.26203588128E+03  0.21211305213E+02 -0.16815417868E+04  0.17019681264E+04  0.00000000000E+00 0. -1.
          1    1    1    2  502    0  0.29977290323E+02 -0.30308013771E+02  0.30396191884E+03  0.30693657608E+03  0.00000000000E+00 0. -1.
         22    1    3    3    0    0  0.20474416079E+03  0.49746115863E+02  0.22259669104E+03  0.30650307386E+03  0.00000000000E+00 0.  1.
         22    1    3    3    0    0  0.27314430159E+02 -0.40649407304E+02  0.23899123152E+02  0.54494224433E+02  0.00000000000E+00 0.  1.
</event>
<event>
 7    1  0.5779468E-006  0.6302684E+02  0.7818608E-02  0.1421532E+00
          2   -1    0    0  502    0  0.00000000000E+00  0.00000000000E+00  0.36118961342E+03  0.36118961342E+03  0.00000000000E+00 0. -1.
          1   -1    0    0  501    0 -0.00000000000E+00 -0.00000000000E+00 -0.50637121938E+03  0.50637121938E+03  0.00000000000E+00 0. -1.
         25    2    1    2    0    0  0.45479646070E+02 -0.25405406025E+02 -0.28279958702E+02  0.13835543235E+03  0.12501454609E+03 0.  0.
          2    1    1    2  501    0 -0.61228203923E+02 -0.19375890209E+02 -0.41875064220E+03  0.42364657254E+03  0.00000000000E+00 0. -1.
          1    1    1    2  502    0  0.15748557853E+02  0.44781296235E+02  0.30184899494E+03  0.30555882791E+03  0.00000000000E+00 0. -1.
         22    1    3    3    0    0  0.21099604977E+02  0.50980011329E+02 -0.13848430688E+02  0.56885269779E+02  0.00000000000E+00 0. -1.
         22    1    3    3    0    0  0.24380041093E+02 -0.76385417354E+02 -0.14431528014E+02  0.81470162568E+02  0.00000000000E+00 0. -1.
</event>
<event>
 7    1  0.5779468E-006  0.6169397E+02  0.7818608E-02  0.1420178E+00
          2   -1    0    0  502    0  0.00000000000E+00  0.00000000000E+00  0.78035547998E+03  0.78035547998E+03  0.00000000000E+00 0. -1.
          1   -1    0    0  501    0 -0.00000000000E+00 -0.00000000000E+00 -0.87082857370E+03  0.87082857370E+03  0.00000000000E+00 0. -1.
         25    2    1    2    0    0  0.16819611674E+02 -0.13949563668E+02  0.18396046622E+02  0.12820348163E+03  0.12498091257E+03 0.  0.
          2    1    1    2  501    0 -0.72852919096E+01  0.62015530904E+02 -0.81387848612E+03  0.81627029330E+03  0.00000000000E+00 0. -1.
          1    1    1    2  502    0 -0.95343197640E+01 -0.48065967236E+02  0.70500934578E+03  0.70671027875E+03  0.00000000000E+00 0. -1.
         22    1    3    3    0    0  0.60099665521E+02 -0.43430356119E+02  0.60163942703E+01  0.74393296932E+02  0.00000000000E+00 0.  1.
         22    1    3    3    0    0 -0.43280053848E+02  0.29480792452E+02  0.12379652352E+02  0.53810184696E+02  0.00000000000E+00 0.  1.
</event>
<event>
 7    1  0.5779468E-006  0.1616735E+03  0.7818608E-02  0.1340231E+00
          2   -1    0    0  502    0  0.00000000000E+00  0.00000000000E+00  0.11234316717E+04  0.11234316717E+04  0.00000000000E+00 0. -1.
          1   -1    0    0  501    0 -0.00000000000E+00 -0.00000000000E+00 -0.21812743284E+04  0.21812743284E+04  0.00000000000E+00 0. -1.
         25    2    1    2    0    0 -0.17425949998E+03  0.75573036343E+02  0.14606916961E+03  0.27025566188E+03  0.12499705322E+03 0.  0.
          2    1    1    2  501    0  0.35850549580E+02  0.19465294732E+01 -0.21121533507E+04  0.21124584796E+04  0.00000000000E+00 0. -1.
          1    1    1    2  502    0  0.13840895040E+03 -0.77519565817E+02  0.90824152445E+03  0.92199185863E+03  0.00000000000E+00 0. -1.
         22    1    3    3    0    0 -0.12410934647E+03 -0.40505104506E+01  0.44785856849E+02  0.13200496009E+03  0.00000000000E+00 0. -1.
         22    1    3    3    0    0 -0.50150153516E+02  0.79623546794E+02  0.10128331276E+03  0.13825070179E+03  0.00000000000E+00 0. -1.
</event>
<event>
 7    1  0.5779468E-006  0.1482122E+03  0.7818608E-02  0.1361352E+00
          2   -1    0    0  502    0  0.00000000000E+00  0.00000000000E+00  0.41765526494E+03  0.41765526494E+03  0.00000000000E+00 0. -1.
          1   -1    0    0  501    0 -0.00000000000E+00 -0.00000000000E+00 -0.16771653248E+04  0.16771653248E+04  0.00000000000E+00 0. -1.
         25    2    1    2    0    0  0.79652795328E+02 -0.13866854608E+03  0.23623410520E+03  0.31145629688E+03  0.12499975573E+03 0.  0.
          2    1    1    2  501    0 -0.97653305335E+02  0.11135303256E+03 -0.16343008634E+04  0.16409981652E+04  0.00000000000E+00 0. -1.
          1    1    1    2  502    0  0.18000510007E+02  0.27315513520E+02  0.13855669838E+03  0.14236612767E+03  0.00000000000E+00 0. -1.
         22    1    3    3    0    0  0.45765848705E+02 -0.10869477051E+03  0.65655935484E+02  0.13498062049E+03  0.00000000000E+00 0. -1.
         22    1    3    3    0    0  0.33886946623E+02 -0.29973775566E+02  0.17057816971E+03  0.17647567639E+03  0.00000000000E+00 0. -1.
</event>
<event>
 7    1  0.5779468E-006  0.8730307E+02  0.7818608E-02  0.1373549E+00
          2   -1    0    0  502    0  0.00000000000E+00  0.00000000000E+00  0.13518844749E+04  0.13518844749E+04  0.00000000000E+00 0. -1.
          1   -1    0    0  501    0 -0.00000000000E+00 -0.00000000000E+00 -0.17086327310E+03  0.17086327310E+03  0.00000000000E+00 0. -1.
         25    2    1    2    0    0  0.98252597277E+02  0.28401476084E+02  0.60142175217E+03  0.62272997196E+03  0.12499710906E+03 0.  0.
          2    1    1    2  501    0 -0.61179181718E+02 -0.62223360252E+02 -0.14739733630E+03  0.17129102016E+03  0.00000000000E+00 0. -1.
          1    1    1    2  502    0 -0.37073415560E+02  0.33821884167E+02  0.72699678592E+03  0.72872675587E+03  0.00000000000E+00 0. -1.
         22    1    3    3    0    0  0.99123839864E+02 -0.21713960205E+01  0.57116839797E+03  0.57970991834E+03  0.00000000000E+00 0. -1.
         22    1    3    3    0    0 -0.87124258636E+00  0.30572872105E+02  0.30253354206E+02  0.43020053616E+02  0.00000000000E+00 0. -1.
</event>
<event>
 7    1  0.5779468E-006  0.9989989E+02  0.7818608E-02  0.1306498E+00
          2   -1    0    0  502    0  0.00000000000E+00  0.00000000000E+00  0.23804043640E+03  0.23804043640E+03  0.00000000000E+00 0. -1.
          1   -1    0    0  501    0 -0.00000000000E+00 -0.00000000000E+00 -0.10495360716E+04  0.10495360716E+04  0.00000000000E+00 0. -1.
         25    2    1    2    0    0  0.80931484014E+02 -0.12387377695E+03 -0.46334713149E+02  0.19916526299E+03  0.12500111446E+03 0.  0.
          2    1    1    2  501    0  0.36437156260E+01  0.78335569280E+02 -0.91067886140E+03  0.91404908330E+03  0.00000000000E+00 0. -1.
          1    1    1    2  502    0 -0.84575199640E+02  0.45538207675E+02  0.14551793937E+03  0.17436216170E+03  0.00000000000E+00 0. -1.
         22    1    3    3    0    0  0.10329996731E+03 -0.13376005673E+03 -0.37136690290E+02  0.17303690297E+03  0.00000000000E+00 0.  1.
         22    1    3    3    0    0 -0.22368483294E+02  0.98862797791E+01 -0.91980228592E+01  0.26128360018E+02  0.00000000000E+00 0.  1.
</event>
<event>
 7    1  0.5779468E-006  0.3607189E+03  0.7818608E-02  0.1170808E+00
          2   -1    0    0  502    0  0.00000000000E+00  0.00000000000E+00  0.22891296666E+04  0.22891296666E+04  0.00000000000E+00 0. -1.
          1   -1    0    0  501    0 -0.00000000000E+00 -0.00000000000E+00 -0.49559241240E+03  0.49559241240E+03  0.00000000000E+00 0. -1.
         25    2    1    2    0    0 -0.24448996193E+02  0.38507142807E+03 -0.29233085275E+03  0.49996088622E+03  0.12500320855E+03 0.  0.
          2    1    1    2  501    0 -0.78006392126E+01 -0.30450375561E+03  0.13705561639E+03  0.33401740843E+03  0.00000000000E+00 0. -1.
          1    1    1    2  502    0  0.32249635406E+02 -0.80567672466E+02  0.19488124905E+04  0.19507437843E+04  0.00000000000E+00 0. -1.
         22    1    3    3    0    0  0.20389773617E+02  0.25415152878E+03 -0.12854221100E+03  0.28553781266E+03  0.00000000000E+00 0. -1.
         22    1    3    3    0    0 -0.44838769810E+02  0.13091989929E+03 -0.16378864175E+03  0.21442307356E+03  0.00000000000E+00 0. -1.
</event>
<event>
 7    1  0.5779468E-006  0.1042656E+03  0.7818608E-02  0.1446172E+00
          2   -1    0    0  502    0  0.00000000000E+00  0.00000000000E+00  0.50406401804E+02  0.50406401804E+02  0.00000000000E+00 0. -1.
          1   -1    0    0  501    0 -0.00000000000E+00 -0.00000000000E+00 -0.14156684078E+04  0.14156684078E+04  0.00000000000E+00 0. -1.
         25    2    1    2    0    0  0.77330239619E+02 -0.79456753251E+02 -0.53609644775E+03  0.56153212592E+03  0.12500234217E+03 0.  0.
          2    1    1    2  501    0  0.90206424095E+01  0.22056778531E+02 -0.79501987630E+03  0.79537694031E+03  0.00000000000E+00 0. -1.
          1    1    1    2  502    0 -0.86350882028E+02  0.57399974719E+02 -0.34145681902E+02  0.10916574333E+03  0.00000000000E+00 0. -1.
         22    1    3    3    0    0  0.60543529106E+02 -0.93342352277E+02 -0.52578913339E+03  0.53743141556E+03  0.00000000000E+00 0. -1.
         22    1    3    3    0    0  0.16786710513E+02  0.13885599027E+02 -0.10307314365E+02  0.24100710354E+02  0.00000000000E+00 0. -1.
</event>
<event>
 7    1  0.5779468E-006  0.1019436E+03  0.7818608E-02  0.1341470E+00
          2   -1    0    0  502    0  0.00000000000E+00  0.00000000000E+00  0.84031114097E+03  0.84031114097E+03  0.00000000000E+00 0. -1.
          1   -1    0    0  501    0 -0.00000000000E+00 -0.00000000000E+00 -0.28207567038E+03  0.28207567038E+03  0.00000000000E+00 0. -1.
         25    2    1    2    0    0 -0.47338633558E+02  0.61931443262E+02  0.10603706540E+03  0.18150925971E+03  0.12500120891E+03 0.  0.
          2    1    1    2  501    0 -0.51120676534E+02 -0.23665296129E+02 -0.23701424900E+03  0.24361675649E+03  0.00000000000E+00 0. -1.
          1    1    1    2  502    0  0.98459310092E+02 -0.38266147133E+02  0.68921265419E+03  0.69726079515E+03  0.00000000000E+00 0. -1.
         22    1    3    3    0    0 -0.10970020700E+02  0.71293392455E+02  0.12117449910E+03  0.14101896466E+03  0.00000000000E+00 0. -1.
         22    1    3    3    0    0 -0.36368612858E+02 -0.93619491931E+01 -0.15137433698E+02  0.40490295045E+02  0.00000000000E+00 0. -1.
</event>
<event>
 7    1  0.5779468E-006  0.1983294E+03  0.7818608E-02  0.1327875E+00
          2   -1    0    0  502    0  0.00000000000E+00  0.00000000000E+00  0.31944971564E+04  0.31944971564E+04  0.00000000000E+00 0. -1.
          1   -1    0    0  501    0 -0.00000000000E+00 -0.00000000000E+00 -0.45605096298E+03  0.45605096298E+03  0.00000000000E+00 0. -1.
         25    2    1    2    0    0 -0.20001090467E+03  0.29810181486E+02  0.55331506763E+02  0.24409037940E+03  0.12500211504E+03 0.  0.
          2    1    1    2  501    0  0.17463598273E+01 -0.32559177762E+02 -0.35770106089E+03  0.35918407369E+03  0.00000000000E+00 0. -1.
          1    1    1    2  502    0  0.19826454485E+03  0.27489962762E+01  0.30408157475E+04  0.30472736663E+04  0.00000000000E+00 0. -1.
         22    1    3    3    0    0  0.29297181298E+01 -0.90070117025E+01  0.35246404221E+02  0.36496828885E+02  0.00000000000E+00 0.  1.
         22    1    3    3    0    0 -0.20294062280E+03  0.38817193188E+02  0.20085102542E+02  0.20759355051E+03  0.00000000000E+00 0.  1.
</event>
<event>
 7    1  0.5779468E-006  0.8347266E+02  0.7818608E-02  0.1335841E+00
          2   -1    0    0  502    0  0.00000000000E+00  0.00000000000E+00  0.21769901939E+03  0.21769901939E+03  0.00000000000E+00 0. -1.
          1   -1    0    0  501    0 -0.00000000000E+00 -0.00000000000E+00 -0.89123191235E+03  0.89123191235E+03  0.00000000000E+00 0. -1.
         25    2    1    2    0    0 -0.35283363407E+01  0.19841699991E+02 -0.19886591781E+03  0.23575095960E+03  0.12499887788E+03 0.  0.
          2    1    1    2  501    0  0.46981803197E+02  0.54879325039E+02 -0.66249238287E+03  0.66641967821E+03  0.00000000000E+00 0. -1.
          1    1    1    2  502    0 -0.43453466857E+02 -0.74721025029E+02  0.18782540771E+03  0.20676029393E+03  0.00000000000E+00 0. -1.
         22    1    3    3    0    0 -0.58060236444E+02  0.27096241089E+02 -0.14606347718E+03  0.15949839091E+03  0.00000000000E+00 0. -1.
         22    1    3    3    0    0  0.54531900104E+02 -0.72545410986E+01 -0.52802440624E+02  0.76252568686E+02  0.00000000000E+00 0. -1.
</event>
<event>
 7    1  0.5779468E-006  0.8834828E+02  0.7818608E-02  0.1335025E+00
          2   -1    0    0  502    0  0.00000000000E+00  0.00000000000E+00  0.60580991914E+03  0.60580991914E+03  0.00000000000E+00 0. -1.
          1   -1    0    0  501    0 -0.00000000000E+00 -0.00000000000E+00 -0.12344394937E+03  0.12344394937E+03  0.00000000000E+00 0. -1.
         25    2    1    2    0    0 -0.71993977737E+02  0.40090126082E+02  0.14197511355E+03  0.20633097018E+03  0.12500074139E+03 0.  0.
          2    1    1    2  501    0  0.23859750443E+02 -0.89169550724E+02 -0.64261815020E+02  0.11247256260E+03  0.00000000000E+00 0. -1.
          1    1    1    2  502    0  0.48134227294E+02  0.49079424642E+02  0.40465267124E+03  0.41045033573E+03  0.00000000000E+00 0. -1.
         22    1    3    3    0    0  0.23553054190E+02 -0.23240388287E+02  0.46935932107E+02  0.57426855496E+02  0.00000000000E+00 0. -1.
         22    1    3    3    0    0 -0.95547031927E+02  0.63330514369E+02  0.95039181447E+02  0.14890411469E+03  0.00000000000E+00 0. -1.
</event>
<event>
 7    1  0.5779468E-006  0.9520949E+02  0.7818608E-02  0.1444181E+00
          2   -1    0    0  502    0  0.00000000000E+00  0.00000000000E+00  0.32868167849E+03  0.32868167849E+03  0.00000000000E+00 0. -1.
          1   -1    0    0  501    0 -0.00000000000E+00 -0.00000000000E+00 -0.19311056126E+04  0.19311056126E+04  0.00000000000E+00 0. -1.
         25    2    1    2    0    0 -0.48145327144E+02 -0.50690593642E+02 -0.94969439780E+03  0.96043351871E+03  0.12500234333E+03 0.  0.
          2    1    1    2  501    0 -0.11203550554E+02 -0.23998685326E+02 -0.96881959339E+03  0.96918154180E+03  0.00000000000E+00 0. -1.
          1    1    1    2  502    0  0.59348877698E+02  0.74689278968E+02  0.31609005707E+03  0.33017223059E+03  0.00000000000E+00 0. -1.
         22    1    3    3    0    0  0.23724500168E+02 -0.64881961665E+02 -0.40787545037E+03  0.41368454633E+03  0.00000000000E+00 0. -1.
         22    1    3    3    0    0 -0.71869827312E+02  0.14191368023E+02 -0.54181894743E+03  0.54674897238E+03  0.00000000000E+00 0. -1.
</event>
<event>
 7    1  0.5779468E-006  0.7495230E+02  0.7818608E-02  0.1378189E+00
          2   -1    0    0  502    0  0.00000000000E+00  0.00000000000E+00  0.16102606679E+03  0.16102606679E+03  0.00000000000E+00 0. -1.
          1   -1    0    0  501    0 -0.00000000000E+00 -0.00000000000E+00 -0.27688102793E+03  0.27688102793E+03  0.00000000000E+00 0. -1.
         25    2    1    2    0    0 -0.96705835922E+02 -0.74948281198E+02 -0.57299741185E+02  0.18406119539E+03  0.12500399894E+03 0.  0.
          2    1    1    2  501    0  0.52261655757E+02  0.20855188675E+02 -0.13735766947E+03  0.14843634636E+03  0.00000000000E+00 0. -1.
          1    1    1    2  502    0  0.44444180165E+02  0.54093092524E+02  0.78802449516E+02  0.10540955298E+03  0.00000000000E+00 0. -1.
         22    1    3    3    0    0  0.81873712314E+01  0.27246044892E+02 -0.10351945048E+02  0.30274457488E+02  0.00000000000E+00 0. -1.
         22    1    3    3    0    0 -0.10489320715E+03 -0.10219432609E+03 -0.46947796138E+02  0.15378673790E+03  0.00000000000E+00 0. -1.
</event>
<event>
 7    1  0.5779468E-006  0.2048485E+03  0.7818608E-02  0.1181655E+00
          2   -1    0    0  502    0  0.00000000000E+00  0.00000000000E+00  0.12090448254E+04  0.12090448254E+04  0.00000000000E+00 0. -1.
          1   -1    0    0  501    0 -0.00000000000E+00 -0.00000000000E+00 -0.52606060437E+03  0.52606060437E+03  0.00000000000E+00 0. -1.
         25    2    1    2    0    0  0.14992830305E+02  0.13234420854E+03  0.25680683404E+03  0.31514243750E+03  0.12500092563E+03 0.  0.
          2    1    1    2  501    0 -0.14869536851E+03 -0.15219271631E+03 -0.46880498077E+03  0.51483108444E+03  0.00000000000E+00 0. -1.
          1    1    1    2  502    0  0.13370253821E+03  0.19848507772E+02  0.89498236779E+03  0.90513190786E+03  0.00000000000E+00 0. -1.
         22    1    3    3    0    0  0.69909123451E+02  0.65382211412E+02  0.12518813030E+03  0.15758866418E+03  0.00000000000E+00 0.  1.
         22    1    3    3    0    0 -0.54916293147E+02  0.66961997125E+02  0.13161870374E+03  0.15755377332E+03  0.00000000000E+00 0.  1.
</event>
<event>
 7    1  0.5779468E-006  0.1285229E+03  0.7818608E-02  0.1320386E+00
          2   -1    0    0  502    0  0.00000000000E+00  0.00000000000E+00  0.44326416370E+04  0.44326416370E+04  0.00000000000E+00 0. -1.
          1   -1    0    0  501    0 -0.00000000000E+00 -0.00000000000E+00 -0.10264316732E+03  0.10264316732E+03  0.00000000000E+00 0. -1.
         25    2    1    2    0    0 -0.78954893807E+02 -0.10028548228E+02  0.72925574108E+03  0.74415957834E+03  0.12500038038E+03 0.  0.
          2    1    1    2  501    0  0.13158868098E+03 -0.98908992188E+00 -0.49420054538E+02  0.14056635818E+03  0.00000000000E+00 0. -1.
          1    1    1    2  502    0 -0.52633787173E+02  0.11017638149E+02  0.36501627831E+04  0.36505588678E+04  0.00000000000E+00 0. -1.
         22    1    3    3    0    0 -0.95096971574E+01 -0.48608994053E+02  0.12110799771E+03  0.13084500660E+03  0.00000000000E+00 0.  1.
         22    1    3    3    0    0 -0.69445196649E+02  0.38580445825E+02  0.60814774338E+03  0.61331457174E+03  0.00000000000E+00 0.  1.
</event>
<event>
 7    1  0.5779468E-006  0.7164676E+02  0.7818608E-02  0.1379315E+00
          2   -1    0    0  502    0  0.00000000000E+00  0.00000000000E+00  0.99624657647E+03  0.99624657647E+03  0.00000000000E+00 0. -1.
          1   -1    0    0  501    0 -0.00000000000E+00 -0.00000000000E+00 -0.78541926829E+03  0.78541926829E+03  0.00000000000E+00 0. -1.
         25    2    1    2    0    0  0.72854827701E+02 -0.35218076535E+02 -0.10483070327E+03  0.18210483376E+03  0.12499822117E+03 0.  0.
          2    1    1    2  501    0 -0.48337938478E+01  0.58125565912E+02 -0.63927708635E+03  0.64193234855E+03  0.00000000000E+00 0. -1.
          1    1    1    2  502    0 -0.68021033853E+02 -0.22907489377E+02  0.95493509781E+03  0.95762866245E+03  0.00000000000E+00 0. -1.
         22    1    3    3    0    0 -0.64875580998E+01  0.39214366442E+02 -0.22511492797E+02  0.45679560566E+02  0.00000000000E+00 0.  1.
         22    1    3    3    0    0  0.79342385800E+02 -0.74432442977E+02 -0.82319210477E+02  0.13642527319E+03  0.00000000000E+00 0.  1.
</event>
<event>
 7    1  0.5779468E-006  0.8914301E+02  0.7818608E-02  0.1309350E+00
          2   -1    0    0  502    0  0.00000000000E+00  0.00000000000E+00  0.12844003360E+04  0.12844003360E+04  0.00000000000E+00 0. -1.
          1   -1    0    0  501    0 -0.00000000000E+00 -0.00000000000E+00 -0.35055775238E+03  0.35055775238E+03  0.00000000000E+00 0. -1.
         25    2    1    2    0    0  0.25669885052E+02 -0.21980758001E+02  0.54552495475E+02  0.14051057975E+03  0.12500060615E+03 0.  0.
          2    1    1    2  501    0 -0.55095819616E+02 -0.65552256133E+02 -0.29977811845E+03  0.31176845242E+03  0.00000000000E+00 0. -1.
          1    1    1    2  502    0  0.29425934564E+02  0.87533014134E+02  0.11790682066E+04  0.11826790562E+04  0.00000000000E+00 0. -1.
         22    1    3    3    0    0 -0.18737958791E+02 -0.44937704422E+02  0.72555091832E+02  0.87377054935E+02  0.00000000000E+00 0. -1.
         22    1    3    3    0    0  0.44407843843E+02  0.22956946421E+02 -0.18002596358E+02  0.53133524816E+02  0.00000000000E+00 0. -1.
</event>
<event>
 7    1  0.5779468E-006  0.8858928E+02  0.7818608E-02  0.1422119E+00
          2   -1    0    0  502    0  0.00000000000E+00  0.00000000000E+00  0.16326294482E+04  0.16326294482E+04  0.00000000000E+00 0. -1.
          1   -1    0    0  501    0 -0.00000000000E+00 -0.00000000000E+00 -0.51792975353E+03  0.51792975353E+03  0.00000000000E+00 0. -1.
         25    2    1    2    0    0  0.49495753538E+02 -0.56635672889E+02  0.67601031495E+03  0.69157246752E+03  0.12500041140E+03 0.  0.
          2    1    1    2  501    0  0.31931251762E+02  0.10524196250E+02 -0.50728366992E+03  0.50839658271E+03  0.00000000000E+00 0. -1.
          1    1    1    2  502    0 -0.81427005299E+02  0.46111476639E+02  0.94597304969E+03  0.95059015154E+03  0.00000000000E+00 0. -1.
         22    1    3    3    0    0 -0.17463440104E+02 -0.55807122170E+02  0.49733290558E+03  0.50075884974E+03  0.00000000000E+00 0.  1.
         22    1    3    3    0    0  0.66959193641E+02 -0.82855071890E+00  0.17867740937E+03  0.19081361778E+03  0.00000000000E+00 0.  1.
</event>
<event>
 7    1  0.5779468E-006  0.1190728E+03  0.7818608E-02  0.1250291E+00
          2   -1    0    0  502    0  0.00000000000E+00  0.00000000000E+00  0.22602185783E+04  0.22602185783E+04  0.00000000000E+00 0. -1.
          1   -1    0    0  501    0 -0.00000000000E+00 -0.00000000000E+00 -0.69438461496E+03  0.69438461496E+03  0.00000000000E+00 0. -1.
         25    2    1    2    0    0 -0.14090113566E+03 -0.12914128245E+03 -0.13274925804E+03  0.26416003899E+03  0.12501023889E+03 0.  0.
          2    1    1    2  501    0  0.11258401393E+03  0.20258674161E+02 -0.48786790622E+03  0.50109945919E+03  0.00000000000E+00 0. -1.
          1    1    1    2  502    0  0.28317121729E+02  0.10888260829E+03  0.21864511276E+04  0.21893436950E+04  0.00000000000E+00 0. -1.
         22    1    3    3    0    0 -0.62302321839E+02 -0.90844337243E+02 -0.61807889061E+01  0.11032894030E+03  0.00000000000E+00 0.  1.
         22    1    3    3    0    0 -0.78598813822E+02 -0.38296945207E+02 -0.12656846913E+03  0.15383109869E+03  0.00000000000E+00 0.  1.
</event>
<event>
 7    1  0.5779468E-006  0.1218364E+03  0.7818608E-02  0.1264465E+00
          2   -1    0    0  502    0  0.00000000000E+00  0.00000000000E+00  0.17185517763E+04  0.17185517763E+04  0.00000000000E+00 0. -1.
          1   -1    0    0  501    0 -0.00000000000E+00 -0.00000000000E+00 -0.17504513965E+03  0.17504513965E+03  0.00000000000E+00 0. -1.
         25    2    1    2    0    0  0.73550842771E+02  0.18009905530E+03  0.10072097147E+04  0.10334148111E+04  0.12501746344E+03 0.  0.
          2    1    1    2  501    0 -0.21300148748E+02 -0.93195825460E+02 -0.14373937983E+03  0.17262725026E+03  0.00000000000E+00 0. -1.
          1    1    1    2  502    0 -0.52250694022E+02 -0.86903229841E+02  0.68003630178E+03  0.68755485463E+03  0.00000000000E+00 0. -1.
         22    1    3    3    0    0 -0.13326481095E+02  0.10708875105E+03  0.64114750318E+03  0.65016591462E+03  0.00000000000E+00 0. -1.
         22    1    3    3    0    0  0.86877323866E+02  0.73010304255E+02  0.36606221152E+03  0.38324889645E+03  0.00000000000E+00 0. -1.
</event>
<event>
 7    1  0.5779468E-006  0.1126925E+03  0.7818608E-02  0.1394659E+00
          2   -1    0    0  502    0  0.00000000000E+00  0.00000000000E+00  0.28086157085E+04  0.28086157085E+04  0.00000000000E+00 0. -1.
          1   -1    0    0  501    0 -0.00000000000E+00 -0.00000000000E+00 -0.11588159527E+04  0.11588159527E+04  0.00000000000E+00 0. -1.
         25    2    1    2    0    0  0.12742517824E+03 -0.13566740397E+02  0.41706938204E+03  0.45386053936E+03  0.12498514813E+03 0.  0.
          2    1    1    2  501    0 -0.11159781977E+03 -0.15119002854E+02 -0.11375266309E+04  0.11430877016E+04  0.00000000000E+00 0. -1.
          1    1    1    2  502    0 -0.15827358467E+02  0.28685743252E+02  0.23702570047E+04  0.23704834202E+04  0.00000000000E+00 0. -1.
         22    1    3    3    0    0 -0.20350851743E+02 -0.22632348263E+02  0.58953983120E+02  0.66347211549E+02  0.00000000000E+00 0. -1.
         22    1    3    3    0    0  0.14777602998E+03  0.90656078661E+01  0.35811539892E+03  0.38751332781E+03  0.00000000000E+00 0. -1.
</event>
<event>
 7    1  0.5779468E-006  0.1203939E+03  0.7818608E-02  0.1288644E+00
          2   -1    0    0  502    0  0.00000000000E+00  0.00000000000E+00  0.28056483578E+04  0.28056483578E+04  0.00000000000E+00 0. -1.
          1   -1    0    0  501    0 -0.00000000000E+00 -0.00000000000E+00 -0.76292198816E+02  0.76292198816E+02  0.00000000000E+00 0. -1.
         25    2    1    2    0    0  0.72376683377E+02  0.83836830057E+02  0.99777464549E+03  0.10116553918E+04  0.12500156083E+03 0.  0.
          2    1    1    2  501    0  0.53719758866E+02 -0.54831676526E+02 -0.45012494596E+02  0.88985672515E+02  0.00000000000E+00 0. -1.
          1    1    1    2  502    0 -0.12609644224E+03 -0.29005153532E+02  0.17765940081E+04  0.17812994923E+04  0.00000000000E+00 0. -1.
         22    1    3    3    0    0  0.59432266971E+02  0.40330213746E+02  0.19853135540E+03  0.21112418046E+03  0.00000000000E+00 0.  1.
         22    1    3    3    0    0  0.12944416406E+02  0.43506616312E+02  0.79924329009E+03  0.80053121134E+03  0.00000000000E+00 0.  1.
</event>
<event>
 7    1  0.5779468E-006  0.6562951E+02  0.7818608E-02  0.1422423E+00
          2   -1    0    0  502    0  0.00000000000E+00  0.00000000000E+00  0.42456660263E+03  0.42456660263E+03  0.00000000000E+00 0. -1.
          1   -1    0    0  501    0 -0.00000000000E+00 -0.00000000000E+00 -0.12370526160E+04  0.12370526160E+04  0.00000000000E+00 0. -1.
         25    2    1    2    0    0 -0.54425757271E+01 -0.25628603421E+02 -0.13349174317E+03  0.18475739668E+03  0.12501521183E+03 0.  0.
          2    1    1    2  501    0 -0.16261348717E+02  0.65364702168E+02 -0.10755864554E+04  0.10776934624E+04  0.00000000000E+00 0. -1.
          1    1    1    2  502    0  0.21703924445E+02 -0.39736098747E+02  0.39659218524E+03  0.39916835956E+03  0.00000000000E+00 0. -1.
         22    1    3    3    0    0  0.44297080096E+02  0.28948712984E+02 -0.67111012009E+02  0.85464303784E+02  0.00000000000E+00 0.  1.
         22    1    3    3    0    0 -0.49739655824E+02 -0.54577316405E+02 -0.66380731166E+02  0.99293092899E+02  0.00000000000E+00 0.  1.
</event>
<event>
 7    1  0.5779468E-006  0.4824188E+02  0.7818608E-02  0.1516227E+00
          2   -1    0    0  502    0  0.00000000000E+00  0.00000000000E+00  0.20798031825E+04  0.20798031825E+04  0.00000000000E+00 0. -1.
          1   -1    0    0  501    0 -0.00000000000E+00 -0.00000000000E+00 -0.76831908954E+02  0.76831908954E+02  0.00000000000E+00 0. -1.
         25    2    1    2    0    0  0.27110834625E+02 -0.12064714052E+02  0.94794843592E+03  0.95661139407E+03  0.12497426699E+03 0.  0.
          2    1    1    2  501    0  0.23533020731E+02  0.20814988482E+02 -0.68481522744E+02  0.75344447490E+02  0.00000000000E+00 0. -1.
          1    1    1    2  502    0 -0.50643855356E+02 -0.87502744297E+01  0.11235043604E+04  0.11246792499E+04  0.00000000000E+00 0. -1.
         22    1    3    3    0    0 -0.12868310716E+02 -0.49575444713E+02  0.73282078713E+03  0.73460848361E+03  0.00000000000E+00 0. -1.
         22    1    3    3    0    0  0.39979145341E+02  0.37510730661E+02  0.21512764879E+03  0.22200291046E+03  0.00000000000E+00 0. -1.
</event>
<event>
 7    1  0.5779468E-006  0.1190032E+03  0.7818608E-02  0.1294261E+00
          2   -1    0    0  502    0  0.00000000000E+00  0.00000000000E+00  0.49342214124E+03  0.49342214124E+03  0.00000000000E+00 0. -1.
          1   -1    0    0  501    0 -0.00000000000E+00 -0.00000000000E+00 -0.50340761678E+03  0.50340761678E+03  0.00000000000E+00 0. -1.
         25    2    1    2    0    0 -0.63457406455E+02  0.75540214802E+02 -0.22504490015E+03  0.27568613470E+03  0.12499788516E+03 0.  0.
          2    1    1    2  501    0  0.13257122853E+03 -0.49983531593E+02 -0.22993973582E+03  0.27008473888E+03  0.00000000000E+00 0. -1.
          1    1    1    2  502    0 -0.69113822071E+02 -0.25556683209E+02  0.44499916043E+03  0.45105888445E+03  0.00000000000E+00 0. -1.
         22    1    3    3    0    0 -0.80085722687E+01 -0.64926304202E+01 -0.15272453057E+03  0.15307211933E+03  0.00000000000E+00 0. -1.
         22    1    3    3    0    0 -0.55448834186E+02  0.82032845222E+02 -0.72320369579E+02  0.12261401536E+03  0.00000000000E+00 0. -1.
</event>
<event>
 7    1  0.5779468E-006  0.3948890E+03  0.7818608E-02  0.1266674E+00
          2   -1    0    0  502    0  0.00000000000E+00  0.00000000000E+00  0.59563952954E+03  0.59563952954E+03  0.00000000000E+00 0. -1.
          1   -1    0    0  501    0 -0.00000000000E+00 -0.00000000000E+00 -0.63405796369E+03  0.63405796369E+03  0.00000000000E+00 0. -1.
         25    2    1    2    0    0  0.35451075971E+03  0.15098358003E+03  0.10956180334E+03  0.41965471235E+03  0.12502947116E+03 0.  0.
          2    1    1    2  501    0  0.24620893126E+02 -0.15071337997E+02 -0.35570424312E+03  0.35687370621E+03  0.00000000000E+00 0. -1.
          1    1    1    2  502    0 -0.37913165284E+03 -0.13591224204E+03  0.20772400564E+03  0.45316907467E+03  0.00000000000E+00 0. -1.
         22    1    3    3    0    0  0.12650741978E+03  0.80358333560E+02  0.10115688428E+03  0.18081566378E+03  0.00000000000E+00 0.  1.
         22    1    3    3    0    0  0.22800333993E+03  0.70625246473E+02  0.84049190617E+01  0.23883904857E+03  0.00000000000E+00 0.  1.
</event>
<event>
 7    1  0.5779468E-006  0.2019437E+03  0.7818608E-02  0.1307827E+00
          2   -1    0    0  502    0  0.00000000000E+00  0.00000000000E+00  0.49560142881E+04  0.49560142881E+04  0.00000000000E+00 0. -1.
          1   -1    0    0  501    0 -0.00000000000E+00 -0.00000000000E+00 -0.15574328562E+03  0.15574328562E+03  0.00000000000E+00 0. -1.
         25    2    1    2    0    0 -0.27380251590E+02 -0.19000284902E+03  0.73324716846E+03  0.76819801957E+03  0.12500410553E+03 0.  0.
          2    1    1    2  501    0 -0.38216384966E+02 -0.29109282773E+01 -0.13309371329E+03  0.13850235414E+03  0.00000000000E+00 0. -1.
          1    1    1    2  502    0  0.65596636556E+02  0.19291377730E+03  0.42001175473E+04  0.42050572000E+04  0.00000000000E+00 0. -1.
         22    1    3    3    0    0 -0.30489770585E+02 -0.77973979826E+02  0.12998924004E+03  0.15461814307E+03  0.00000000000E+00 0. -1.
         22    1    3    3    0    0  0.31095189948E+01 -0.11202886919E+03  0.60325792842E+03  0.61357987649E+03  0.00000000000E+00 0. -1.
</event>
<event>
 7    1  0.5779468E-006  0.2399662E+03  0.7818608E-02  0.1183345E+00
          2   -1    0    0  502    0  0.00000000000E+00  0.00000000000E+00  0.74863527631E+03  0.74863527631E+03  0.00000000000E+00 0. -1.
          1   -1    0    0  501    0 -0.00000000000E+00 -0.00000000000E+00 -0.21760954372E+04  0.21760954372E+04  0.00000000000E+00 0. -1.
         25    2    1    2    0    0  0.15524027512E+03 -0.17702516939E+03  0.56557203415E+02  0.27250928600E+03  0.12500056032E+03 0.  0.
          2    1    1    2  501    0  0.73506460636E+02  0.86120426936E+02 -0.20405476583E+04  0.20436865399E+04  0.00000000000E+00 0. -1.
          1    1    1    2  502    0 -0.22874673576E+03  0.90904742456E+02  0.55653029397E+03  0.60853488760E+03  0.00000000000E+00 0. -1.
         22    1    3    3    0    0  0.61132724245E+02 -0.72311464821E+02 -0.38945334453E+02  0.10238601952E+03  0.00000000000E+00 0. -1.
         22    1    3    3    0    0  0.94107550874E+02 -0.10471370457E+03  0.95502537868E+02  0.17012326647E+03  0.00000000000E+00 0. -1.
</event>
<event>
 7    1  0.5779468E-006  0.6458846E+02  0.7818608E-02  0.1448847E+00
          2   -1    0    0  502    0  0.00000000000E+00  0.00000000000E+00  0.20506415902E+03  0.20506415902E+03  0.00000000000E+00 0. -1.
          1   -1    0    0  501    0 -0.00000000000E+00 -0.00000000000E+00 -0.17637805335E+04  0.17637805335E+04  0.00000000000E+00 0. -1.
         25    2    1    2    0    0 -0.16059859327E+02 -0.25720233960E+02 -0.29760980558E+03  0.32421607517E+03  0.12500007002E+03 0.  0.
          2    1    1    2  501    0  0.21471772975E+02  0.63045634477E+02 -0.14502414230E+04  0.14517699453E+04  0.00000000000E+00 0. -1.
          1    1    1    2  502    0 -0.54119136481E+01 -0.37325400517E+02  0.18913485413E+03  0.19285867203E+03  0.00000000000E+00 0. -1.
         22    1    3    3    0    0  0.75259915028E+01  0.28110071298E+02 -0.24054607286E+03  0.24229987582E+03  0.00000000000E+00 0. -1.
         22    1    3    3    0    0 -0.23585850830E+02 -0.53830305258E+02 -0.57063732728E+02  0.81916199353E+02  0.00000000000E+00 0. -1.
</event>
<event>
 7    1  0.5779468E-006  0.6705809E+02  0.7818608E-02  0.1498231E+00
          2   -1    0    0  502    0  0.00000000000E+00  0.00000000000E+00  0.62069018911E+03  0.62069018911E+03  0.00000000000E+00 0. -1.
          1   -1    0    0  501    0 -0.00000000000E+00 -0.00000000000E+00 -0.71238235761E+03  0.71238235761E+03  0.00000000000E+00 0. -1.
         25    2    1    2    0    0 -0.46221924598E+02 -0.83466561412E+01  0.10151762795E+03  0.16773897827E+03  0.12499761223E+03 0.  0.
          2    1    1    2  501    0  0.60511249115E+02  0.29522356842E+02 -0.67726564625E+03  0.68060409667E+03  0.00000000000E+00 0. -1.
          1    1    1    2  502    0 -0.14289324518E+02 -0.21175700701E+02  0.48405584979E+03  0.48472947178E+03  0.00000000000E+00 0. -1.
         22    1    3    3    0    0  0.25291950310E+02  0.42840930529E+01  0.90772606830E+02  0.94327633038E+02  0.00000000000E+00 0.  1.
         22    1    3    3    0    0 -0.71513874908E+02 -0.12630749194E+02  0.10745021124E+02  0.73411345231E+02  0.00000000000E+00 0.  1.
</event>
<event>
 7    1  0.5779468E-006  0.1095867E+03  0.7818608E-02  0.1345032E+00
          2   -1    0    0  502    0  0.00000000000E+00  0.00000000000E+00  0.25761658810E+04  0.25761658810E+04  0.00000000000E+00 0. -1.
          1   -1    0    0  501    0 -0.00000000000E+00 -0.00000000000E+00 -0.12200888125E+04  0.12200888125E+04  0.00000000000E+00 0. -1.
         25    2    1    2    0    0 -0.10981989057E+03  0.81120150510E+02 -0.31961488981E+02  0.18784898326E+03  0.12499926619E+03 0.  0.
          2    1    1    2  501    0  0.47820361724E+01 -0.50593615941E+02 -0.11084037694E+04  0.11095681582E+04  0.00000000000E+00 0. -1.
          1    1    1    2  502    0  0.10503785440E+03 -0.30526534569E+02  0.24964423268E+04  0.24988375520E+04  0.00000000000E+00 0. -1.
         22    1    3    3    0    0 -0.10247978173E+03  0.51151439635E+02  0.30200266587E+02  0.11845096682E+03  0.00000000000E+00 0.  1.
         22    1    3    3    0    0 -0.73401088487E+01  0.29968710875E+02 -0.62161755568E+02  0.69398016432E+02  0.00000000000E+00 0.  1.
</event>
<event>
 7    1  0.5779468E-006  0.1052797E+03  0.7818608E-02  0.1328173E+00
          2   -1    0    0  502    0  0.00000000000E+00  0.00000000000E+00  0.25584779243E+03  0.25584779243E+03  0.00000000000E+00 0. -1.
          1   -1    0    0  501    0 -0.00000000000E+00 -0.00000000000E+00 -0.32727861844E+03  0.32727861844E+03  0.00000000000E+00 0. -1.
         25    2    1    2    0    0 -0.13496601464E+03  0.75275642082E+02  0.57094203250E+02  0.20680166947E+03  0.12499974021E+03 0.  0.
          2    1    1    2  501    0  0.54474565297E+02 -0.28029698013E+02 -0.23025559640E+03  0.23826619968E+03  0.00000000000E+00 0. -1.
          1    1    1    2  502    0  0.80491449342E+02 -0.47245944070E+02  0.10173056715E+03  0.13805854172E+03  0.00000000000E+00 0. -1.
         22    1    3    3    0    0 -0.89930055689E+02 -0.65680456219E+01  0.67741267126E+02  0.11278046556E+03  0.00000000000E+00 0.  1.
         22    1    3    3    0    0 -0.45035958950E+02  0.81843687704E+02 -0.10647063877E+02  0.94021203911E+02  0.00000000000E+00 0.  1.
</event>
<event>
 7    1  0.5779468E-006  0.5208259E+02  0.7818608E-02  0.1462790E+00
          2   -1    0    0  502    0  0.00000000000E+00  0.00000000000E+00  0.24461490445E+03  0.24461490445E+03  0.00000000000E+00 0. -1.
          1   -1    0    0  501    0 -0.00000000000E+00 -0.00000000000E+00 -0.55525707210E+03  0.55525707210E+03  0.00000000000E+00 0. -1.
         25    2    1    2    0    0  0.69142479203E+02  0.62716851746E+02 -0.32674067541E+02  0.15939606220E+03  0.12500169611E+03 0.  0.
          2    1    1    2  501    0 -0.36928082485E+02 -0.35393564673E+02 -0.45530922134E+03  0.45817341121E+03  0.00000000000E+00 0. -1.
          1    1    1    2  502    0 -0.32214396718E+02 -0.27323287073E+02  0.17734112123E+03  0.18230250314E+03  0.00000000000E+00 0. -1.
         22    1    3    3    0    0 -0.14045966236E+02  0.59191304341E+02  0.16060220970E+02  0.62919236921E+02  0.00000000000E+00 0. -1.
         22    1    3    3    0    0  0.83188445439E+02  0.35255474048E+01 -0.48734288511E+02  0.96476825278E+02  0.00000000000E+00 0. -1.
</event>
<event>
 7    1  0.5779468E-006  0.8893828E+02  0.7818608E-02  0.1396919E+00
          2   -1    0    0  502    0  0.00000000000E+00  0.00000000000E+00  0.13207517775E+03  0.13207517775E+03  0.00000000000E+00 0. -1.
          1   -1    0    0  501    0 -0.00000000000E+00 -0.00000000000E+00 -0.67838044082E+03  0.67838044082E+03  0.00000000000E+00 0. -1.
         25    2    1    2    0    0 -0.21820618124E+02  0.97655810375E+02 -0.78523221544E+02  0.17833450757E+03  0.12499801436E+03 0.  0.
          2    1    1    2  501    0  0.52873813324E+02 -0.71234661870E+02 -0.54104888790E+03  0.54827357795E+03  0.00000000000E+00 0. -1.
          1    1    1    2  502    0 -0.31053195200E+02 -0.26421148505E+02  0.73266846373E+02  0.83847533046E+02  0.00000000000E+00 0. -1.
         22    1    3    3    0    0  0.12034488765E+02 -0.11366461649E+02 -0.60547995953E+02  0.62770097850E+02  0.00000000000E+00 0.  1.
         22    1    3    3    0    0 -0.33855106890E+02  0.10902227202E+03 -0.17975225591E+02  0.11556440972E+03  0.00000000000E+00 0.  1.
</event>
<event>
 7    1  0.5779468E-006  0.1277021E+03  0.7818608E-02  0.1416795E+00
          2   -1    0    0  502    0  0.00000000000E+00  0.00000000000E+00  0.67338183239E+02  0.67338183239E+02  0.00000000000E+00 0. -1.
          1   -1    0    0  501    0 -0.00000000000E+00 -0.00000000000E+00 -0.10268225660E+04  0.10268225660E+04  0.00000000000E+00 0. -1.
         25    2    1    2    0    0 -0.10842559421E+03 -0.84821163845E+02 -0.71175262488E+03  0.73564020953E+03  0.12499591808E+03 0.  0.
          2    1    1    2  501    0  0.84178728471E+02  0.83231830542E+02 -0.28806109644E+03  0.31143665684E+03  0.00000000000E+00 0. -1.
          1    1    1    2  502    0  0.24246865742E+02  0.15893333031E+01  0.40329338551E+02  0.47083882876E+02  0.00000000000E+00 0. -1.
         22    1    3    3    0    0 -0.26004927323E+02 -0.89464004430E+02 -0.25498229522E+03  0.27147013686E+03  0.00000000000E+00 0. -1.
         22    1    3    3    0    0 -0.82420666890E+02  0.46428405847E+01 -0.45677032966E+03  0.46417007266E+03  0.00000000000E+00 0. -1.
</event>
<event>
 7    1  0.5779468E-006  0.4940891E+02  0.7818608E-02  0.1464978E+00
          2   -1    0    0  502    0  0.00000000000E+00  0.00000000000E+00  0.35918271537E+03  0.35918271537E+03  0.00000000000E+00 0. -1.
          1   -1    0    0  501    0 -0.00000000000E+00 -0.00000000000E+00 -0.21943408105E+04  0.21943408105E+04  0.00000000000E+00 0. -1.
         25    2    1    2    0    0  0.48021196495E+01 -0.75091622318E+02  0.12958647393E+03  0.19513911680E+03  0.12499923434E+03 0.  0.
          2    1    1    2  501    0 -0.28518938565E+02  0.33281502052E+02 -0.21584038068E+04  0.21588487630E+04  0.00000000000E+00 0. -1.
          1    1    1    2  502    0  0.23716818915E+02  0.41810120266E+02  0.19365923778E+03  0.19953564602E+03  0.00000000000E+00 0. -1.
         22    1    3    3    0    0 -0.17136011590E+02  0.12364524621E+02 -0.14172537056E+02  0.25443764833E+02  0.00000000000E+00 0. -1.
         22    1    3    3    0    0  0.21938131239E+02 -0.87456146939E+02  0.14375901099E+03  0.16969535197E+03  0.00000000000E+00 0. -1.
</event>
<event>
 7    1  0.5779468E-006  0.4645156E+02  0.7818608E-02  0.1519798E+00
          2   -1    0    0  502    0  0.00000000000E+00  0.00000000000E+00  0.78225097870E+03  0.78225097870E+03  0.00000000000E+00 0. -1.
          1   -1    0    0  501    0 -0.00000000000E+00 -0.00000000000E+00 -0.65902717912E+03  0.65902717912E+03  0.00000000000E+00 0. -1.
         25    2    1    2    0    0 -0.40291225745E+02 -0.65625101220E+02  0.91227816397E+02  0.17285242277E+03  0.12500163515E+03 0.  0.
          2    1    1    2  501    0  0.12074255107E+02  0.29479552111E+02 -0.61699497124E+03  0.61781682250E+03  0.00000000000E+00 0. -1.
          1    1    1    2  502    0  0.28216970638E+02  0.36145549108E+02  0.64899095444E+03  0.65060891255E+03  0.00000000000E+00 0. -1.
         22    1    3    3    0    0  0.11305564202E+02  0.33276017509E+02  0.24908843452E+02  0.43076206951E+02  0.00000000000E+00 0. -1.
         22    1    3    3    0    0 -0.51596789946E+02 -0.98901118729E+02  0.66318972946E+02  0.12977621581E+03  0.00000000000E+00 0. -1.
</event>
<event>
 7    1  0.5779468E-006  0.5818301E+02  0.7818608E-02  0.1432281E+00
          2   -1    0    0  502    0  0.00000000000E+00  0.00000000000E+00  0.14293192397E+04  0.14293192397E+04  0.00000000000E+00 0. -1.
          1   -1    0    0  501    0 -0.00000000000E+00 -0.00000000000E+00 -0.11182727130E+03  0.11182727130E+03  0.00000000000E+00 0. -1.
         25    2    1    2    0    0  0.20559057451E+02 -0.21858252409E+02  0.52438547652E+02  0.13879103336E+03  0.12495075678E+03 0.  0.
          2    1    1    2  501    0 -0.63801525112E+02  0.24921668745E+01 -0.53286575574E+02  0.83164323113E+02  0.00000000000E+00 0. -1.
          1    1    1    2  502    0  0.43242467661E+02  0.19366085534E+02  0.13183399963E+04  0.13191911546E+04  0.00000000000E+00 0. -1.
         22    1    3    3    0    0  0.63281038213E+02 -0.36803348530E+02  0.52310176391E+01  0.73391687581E+02  0.00000000000E+00 0.  1.
         22    1    3    3    0    0 -0.42721980763E+02  0.14945096122E+02  0.47207530013E+02  0.65399345779E+02  0.00000000000E+00 0.  1.
</event>
<event>
 7    1  0.5779468E-006  0.2497619E+03  0.7818608E-02  0.1146312E+00
          2   -1    0    0  502    0  0.00000000000E+00  0.00000000000E+00  0.62993497509E+03  0.62993497509E+03  0.00000000000E+00 0. -1.
          1   -1    0    0  501    0 -0.00000000000E+00 -0.00000000000E+00 -0.25054572276E+04  0.25054572276E+04  0.00000000000E+00 0. -1.
         25    2    1    2    0    0 -0.10652201350E+03  0.20463109758E+03 -0.10124182345E+04  0.10458665033E+04  0.12500094213E+03 0.  0.
          2    1    1    2  501    0  0.25628038810E+03 -0.13115308369E+03 -0.14505559903E+04  0.14788486906E+04  0.00000000000E+00 0. -1.
          1    1    1    2  502    0 -0.14975837460E+03 -0.73478013893E+02  0.58745197235E+03  0.61067700882E+03  0.00000000000E+00 0. -1.
         22    1    3    3    0    0 -0.10364368406E+03  0.68192505947E+02 -0.54438326702E+03  0.55834162708E+03  0.00000000000E+00 0. -1.
         22    1    3    3    0    0 -0.28783294386E+01  0.13643859163E+03 -0.46803496752E+03  0.48752487618E+03  0.00000000000E+00 0. -1.
</event>
<event>
 7    1  0.5779468E-006  0.1315962E+03  0.7818608E-02  0.1307230E+00
          2   -1    0    0  502    0  0.00000000000E+00  0.00000000000E+00  0.49051217107E+03  0.49051217107E+03  0.00000000000E+00 0. -1.
          1   -1    0    0  501    0 -0.00000000000E+00 -0.00000000000E+00 -0.82163674411E+03  0.82163674411E+03  0.00000000000E+00 0. -1.
         25    2    1    2    0    0  0.15472055330E+03 -0.10789812165E+03 -0.36405151511E+03  0.42864787660E+03  0.12500016876E+03 0.  0.
          2    1    1    2  501    0 -0.43537444124E+02  0.40019591055E+02 -0.41388438225E+03  0.41808774029E+03  0.00000000000E+00 0. -1.
          1    1    1    2  502    0 -0.11118310917E+03  0.67878530592E+02  0.44681132432E+03  0.46541329829E+03  0.00000000000E+00 0. -1.
         22    1    3    3    0    0 -0.48848789119E+01  0.15326797236E+02 -0.49896891462E+01  0.16842498428E+02  0.00000000000E+00 0. -1.
         22    1    3    3    0    0  0.15960543221E+03 -0.12322491888E+03 -0.35906182597E+03  0.41180537817E+03  0.00000000000E+00 0. -1.
</event>
<event>
 7    1  0.5779468E-006  0.7688833E+02  0.7818608E-02  0.1353264E+00
          2   -1    0    0  502    0  0.00000000000E+00  0.00000000000E+00  0.28842380687E+04  0.28842380687E+04  0.00000000000E+00 0. -1.
          1   -1    0    0  501    0 -0.00000000000E+00 -0.00000000000E+00 -0.12289266927E+03  0.12289266927E+03  0.00000000000E+00 0. -1.
         25    2    1    2    0    0 -0.23049399162E+02  0.69209756266E+02 -0.21926931026E+01  0.14474602119E+03  0.12500135032E+03 0.  0.
          2    1    1    2  501    0 -0.52821376918E+02 -0.56742202095E+02 -0.18162313476E+02  0.79621887624E+02  0.00000000000E+00 0. -1.
          1    1    1    2  502    0  0.75870776079E+02 -0.12467554171E+02  0.27817004060E+04  0.27827628291E+04  0.00000000000E+00 0. -1.
         22    1    3    3    0    0 -0.22847105594E+01  0.84505938592E+02  0.41373615421E+02  0.94118274594E+02  0.00000000000E+00 0. -1.
         22    1    3    3    0    0 -0.20764688602E+02 -0.15296182326E+02 -0.43566308524E+02  0.50627746591E+02  0.00000000000E+00 0. -1.
</event>
<event>
 7    1  0.5779468E-006  0.3323502E+02  0.7818608E-02  0.1570226E+00
          2   -1    0    0  502    0  0.00000000000E+00  0.00000000000E+00  0.22665861857E+02  0.22665861857E+02  0.00000000000E+00 0. -1.
          1   -1    0    0  501    0 -0.00000000000E+00 -0.00000000000E+00 -0.20635178719E+04  0.20635178719E+04  0.00000000000E+00 0. -1.
         25    2    1    2    0    0 -0.34934105792E+01  0.81370992923E+00 -0.63589688891E+03  0.64807565383E+03  0.12499733487E+03 0.  0.
          2    1    1    2  501    0 -0.22167086882E+02 -0.23263675327E+02 -0.14036192423E+04  0.14039870212E+04  0.00000000000E+00 0. -1.
          1    1    1    2  502    0  0.25660497461E+02  0.22449965398E+02 -0.13358788305E+01  0.34121058726E+02  0.00000000000E+00 0. -1.
         22    1    3    3    0    0 -0.10459276577E+02  0.61656853239E+02 -0.36728383345E+03  0.37256996434E+03  0.00000000000E+00 0.  1.
         22    1    3    3    0    0  0.69658659974E+01 -0.60843143310E+02 -0.26861305546E+03  0.27550568949E+03  0.00000000000E+00 0.  1.
</event>
<event>
 7    1  0.5779468E-006  0.4579470E+02  0.7818608E-02  0.1474671E+00
          2   -1    0    0  502    0  0.00000000000E+00  0.00000000000E+00  0.69911907649E+03  0.69911907649E+03  0.00000000000E+00 0. -1.
          1   -1    0    0  501    0 -0.00000000000E+00 -0.00000000000E+00 -0.68230857651E+02  0.68230857651E+02  0.00000000000E+00 0. -1.
         25    2    1    2    0    0  0.11164378544E+02 -0.41898840227E+01  0.15001057628E+03  0.19562283345E+03  0.12499168570E+03 0.  0.
          2    1    1    2  501    0  0.11232689568E+02  0.44395732578E+02 -0.32585992232E+02  0.56204993336E+02  0.00000000000E+00 0. -1.
          1    1    1    2  502    0 -0.22397068112E+02 -0.40205848556E+02  0.51346363479E+03  0.51552210736E+03  0.00000000000E+00 0. -1.
         22    1    3    3    0    0  0.61996421787E+02 -0.29622735121E+02  0.80881845131E+02  0.10612697877E+03  0.00000000000E+00 0.  1.
         22    1    3    3    0    0 -0.50832043243E+02  0.25432851099E+02  0.69128731149E+02  0.89495854684E+02  0.00000000000E+00 0.  1.
</event>
<event>
 7    1  0.5779468E-006  0.6434079E+02  0.7818608E-02  0.1402771E+00
          2   -1    0    0  502    0  0.00000000000E+00  0.00000000000E+00  0.52677669308E+03  0.52677669308E+03  0.00000000000E+00 0. -1.
          1   -1    0    0  501    0 -0.00000000000E+00 -0.00000000000E+00 -0.27057218271E+03  0.27057218271E+03  0.00000000000E+00 0. -1.
         25    2    1    2    0    0 -0.40372546616E+01  0.17251760424E+02  0.96665878565E+02  0.15900632396E+03  0.12499918527E+03 0.  0.
          2    1    1    2  501    0  0.52940741667E+02 -0.39694157025E+02 -0.23295894968E+03  0.24217394671E+03  0.00000000000E+00 0. -1.
          1    1    1    2  502    0 -0.48903487006E+02  0.22442396601E+02  0.39249758148E+03  0.39616860511E+03  0.00000000000E+00 0. -1.
         22    1    3    3    0    0  0.16897824485E+02  0.16056006645E+02  0.12308735150E+03  0.12527500917E+03  0.00000000000E+00 0.  1.
         22    1    3    3    0    0 -0.20935079147E+02  0.11957537794E+01 -0.26421472936E+02  0.33731314799E+02  0.00000000000E+00 0.  1.
</event>
<event>
 7    1  0.5779468E-006  0.3246315E+03  0.7818608E-02  0.1120615E+00
          2   -1    0    0  502    0  0.00000000000E+00  0.00000000000E+00  0.59333232853E+03  0.59333232853E+03  0.00000000000E+00 0. -1.
          1   -1    0    0  501    0 -0.00000000000E+00 -0.00000000000E+00 -0.21539010488E+04  0.21539010488E+04  0.00000000000E+00 0. -1.
         25    2    1    2    0    0  0.10463942443E+02 -0.17633954587E+03  0.34924622467E+02  0.21919802333E+03  0.12499165831E+03 0.  0.
          2    1    1    2  501    0 -0.10188353925E+03  0.32628660677E+03 -0.20304192686E+04  0.20589914064E+04  0.00000000000E+00 0. -1.
          1    1    1    2  502    0  0.91419596803E+02 -0.14994706090E+03  0.43492592589E+03  0.46904394758E+03  0.00000000000E+00 0. -1.
         22    1    3    3    0    0  0.19793866246E+02 -0.13726750788E+03  0.78962552728E+02  0.15959088506E+03  0.00000000000E+00 0. -1.
         22    1    3    3    0    0 -0.93299238031E+01 -0.39072037986E+02 -0.44037930261E+02  0.59607138265E+02  0.00000000000E+00 0. -1.
</event>
<event>
 7    1  0.5779468E-006  0.7316120E+02  0.7818608E-02  0.1482217E+00
          2   -1    0    0  502    0  0.00000000000E+00  0.00000000000E+00  0.62813471029E+02  0.62813471029E+02  0.00000000000E+00 0. -1.
          1   -1    0    0  501    0 -0.00000000000E+00 -0.00000000000E+00 -0.20406830149E+04  0.20406830149E+04  0.00000000000E+00 0. -1.
         25    2    1    2    0    0  0.54648700782E+02  0.13082784714E+02 -0.92487746091E+02  0.16533549409E+03  0.12499681067E+03 0.  0.
          2    1    1    2  501    0  0.22550897724E+02  0.13293349897E+02 -0.18484063021E+04  0.18485916569E+04  0.00000000000E+00 0. -1.
          1    1    1    2  502    0 -0.77199598506E+02 -0.26376134611E+02 -0.36975495658E+02  0.89569334963E+02  0.00000000000E+00 0. -1.
         22    1    3    3    0    0  0.88244578412E+02 -0.12611997646E+02 -0.39403591293E+02  0.97461844383E+02  0.00000000000E+00 0. -1.
         22    1    3    3    0    0 -0.33595877630E+02  0.25694782359E+02 -0.53084154799E+02  0.67873649710E+02  0.00000000000E+00 0. -1.
</event>
<event>
 7    1  0.5779468E-006  0.4952053E+02  0.7818608E-02  0.1518699E+00
          2   -1    0    0  502    0  0.00000000000E+00  0.00000000000E+00  0.15843969595E+04  0.15843969595E+04  0.00000000000E+00 0. -1.
          1   -1    0    0  501    0 -0.00000000000E+00 -0.00000000000E+00 -0.47075608691E+03  0.47075608691E+03  0.00000000000E+00 0. -1.
         25    2    1    2    0    0 -0.24399889283E+02  0.32291441447E+01  0.97965761524E+02  0.16071187332E+03  0.12500093530E+03 0.  0.
          2    1    1    2  501    0 -0.16722190172E+02  0.25031009876E+02 -0.43843901704E+03  0.43947122177E+03  0.00000000000E+00 0. -1.
          1    1    1    2  502    0  0.41122079456E+02 -0.28260154021E+02  0.14541141281E+04  0.14549699513E+04  0.00000000000E+00 0. -1.
         22    1    3    3    0    0  0.44208844990E+02  0.30189415645E+02  0.45105126166E+02  0.70002108531E+02  0.00000000000E+00 0.  1.
         22    1    3    3    0    0 -0.68608734273E+02 -0.26960271500E+02  0.52860635358E+02  0.90709764790E+02  0.00000000000E+00 0.  1.
</event>
<event>
 7    1  0.5779468E-006  0.1144355E+03  0.7818608E-02  0.1280404E+00
          2   -1    0    0  502    0  0.00000000000E+00  0.00000000000E+00  0.80603478519E+03  0.80603478519E+03  0.00000000000E+00 0. -1.
          1   -1    0    0  501    0 -0.00000000000E+00 -0.00000000000E+00 -0.56671435497E+03  0.56671435497E+03  0.00000000000E+00 0. -1.
         25    2    1    2    0    0 -0.71943674320E+02 -0.12027356399E+03 -0.42124767981E+03  0.46121125029E+03  0.12499834872E+03 0.  0.
          2    1    1    2  501    0 -0.12989648079E+02  0.10010204093E+03 -0.10228523571E+03  0.14370601588E+03  0.00000000000E+00 0. -1.
          1    1    1    2  502    0  0.84933322400E+02  0.20171523055E+02  0.76285334574E+03  0.76783187398E+03  0.00000000000E+00 0. -1.
         22    1    3    3    0    0 -0.88132933617E+02 -0.73598712820E+02 -0.16994558582E+03  0.20509921174E+03  0.00000000000E+00 0.  1.
         22    1    3    3    0    0  0.16189259296E+02 -0.46674851166E+02 -0.25130209399E+03  0.25611203855E+03  0.00000000000E+00 0.  1.
</event>
<event>
 7    1  0.5779468E-006  0.8539819E+02  0.7818608E-02  0.1476120E+00
          2   -1    0    0  502    0  0.00000000000E+00  0.00000000000E+00  0.66221530256E+02  0.66221530256E+02  0.00000000000E+00 0. -1.
          1   -1    0    0  501    0 -0.00000000000E+00 -0.00000000000E+00 -0.16682618756E+04  0.16682618756E+04  0.00000000000E+00 0. -1.
         25    2    1    2    0    0  0.10059554785E+03 -0.55198564834E+01 -0.66597809261E+03  0.68505016719E+03  0.12496791058E+03 0.  0.
          2    1    1    2  501    0 -0.18274330570E+02 -0.14638486939E+02 -0.96084540807E+03  0.96113065431E+03  0.00000000000E+00 0. -1.
          1    1    1    2  502    0 -0.82321217284E+02  0.20158343423E+02  0.24783155288E+02  0.88302584394E+02  0.00000000000E+00 0. -1.
         22    1    3    3    0    0  0.12349914244E+03 -0.15575831356E+02 -0.42720779580E+03  0.44497319638E+03  0.00000000000E+00 0.  1.
         22    1    3    3    0    0 -0.22903594588E+02  0.10055974873E+02 -0.23877029681E+03  0.24007697082E+03  0.00000000000E+00 0.  1.
</event>
<event>
 7    1  0.5779468E-006  0.1434773E+03  0.7818608E-02  0.1290670E+00
          2   -1    0    0  502    0  0.00000000000E+00  0.00000000000E+00  0.81697076169E+03  0.81697076169E+03  0.00000000000E+00 0. -1.
          1   -1    0    0  501    0 -0.00000000000E+00 -0.00000000000E+00 -0.73716331797E+03  0.73716331797E+03  0.00000000000E+00 0. -1.
         25    2    1    2    0    0 -0.44699224329E+01  0.19841340015E+03  0.15250249228E+03  0.27976813170E+03  0.12500135919E+03 0.  0.
          2    1    1    2  501    0 -0.10104889416E+02 -0.62387421308E+02 -0.66422374637E+03  0.66722371388E+03  0.00000000000E+00 0. -1.
          1    1    1    2  502    0  0.14574811849E+02 -0.13602597884E+03  0.59152869780E+03  0.60714223407E+03  0.00000000000E+00 0. -1.
         22    1    3    3    0    0 -0.24776903123E+02  0.76434647016E+02  0.13184113797E+03  0.15439635959E+03  0.00000000000E+00 0.  1.
         22    1    3    3    0    0  0.20306980691E+02  0.12197875314E+03  0.20661354313E+02  0.12537177211E+03  0.00000000000E+00 0.  1.
</event>
<event>
 7    1  0.5779468E-006  0.3124347E+02  0.7818608E-02  0.1605223E+00
          2   -1    0    0  502    0  0.00000000000E+00  0.00000000000E+00  0.61303126407E+03  0.61303126407E+03  0.00000000000E+00 0. -1.
          1   -1    0    0  501    0 -0.00000000000E+00 -0.00000000000E+00 -0.66092774969E+02  0.66092774969E+02  0.00000000000E+00 0. -1.
         25    2    1    2    0    0  0.37502144350E+02  0.42551145593E+02  0.10751610599E+03  0.17436168727E+03  0.12500109647E+03 0.  0.
          2    1    1    2  501    0 -0.15766843895E+02 -0.25543936053E+02 -0.25277709648E+02  0.39243453474E+02  0.00000000000E+00 0. -1.
          1    1    1    2  502    0 -0.21735300455E+02 -0.17007209540E+02  0.46470009276E+03  0.46551889830E+03  0.00000000000E+00 0. -1.
         22    1    3    3    0    0  0.35826468981E+02  0.21761410017E+00 -0.19272536587E+02  0.40681862077E+02  0.00000000000E+00 0. -1.
         22    1    3    3    0    0  0.16756753688E+01  0.42333531492E+02  0.12678864258E+03  0.13367982519E+03  0.00000000000E+00 0. -1.
</event>
<event>
 7    1  0.5779468E-006  0.2786328E+03  0.7818608E-02  0.1272457E+00
          2   -1    0    0  502    0  0.00000000000E+00  0.00000000000E+00  0.18614515084E+04  0.18614515084E+04  0.00000000000E+00 0. -1.
          1   -1    0    0  501    0 -0.00000000000E+00 -0.00000000000E+00 -0.38821934447E+03  0.38821934447E+03  0.00000000000E+00 0. -1.
         25    2    1    2    0    0 -0.18439974736E+03  0.24567064843E+03 -0.17394313229E+03  0.37448246181E+03  0.12499426629E+03 0.  0.
          2    1    1    2  501    0 -0.48288036925E+00 -0.38682583800E+02 -0.99419463419E+02  0.10668085662E+03  0.00000000000E+00 0. -1.
          1    1    1    2  502    0  0.18488262773E+03 -0.20698806463E+03  0.17465947597E+04  0.17685075345E+04  0.00000000000E+00 0. -1.
         22    1    3    3    0    0 -0.19881526943E+03  0.20455941693E+03 -0.16647482984E+03  0.33028160012E+03  0.00000000000E+00 0. -1.
         22    1    3    3    0    0  0.14415522069E+02  0.41111231505E+02 -0.74683024550E+01  0.44200861688E+02  0.00000000000E+00 0. -1.
</event>
<event>
 7    1  0.5779468E-006  0.3228809E+02  0.7818608E-02  0.1604539E+00
          2   -1    0    0  502    0  0.00000000000E+00  0.00000000000E+00  0.41025935216E+03  0.41025935216E+03  0.00000000000E+00 0. -1.
          1   -1    0    0  501    0 -0.00000000000E+00 -0.00000000000E+00 -0.32168828826E+03  0.32168828826E+03  0.00000000000E+00 0. -1.
         25    2    1    2    0    0 -0.15607835881E+02  0.32581383620E+01 -0.16859859133E+03  0.21048527495E+03  0.12499738383E+03 0.  0.
          2    1    1    2  501    0  0.27812475564E+02  0.20618259078E+02 -0.12940626285E+03  0.13395755772E+03  0.00000000000E+00 0. -1.
          1    1    1    2  502    0 -0.12204639683E+02 -0.23876397440E+02  0.38657591809E+03  0.38750480775E+03  0.00000000000E+00 0. -1.
         22    1    3    3    0    0 -0.12618438782E+02  0.54496756834E+02 -0.14211880681E+03  0.15273138758E+03  0.00000000000E+00 0.  1.
         22    1    3    3    0    0 -0.29893970996E+01 -0.51238618472E+02 -0.26479784523E+02  0.57753887370E+02  0.00000000000E+00 0.  1.
</event>
<event>
 7    1  0.5779468E-006  0.6831176E+02  0.7818608E-02  0.1530642E+00
          2   -1    0    0  502    0  0.00000000000E+00  0.00000000000E+00  0.22460755442E+02  0.22460755442E+02  0.00000000000E+00 0. -1.
          1   -1    0    0  501    0 -0.00000000000E+00 -0.00000000000E+00 -0.16990499877E+04  0.16990499877E+04  0.00000000000E+00 0. -1.
         25    2    1    2    0    0 -0.56196725992E+02 -0.16813720704E+02 -0.52375085053E+03  0.54164509541E+03  0.12499473081E+03 0.  0.
          2    1    1    2  501    0 -0.37824742707E+01 -0.19799248557E+02 -0.10742613577E+04  0.10744504558E+04  0.00000000000E+00 0. -1.
          1    1    1    2  502    0  0.59979200263E+02  0.36612969261E+02 -0.78577024026E+02  0.10541519192E+03  0.00000000000E+00 0. -1.
         22    1    3    3    0    0 -0.86919500867E+02 -0.43342968456E+02 -0.35110488372E+03  0.36429143816E+03  0.00000000000E+00 0. -1.
         22    1    3    3    0    0  0.30722774875E+02  0.26529247752E+02 -0.17264596681E+03  0.17735365725E+03  0.00000000000E+00 0. -1.
</event>
<event>
 7    1  0.5779468E-006  0.9930973E+02  0.7818608E-02  0.1355012E+00
          2   -1    0    0  502    0  0.00000000000E+00  0.00000000000E+00  0.59595699556E+03  0.59595699556E+03  0.00000000000E+00 0. -1.
          1   -1    0    0  501    0 -0.00000000000E+00 -0.00000000000E+00 -0.51684167981E+03  0.51684167981E+03  0.00000000000E+00 0. -1.
         25    2    1    2    0    0 -0.14866068290E+03 -0.91191822156E+01  0.41854284185E+03  0.46150518817E+03  0.12500308044E+03 0.  0.
          2    1    1    2  501    0  0.97546175225E+02  0.15417973463E+02 -0.48600201100E+03  0.49593439577E+03  0.00000000000E+00 0. -1.
          1    1    1    2  502    0  0.51114507671E+02 -0.62987912476E+01  0.14657448491E+03  0.15535909143E+03  0.00000000000E+00 0. -1.
         22    1    3    3    0    0 -0.11376244294E+03 -0.41787041324E+01  0.13862657829E+03  0.17937860296E+03  0.00000000000E+00 0. -1.
         22    1    3    3    0    0 -0.34898239958E+02 -0.49404780832E+01  0.27991626356E+03  0.28212658521E+03  0.00000000000E+00 0. -1.
</event>
<event>
 7    1  0.5779468E-006  0.1863493E+03  0.7818608E-02  0.1332303E+00
          2   -1    0    0  502    0  0.00000000000E+00  0.00000000000E+00  0.66975854550E+03  0.66975854550E+03  0.00000000000E+00 0. -1.
          1   -1    0    0  501    0 -0.00000000000E+00 -0.00000000000E+00 -0.77199327198E+03  0.77199327198E+03  0.00000000000E+00 0. -1.
         25    2    1    2    0    0 -0.16775419063E+03  0.12955980833E+03  0.18333175120E+03  0.30685868963E+03  0.12499804795E+03 0.  0.
          2    1    1    2  501    0  0.15712072018E+03 -0.97922433366E+02 -0.69747830756E+03  0.72163128617E+03  0.00000000000E+00 0. -1.
          1    1    1    2  502    0  0.10633470455E+02 -0.31637374966E+02  0.41191182988E+03  0.41326184168E+03  0.00000000000E+00 0. -1.
         22    1    3    3    0    0 -0.84556654488E+02  0.46920938335E+02  0.16051640204E+03  0.18739508424E+03  0.00000000000E+00 0.  1.
         22    1    3    3    0    0 -0.83197536145E+02  0.82638869998E+02  0.22815349162E+02  0.11946360539E+03  0.00000000000E+00 0.  1.
</event>
<event>
 7    1  0.5779468E-006  0.5867340E+02  0.7818608E-02  0.1507690E+00
          2   -1    0    0  502    0  0.00000000000E+00  0.00000000000E+00  0.72646085185E+03  0.72646085185E+03  0.00000000000E+00 0. -1.
          1   -1    0    0  501    0 -0.00000000000E+00 -0.00000000000E+00 -0.77643498125E+02  0.77643498125E+02  0.00000000000E+00 0. -1.
         25    2    1    2    0    0  0.72526219543E+02 -0.38107615778E+02  0.93226907554E+02  0.17614784002E+03  0.12499824939E+03 0.  0.
          2    1    1    2  501    0 -0.46621421241E+02  0.29283615938E+02 -0.14720541171E+02  0.56989309641E+02  0.00000000000E+00 0. -1.
          1    1    1    2  502    0 -0.25904798302E+02  0.88239998397E+01  0.57031098734E+03  0.57096720031E+03  0.00000000000E+00 0. -1.
         22    1    3    3    0    0  0.98546307682E+02 -0.93909055273E+01  0.32653269531E+02  0.10423914752E+03  0.00000000000E+00 0. -1.
         22    1    3    3    0    0 -0.26020088139E+02 -0.28716710250E+02  0.60573638023E+02  0.71908692505E+02  0.00000000000E+00 0. -1.
</event>
<event>
 7    1  0.1510565E-005  0.6874659E+02  0.7818608E-02  0.1455083E+00
          2   -1    0    0  502    0  0.00000000000E+00  0.00000000000E+00  0.14291011837E+04  0.14291011837E+04  0.00000000000E+00 0. -1.
          1   -1    0    0  501    0 -0.00000000000E+00 -0.00000000000E+00 -0.71659701730E+03  0.71659701730E+03  0.00000000000E+00 0. -1.
         25    2    1    2    0    0  0.34394042349E+02  0.31809540683E+02 -0.33632596929E+03  0.36185105306E+03  0.12500491973E+03 0.  0.
          2    1    1    2  501    0  0.31567262189E+02 -0.12213572555E+02 -0.36589115943E+03  0.36745340377E+03  0.00000000000E+00 0. -1.
          1    1    1    2  502    0 -0.65961304538E+02 -0.19595968129E+02  0.14147212951E+04  0.14163937441E+04  0.00000000000E+00 0. -1.
         22    1    3    3    0    0 -0.78625728249E+01  0.52344003308E+02 -0.53900603459E+02  0.75544621165E+02  0.00000000000E+00 0.  1.
         22    1    3    3    0    0  0.42256615174E+02 -0.20534462624E+02 -0.28242536583E+03  0.28630643190E+03  0.00000000000E+00 0.  1.
</event>
<event>
 7    1  0.5779468E-006  0.1012197E+03  0.7818608E-02  0.1431680E+00
          2   -1    0    0  502    0  0.00000000000E+00  0.00000000000E+00  0.61422703082E+03  0.61422703082E+03  0.00000000000E+00 0. -1.
          1   -1    0    0  501    0 -0.00000000000E+00 -0.00000000000E+00 -0.20387265556E+04  0.20387265556E+04  0.00000000000E+00 0. -1.
         25    2    1    2    0    0  0.90321583178E+02  0.39145137685E+02 -0.51476582814E+03  0.53879398496E+03  0.12499908089E+03 0.  0.
          2    1    1    2  501    0  0.10020724029E+02 -0.25458306477E+02 -0.15075640589E+04  0.15078123000E+04  0.00000000000E+00 0. -1.
          1    1    1    2  502    0 -0.10034230721E+03 -0.13686831208E+02  0.59783036226E+03  0.60634730147E+03  0.00000000000E+00 0. -1.
         22    1    3    3    0    0  0.94808995657E+02  0.69578735882E+02 -0.30682938207E+03  0.32859430282E+03  0.00000000000E+00 0.  1.
         22    1    3    3    0    0 -0.44874124786E+01 -0.30433598197E+02 -0.20793644607E+03  0.21019968214E+03  0.00000000000E+00 0.  1.
</event>
<event>
 7    1  0.5779468E-006  0.1719290E+03  0.7818608E-02  0.1354639E+00
          2   -1    0    0  502    0  0.00000000000E+00  0.00000000000E+00  0.17298085778E+04  0.17298085778E+04  0.00000000000E+00 0. -1.
          1   -1    0    0  501    0 -0.00000000000E+00 -0.00000000000E+00 -0.38218999272E+03  0.38218999272E+03  0.00000000000E+00 0. -1.
         25    2    1    2    0    0 -0.17883757238E+03 -0.76657138751E+02 -0.28660895953E+02  0.23302881410E+03  0.12498714746E+03 0.  0.
          2    1    1    2  501    0  0.15471878331E+02  0.25518219290E+02 -0.24593972186E+03  0.24774362822E+03  0.00000000000E+00 0. -1.
          1    1    1    2  502    0  0.16336569405E+03  0.51138919461E+02  0.16222192029E+04  0.16312261282E+04  0.00000000000E+00 0. -1.
         22    1    3    3    0    0 -0.16752874113E+02 -0.27961315987E+02  0.38943052318E+02  0.50784400229E+02  0.00000000000E+00 0.  1.
         22    1    3    3    0    0 -0.16208469827E+03 -0.48695822764E+02 -0.67603948271E+02  0.18224441387E+03  0.00000000000E+00 0.  1.
</event>
<event>
 7    1  0.5779468E-006  0.7650813E+02  0.7818608E-02  0.1396242E+00
          2   -1    0    0  502    0  0.00000000000E+00  0.00000000000E+00  0.64323200680E+02  0.64323200680E+02  0.00000000000E+00 0. -1.
          1   -1    0    0  501    0 -0.00000000000E+00 -0.00000000000E+00 -0.79170126364E+03  0.79170126364E+03  0.00000000000E+00 0. -1.
         25    2    1    2    0    0  0.10979105883E+03  0.13568168653E+02 -0.55873921734E+03  0.58314046636E+03  0.12500047483E+03 0.  0.
          2    1    1    2  501    0 -0.63021758989E+02 -0.44369465919E+01 -0.20399077742E+03  0.21355014838E+03  0.00000000000E+00 0. -1.
          1    1    1    2  502    0 -0.46769299840E+02 -0.91312220612E+01  0.35351931804E+02  0.59333849581E+02  0.00000000000E+00 0. -1.
         22    1    3    3    0    0  0.92993101127E+01  0.40942964807E+01  0.43668400794E+01  0.11059372700E+02  0.00000000000E+00 0.  1.
         22    1    3    3    0    0  0.10049174872E+03  0.94738721724E+01 -0.56310605742E+03  0.57208109366E+03  0.00000000000E+00 0.  1.
</event>
<event>
 7    1  0.5779468E-006  0.1510441E+03  0.7818608E-02  0.1381311E+00
          2   -1    0    0  502    0  0.00000000000E+00  0.00000000000E+00  0.85947952126E+03  0.85947952126E+03  0.00000000000E+00 0. -1.
          1   -1    0    0  501    0 -0.00000000000E+00 -0.00000000000E+00 -0.10364175166E+04  0.10364175166E+04  0.00000000000E+00 0. -1.
         25    2    1    2    0    0  0.13313056042E+03 -0.63996972997E+02  0.60971299701E+03  0.63968237822E+03  0.12499699040E+03 0.  0.
          2    1    1    2  501    0 -0.35747900773E+01 -0.26984348073E+02 -0.99453863217E+03  0.99491106388E+03  0.00000000000E+00 0. -1.
          1    1    1    2  502    0 -0.12955577035E+03  0.90981321070E+02  0.20788763977E+03  0.26130359581E+03  0.00000000000E+00 0. -1.
         22    1    3    3    0    0  0.53337104507E+01  0.26086752813E+02  0.34398970565E+02  0.43500072591E+02  0.00000000000E+00 0. -1.
         22    1    3    3    0    0  0.12779684997E+03 -0.90083725810E+02  0.57531402645E+03  0.59618230563E+03  0.00000000000E+00 0. -1.
</event>
<event>
 7    1  0.5779468E-006  0.9312022E+02  0.7818608E-02  0.1349244E+00
          2   -1    0    0  502    0  0.00000000000E+00  0.00000000000E+00  0.99977076763E+03  0.99977076763E+03  0.00000000000E+00 0. -1.
          1   -1    0    0  501    0 -0.00000000000E+00 -0.00000000000E+00 -0.14723575007E+04  0.14723575007E+04  0.00000000000E+00 0. -1.
         25    2    1    2    0    0 -0.33003601266E+02 -0.33528825426E+02  0.15251508102E+03  0.20272732837E+03  0.12499639954E+03 0.  0.
          2    1    1    2  501    0 -0.57257634580E+02 -0.70126941923E+01 -0.14436961209E+04  0.14448481249E+04  0.00000000000E+00 0. -1.
          1    1    1    2  502    0  0.90261235846E+02  0.40541519619E+02  0.81859430685E+03  0.82455281499E+03  0.00000000000E+00 0. -1.
         22    1    3    3    0    0 -0.31990354856E+02  0.31561211630E+02  0.12356362088E+03  0.13148179071E+03  0.00000000000E+00 0. -1.
         22    1    3    3    0    0 -0.10132464103E+01 -0.65090037056E+02  0.28951460140E+02  0.71245537661E+02  0.00000000000E+00 0. -1.
</event>
<event>
 7    1  0.5779468E-006  0.4467857E+02  0.7818608E-02  0.1504785E+00
          2   -1    0    0  502    0  0.00000000000E+00  0.00000000000E+00  0.28785079029E+04  0.28785079029E+04  0.00000000000E+00 0. -1.
          1   -1    0    0  501    0 -0.00000000000E+00 -0.00000000000E+00 -0.40190954565E+02  0.40190954565E+02  0.00000000000E+00 0. -1.
         25    2    1    2    0    0  0.60678118631E+02 -0.22916579175E+02  0.11404338853E+03  0.18120424390E+03  0.12498831889E+03 0.  0.
          2    1    1    2  501    0 -0.17080566840E+02  0.32434342081E+02  0.45863312922E+02  0.58712654359E+02  0.00000000000E+00 0. -1.
          1    1    1    2  502    0 -0.43597551792E+02 -0.95177629065E+01  0.26784102469E+04  0.26787819592E+04  0.00000000000E+00 0. -1.
         22    1    3    3    0    0  0.37788507564E+02 -0.47284763645E+02  0.13056408405E+03  0.14391247417E+03  0.00000000000E+00 0. -1.
         22    1    3    3    0    0  0.22889611068E+02  0.24368184470E+02 -0.16520695525E+02  0.37291769733E+02  0.00000000000E+00 0. -1.
</event>
<event>
 7    1  0.5779468E-006  0.1230334E+03  0.7818608E-02  0.1411010E+00
          2   -1    0    0  502    0  0.00000000000E+00  0.00000000000E+00  0.67337807297E+03  0.67337807297E+03  0.00000000000E+00 0. -1.
          1   -1    0    0  501    0 -0.00000000000E+00 -0.00000000000E+00 -0.32784743942E+03  0.32784743942E+03  0.00000000000E+00 0. -1.
         25    2    1    2    0    0  0.28247742865E+02  0.11620523475E+03  0.28699013723E+03  0.33509647442E+03  0.12499886696E+03 0.  0.
          2    1    1    2  501    0 -0.54065024064E+02 -0.11079166369E+03 -0.29076979252E+03  0.31582414698E+03  0.00000000000E+00 0. -1.
          1    1    1    2  502    0  0.25817281199E+02 -0.54135710529E+01  0.34931028884E+03  0.35030489099E+03  0.00000000000E+00 0. -1.
         22    1    3    3    0    0  0.22273526604E+02  0.35996496287E+02  0.23621848916E+03  0.23998131668E+03  0.00000000000E+00 0.  1.
         22    1    3    3    0    0  0.59742162606E+01  0.80208738461E+02  0.50771648073E+02  0.95115157748E+02  0.00000000000E+00 0.  1.
</event>
<event>
 7    1  0.5779468E-006  0.1145649E+03  0.7818608E-02  0.1269437E+00
          2   -1    0    0  502    0  0.00000000000E+00  0.00000000000E+00  0.24424880113E+02  0.24424880113E+02  0.00000000000E+00 0. -1.
          1   -1    0    0  501    0 -0.00000000000E+00 -0.00000000000E+00 -0.21776017607E+04  0.21776017607E+04  0.00000000000E+00 0. -1.
         25    2    1    2    0    0 -0.10547290510E+03 -0.60319872916E+02 -0.96600856238E+03  0.98161152488E+03  0.12500248962E+03 0.  0.
          2    1    1    2  501    0  0.77897131376E+02 -0.57585016405E+02 -0.94207355260E+03  0.94704095777E+03  0.00000000000E+00 0. -1.
          1    1    1    2  502    0  0.27575773723E+02  0.11790488932E+03 -0.24509476565E+03  0.27337415820E+03  0.00000000000E+00 0. -1.
         22    1    3    3    0    0 -0.58525434105E+01 -0.73343461239E+02 -0.43602609555E+03  0.44219031148E+03  0.00000000000E+00 0.  1.
         22    1    3    3    0    0 -0.99620361688E+02  0.13023588323E+02 -0.52998246683E+03  0.53942121340E+03  0.00000000000E+00 0.  1.
</event>
<event>
 7    1  0.5779468E-006  0.6510987E+02  0.7818608E-02  0.1477712E+00
          2   -1    0    0  502    0  0.00000000000E+00  0.00000000000E+00  0.14465170943E+04  0.14465170943E+04  0.00000000000E+00 0. -1.
          1   -1    0    0  501    0 -0.00000000000E+00 -0.00000000000E+00 -0.21156926617E+03  0.21156926617E+03  0.00000000000E+00 0. -1.
         25    2    1    2    0    0 -0.38676316889E+02 -0.86448671781E+01  0.56455013187E+02  0.14277136348E+03  0.12500360994E+03 0.  0.
          2    1    1    2  501    0  0.66842010942E+02 -0.27022668046E+01 -0.16158910170E+03  0.17488909189E+03  0.00000000000E+00 0. -1.
          1    1    1    2  502    0 -0.28165694053E+02  0.11347133983E+02  0.13400819166E+04  0.13404259051E+04  0.00000000000E+00 0. -1.
         22    1    3    3    0    0 -0.36535620016E+02  0.19754225938E+02  0.89787763332E+02  0.98928880599E+02  0.00000000000E+00 0. -1.
         22    1    3    3    0    0 -0.21406968723E+01 -0.28399093116E+02 -0.33332750145E+02  0.43842482881E+02  0.00000000000E+00 0. -1.
</event>
<event>
 7    1  0.5779468E-006  0.4036704E+02  0.7818608E-02  0.1560916E+00
          2   -1    0    0  502    0  0.00000000000E+00  0.00000000000E+00  0.76408430629E+03  0.76408430629E+03  0.00000000000E+00 0. -1.
          1   -1    0    0  501    0 -0.00000000000E+00 -0.00000000000E+00 -0.14786939772E+04  0.14786939772E+04  0.00000000000E+00 0. -1.
         25    2    1    2    0    0  0.21204820653E+01  0.29075874456E+02 -0.23332762193E+02  0.13044481615E+03  0.12498611662E+03 0.  0.
          2    1    1    2  501    0 -0.30100187992E+02 -0.27055496577E+02 -0.14012360017E+04  0.14018203714E+04  0.00000000000E+00 0. -1.
          1    1    1    2  502    0  0.27979705927E+02 -0.20203778791E+01  0.70995909296E+03  0.71051309597E+03  0.00000000000E+00 0. -1.
         22    1    3    3    0    0  0.97953710729E+01 -0.34281288874E+02  0.30525601484E+02  0.46935790260E+02  0.00000000000E+00 0. -1.
         22    1    3    3    0    0 -0.76748890076E+01  0.63357163330E+02 -0.53858363677E+02  0.83509025886E+02  0.00000000000E+00 0. -1.
</event>
<event>
 7    1  0.5779468E-006  0.9312515E+02  0.7818608E-02  0.1349943E+00
          2   -1    0    0  502    0  0.00000000000E+00  0.00000000000E+00  0.13349655646E+04  0.13349655646E+04  0.00000000000E+00 0. -1.
          1   -1    0    0  501    0 -0.00000000000E+00 -0.00000000000E+00 -0.30070298252E+04  0.30070298252E+04  0.00000000000E+00 0. -1.
         25    2    1    2    0    0 -0.49916250007E+02  0.62507705398E+02  0.33493287099E+02  0.15213696057E+03  0.12500003697E+03 0.  0.
          2    1    1    2  501    0 -0.41295692001E+02 -0.39779700354E+02 -0.29456501764E+04  0.29462081937E+04  0.00000000000E+00 0. -1.
          1    1    1    2  502    0  0.91211942009E+02 -0.22728005044E+02  0.12400926287E+04  0.12436502355E+04  0.00000000000E+00 0. -1.
         22    1    3    3    0    0 -0.60658999710E+02  0.94249903116E+02  0.37945225059E+02  0.11833173111E+03  0.00000000000E+00 0.  1.
         22    1    3    3    0    0  0.10742749703E+02 -0.31742197718E+02 -0.44519379602E+01  0.33805229459E+02  0.00000000000E+00 0.  1.
</event>
<event>
 7    1  0.5779468E-006  0.2456013E+03  0.7818608E-02  0.1217719E+00
          2   -1    0    0  502    0  0.00000000000E+00  0.00000000000E+00  0.22589459115E+04  0.22589459115E+04  0.00000000000E+00 0. -1.
          1   -1    0    0  501    0 -0.00000000000E+00 -0.00000000000E+00 -0.11978959575E+04  0.11978959575E+04  0.00000000000E+00 0. -1.
         25    2    1    2    0    0 -0.30217279070E+03 -0.92946439587E+02  0.19207602095E+04  0.19506130533E+04  0.12499626131E+03 0.  0.
          2    1    1    2  501    0  0.24030232012E+03  0.48494905952E+02 -0.11655458274E+04  0.11910474536E+04  0.00000000000E+00 0. -1.
          1    1    1    2  502    0  0.61870470586E+02  0.44451533635E+02  0.30583557193E+03  0.31518136213E+03  0.00000000000E+00 0. -1.
         22    1    3    3    0    0 -0.71805990351E+02 -0.81392484508E+02  0.55525899887E+03  0.56576796711E+03  0.00000000000E+00 0. -1.
         22    1    3    3    0    0 -0.23036680035E+03 -0.11553955079E+02  0.13655012106E+04  0.13848450862E+04  0.00000000000E+00 0. -1.
</event>
<event>
 7    1  0.5779468E-006  0.1014584E+03  0.7818608E-02  0.1374800E+00
          2   -1    0    0  502    0  0.00000000000E+00  0.00000000000E+00  0.40634057901E+03  0.40634057901E+03  0.00000000000E+00 0. -1.
          1   -1    0    0  501    0 -0.00000000000E+00 -0.00000000000E+00 -0.10439889588E+04  0.10439889588E+04  0.00000000000E+00 0. -1.
         25    2    1    2    0    0  0.26984259364E+02 -0.12138404143E+03 -0.10024024459E+03  0.20281851729E+03  0.12500003421E+03 0.  0.
          2    1    1    2  501    0  0.10030443944E+02  0.10001620526E+03 -0.88832856787E+03  0.89399748076E+03  0.00000000000E+00 0. -1.
          1    1    1    2  502    0 -0.37014703308E+02  0.21367836173E+02  0.35092043270E+03  0.35351353973E+03  0.00000000000E+00 0. -1.
         22    1    3    3    0    0  0.40944583532E+02 -0.14065776388E+03 -0.10267705226E+03  0.17889561906E+03  0.00000000000E+00 0.  1.
         22    1    3    3    0    0 -0.13960324168E+02  0.19273722447E+02  0.24368076713E+01  0.23922898225E+02  0.00000000000E+00 0.  1.
</event>
<event>
 7    1  0.5779468E-006  0.1318335E+03  0.7818608E-02  0.1302510E+00
          2   -1    0    0  502    0  0.00000000000E+00  0.00000000000E+00  0.72853570738E+03  0.72853570738E+03  0.00000000000E+00 0. -1.
          1   -1    0    0  501    0 -0.00000000000E+00 -0.00000000000E+00 -0.13185581940E+03  0.13185581940E+03  0.00000000000E+00 0. -1.
         25    2    1    2    0    0 -0.80308313978E+02  0.11372827558E+03  0.18649576807E+03  0.26417778129E+03  0.12500273060E+03 0.  0.
          2    1    1    2  501    0 -0.36137114615E+02 -0.49928437021E+02 -0.72756271964E+02  0.95353106851E+02  0.00000000000E+00 0. -1.
          1    1    1    2  502    0  0.11644542859E+03 -0.63799838562E+02  0.48294039187E+03  0.50086063864E+03  0.00000000000E+00 0. -1.
         22    1    3    3    0    0  0.32768262169E+02  0.41170033514E+02  0.57051854689E+02  0.77612143305E+02  0.00000000000E+00 0.  1.
         22    1    3    3    0    0 -0.11307657615E+03  0.72558242070E+02  0.12944391339E+03  0.18656563799E+03  0.00000000000E+00 0.  1.
</event>
<event>
 7    1  0.5779468E-006  0.3221468E+02  0.7818608E-02  0.1594916E+00
          2   -1    0    0  502    0  0.00000000000E+00  0.00000000000E+00  0.28316159321E+03  0.28316159321E+03  0.00000000000E+00 0. -1.
          1   -1    0    0  501    0 -0.00000000000E+00 -0.00000000000E+00 -0.57080967348E+02  0.57080967348E+02  0.00000000000E+00 0. -1.
         25    2    1    2    0    0 -0.54387570199E+01 -0.15613136646E+02  0.12291897677E+03  0.17609080445E+03  0.12500218577E+03 0.  0.
          2    1    1    2  501    0 -0.27627348267E+02  0.69104073805E+01 -0.20989847114E+02  0.35377927926E+02  0.00000000000E+00 0. -1.
          1    1    1    2  502    0  0.33066105287E+02  0.87027292651E+01  0.12415149621E+03  0.12877382819E+03  0.00000000000E+00 0. -1.
         22    1    3    3    0    0  0.28473671106E+02  0.37831938370E+01 -0.15238587006E+02  0.32515796711E+02  0.00000000000E+00 0. -1.
         22    1    3    3    0    0 -0.33912428126E+02 -0.19396330483E+02  0.13815756377E+03  0.14357500773E+03  0.00000000000E+00 0. -1.
</event>
<event>
 7    1  0.5779468E-006  0.3259127E+03  0.7818608E-02  0.1186664E+00
          2   -1    0    0  502    0  0.00000000000E+00  0.00000000000E+00  0.75505286204E+03  0.75505286204E+03  0.00000000000E+00 0. -1.
          1   -1    0    0  501    0 -0.00000000000E+00 -0.00000000000E+00 -0.23333301394E+04  0.23333301394E+04  0.00000000000E+00 0. -1.
         25    2    1    2    0    0 -0.49060158172E+01 -0.25860841788E+03 -0.33212022975E+03  0.43912395252E+03  0.12499446340E+03 0.  0.
          2    1    1    2  501    0  0.33275731657E+02 -0.73124928902E+02 -0.19073123035E+04  0.19090036021E+04  0.00000000000E+00 0. -1.
          1    1    1    2  502    0 -0.28369715839E+02  0.33173334678E+03  0.66115525592E+03  0.74025544684E+03  0.00000000000E+00 0. -1.
         22    1    3    3    0    0 -0.44804385515E+02 -0.23835263831E+03 -0.28007407103E+03  0.37048737956E+03  0.00000000000E+00 0.  1.
         22    1    3    3    0    0  0.39898369698E+02 -0.20255779569E+02 -0.52046158720E+02  0.68636572963E+02  0.00000000000E+00 0.  1.
</event>
<event>
 7    1  0.5779468E-006  0.8275370E+02  0.7818608E-02  0.1481651E+00
          2   -1    0    0  502    0  0.00000000000E+00  0.00000000000E+00  0.47052870965E+03  0.47052870965E+03  0.00000000000E+00 0. -1.
          1   -1    0    0  501    0 -0.00000000000E+00 -0.00000000000E+00 -0.10205646927E+03  0.10205646927E+03  0.00000000000E+00 0. -1.
         25    2    1    2    0    0 -0.69408886658E+02 -0.72796081046E+02  0.23863791820E+03  0.28756206858E+03  0.12500809703E+03 0.  0.
          2    1    1    2  501    0  0.14648064700E+02  0.18036765126E+02 -0.68378692968E+02  0.72218670354E+02  0.00000000000E+00 0. -1.
          1    1    1    2  502    0  0.54760821958E+02  0.54759315920E+02  0.19821301515E+03  0.21280443999E+03  0.00000000000E+00 0. -1.
         22    1    3    3    0    0 -0.21870469352E+02  0.40983689117E+01 -0.89516417843E+01  0.23984285439E+02  0.00000000000E+00 0. -1.
         22    1    3    3    0    0 -0.47538417306E+02 -0.76894449957E+02  0.24758955998E+03  0.26357778314E+03  0.00000000000E+00 0. -1.
</event>
<event>
 7    1  0.5779468E-006  0.1558370E+03  0.7818608E-02  0.1236322E+00
          2   -1    0    0  502    0  0.00000000000E+00  0.00000000000E+00  0.57678497051E+03  0.57678497051E+03  0.00000000000E+00 0. -1.
          1   -1    0    0  501    0 -0.00000000000E+00 -0.00000000000E+00 -0.20273411815E+04  0.20273411815E+04  0.00000000000E+00 0. -1.
         25    2    1    2    0    0 -0.19501758482E+03 -0.30300251340E+01  0.21226265564E+03  0.31419920292E+03  0.12499865879E+03 0.  0.
          2    1    1    2  501    0  0.13330228020E+03  0.80424398083E+02 -0.19654046614E+04  0.19715610731E+04  0.00000000000E+00 0. -1.
          1    1    1    2  502    0  0.61715304620E+02 -0.77394372949E+02  0.30258579481E+03  0.31836587601E+03  0.00000000000E+00 0. -1.
         22    1    3    3    0    0 -0.87055272103E+02  0.38749744843E+02  0.16210084065E+03  0.18803416090E+03  0.00000000000E+00 0. -1.
         22    1    3    3    0    0 -0.10796231271E+03 -0.41779769978E+02  0.50161814991E+02  0.12616504202E+03  0.00000000000E+00 0. -1.
</event>
<event>
 7    1  0.5779468E-006  0.1444433E+03  0.7818608E-02  0.1239731E+00
          2   -1    0    0  502    0  0.00000000000E+00  0.00000000000E+00  0.11795637074E+04  0.11795637074E+04  0.00000000000E+00 0. -1.
          1   -1    0    0  501    0 -0.00000000000E+00 -0.00000000000E+00 -0.62662100269E+03  0.62662100269E+03  0.00000000000E+00 0. -1.
         25    2    1    2    0    0 -0.21863060468E+03  0.41723286057E+02  0.17410625186E+03  0.30899481784E+03  0.12499854645E+03 0.  0.
          2    1    1    2  501    0  0.13983904795E+03  0.24850960695E+02 -0.54724792528E+03  0.56537847616E+03  0.00000000000E+00 0. -1.
          1    1    1    2  502    0  0.78791556736E+02 -0.66574246752E+02  0.92608437818E+03  0.93181141614E+03  0.00000000000E+00 0. -1.
         22    1    3    3    0    0  0.14668241976E+02 -0.72545543517E+01  0.66068949561E+01  0.17647576108E+02  0.00000000000E+00 0. -1.
         22    1    3    3    0    0 -0.23329884666E+03  0.48977840409E+02  0.16749935690E+03  0.29134724173E+03  0.00000000000E+00 0. -1.
</event>
<event>
 7    1  0.5779468E-006  0.4600722E+02  0.7818608E-02  0.1535943E+00
          2   -1    0    0  502    0  0.00000000000E+00  0.00000000000E+00  0.10327986657E+04  0.10327986657E+04  0.00000000000E+00 0. -1.
          1   -1    0    0  501    0 -0.00000000000E+00 -0.00000000000E+00 -0.65302210848E+03  0.65302210848E+03  0.00000000000E+00 0. -1.
         25    2    1    2    0    0  0.56916019938E+01 -0.18599891198E+02  0.55986136471E+03  0.57397621059E+03  0.12500236933E+03 0.  0.
          2    1    1    2  501    0  0.38454507041E+01  0.45886851468E+02 -0.64469433015E+03  0.64633673109E+03  0.00000000000E+00 0. -1.
          1    1    1    2  502    0 -0.95370526979E+01 -0.27286960270E+02  0.46460952270E+03  0.46550783254E+03  0.00000000000E+00 0. -1.
         22    1    3    3    0    0 -0.29224976215E+02  0.39788017859E+02  0.34735317668E+03  0.35084386121E+03  0.00000000000E+00 0.  1.
         22    1    3    3    0    0  0.34916578209E+02 -0.58387909057E+02  0.21250818804E+03  0.22313234938E+03  0.00000000000E+00 0.  1.
</event>
<event>
 7    1  0.5779468E-006  0.7605040E+02  0.7818608E-02  0.1379359E+00
          2   -1    0    0  502    0  0.00000000000E+00  0.00000000000E+00  0.51444668781E+03  0.51444668781E+03  0.00000000000E+00 0. -1.
          1   -1    0    0  501    0 -0.00000000000E+00 -0.00000000000E+00 -0.13723244397E+03  0.13723244397E+03  0.00000000000E+00 0. -1.
         25    2    1    2    0    0 -0.40207883496E+02 -0.77103733554E+02  0.17280130378E+03  0.23031867294E+03  0.12499896356E+03 0.  0.
          2    1    1    2  501    0  0.69983765014E+02  0.30945291815E+02 -0.92135540809E+02  0.11976767649E+03  0.00000000000E+00 0. -1.
          1    1    1    2  502    0 -0.29775881518E+02  0.46158441739E+02  0.29654848087E+03  0.30159278235E+03  0.00000000000E+00 0. -1.
         22    1    3    3    0    0  0.21200509182E+02 -0.16702501347E+01  0.11546853462E+03  0.11741053536E+03  0.00000000000E+00 0.  1.
         22    1    3    3    0    0 -0.61408392678E+02 -0.75433483420E+02  0.57332769157E+02  0.11290813758E+03  0.00000000000E+00 0.  1.
</event>
<event>
 7    1  0.5779468E-006  0.1104984E+03  0.7818608E-02  0.1321010E+00
          2   -1    0    0  502    0  0.00000000000E+00  0.00000000000E+00  0.38044023047E+04  0.38044023047E+04  0.00000000000E+00 0. -1.
          1   -1    0    0  501    0 -0.00000000000E+00 -0.00000000000E+00 -0.12668970690E+04  0.12668970690E+04  0.00000000000E+00 0. -1.
         25    2    1    2    0    0  0.28833872074E+02  0.12481507680E+03 -0.15144736209E+03  0.23445774801E+03  0.12499574609E+03 0.  0.
          2    1    1    2  501    0  0.30460368655E+02 -0.10603078365E+03 -0.10708535169E+04  0.10765210707E+04  0.00000000000E+00 0. -1.
          1    1    1    2  502    0 -0.59294240729E+02 -0.18784293144E+02  0.37598061146E+04  0.37603205550E+04  0.00000000000E+00 0. -1.
         22    1    3    3    0    0  0.50802173983E+02  0.14079948441E+03 -0.11380119238E+03  0.18803209056E+03  0.00000000000E+00 0. -1.
         22    1    3    3    0    0 -0.21968301909E+02 -0.15984407616E+02 -0.37646169716E+02  0.46425657453E+02  0.00000000000E+00 0. -1.
</event>
<event>
 7    1  0.5779468E-006  0.1974482E+03  0.7818608E-02  0.1356423E+00
          2   -1    0    0  502    0  0.00000000000E+00  0.00000000000E+00  0.17959806603E+03  0.17959806603E+03  0.00000000000E+00 0. -1.
          1   -1    0    0  501    0 -0.00000000000E+00 -0.00000000000E+00 -0.25362896448E+04  0.25362896448E+04  0.00000000000E+00 0. -1.
         25    2    1    2    0    0 -0.10577391189E+03  0.17833097442E+03 -0.63916132239E+03  0.68347911759E+03  0.12500580495E+03 0.  0.
          2    1    1    2  501    0  0.11794169793E+03 -0.15581199327E+03 -0.18687996092E+04  0.18789889836E+04  0.00000000000E+00 0. -1.
          1    1    1    2  502    0 -0.12167786046E+02 -0.22518981158E+02  0.15126935277E+03  0.15341960962E+03  0.00000000000E+00 0. -1.
         22    1    3    3    0    0 -0.20747669113E+02  0.15155081224E+03 -0.40349732066E+03  0.43151848424E+03  0.00000000000E+00 0. -1.
         22    1    3    3    0    0 -0.85026242775E+02  0.26780162188E+02 -0.23566400173E+03  0.25196063335E+03  0.00000000000E+00 0. -1.
</event>
<event>
 7    1  0.5779468E-006  0.2607670E+03  0.7818608E-02  0.1173953E+00
          2   -1    0    0  502    0  0.00000000000E+00  0.00000000000E+00  0.43126609059E+04  0.43126609059E+04  0.00000000000E+00 0. -1.
          1   -1    0    0  501    0 -0.00000000000E+00 -0.00000000000E+00 -0.21741516155E+04  0.21741516155E+04  0.00000000000E+00 0. -1.
         25    2    1    2    0    0 -0.15700609514E+03 -0.19750892766E+02  0.44264301313E+03  0.48641349450E+03  0.12499695547E+03 0.  0.
          2    1    1    2  501    0  0.26067287134E+03 -0.31901891414E+02 -0.21433786905E+04  0.21594073927E+04  0.00000000000E+00 0. -1.
          1    1    1    2  502    0 -0.10366677620E+03  0.51652784180E+02  0.38392449679E+04  0.38409916342E+04  0.00000000000E+00 0. -1.
         22    1    3    3    0    0 -0.25365347309E+02 -0.46290923457E+02  0.55282367508E+02  0.76435532287E+02  0.00000000000E+00 0. -1.
         22    1    3    3    0    0 -0.13164074783E+03  0.26540030692E+02  0.38736064562E+03  0.40997796221E+03  0.00000000000E+00 0. -1.
</event>
<event>
 7    1  0.5779468E-006  0.1188205E+03  0.7818608E-02  0.1301670E+00
          2   -1    0    0  502    0  0.00000000000E+00  0.00000000000E+00  0.61380874241E+03  0.61380874241E+03  0.00000000000E+00 0. -1.
          1   -1    0    0  501    0 -0.00000000000E+00 -0.00000000000E+00 -0.20802204646E+03  0.20802204646E+03  0.00000000000E+00 0. -1.
         25    2    1    2    0    0  0.15302972713E+01 -0.15831216101E+03 -0.86728858890E+02  0.21957105796E+03  0.12499788957E+03 0.  0.
          2    1    1    2  501    0  0.19305065354E+02  0.92623002916E+02 -0.99090054872E+01  0.95130934018E+02  0.00000000000E+00 0. -1.
          1    1    1    2  502    0 -0.20835362626E+02  0.65689158090E+02  0.50242456032E+03  0.50712879690E+03  0.00000000000E+00 0. -1.
         22    1    3    3    0    0 -0.48670211870E+02 -0.68008657451E+02 -0.80477858312E+02  0.11606314096E+03  0.00000000000E+00 0. -1.
         22    1    3    3    0    0  0.50200509142E+02 -0.90303503555E+02 -0.62510005779E+01  0.10350791699E+03  0.00000000000E+00 0. -1.
</event>
<event>
 7    1  0.5779468E-006  0.1479045E+03  0.7818608E-02  0.1240115E+00
          2   -1    0    0  502    0  0.00000000000E+00  0.00000000000E+00  0.33872360578E+03  0.33872360578E+03  0.00000000000E+00 0. -1.
          1   -1    0    0  501    0 -0.00000000000E+00 -0.00000000000E+00 -0.17259923064E+04  0.17259923064E+04  0.00000000000E+00 0. -1.
         25    2    1    2    0    0  0.19727949592E+03 -0.11203630778E+03  0.27631279877E+02  0.26049861360E+03  0.12499882514E+03 0.  0.
          2    1    1    2  501    0 -0.97403901133E+02  0.24117128064E+02 -0.15850468140E+04  0.15882199339E+04  0.00000000000E+00 0. -1.
          1    1    1    2  502    0 -0.99875594784E+02  0.87919179720E+02  0.17014683352E+03  0.21599736469E+03  0.00000000000E+00 0. -1.
         22    1    3    3    0    0  0.18015730346E+02 -0.10752315763E+02 -0.38833746181E+02  0.44138856766E+02  0.00000000000E+00 0.  1.
         22    1    3    3    0    0  0.17926376557E+03 -0.10128399202E+03  0.66465026059E+02  0.21635975683E+03  0.00000000000E+00 0.  1.
</event>
<event>
 7    1  0.5779468E-006  0.6489340E+02  0.7818608E-02  0.1464816E+00
          2   -1    0    0  502    0  0.00000000000E+00  0.00000000000E+00  0.95664246336E+03  0.95664246336E+03  0.00000000000E+00 0. -1.
          1   -1    0    0  501    0 -0.00000000000E+00 -0.00000000000E+00 -0.15725328324E+03  0.15725328324E+03  0.00000000000E+00 0. -1.
         25    2    1    2    0    0 -0.34992428620E+02  0.97489281990E+01  0.41034423214E+03  0.43049600894E+03  0.12499965281E+03 0.  0.
          2    1    1    2  501    0  0.65279592877E+02  0.43542435550E+01 -0.13935286124E+03  0.15394675904E+03  0.00000000000E+00 0. -1.
          1    1    1    2  502    0 -0.30287164257E+02 -0.14103171754E+02  0.52839780922E+03  0.52945297862E+03  0.00000000000E+00 0. -1.
         22    1    3    3    0    0 -0.64703202059E+02 -0.36219451144E+01  0.38155162482E+03  0.38701584625E+03  0.00000000000E+00 0.  1.
         22    1    3    3    0    0  0.29710773440E+02  0.13370873313E+02  0.28792607314E+02  0.43480162689E+02  0.00000000000E+00 0.  1.
</event>
<event>
 7    1  0.5779468E-006  0.8969744E+02  0.7818608E-02  0.1357422E+00
          2   -1    0    0  502    0  0.00000000000E+00  0.00000000000E+00  0.89692166991E+03  0.89692166991E+03  0.00000000000E+00 0. -1.
          1   -1    0    0  501    0 -0.00000000000E+00 -0.00000000000E+00 -0.17437978140E+04  0.17437978140E+04  0.00000000000E+00 0. -1.
         25    2    1    2    0    0  0.70262407265E+02  0.49093374707E+02 -0.60174984758E+02  0.16307355063E+03  0.12499995524E+03 0.  0.
          2    1    1    2  501    0 -0.90148237103E+02  0.31183423275E+01 -0.16300022125E+04  0.16324961383E+04  0.00000000000E+00 0. -1.
          1    1    1    2  502    0  0.19885829838E+02 -0.52211717035E+02  0.84330105320E+03  0.84514979497E+03  0.00000000000E+00 0. -1.
         22    1    3    3    0    0  0.59737043863E+02 -0.85131757294E+01  0.20196383503E+02  0.63630829612E+02  0.00000000000E+00 0. -1.
         22    1    3    3    0    0  0.10525363402E+02  0.57606550436E+02 -0.80371368261E+02  0.99442721021E+02  0.00000000000E+00 0. -1.
</event>
<event>
 7    1  0.5779468E-006  0.1670759E+03  0.7818608E-02  0.1255106E+00
          2   -1    0    0  502    0  0.00000000000E+00  0.00000000000E+00  0.22444951471E+04  0.22444951471E+04  0.00000000000E+00 0. -1.
          1   -1    0    0  501    0 -0.00000000000E+00 -0.00000000000E+00 -0.20016115940E+04  0.20016115940E+04  0.00000000000E+00 0. -1.
         25    2    1    2    0    0  0.44855766582E+02 -0.86773199584E+02 -0.41066513827E+02  0.16386363878E+03  0.12499282217E+03 0.  0.
          2    1    1    2  501    0 -0.10100205872E+03  0.13863249463E+03 -0.18946021382E+04  0.19023505583E+04  0.00000000000E+00 0. -1.
          1    1    1    2  502    0  0.56146292142E+02 -0.51859295044E+02  0.21785522052E+04  0.21798925440E+04  0.00000000000E+00 0. -1.
         22    1    3    3    0    0  0.30062710998E+01  0.30289293983E+02  0.58351232434E+01  0.30992380664E+02  0.00000000000E+00 0. -1.
         22    1    3    3    0    0  0.41849495482E+02 -0.11706249357E+03 -0.46901637070E+02  0.13287125811E+03  0.00000000000E+00 0. -1.
</event>
<event>
 7    1  0.5779468E-006  0.2641430E+03  0.7818608E-02  0.1184332E+00
          2   -1    0    0  502    0  0.00000000000E+00  0.00000000000E+00  0.24708653871E+04  0.24708653871E+04  0.00000000000E+00 0. -1.
          1   -1    0    0  501    0 -0.00000000000E+00 -0.00000000000E+00 -0.33692396113E+03  0.33692396113E+03  0.00000000000E+00 0. -1.
         25    2    1    2    0    0  0.22249013959E+03 -0.28130590038E+03  0.13439698459E+04  0.13966082766E+04  0.12499944012E+03 0.  0.
          2    1    1    2  501    0 -0.14333056634E+03  0.21740301630E+03 -0.25311453333E+03  0.36314554895E+03  0.00000000000E+00 0. -1.
          1    1    1    2  502    0 -0.79159573250E+02  0.63902884083E+02  0.10430861134E+04  0.10480355226E+04  0.00000000000E+00 0. -1.
         22    1    3    3    0    0 -0.12067802663E+02 -0.77027742514E+01  0.20886380708E+02  0.25322035688E+02  0.00000000000E+00 0. -1.
         22    1    3    3    0    0  0.23455794225E+03 -0.27360312613E+03  0.13230834651E+04  0.13712862410E+04  0.00000000000E+00 0. -1.
</event>
<event>
 7    1  0.6946169E-006  0.1256228E+03  0.7818608E-02  0.1412512E+00
          2   -1    0    0  502    0  0.00000000000E+00  0.00000000000E+00  0.14369285617E+04  0.14369285617E+04  0.00000000000E+00 0. -1.
          1   -1    0    0  501    0 -0.00000000000E+00 -0.00000000000E+00 -0.11857890981E+04  0.11857890981E+04  0.00000000000E+00 0. -1.
         25    2    1    2    0    0 -0.11625830241E+03 -0.17176221384E+01 -0.46445942765E+03  0.49483987847E+03  0.12500000913E+03 0.  0.
          2    1    1    2  501    0 -0.73585052496E+01  0.24451660142E+02 -0.70312930777E+03  0.70359281885E+03  0.00000000000E+00 0. -1.
          1    1    1    2  502    0  0.12361680766E+03 -0.22734038004E+02  0.14187281991E+04  0.14242849625E+04  0.00000000000E+00 0. -1.
         22    1    3    3    0    0 -0.22853079525E+02  0.55294843357E+02 -0.13449491526E+03  0.14720280288E+03  0.00000000000E+00 0.  1.
         22    1    3    3    0    0 -0.93405222886E+02 -0.57012465496E+02 -0.32996451239E+03  0.34763707558E+03  0.00000000000E+00 0.  1.
</event>
