<event>
 7    1  0.7527776E-006  0.5273319E+02  0.7818608E-02  0.1459745E+00
          2   -1    0    0  502    0  0.00000000000E+00  0.00000000000E+00  0.10090514258E+04  0.10090514258E+04  0.00000000000E+00 0. -1.
          1   -1    0    0  501    0 -0.00000000000E+00 -0.00000000000E+00 -0.54226609695E+03  0.54226609695E+03  0.00000000000E+00 0. -1.
         25    2    1    2    0    0  0.73403909690E+02  0.47740409681E+02  0.50771651467E+03  0.53015880077E+03  0.12500005638E+03 0.  0.
          2    1    1    2  501    0 -0.26256683015E+02 -0.33611648075E+02 -0.52894870713E+03  0.53066551713E+03  0.00000000000E+00 0. -1.
          1    1    1    2  502    0 -0.47147226675E+02 -0.14128761605E+02  0.48801752132E+03  0.49049320485E+03  0.00000000000E+00 0. -1.
         22    1    3    3    0    0  0.25923022712E+02  0.86076363723E+02  0.34006156629E+03  0.35174282134E+03  0.00000000000E+00 0.  1.
         22    1    3    3    0    0  0.47480886978E+02 -0.38335954042E+02  0.16765494838E+03  0.17841597943E+03  0.00000000000E+00 0.  1.
</event>
<event>
 7    1  0.7527776E-006  0.3882392E+02  0.7818608E-02  0.1562609E+00
          2   -1    0    0  502    0  0.00000000000E+00  0.00000000000E+00  0.13971767461E+04  0.13971767461E+04  0.00000000000E+00 0. -1.
          1   -1    0    0  501    0 -0.00000000000E+00 -0.00000000000E+00 -0.13938057931E+03  0.13938057931E+03  0.00000000000E+00 0. -1.
         25    2    1    2    0    0  0.13834430371E+02  0.65218602043E+01  0.14465663254E+03  0.19179253551E+03  0.12499963686E+03 0.  0.
          2    1    1    2  501    0 -0.17788107737E+02 -0.35106653200E+02 -0.11229432312E+03  0.11899121346E+03  0.00000000000E+00 0. -1.
          1    1    1    2  502    0  0.39536773657E+01  0.28584792995E+02  0.12254338574E+04  0.12257735765E+04  0.00000000000E+00 0. -1.
         22    1    3    3    0    0 -0.14643759166E+02  0.34431518582E+02 -0.42340476281E+01  0.37654963998E+02  0.00000000000E+00 0.  1.
         22    1    3    3    0    0  0.28478189538E+02 -0.27909658378E+02  0.14889068017E+03  0.15413757151E+03  0.00000000000E+00 0.  1.
</event>
<event>
 7    1  0.7527776E-006  0.6805084E+02  0.7818608E-02  0.1383387E+00
          2   -1    0    0  502    0  0.00000000000E+00  0.00000000000E+00  0.36092360068E+03  0.36092360068E+03  0.00000000000E+00 0. -1.
          1   -1    0    0  501    0 -0.00000000000E+00 -0.00000000000E+00 -0.71170062936E+02  0.71170062936E+02  0.00000000000E+00 0. -1.
         25    2    1    2    0    0  0.27831562436E+02  0.21033544172E+02  0.92976740506E+02  0.15964431691E+03  0.12499851118E+03 0.  0.
          2    1    1    2  501    0  0.48599418199E+02 -0.34164660449E+02 -0.16260036660E+01  0.59428708221E+02  0.00000000000E+00 0. -1.
          1    1    1    2  502    0 -0.76430980636E+02  0.13131116277E+02  0.19840280090E+03  0.21302063849E+03  0.00000000000E+00 0. -1.
         22    1    3    3    0    0 -0.17466615851E+02  0.38234603369E+02 -0.12261504486E+02  0.43787122038E+02  0.00000000000E+00 0.  1.
         22    1    3    3    0    0  0.45298178287E+02 -0.17201059197E+02  0.10523824499E+03  0.11585719487E+03  0.00000000000E+00 0.  1.
</event>
<event>
 7    1  0.7527776E-006  0.5067141E+02  0.7818608E-02  0.1553506E+00
          2   -1    0    0  502    0  0.00000000000E+00  0.00000000000E+00  0.15640871836E+04  0.15640871836E+04  0.00000000000E+00 0. -1.
          1   -1    0    0  501    0 -0.00000000000E+00 -0.00000000000E+00 -0.45761602450E+03  0.45761602450E+03  0.00000000000E+00 0. -1.
         25    2    1    2    0    0  0.46134387103E+02  0.64218181040E+01 -0.24825270623E+03  0.28181531842E+03  0.12498338339E+03 0.  0.
          2    1    1    2  501    0 -0.48101179121E+01  0.22927434158E+02 -0.19145276318E+03  0.19288070148E+03  0.00000000000E+00 0. -1.
          1    1    1    2  502    0 -0.41324269190E+02 -0.29349252262E+02  0.15461766285E+04  0.15470071882E+04  0.00000000000E+00 0. -1.
         22    1    3    3    0    0  0.64334503790E+02 -0.36867801688E+01 -0.25247812300E+03  0.26057191583E+03  0.00000000000E+00 0. -1.
         22    1    3    3    0    0 -0.18200116687E+02  0.10108598273E+02  0.42254167743E+01  0.21243402585E+02  0.00000000000E+00 0. -1.
</event>
<event>
 7    1  0.7527776E-006  0.2021539E+03  0.7818608E-02  0.1254696E+00
          2   -1    0    0  502    0  0.00000000000E+00  0.00000000000E+00  0.60796674954E+03  0.60796674954E+03  0.00000000000E+00 0. -1.
          1   -1    0    0  501    0 -0.00000000000E+00 -0.00000000000E+00 -0.13951260933E+03  0.13951260933E+03  0.00000000000E+00 0. -1.
         25    2    1    2    0    0  0.17808672993E+02  0.16116997917E+03  0.11847478215E+03  0.23654444287E+03  0.12499635366E+03 0.  0.
          2    1    1    2  501    0 -0.14491123242E+02  0.61748856073E+02 -0.30168148615E+02  0.70235539935E+02  0.00000000000E+00 0. -1.
          1    1    1    2  502    0 -0.33175497512E+01 -0.22291883524E+03  0.38014750666E+03  0.44069937607E+03  0.00000000000E+00 0. -1.
         22    1    3    3    0    0  0.13163318323E+01  0.31605540171E+02  0.99692715145E+02  0.10459101468E+03  0.00000000000E+00 0. -1.
         22    1    3    3    0    0  0.16492341160E+02  0.12956443900E+03  0.18782067008E+02  0.13195342819E+03  0.00000000000E+00 0. -1.
</event>
<event>
 7    1  0.7527776E-006  0.3925924E+02  0.7818608E-02  0.1545009E+00
          2   -1    0    0  502    0  0.00000000000E+00  0.00000000000E+00  0.47252289668E+02  0.47252289668E+02  0.00000000000E+00 0. -1.
          1   -1    0    0  501    0 -0.00000000000E+00 -0.00000000000E+00 -0.80716339020E+03  0.80716339020E+03  0.00000000000E+00 0. -1.
         25    2    1    2    0    0 -0.68445219171E+01  0.49739932355E+01 -0.39677898758E+03  0.41608913086E+03  0.12500004701E+03 0.  0.
          2    1    1    2  501    0 -0.30255407372E+02  0.10217779117E+02 -0.38919926892E+03  0.39050718766E+03  0.00000000000E+00 0. -1.
          1    1    1    2  502    0  0.37099929289E+02 -0.15191772353E+02  0.26067155956E+02  0.47819361352E+02  0.00000000000E+00 0. -1.
         22    1    3    3    0    0 -0.25342594041E+02 -0.16258578996E+02 -0.38397657086E+03  0.38515528743E+03  0.00000000000E+00 0.  1.
         22    1    3    3    0    0  0.18498072124E+02  0.21232572231E+02 -0.12802416711E+02  0.30933843432E+02  0.00000000000E+00 0.  1.
</event>
<event>
 7    1  0.7527776E-006  0.1159013E+03  0.7818608E-02  0.1258610E+00
          2   -1    0    0  502    0  0.00000000000E+00  0.00000000000E+00  0.12903625211E+04  0.12903625211E+04  0.00000000000E+00 0. -1.
          1   -1    0    0  501    0 -0.00000000000E+00 -0.00000000000E+00 -0.39731991842E+02  0.39731991842E+02  0.00000000000E+00 0. -1.
         25    2    1    2    0    0  0.64084843637E+02  0.56071817400E+02  0.34623892150E+03  0.37783309502E+03  0.12500216413E+03 0.  0.
          2    1    1    2  501    0  0.54215525387E+02 -0.10243914582E+03  0.16267757442E+03  0.19974257185E+03  0.00000000000E+00 0. -1.
          1    1    1    2  502    0 -0.11830036902E+03  0.46367328415E+02  0.74171403334E+03  0.75251884608E+03  0.00000000000E+00 0. -1.
         22    1    3    3    0    0  0.16441257222E+01 -0.38109571658E+02  0.81392434334E+02  0.89887546236E+02  0.00000000000E+00 0. -1.
         22    1    3    3    0    0  0.62440717915E+02  0.94181389058E+02  0.26484648717E+03  0.28794554878E+03  0.00000000000E+00 0. -1.
</event>
<event>
 7    1  0.7527776E-006  0.5206371E+02  0.7818608E-02  0.1488455E+00
          2   -1    0    0  502    0  0.00000000000E+00  0.00000000000E+00  0.46747813504E+04  0.46747813504E+04  0.00000000000E+00 0. -1.
          1   -1    0    0  501    0 -0.00000000000E+00 -0.00000000000E+00 -0.11838678308E+02  0.11838678308E+02  0.00000000000E+00 0. -1.
         25    2    1    2    0    0 -0.30594410868E+01 -0.82153052865E+02  0.28872350450E+04  0.28911087514E+04  0.12500049027E+03 0.  0.
          2    1    1    2  501    0  0.37275595470E+01  0.35013058754E+02  0.22752657547E+02  0.41922457096E+02  0.00000000000E+00 0. -1.
          1    1    1    2  502    0 -0.66811846019E+00  0.47139994111E+02  0.17529549695E+04  0.17535888202E+04  0.00000000000E+00 0. -1.
         22    1    3    3    0    0 -0.58921114679E+02 -0.29002513759E+02  0.90773547115E+03  0.91010797664E+03  0.00000000000E+00 0.  1.
         22    1    3    3    0    0  0.55861673592E+02 -0.53150539106E+02  0.19794995739E+04  0.19810007747E+04  0.00000000000E+00 0.  1.
</event>
<event>
 7    1  0.7527776E-006  0.1018872E+03  0.7818608E-02  0.1373206E+00
          2   -1    0    0  502    0  0.00000000000E+00  0.00000000000E+00  0.66992548246E+03  0.66992548246E+03  0.00000000000E+00 0. -1.
          1   -1    0    0  501    0 -0.00000000000E+00 -0.00000000000E+00 -0.96311971334E+02  0.96311971334E+02  0.00000000000E+00 0. -1.
         25    2    1    2    0    0  0.39943816692E+02 -0.79676408273E+02  0.18931415999E+03  0.24373955989E+03  0.12500113342E+03 0.  0.
          2    1    1    2  501    0 -0.53358487199E+01  0.10540132686E+03 -0.27007139368E+02  0.10893712205E+03  0.00000000000E+00 0. -1.
          1    1    1    2  502    0 -0.34607967972E+02 -0.25724918583E+02  0.41130649050E+03  0.41356077185E+03  0.00000000000E+00 0. -1.
         22    1    3    3    0    0  0.77831438798E+02 -0.24691459175E+02  0.72541022403E+02  0.10922271262E+03  0.00000000000E+00 0.  1.
         22    1    3    3    0    0 -0.37887622107E+02 -0.54984949098E+02  0.11677313759E+03  0.13451684727E+03  0.00000000000E+00 0.  1.
</event>
<event>
 7    1  0.7527776E-006  0.1471783E+03  0.7818608E-02  0.1290141E+00
          2   -1    0    0  502    0  0.00000000000E+00  0.00000000000E+00  0.16265853876E+04  0.16265853876E+04  0.00000000000E+00 0. -1.
          1   -1    0    0  501    0 -0.00000000000E+00 -0.00000000000E+00 -0.30351735024E+03  0.30351735024E+03  0.00000000000E+00 0. -1.
         25    2    1    2    0    0  0.61911788845E+02 -0.19850337558E+03  0.10958240823E+04  0.11223599450E+04  0.12499906894E+03 0.  0.
          2    1    1    2  501    0 -0.40091378124E+02  0.14055872465E+03 -0.26980453565E+03  0.30685267007E+03  0.00000000000E+00 0. -1.
          1    1    1    2  502    0 -0.21820410721E+02  0.57944650929E+02  0.49704849073E+03  0.50089012272E+03  0.00000000000E+00 0. -1.
         22    1    3    3    0    0  0.88969531930E+02 -0.76029463095E+02  0.54909503617E+03  0.56142801464E+03  0.00000000000E+00 0. -1.
         22    1    3    3    0    0 -0.27057743085E+02 -0.12247391248E+03  0.54672904609E+03  0.56093193039E+03  0.00000000000E+00 0. -1.
</event>
<event>
 7    1  0.7527776E-006  0.8125174E+02  0.7818608E-02  0.1347177E+00
          2   -1    0    0  502    0  0.00000000000E+00  0.00000000000E+00  0.96792902779E+03  0.96792902779E+03  0.00000000000E+00 0. -1.
          1   -1    0    0  501    0 -0.00000000000E+00 -0.00000000000E+00 -0.13118583059E+03  0.13118583059E+03  0.00000000000E+00 0. -1.
         25    2    1    2    0    0 -0.73018079342E+02  0.75975540925E+01  0.21110328162E+03  0.25608240164E+03  0.12499695268E+03 0.  0.
          2    1    1    2  501    0  0.46481024182E+02 -0.69434794521E+02 -0.90825647027E+02  0.12341383414E+03  0.00000000000E+00 0. -1.
          1    1    1    2  502    0  0.26537055160E+02  0.61837240429E+02  0.71646556260E+03  0.71961862260E+03  0.00000000000E+00 0. -1.
         22    1    3    3    0    0 -0.21601924150E+02 -0.12350806993E+02  0.19778842027E+03  0.19934754765E+03  0.00000000000E+00 0. -1.
         22    1    3    3    0    0 -0.51416155193E+02  0.19948361086E+02  0.13314861352E+02  0.56734853993E+02  0.00000000000E+00 0. -1.
</event>
<event>
 7    1  0.7527776E-006  0.4398240E+02  0.7818608E-02  0.1583972E+00
          2   -1    0    0  502    0  0.00000000000E+00  0.00000000000E+00  0.88912605872E+03  0.88912605872E+03  0.00000000000E+00 0. -1.
          1   -1    0    0  501    0 -0.00000000000E+00 -0.00000000000E+00 -0.28056366205E+03  0.28056366205E+03  0.00000000000E+00 0. -1.
         25    2    1    2    0    0  0.34207625159E+02 -0.39695569375E+01 -0.88247147056E+02  0.15684120798E+03  0.12500274619E+03 0.  0.
          2    1    1    2  501    0  0.62415586487E+01  0.21407394183E+02 -0.15666202969E+03  0.15824103490E+03  0.00000000000E+00 0. -1.
          1    1    1    2  502    0 -0.40449183808E+02 -0.17437837245E+02  0.85347157341E+03  0.85460747789E+03  0.00000000000E+00 0. -1.
         22    1    3    3    0    0 -0.21931713541E+02  0.48166556158E+02 -0.39390058935E+02  0.65974191423E+02  0.00000000000E+00 0.  1.
         22    1    3    3    0    0  0.56139338700E+02 -0.52136113096E+02 -0.48857088120E+02  0.90867016557E+02  0.00000000000E+00 0.  1.
</event>
<event>
 7    1  0.7527776E-006  0.6914807E+02  0.7818608E-02  0.1475392E+00
          2   -1    0    0  502    0  0.00000000000E+00  0.00000000000E+00  0.23309024430E+04  0.23309024430E+04  0.00000000000E+00 0. -1.
          1   -1    0    0  501    0 -0.00000000000E+00 -0.00000000000E+00 -0.63532596426E+03  0.63532596426E+03  0.00000000000E+00 0. -1.
         25    2    1    2    0    0 -0.49123966568E+02 -0.15107836664E+02  0.43802400444E+03  0.45839716050E+03  0.12498606910E+03 0.  0.
          2    1    1    2  501    0  0.53603781809E+02  0.43827450117E+02 -0.62310947952E+03  0.62694468200E+03  0.00000000000E+00 0. -1.
          1    1    1    2  502    0 -0.44798152401E+01 -0.28719613453E+02  0.18806619539E+04  0.18808865648E+04  0.00000000000E+00 0. -1.
         22    1    3    3    0    0 -0.62220823323E+02  0.33810145760E+02  0.14901425288E+03  0.16498425492E+03  0.00000000000E+00 0.  1.
         22    1    3    3    0    0  0.13096856755E+02 -0.48917982423E+02  0.28900975157E+03  0.29341290558E+03  0.00000000000E+00 0.  1.
</event>
<event>
 7    1  0.7527776E-006  0.3966708E+02  0.7818608E-02  0.1511012E+00
          2   -1    0    0  502    0  0.00000000000E+00  0.00000000000E+00  0.11430793483E+04  0.11430793483E+04  0.00000000000E+00 0. -1.
          1   -1    0    0  501    0 -0.00000000000E+00 -0.00000000000E+00 -0.28256295177E+02  0.28256295177E+02  0.00000000000E+00 0. -1.
         25    2    1    2    0    0 -0.73365797333E+01  0.94120078068E+01  0.43340796838E+03  0.45123177038E+03  0.12500092901E+03 0.  0.
          2    1    1    2  501    0 -0.23448934930E+02 -0.34283306012E+02  0.42155783212E+01  0.41748876884E+02  0.00000000000E+00 0. -1.
          1    1    1    2  502    0  0.30785514663E+02  0.24871298206E+02  0.67719950638E+03  0.67835499617E+03  0.00000000000E+00 0. -1.
         22    1    3    3    0    0  0.57732106273E+01 -0.47844506748E+02  0.83341815318E+02  0.96271932397E+02  0.00000000000E+00 0.  1.
         22    1    3    3    0    0 -0.13109790361E+02  0.57256514555E+02  0.35006615306E+03  0.35495983798E+03  0.00000000000E+00 0.  1.
</event>
<event>
 7    1  0.7527776E-006  0.9996117E+02  0.7818608E-02  0.1464734E+00
          2   -1    0    0  502    0  0.00000000000E+00  0.00000000000E+00  0.55413375002E+03  0.55413375002E+03  0.00000000000E+00 0. -1.
          1   -1    0    0  501    0 -0.00000000000E+00 -0.00000000000E+00 -0.56506200177E+03  0.56506200177E+03  0.00000000000E+00 0. -1.
         25    2    1    2    0    0 -0.99801510746E+02  0.10641954335E+02  0.10431419345E+03  0.19125816596E+03  0.12499856940E+03 0.  0.
          2    1    1    2  501    0  0.47885160170E+01  0.21167175146E+02 -0.51518155120E+03  0.51563844881E+03  0.00000000000E+00 0. -1.
          1    1    1    2  502    0  0.95012994729E+02 -0.31809129481E+02  0.39993910600E+03  0.41229913703E+03  0.00000000000E+00 0. -1.
         22    1    3    3    0    0 -0.30439182533E+01  0.49308556543E+01 -0.27242106853E+02  0.27851591725E+02  0.00000000000E+00 0.  1.
         22    1    3    3    0    0 -0.96757592492E+02  0.57110986803E+01  0.13155630031E+03  0.16340657423E+03  0.00000000000E+00 0.  1.
</event>
<event>
 7    1  0.7527776E-006  0.2049394E+03  0.7818608E-02  0.1229021E+00
          2   -1    0    0  502    0  0.00000000000E+00  0.00000000000E+00  0.14957436131E+04  0.14957436131E+04  0.00000000000E+00 0. -1.
          1   -1    0    0  501    0 -0.00000000000E+00 -0.00000000000E+00 -0.10187303312E+04  0.10187303312E+04  0.00000000000E+00 0. -1.
         25    2    1    2    0    0  0.19613106564E+03  0.20395069552E+03 -0.33760012485E+03  0.45788853941E+03  0.12499915643E+03 0.  0.
          2    1    1    2  501    0 -0.45245708903E+02 -0.67350560476E+02 -0.61107690071E+03  0.61643998147E+03  0.00000000000E+00 0. -1.
          1    1    1    2  502    0 -0.15088535674E+03 -0.13660013505E+03  0.14256903075E+04  0.14401454234E+04  0.00000000000E+00 0. -1.
         22    1    3    3    0    0  0.74773865471E+02  0.44816498060E+02 -0.19054806614E+03  0.20954287143E+03  0.00000000000E+00 0.  1.
         22    1    3    3    0    0  0.12135720017E+03  0.15913419746E+03 -0.14705205871E+03  0.24834566799E+03  0.00000000000E+00 0.  1.
</event>
<event>
 7    1  0.7527776E-006  0.5122598E+02  0.7818608E-02  0.1479349E+00
          2   -1    0    0  502    0  0.00000000000E+00  0.00000000000E+00  0.92587008502E+03  0.92587008502E+03  0.00000000000E+00 0. -1.
          1   -1    0    0  501    0 -0.00000000000E+00 -0.00000000000E+00 -0.22340839250E+02  0.22340839250E+02  0.00000000000E+00 0. -1.
         25    2    1    2    0    0 -0.97233766130E+01  0.20320379962E+02  0.39890552379E+03  0.41863861780E+03  0.12500085401E+03 0.  0.
          2    1    1    2  501    0  0.45620359701E+02 -0.33239297358E+02  0.56627678072E+02  0.79954749903E+02  0.00000000000E+00 0. -1.
          1    1    1    2  502    0 -0.35896983088E+02  0.12918917396E+02  0.44799604391E+03  0.44961755657E+03  0.00000000000E+00 0. -1.
         22    1    3    3    0    0 -0.60390438103E+01  0.26931948599E+02  0.40678064675E+03  0.40771594827E+03  0.00000000000E+00 0. -1.
         22    1    3    3    0    0 -0.36843328026E+01 -0.66115686374E+01 -0.78751229547E+01  0.10922669527E+02  0.00000000000E+00 0. -1.
</event>
<event>
 7    1  0.7527776E-006  0.2011095E+03  0.7818608E-02  0.1306733E+00
          2   -1    0    0  502    0  0.00000000000E+00  0.00000000000E+00  0.24095681697E+03  0.24095681697E+03  0.00000000000E+00 0. -1.
          1   -1    0    0  501    0 -0.00000000000E+00 -0.00000000000E+00 -0.15829650364E+04  0.15829650364E+04  0.00000000000E+00 0. -1.
         25    2    1    2    0    0 -0.19420382805E+03 -0.53882794933E+02 -0.49271518465E+03  0.54681127802E+03  0.12496334729E+03 0.  0.
          2    1    1    2  501    0 -0.65775963858E+01  0.38311073449E+02 -0.10153490378E+04  0.10160928460E+04  0.00000000000E+00 0. -1.
          1    1    1    2  502    0  0.20078142443E+03  0.15571721483E+02  0.16605600301E+03  0.26101772936E+03  0.00000000000E+00 0. -1.
         22    1    3    3    0    0 -0.14738989456E+03 -0.46198394208E+02 -0.21304977172E+03  0.26315067524E+03  0.00000000000E+00 0. -1.
         22    1    3    3    0    0 -0.46813933486E+02 -0.76844007251E+01 -0.27966541293E+03  0.28366060279E+03  0.00000000000E+00 0. -1.
</event>
<event>
 7    1  0.7527776E-006  0.4959844E+02  0.7818608E-02  0.1494150E+00
          2   -1    0    0  502    0  0.00000000000E+00  0.00000000000E+00  0.15541141907E+04  0.15541141907E+04  0.00000000000E+00 0. -1.
          1   -1    0    0  501    0 -0.00000000000E+00 -0.00000000000E+00 -0.66976820262E+02  0.66976820262E+02  0.00000000000E+00 0. -1.
         25    2    1    2    0    0 -0.75126318165E+02  0.37431673684E+01  0.21310504656E+03  0.25825407780E+03  0.12499373124E+03 0.  0.
          2    1    1    2  501    0  0.30830097059E+02  0.17652358653E+02 -0.36760262102E+02  0.51121595442E+02  0.00000000000E+00 0. -1.
          1    1    1    2  502    0  0.44296221106E+02 -0.21395526021E+02  0.13107925859E+04  0.13117153377E+04  0.00000000000E+00 0. -1.
         22    1    3    3    0    0  0.23279319714E+02  0.20603984172E+02  0.11171139316E+03  0.11595639806E+03  0.00000000000E+00 0. -1.
         22    1    3    3    0    0 -0.98405637879E+02 -0.16860816804E+02  0.10139365340E+03  0.14229767974E+03  0.00000000000E+00 0. -1.
</event>
<event>
 7    1  0.7527776E-006  0.1132485E+03  0.7818608E-02  0.1452602E+00
          2   -1    0    0  502    0  0.00000000000E+00  0.00000000000E+00  0.17505415602E+03  0.17505415602E+03  0.00000000000E+00 0. -1.
          1   -1    0    0  501    0 -0.00000000000E+00 -0.00000000000E+00 -0.34609952081E+03  0.34609952081E+03  0.00000000000E+00 0. -1.
         25    2    1    2    0    0 -0.99538613629E+02  0.25448259864E+02 -0.67476488216E+02  0.17531078158E+03  0.12500097657E+03 0.  0.
          2    1    1    2  501    0 -0.72040885860E+01  0.19644722240E+02 -0.19631099172E+03  0.19742294566E+03  0.00000000000E+00 0. -1.
          1    1    1    2  502    0  0.10674270222E+03 -0.45092982103E+02  0.92742115144E+02  0.14841994958E+03  0.00000000000E+00 0. -1.
         22    1    3    3    0    0 -0.86235974616E+02  0.35505061055E+02 -0.10124374702E+03  0.13765009622E+03  0.00000000000E+00 0.  1.
         22    1    3    3    0    0 -0.13302639013E+02 -0.10056801191E+02  0.33767258804E+02  0.37660685364E+02  0.00000000000E+00 0.  1.
</event>
<event>
 7    1  0.1245288E-005  0.8742935E+02  0.7818608E-02  0.1436446E+00
          2   -1    0    0  502    0  0.00000000000E+00  0.00000000000E+00  0.16785212778E+04  0.16785212778E+04  0.00000000000E+00 0. -1.
          1   -1    0    0  501    0 -0.00000000000E+00 -0.00000000000E+00 -0.76001174930E+03  0.76001174930E+03  0.00000000000E+00 0. -1.
         25    2    1    2    0    0  0.31248051754E+02  0.61151175918E+02 -0.30242451662E+03  0.33436767944E+03  0.12500099900E+03 0.  0.
          2    1    1    2  501    0 -0.17239971036E+02  0.25229510983E+02 -0.43993378396E+03  0.44099374043E+03  0.00000000000E+00 0. -1.
          1    1    1    2  502    0 -0.14008080718E+02 -0.86380686901E+02  0.16608678291E+04  0.16631716072E+04  0.00000000000E+00 0. -1.
         22    1    3    3    0    0  0.38100800234E+00  0.12540583419E+02  0.10394591647E+02  0.16292910578E+02  0.00000000000E+00 0.  1.
         22    1    3    3    0    0  0.30867043751E+02  0.48610592499E+02 -0.31281910826E+03  0.31807476886E+03  0.00000000000E+00 0.  1.
</event>
<event>
 7    1  0.7527776E-006  0.1447605E+03  0.7818608E-02  0.1355535E+00
          2   -1    0    0  502    0  0.00000000000E+00  0.00000000000E+00  0.12358292854E+03  0.12358292854E+03  0.00000000000E+00 0. -1.
          1   -1    0    0  501    0 -0.00000000000E+00 -0.00000000000E+00 -0.62690247730E+03  0.62690247730E+03  0.00000000000E+00 0. -1.
         25    2    1    2    0    0  0.10321059354E+03 -0.91310374689E+02 -0.38106093090E+03  0.42405475009E+03  0.12499994748E+03 0.  0.
          2    1    1    2  501    0 -0.13519604985E+03  0.76674223950E+02 -0.19277566994E+03  0.24762747714E+03  0.00000000000E+00 0. -1.
          1    1    1    2  502    0  0.31985456316E+02  0.14636150739E+02  0.70517052081E+02  0.78803178606E+02  0.00000000000E+00 0. -1.
         22    1    3    3    0    0 -0.96017910701E+01 -0.68405072587E+02 -0.11487014497E+03  0.13403954100E+03  0.00000000000E+00 0. -1.
         22    1    3    3    0    0  0.11281238461E+03 -0.22905302102E+02 -0.26619078594E+03  0.29001520909E+03  0.00000000000E+00 0. -1.
</event>
<event>
 7    1  0.7527776E-006  0.8067778E+02  0.7818608E-02  0.1334531E+00
          2   -1    0    0  502    0  0.00000000000E+00  0.00000000000E+00  0.16996602739E+04  0.16996602739E+04  0.00000000000E+00 0. -1.
          1   -1    0    0  501    0 -0.00000000000E+00 -0.00000000000E+00 -0.52050233229E+02  0.52050233229E+02  0.00000000000E+00 0. -1.
         25    2    1    2    0    0  0.60299761840E+02  0.56127966632E+02  0.47610576022E+03  0.49908698371E+03  0.12499884991E+03 0.  0.
          2    1    1    2  501    0  0.10458125641E+02 -0.82763120363E+02  0.48926817834E+01  0.83564614635E+02  0.00000000000E+00 0. -1.
          1    1    1    2  502    0 -0.70757887481E+02  0.26635153731E+02  0.11666115987E+04  0.11690589088E+04  0.00000000000E+00 0. -1.
         22    1    3    3    0    0  0.72096056305E+02  0.59319093552E+02  0.18038752371E+03  0.20311635804E+03  0.00000000000E+00 0.  1.
         22    1    3    3    0    0 -0.11796294465E+02 -0.31911269201E+01  0.29571823651E+03  0.29597062567E+03  0.00000000000E+00 0.  1.
</event>
<event>
 7    1  0.7527776E-006  0.6880559E+02  0.7818608E-02  0.1404311E+00
          2   -1    0    0  502    0  0.00000000000E+00  0.00000000000E+00  0.61776725124E+03  0.61776725124E+03  0.00000000000E+00 0. -1.
          1   -1    0    0  501    0 -0.00000000000E+00 -0.00000000000E+00 -0.16248962796E+04  0.16248962796E+04  0.00000000000E+00 0. -1.
         25    2    1    2    0    0 -0.85641456683E+02  0.30201042541E+02  0.26733331680E+03  0.30877660962E+03  0.12501732002E+03 0.  0.
          2    1    1    2  501    0  0.20266396636E+02 -0.45389736155E+02 -0.16003691765E+04  0.16011409857E+04  0.00000000000E+00 0. -1.
          1    1    1    2  502    0  0.65375060047E+02  0.15188693614E+02  0.32590683135E+03  0.33274593552E+03  0.00000000000E+00 0. -1.
         22    1    3    3    0    0 -0.59391738592E+02 -0.39671120479E+02  0.80674905996E+02  0.10774793209E+03  0.00000000000E+00 0.  1.
         22    1    3    3    0    0 -0.26249718091E+02  0.69872163020E+02  0.18665841080E+03  0.20102867753E+03  0.00000000000E+00 0.  1.
</event>
<event>
 7    1  0.7527776E-006  0.1158115E+03  0.7818608E-02  0.1329432E+00
          2   -1    0    0  502    0  0.00000000000E+00  0.00000000000E+00  0.10535538860E+04  0.10535538860E+04  0.00000000000E+00 0. -1.
          1   -1    0    0  501    0 -0.00000000000E+00 -0.00000000000E+00 -0.22190908120E+03  0.22190908120E+03  0.00000000000E+00 0. -1.
         25    2    1    2    0    0  0.10800841192E+03  0.55404829187E+02 -0.14001313623E+02  0.17480220136E+03  0.12499704267E+03 0.  0.
          2    1    1    2  501    0 -0.69244632850E+02 -0.94531338047E+02 -0.99613412831E+02  0.15379800086E+03  0.00000000000E+00 0. -1.
          1    1    1    2  502    0 -0.38763779066E+02  0.39126508860E+02  0.94525953129E+03  0.94686276501E+03  0.00000000000E+00 0. -1.
         22    1    3    3    0    0 -0.25421153019E+02 -0.22543670351E+01 -0.14687884850E+02  0.29445732338E+02  0.00000000000E+00 0.  1.
         22    1    3    3    0    0  0.13342956493E+03  0.57659196222E+02  0.68657122705E+00  0.14535646903E+03  0.00000000000E+00 0.  1.
</event>
<event>
 7    1  0.7527776E-006  0.4793757E+02  0.7818608E-02  0.1554322E+00
          2   -1    0    0  502    0  0.00000000000E+00  0.00000000000E+00  0.24851808199E+03  0.24851808199E+03  0.00000000000E+00 0. -1.
          1   -1    0    0  501    0 -0.00000000000E+00 -0.00000000000E+00 -0.11139274030E+04  0.11139274030E+04  0.00000000000E+00 0. -1.
         25    2    1    2    0    0  0.53239323061E+02  0.42506001722E+02 -0.99422546768E+03  0.10043664768E+04  0.12500621392E+03 0.  0.
          2    1    1    2  501    0 -0.96472165711E+01 -0.22666154045E+02 -0.11091130296E+03  0.11361399760E+03  0.00000000000E+00 0. -1.
          1    1    1    2  502    0 -0.43592106490E+02 -0.19839847677E+02  0.23972744960E+03  0.24446501057E+03  0.00000000000E+00 0. -1.
         22    1    3    3    0    0 -0.11431838953E+02 -0.23060521819E+02 -0.55997683788E+02  0.61629661674E+02  0.00000000000E+00 0.  1.
         22    1    3    3    0    0  0.64671162014E+02  0.65566523542E+02 -0.93822778389E+03  0.94273681517E+03  0.00000000000E+00 0.  1.
</event>
<event>
 7    1  0.7527776E-006  0.2178421E+03  0.7818608E-02  0.1204550E+00
          2   -1    0    0  502    0  0.00000000000E+00  0.00000000000E+00  0.14002196492E+04  0.14002196492E+04  0.00000000000E+00 0. -1.
          1   -1    0    0  501    0 -0.00000000000E+00 -0.00000000000E+00 -0.74869700570E+02  0.74869700570E+02  0.00000000000E+00 0. -1.
         25    2    1    2    0    0  0.10985484295E+03 -0.15054174751E+03  0.30065057050E+03  0.37516500913E+03  0.12500845680E+03 0.  0.
          2    1    1    2  501    0 -0.11545218972E+03  0.24921419967E+03  0.54670521840E+03  0.61181984379E+03  0.00000000000E+00 0. -1.
          1    1    1    2  502    0  0.55973467727E+01 -0.98672452161E+02  0.47799415972E+03  0.48810449684E+03  0.00000000000E+00 0. -1.
         22    1    3    3    0    0 -0.14148471410E+02 -0.21495394092E+02  0.53652378943E+00  0.25739445764E+02  0.00000000000E+00 0. -1.
         22    1    3    3    0    0  0.12400331436E+03 -0.12904635342E+03  0.30011404671E+03  0.34942556337E+03  0.00000000000E+00 0. -1.
</event>
<event>
 7    1  0.7527776E-006  0.1349511E+03  0.7818608E-02  0.1248077E+00
          2   -1    0    0  502    0  0.00000000000E+00  0.00000000000E+00  0.83941925797E+03  0.83941925797E+03  0.00000000000E+00 0. -1.
          1   -1    0    0  501    0 -0.00000000000E+00 -0.00000000000E+00 -0.39630599680E+03  0.39630599680E+03  0.00000000000E+00 0. -1.
         25    2    1    2    0    0 -0.10114423108E+03  0.10256969151E+03  0.25736925668E+03  0.32032996439E+03  0.12498661811E+03 0.  0.
          2    1    1    2  501    0  0.94137314652E+02  0.37926414365E+02 -0.34848157229E+03  0.36295957508E+03  0.00000000000E+00 0. -1.
          1    1    1    2  502    0  0.70069164327E+01 -0.14049610587E+03  0.53422557679E+03  0.55243571530E+03  0.00000000000E+00 0. -1.
         22    1    3    3    0    0  0.14899697920E+02  0.38272957748E+02  0.13032746875E+03  0.13664578077E+03  0.00000000000E+00 0. -1.
         22    1    3    3    0    0 -0.11604392900E+03  0.64296733760E+02  0.12704178793E+03  0.18368418362E+03  0.00000000000E+00 0. -1.
</event>
<event>
 7    1  0.7527776E-006  0.4313211E+02  0.7818608E-02  0.1522336E+00
          2   -1    0    0  502    0  0.00000000000E+00  0.00000000000E+00  0.65004420813E+03  0.65004420813E+03  0.00000000000E+00 0. -1.
          1   -1    0    0  501    0 -0.00000000000E+00 -0.00000000000E+00 -0.48747043767E+03  0.48747043767E+03  0.00000000000E+00 0. -1.
         25    2    1    2    0    0 -0.30549851436E+02 -0.54768768672E+01  0.30150614261E+03  0.32786396541E+03  0.12500214471E+03 0.  0.
          2    1    1    2  501    0  0.61796753418E+01 -0.33160910234E+02 -0.47213136433E+03  0.47333482815E+03  0.00000000000E+00 0. -1.
          1    1    1    2  502    0  0.24370176094E+02  0.38637787101E+02  0.33319899218E+03  0.33631585224E+03  0.00000000000E+00 0. -1.
         22    1    3    3    0    0  0.30758740427E+00  0.23542606435E+02  0.14976759444E+00  0.23545092017E+02  0.00000000000E+00 0.  1.
         22    1    3    3    0    0 -0.30857438840E+02 -0.29019483302E+02  0.30135637501E+03  0.30431887339E+03  0.00000000000E+00 0.  1.
</event>
<event>
 7    1  0.7527776E-006  0.4052429E+02  0.7818608E-02  0.1550137E+00
          2   -1    0    0  502    0  0.00000000000E+00  0.00000000000E+00  0.51580671911E+03  0.51580671911E+03  0.00000000000E+00 0. -1.
          1   -1    0    0  501    0 -0.00000000000E+00 -0.00000000000E+00 -0.37059353134E+03  0.37059353134E+03  0.00000000000E+00 0. -1.
         25    2    1    2    0    0  0.12471797278E+02 -0.55916144002E+01  0.13972912235E+03  0.18798780962E+03  0.12501350749E+03 0.  0.
          2    1    1    2  501    0 -0.40408202409E+02 -0.51537682226E+01 -0.34462603923E+03  0.34702520235E+03  0.00000000000E+00 0. -1.
          1    1    1    2  502    0  0.27936405131E+02  0.10745382623E+02  0.35011010466E+03  0.35138723848E+03  0.00000000000E+00 0. -1.
         22    1    3    3    0    0 -0.50682170327E+02  0.20077121913E+02  0.82993494758E+02  0.99295988768E+02  0.00000000000E+00 0.  1.
         22    1    3    3    0    0  0.63153967605E+02 -0.25668736313E+02  0.56735627588E+02  0.88691820851E+02  0.00000000000E+00 0.  1.
</event>
<event>
 7    1  0.7527776E-006  0.1817308E+03  0.7818608E-02  0.1308782E+00
          2   -1    0    0  502    0  0.00000000000E+00  0.00000000000E+00  0.23248493651E+04  0.23248493651E+04  0.00000000000E+00 0. -1.
          1   -1    0    0  501    0 -0.00000000000E+00 -0.00000000000E+00 -0.49042413887E+03  0.49042413887E+03  0.00000000000E+00 0. -1.
         25    2    1    2    0    0  0.19012425539E+03  0.39575293193E+01  0.18910883770E+03  0.29588813100E+03  0.12499895617E+03 0.  0.
          2    1    1    2  501    0 -0.17772409196E+03  0.36401680078E+02 -0.41798293401E+03  0.45565411037E+03  0.00000000000E+00 0. -1.
          1    1    1    2  502    0 -0.12400163438E+02 -0.40359209397E+02  0.20632993225E+04  0.20637312626E+04  0.00000000000E+00 0. -1.
         22    1    3    3    0    0  0.28185702875E+02  0.24584264173E+02  0.10660843521E+03  0.11297866325E+03  0.00000000000E+00 0.  1.
         22    1    3    3    0    0  0.16193855252E+03 -0.20626734854E+02  0.82500402489E+02  0.18290946775E+03  0.00000000000E+00 0.  1.
</event>
<event>
 7    1  0.7527776E-006  0.1191879E+03  0.7818608E-02  0.1382283E+00
          2   -1    0    0  502    0  0.00000000000E+00  0.00000000000E+00  0.68153733832E+03  0.68153733832E+03  0.00000000000E+00 0. -1.
          1   -1    0    0  501    0 -0.00000000000E+00 -0.00000000000E+00 -0.49486400007E+03  0.49486400007E+03  0.00000000000E+00 0. -1.
         25    2    1    2    0    0 -0.95122198196E+02  0.16360016318E+02  0.10121748224E+03  0.18757937536E+03  0.12500064251E+03 0.  0.
          2    1    1    2  501    0 -0.19822564838E+02  0.27898641540E+02 -0.44395471516E+03  0.44527189153E+03  0.00000000000E+00 0. -1.
          1    1    1    2  502    0  0.11494476303E+03 -0.44258657858E+02  0.52941057118E+03  0.54355007149E+03  0.00000000000E+00 0. -1.
         22    1    3    3    0    0 -0.58664819804E+02  0.38434782495E+01  0.12785549075E+03  0.14072441125E+03  0.00000000000E+00 0.  1.
         22    1    3    3    0    0 -0.36457378392E+02  0.12516538068E+02 -0.26638008511E+02  0.46854964112E+02  0.00000000000E+00 0.  1.
</event>
<event>
 7    1  0.7527776E-006  0.5700454E+02  0.7818608E-02  0.1529553E+00
          2   -1    0    0  502    0  0.00000000000E+00  0.00000000000E+00  0.29278151636E+04  0.29278151636E+04  0.00000000000E+00 0. -1.
          1   -1    0    0  501    0 -0.00000000000E+00 -0.00000000000E+00 -0.48930720401E+02  0.48930720401E+02  0.00000000000E+00 0. -1.
         25    2    1    2    0    0 -0.44919043080E+02 -0.55181184142E+02  0.14065254425E+04  0.14138605573E+04  0.12500068662E+03 0.  0.
          2    1    1    2  501    0 -0.10966663872E+01  0.24305159021E+02 -0.41449717504E+02  0.48062693572E+02  0.00000000000E+00 0. -1.
          1    1    1    2  502    0  0.46015709467E+02  0.30876025120E+02  0.15138087182E+04  0.15148226331E+04  0.00000000000E+00 0. -1.
         22    1    3    3    0    0 -0.54067345558E+02  0.27388595354E+02  0.62530521958E+03  0.62823564898E+03  0.00000000000E+00 0. -1.
         22    1    3    3    0    0  0.91483024789E+01 -0.82569779496E+02  0.78122022292E+03  0.78562490835E+03  0.00000000000E+00 0. -1.
</event>
<event>
 7    1  0.7527776E-006  0.1042456E+03  0.7818608E-02  0.1312685E+00
          2   -1    0    0  502    0  0.00000000000E+00  0.00000000000E+00  0.29015877532E+04  0.29015877532E+04  0.00000000000E+00 0. -1.
          1   -1    0    0  501    0 -0.00000000000E+00 -0.00000000000E+00 -0.11982756863E+03  0.11982756863E+03  0.00000000000E+00 0. -1.
         25    2    1    2    0    0 -0.41445223796E+02  0.58629157007E+01  0.27621891775E+03  0.30606182194E+03  0.12499947188E+03 0.  0.
          2    1    1    2  501    0  0.10187972285E+03 -0.43214979277E+02 -0.75094932903E+02  0.13373952785E+03  0.00000000000E+00 0. -1.
          1    1    1    2  502    0 -0.60434499058E+02  0.37352063576E+02  0.25806361997E+04  0.25816139720E+04  0.00000000000E+00 0. -1.
         22    1    3    3    0    0  0.13757836087E+02 -0.31776091548E+02  0.20692888815E+03  0.20980601230E+03  0.00000000000E+00 0.  1.
         22    1    3    3    0    0 -0.55203059883E+02  0.37639007248E+02  0.69290029601E+02  0.96255809639E+02  0.00000000000E+00 0.  1.
</event>
<event>
 7    1  0.7527776E-006  0.2224945E+03  0.7818608E-02  0.1237862E+00
          2   -1    0    0  502    0  0.00000000000E+00  0.00000000000E+00  0.10825823817E+04  0.10825823817E+04  0.00000000000E+00 0. -1.
          1   -1    0    0  501    0 -0.00000000000E+00 -0.00000000000E+00 -0.43061193514E+03  0.43061193514E+03  0.00000000000E+00 0. -1.
         25    2    1    2    0    0 -0.10621847184E+03  0.15947253963E+03  0.18310031873E+03  0.29302549429E+03  0.12499743570E+03 0.  0.
          2    1    1    2  501    0  0.17347733036E+03 -0.14787572568E+03 -0.33949718400E+03  0.40892536279E+03  0.00000000000E+00 0. -1.
          1    1    1    2  502    0 -0.67258858521E+02 -0.11596813950E+02  0.80836731185E+03  0.81124345977E+03  0.00000000000E+00 0. -1.
         22    1    3    3    0    0 -0.33533247271E+02  0.15029275878E+03  0.10783915010E+03  0.18799381455E+03  0.00000000000E+00 0.  1.
         22    1    3    3    0    0 -0.72685224566E+02  0.91797808487E+01  0.75261168625E+02  0.10503167974E+03  0.00000000000E+00 0.  1.
</event>
<event>
 7    1  0.1030766E-005  0.5524826E+02  0.7818608E-02  0.1433425E+00
          2   -1    0    0  502    0  0.00000000000E+00  0.00000000000E+00  0.74187123645E+03  0.74187123645E+03  0.00000000000E+00 0. -1.
          1   -1    0    0  501    0 -0.00000000000E+00 -0.00000000000E+00 -0.14220475815E+04  0.14220475815E+04  0.00000000000E+00 0. -1.
         25    2    1    2    0    0 -0.22088273224E+01  0.11092524250E+02 -0.28318541941E+03  0.30975345053E+03  0.12500118133E+03 0.  0.
          2    1    1    2  501    0 -0.47766664358E+02  0.12863654504E+02 -0.11239794169E+04  0.11250674901E+04  0.00000000000E+00 0. -1.
          1    1    1    2  502    0  0.49975491680E+02 -0.23956178754E+02  0.72698849124E+03  0.72909787728E+03  0.00000000000E+00 0. -1.
         22    1    3    3    0    0 -0.39564967593E+02  0.26725527412E+01 -0.26392822696E+03  0.26689068583E+03  0.00000000000E+00 0.  1.
         22    1    3    3    0    0  0.37356140270E+02  0.84199715087E+01 -0.19257192457E+02  0.42862764697E+02  0.00000000000E+00 0.  1.
</event>
<event>
 7    1  0.7527776E-006  0.9812902E+02  0.7818608E-02  0.1310337E+00
          2   -1    0    0  502    0  0.00000000000E+00  0.00000000000E+00  0.57928749268E+03  0.57928749268E+03  0.00000000000E+00 0. -1.
          1   -1    0    0  501    0 -0.00000000000E+00 -0.00000000000E+00 -0.14291566239E+03  0.14291566239E+03  0.00000000000E+00 0. -1.
         25    2    1    2    0    0 -0.11567976814E+03 -0.90386249721E+02  0.10019788859E+03  0.21729098447E+03  0.12499708859E+03 0.  0.
          2    1    1    2  501    0  0.38885641704E+02  0.83571732869E+02 -0.54245958257E+02  0.10695303480E+03  0.00000000000E+00 0. -1.
          1    1    1    2  502    0  0.76794126436E+02  0.68145168518E+01  0.39041989995E+03  0.39795913581E+03  0.00000000000E+00 0. -1.
         22    1    3    3    0    0 -0.83523839968E+02 -0.12170252324E+03  0.82023204921E+02  0.16886545577E+03  0.00000000000E+00 0.  1.
         22    1    3    3    0    0 -0.32155928172E+02  0.31316273516E+02  0.18174683673E+02  0.48425528703E+02  0.00000000000E+00 0.  1.
</event>
<event>
 7    1  0.7527776E-006  0.1149369E+03  0.7818608E-02  0.1280768E+00
          2   -1    0    0  502    0  0.00000000000E+00  0.00000000000E+00  0.56383446795E+03  0.56383446795E+03  0.00000000000E+00 0. -1.
          1   -1    0    0  501    0 -0.00000000000E+00 -0.00000000000E+00 -0.57872324289E+03  0.57872324289E+03  0.00000000000E+00 0. -1.
         25    2    1    2    0    0  0.10688780302E+03  0.11270108314E+03  0.27598851242E+03  0.34047210516E+03  0.12500023530E+03 0.  0.
          2    1    1    2  501    0 -0.20273036742E+02 -0.11282336042E+03 -0.53286948335E+03  0.54505962331E+03  0.00000000000E+00 0. -1.
          1    1    1    2  502    0 -0.86614766282E+02  0.12227727935E+00  0.24199219599E+03  0.25702598237E+03  0.00000000000E+00 0. -1.
         22    1    3    3    0    0  0.80715475729E+01  0.20652968360E+02 -0.99063501468E+01  0.24286431511E+02  0.00000000000E+00 0.  1.
         22    1    3    3    0    0  0.98816255451E+02  0.92048114781E+02  0.28589486257E+03  0.31618567365E+03  0.00000000000E+00 0.  1.
</event>
<event>
 7    1  0.7527776E-006  0.1152943E+03  0.7818608E-02  0.1299489E+00
          2   -1    0    0  502    0  0.00000000000E+00  0.00000000000E+00  0.16548188547E+04  0.16548188547E+04  0.00000000000E+00 0. -1.
          1   -1    0    0  501    0 -0.00000000000E+00 -0.00000000000E+00 -0.91549963601E+03  0.91549963601E+03  0.00000000000E+00 0. -1.
         25    2    1    2    0    0  0.11182752307E+03 -0.11336543026E+03  0.72609062547E+03  0.75378624312E+03  0.12501595186E+03 0.  0.
          2    1    1    2  501    0 -0.10758957432E+03  0.41027158896E+02 -0.89652908023E+03  0.90389332112E+03  0.00000000000E+00 0. -1.
          1    1    1    2  502    0 -0.42379487487E+01  0.72338271365E+02  0.90975767341E+03  0.91263892644E+03  0.00000000000E+00 0. -1.
         22    1    3    3    0    0  0.75304281385E+02 -0.53935191178E+01  0.16813711757E+03  0.18430929208E+03  0.00000000000E+00 0. -1.
         22    1    3    3    0    0  0.36523241682E+02 -0.10797191114E+03  0.55795350790E+03  0.56947695104E+03  0.00000000000E+00 0. -1.
</event>
<event>
 7    1  0.7527776E-006  0.1251103E+03  0.7818608E-02  0.1282861E+00
          2   -1    0    0  502    0  0.00000000000E+00  0.00000000000E+00  0.13630139187E+04  0.13630139187E+04  0.00000000000E+00 0. -1.
          1   -1    0    0  501    0 -0.00000000000E+00 -0.00000000000E+00 -0.77456109057E+03  0.77456109057E+03  0.00000000000E+00 0. -1.
         25    2    1    2    0    0  0.97988429033E+02 -0.17274756721E+03  0.29006708058E+03  0.37310355392E+03  0.12499558594E+03 0.  0.
          2    1    1    2  501    0 -0.76100479468E+02  0.97873968090E+02 -0.72630769927E+03  0.73681304999E+03  0.00000000000E+00 0. -1.
          1    1    1    2  502    0 -0.21887949564E+02  0.74873599120E+02  0.10246934469E+04  0.10276584054E+04  0.00000000000E+00 0. -1.
         22    1    3    3    0    0  0.66839787976E+02 -0.18741375548E+02  0.13783240705E+03  0.15432617680E+03  0.00000000000E+00 0. -1.
         22    1    3    3    0    0  0.31148641056E+02 -0.15400619166E+03  0.15223467354E+03  0.21877737711E+03  0.00000000000E+00 0. -1.
</event>
<event>
 7    1  0.7527776E-006  0.3825077E+02  0.7818608E-02  0.1583065E+00
          2   -1    0    0  502    0  0.00000000000E+00  0.00000000000E+00  0.94475464155E+03  0.94475464155E+03  0.00000000000E+00 0. -1.
          1   -1    0    0  501    0 -0.00000000000E+00 -0.00000000000E+00 -0.43899653451E+03  0.43899653451E+03  0.00000000000E+00 0. -1.
         25    2    1    2    0    0 -0.21014791030E+02 -0.25096804689E+01  0.38877112087E+03  0.40892023345E+03  0.12499941186E+03 0.  0.
          2    1    1    2  501    0  0.32211631793E+02 -0.20715510888E+02 -0.42776156724E+03  0.42947256027E+03  0.00000000000E+00 0. -1.
          1    1    1    2  502    0 -0.11196840763E+02  0.23225191357E+02  0.54474855341E+03  0.54535838234E+03  0.00000000000E+00 0. -1.
         22    1    3    3    0    0 -0.36643425664E+02  0.40846397718E+02  0.81749732094E+02  0.98459065344E+02  0.00000000000E+00 0. -1.
         22    1    3    3    0    0  0.15628634634E+02 -0.43356078187E+02  0.30702138877E+03  0.31046116810E+03  0.00000000000E+00 0. -1.
</event>
<event>
 7    1  0.7527776E-006  0.7214324E+02  0.7818608E-02  0.1386272E+00
          2   -1    0    0  502    0  0.00000000000E+00  0.00000000000E+00  0.15891096906E+04  0.15891096906E+04  0.00000000000E+00 0. -1.
          1   -1    0    0  501    0 -0.00000000000E+00 -0.00000000000E+00 -0.56876419670E+03  0.56876419670E+03  0.00000000000E+00 0. -1.
         25    2    1    2    0    0  0.79561230851E+02  0.12944782417E+02  0.10521383545E+03  0.18218815593E+03  0.12500006457E+03 0.  0.
          2    1    1    2  501    0 -0.18322875285E+02 -0.51585030974E+02 -0.52795403294E+03  0.53078451755E+03  0.00000000000E+00 0. -1.
          1    1    1    2  502    0 -0.61238355566E+02  0.38640248557E+02  0.14430856914E+04  0.14449012138E+04  0.00000000000E+00 0. -1.
         22    1    3    3    0    0  0.19673576813E+02  0.58626334033E+02  0.13121309016E+02  0.63216021838E+02  0.00000000000E+00 0. -1.
         22    1    3    3    0    0  0.59887654039E+02 -0.45681551615E+02  0.92092526434E+02  0.11897213409E+03  0.00000000000E+00 0. -1.
</event>
<event>
 7    1  0.7527776E-006  0.1611018E+03  0.7818608E-02  0.1309427E+00
          2   -1    0    0  502    0  0.00000000000E+00  0.00000000000E+00  0.43707300644E+03  0.43707300644E+03  0.00000000000E+00 0. -1.
          1   -1    0    0  501    0 -0.00000000000E+00 -0.00000000000E+00 -0.86094743203E+03  0.86094743203E+03  0.00000000000E+00 0. -1.
         25    2    1    2    0    0 -0.18192888625E+03  0.93761232891E+02 -0.23459656598E+02  0.24096583247E+03  0.12499955394E+03 0.  0.
          2    1    1    2  501    0  0.13773102410E+03 -0.76775428092E+02 -0.71843136340E+03  0.73553240940E+03  0.00000000000E+00 0. -1.
          1    1    1    2  502    0  0.44197862143E+02 -0.16985804799E+02  0.31801659442E+03  0.32152219660E+03  0.00000000000E+00 0. -1.
         22    1    3    3    0    0 -0.50996102239E+02 -0.17710511626E+02  0.28874590333E+02  0.61220965628E+02  0.00000000000E+00 0.  1.
         22    1    3    3    0    0 -0.13093278401E+03  0.11147174452E+03 -0.52334246931E+02  0.17974486684E+03  0.00000000000E+00 0.  1.
</event>
<event>
 7    1  0.7527776E-006  0.6744625E+02  0.7818608E-02  0.1500776E+00
          2   -1    0    0  502    0  0.00000000000E+00  0.00000000000E+00  0.32824348583E+03  0.32824348583E+03  0.00000000000E+00 0. -1.
          1   -1    0    0  501    0 -0.00000000000E+00 -0.00000000000E+00 -0.25923711162E+03  0.25923711162E+03  0.00000000000E+00 0. -1.
         25    2    1    2    0    0  0.14236391875E+02 -0.45083075967E+02  0.60977449976E+02  0.14690241844E+03  0.12500764994E+03 0.  0.
          2    1    1    2  501    0 -0.51013923197E+01 -0.24431373866E+02 -0.21003883462E+03  0.21151649648E+03  0.00000000000E+00 0. -1.
          1    1    1    2  502    0 -0.91349995556E+01  0.69514449833E+02  0.21806775886E+03  0.22906168253E+03  0.00000000000E+00 0. -1.
         22    1    3    3    0    0 -0.14313698280E+02  0.32049000301E+02 -0.11850098866E+02  0.37046527798E+02  0.00000000000E+00 0. -1.
         22    1    3    3    0    0  0.28550090155E+02 -0.77132076269E+02  0.72827548843E+02  0.10985589064E+03  0.00000000000E+00 0. -1.
</event>
<event>
 7    1  0.7527776E-006  0.6917547E+02  0.7818608E-02  0.1414726E+00
          2   -1    0    0  502    0  0.00000000000E+00  0.00000000000E+00  0.10061177310E+04  0.10061177310E+04  0.00000000000E+00 0. -1.
          1   -1    0    0  501    0 -0.00000000000E+00 -0.00000000000E+00 -0.14535592272E+03  0.14535592272E+03  0.00000000000E+00 0. -1.
         25    2    1    2    0    0 -0.55638094957E+02 -0.23849228361E+02  0.82912427984E+02  0.16174912724E+03  0.12499570450E+03 0.  0.
          2    1    1    2  501    0  0.24170502420E+02 -0.38645085693E+02 -0.99576530304E+02  0.10951320113E+03  0.00000000000E+00 0. -1.
          1    1    1    2  502    0  0.31467592537E+02  0.62494314053E+02  0.87742591064E+03  0.88021132538E+03  0.00000000000E+00 0. -1.
         22    1    3    3    0    0 -0.94321129987E+02 -0.95750264976E+01  0.72142628338E+02  0.11913318395E+03  0.00000000000E+00 0.  1.
         22    1    3    3    0    0  0.38683035030E+02 -0.14274201863E+02  0.10769799646E+02  0.42615943288E+02  0.00000000000E+00 0.  1.
</event>
<event>
 7    1  0.7527776E-006  0.2275317E+03  0.7818608E-02  0.1218395E+00
          2   -1    0    0  502    0  0.00000000000E+00  0.00000000000E+00  0.42589044714E+03  0.42589044714E+03  0.00000000000E+00 0. -1.
          1   -1    0    0  501    0 -0.00000000000E+00 -0.00000000000E+00 -0.37110346305E+03  0.37110346305E+03  0.00000000000E+00 0. -1.
         25    2    1    2    0    0  0.25589989737E+03  0.10218218440E+03 -0.34056808420E+02  0.30448559452E+03  0.12500261912E+03 0.  0.
          2    1    1    2  501    0 -0.41199336389E+02 -0.70493216671E+02 -0.14938661734E+03  0.17024406115E+03  0.00000000000E+00 0. -1.
          1    1    1    2  502    0 -0.21470056098E+03 -0.31688967726E+02  0.23823040985E+03  0.32226425452E+03  0.00000000000E+00 0. -1.
         22    1    3    3    0    0  0.44664879770E+02  0.72182603667E+02 -0.33154504847E+02  0.91129034608E+02  0.00000000000E+00 0.  1.
         22    1    3    3    0    0  0.21123501760E+03  0.29999580730E+02 -0.90230357321E+00  0.21335655991E+03  0.00000000000E+00 0.  1.
</event>
<event>
 7    1  0.7527776E-006  0.7918067E+02  0.7818608E-02  0.1431402E+00
          2   -1    0    0  502    0  0.00000000000E+00  0.00000000000E+00  0.61393011397E+03  0.61393011397E+03  0.00000000000E+00 0. -1.
          1   -1    0    0  501    0 -0.00000000000E+00 -0.00000000000E+00 -0.34723516152E+03  0.34723516152E+03  0.00000000000E+00 0. -1.
         25    2    1    2    0    0  0.61426390141E+02  0.40796002852E+02  0.38108991660E+02  0.15004846722E+03  0.12499892805E+03 0.  0.
          2    1    1    2  501    0 -0.20979588571E+02  0.28075551735E+02 -0.28712571179E+03  0.28925689985E+03  0.00000000000E+00 0. -1.
          1    1    1    2  502    0 -0.40446801570E+02 -0.68871554588E+02  0.51571167258E+03  0.52185990842E+03  0.00000000000E+00 0. -1.
         22    1    3    3    0    0  0.22776209403E+02  0.84006096223E+02  0.19932605416E+02  0.89292153497E+02  0.00000000000E+00 0.  1.
         22    1    3    3    0    0  0.38650180738E+02 -0.43210093371E+02  0.18176386244E+02  0.60756313722E+02  0.00000000000E+00 0.  1.
</event>
<event>
 7    1  0.7527776E-006  0.8124361E+02  0.7818608E-02  0.1436881E+00
          2   -1    0    0  502    0  0.00000000000E+00  0.00000000000E+00  0.12550583085E+03  0.12550583085E+03  0.00000000000E+00 0. -1.
          1   -1    0    0  501    0 -0.00000000000E+00 -0.00000000000E+00 -0.16409296845E+04  0.16409296845E+04  0.00000000000E+00 0. -1.
         25    2    1    2    0    0 -0.12575391781E+02 -0.90787619327E+02 -0.42988447438E+02  0.16084803283E+03  0.12499420287E+03 0.  0.
          2    1    1    2  501    0 -0.25516406042E+02  0.20572558991E+02 -0.15148083371E+04  0.15151629006E+04  0.00000000000E+00 0. -1.
          1    1    1    2  502    0  0.38091797823E+02  0.70215060336E+02  0.42372930834E+02  0.90424581983E+02  0.00000000000E+00 0. -1.
         22    1    3    3    0    0  0.46621759763E+02 -0.44335522846E+02 -0.55008280077E+02  0.84647137852E+02  0.00000000000E+00 0. -1.
         22    1    3    3    0    0 -0.59197151544E+02 -0.46452096481E+02  0.12019832639E+02  0.76200894976E+02  0.00000000000E+00 0. -1.
</event>
<event>
 7    1  0.7527776E-006  0.2304185E+03  0.7818608E-02  0.1280716E+00
          2   -1    0    0  502    0  0.00000000000E+00  0.00000000000E+00  0.11514391113E+04  0.11514391113E+04  0.00000000000E+00 0. -1.
          1   -1    0    0  501    0 -0.00000000000E+00 -0.00000000000E+00 -0.46463682187E+03  0.46463682187E+03  0.00000000000E+00 0. -1.
         25    2    1    2    0    0 -0.10442256818E+03 -0.17233999477E+03  0.46944021068E+03  0.52592953699E+03  0.12499047937E+03 0.  0.
          2    1    1    2  501    0  0.14697576095E+03  0.17993758586E+03 -0.40466516753E+03  0.46661901689E+03  0.00000000000E+00 0. -1.
          1    1    1    2  502    0 -0.42553192770E+02 -0.75975910924E+01  0.62202724627E+03  0.62352737928E+03  0.00000000000E+00 0. -1.
         22    1    3    3    0    0 -0.51992894104E+01 -0.20080090934E+02  0.19912039097E+03  0.20019783406E+03  0.00000000000E+00 0. -1.
         22    1    3    3    0    0 -0.99223278772E+02 -0.15225990383E+03  0.27031981971E+03  0.32573170293E+03  0.00000000000E+00 0. -1.
</event>
<event>
 7    1  0.7527776E-006  0.1036228E+03  0.7818608E-02  0.1462310E+00
          2   -1    0    0  502    0  0.00000000000E+00  0.00000000000E+00  0.21947583104E+04  0.21947583104E+04  0.00000000000E+00 0. -1.
          1   -1    0    0  501    0 -0.00000000000E+00 -0.00000000000E+00 -0.94800684849E+03  0.94800684849E+03  0.00000000000E+00 0. -1.
         25    2    1    2    0    0 -0.84458839217E+02  0.49199549099E+02 -0.39769838082E+03  0.42818711768E+03  0.12500525783E+03 0.  0.
          2    1    1    2  501    0  0.73079802928E+01  0.20012553981E+02 -0.53361918705E+03  0.53404432932E+03  0.00000000000E+00 0. -1.
          1    1    1    2  502    0  0.77150858924E+02 -0.69212103080E+02  0.21780690297E+04  0.21805337119E+04  0.00000000000E+00 0. -1.
         22    1    3    3    0    0  0.27823392762E+02 -0.11246067835E+02 -0.97880416605E+02  0.10237768888E+03  0.00000000000E+00 0.  1.
         22    1    3    3    0    0 -0.11228223198E+03  0.60445616934E+02 -0.29981796421E+03  0.32580942879E+03  0.00000000000E+00 0.  1.
</event>
<event>
 7    1  0.7527776E-006  0.6132184E+02  0.7818608E-02  0.1422333E+00
          2   -1    0    0  502    0  0.00000000000E+00  0.00000000000E+00  0.16875839444E+03  0.16875839444E+03  0.00000000000E+00 0. -1.
          1   -1    0    0  501    0 -0.00000000000E+00 -0.00000000000E+00 -0.22298285557E+04  0.22298285557E+04  0.00000000000E+00 0. -1.
         25    2    1    2    0    0 -0.28685940413E+02  0.99972484027E+01 -0.11028491663E+02  0.12910889634E+03  0.12499860532E+03 0.  0.
          2    1    1    2  501    0  0.21139051524E+02 -0.57897523314E+02 -0.21539396048E+04  0.21548212928E+04  0.00000000000E+00 0. -1.
          1    1    1    2  502    0  0.75468888895E+01  0.47900274911E+02  0.10389793529E+03  0.11465676092E+03  0.00000000000E+00 0. -1.
         22    1    3    3    0    0  0.32533584093E+02  0.39469412981E+02 -0.29039216700E+02  0.58817894909E+02  0.00000000000E+00 0. -1.
         22    1    3    3    0    0 -0.61219524506E+02 -0.29472164578E+02  0.18010725037E+02  0.70291001430E+02  0.00000000000E+00 0. -1.
</event>
<event>
 7    1  0.7527776E-006  0.9157229E+02  0.7818608E-02  0.1348002E+00
          2   -1    0    0  502    0  0.00000000000E+00  0.00000000000E+00  0.91252756460E+03  0.91252756460E+03  0.00000000000E+00 0. -1.
          1   -1    0    0  501    0 -0.00000000000E+00 -0.00000000000E+00 -0.12549248786E+03  0.12549248786E+03  0.00000000000E+00 0. -1.
         25    2    1    2    0    0 -0.95832958484E+02 -0.42310386881E+02  0.27748427061E+03  0.32186488001E+03  0.12500142312E+03 0.  0.
          2    1    1    2  501    0  0.47273368587E+02 -0.35779442604E+02 -0.90997695441E+02  0.10860718423E+03  0.00000000000E+00 0. -1.
          1    1    1    2  502    0  0.48559589898E+02  0.78089829485E+02  0.60054850158E+03  0.60754798822E+03  0.00000000000E+00 0. -1.
         22    1    3    3    0    0 -0.78769296195E+02 -0.13207412153E+02  0.27683077195E+03  0.28812204716E+03  0.00000000000E+00 0. -1.
         22    1    3    3    0    0 -0.17063662289E+02 -0.29102974728E+02  0.65349865510E+00  0.33742832857E+02  0.00000000000E+00 0. -1.
</event>
<event>
 7    1  0.7527776E-006  0.1304807E+03  0.7818608E-02  0.1282734E+00
          2   -1    0    0  502    0  0.00000000000E+00  0.00000000000E+00  0.20309445658E+04  0.20309445658E+04  0.00000000000E+00 0. -1.
          1   -1    0    0  501    0 -0.00000000000E+00 -0.00000000000E+00 -0.10258755117E+03  0.10258755117E+03  0.00000000000E+00 0. -1.
         25    2    1    2    0    0 -0.13318324967E+03  0.13421140133E+03  0.39967557480E+03  0.45947334521E+03  0.12499884650E+03 0.  0.
          2    1    1    2  501    0  0.24216097694E+02 -0.70863159045E+02 -0.50199098258E+02  0.90155178239E+02  0.00000000000E+00 0. -1.
          1    1    1    2  502    0  0.10896715198E+03 -0.63348242289E+02  0.15788805381E+04  0.15839035935E+04  0.00000000000E+00 0. -1.
         22    1    3    3    0    0 -0.15012827462E+03  0.13715871497E+03  0.32929970501E+03  0.38702623638E+03  0.00000000000E+00 0.  1.
         22    1    3    3    0    0  0.16945024951E+02 -0.29473136321E+01  0.70375869795E+02  0.72447108829E+02  0.00000000000E+00 0.  1.
</event>
<event>
 7    1  0.1226865E-005  0.5247054E+02  0.7818608E-02  0.1441942E+00
          2   -1    0    0  502    0  0.00000000000E+00  0.00000000000E+00  0.21270315657E+04  0.21270315657E+04  0.00000000000E+00 0. -1.
          1   -1    0    0  501    0 -0.00000000000E+00 -0.00000000000E+00 -0.80288633442E+03  0.80288633442E+03  0.00000000000E+00 0. -1.
         25    2    1    2    0    0  0.46379556020E+02  0.45612472388E+02 -0.12989267254E+03  0.19164693070E+03  0.12499951526E+03 0.  0.
          2    1    1    2  501    0  0.19676377851E+01 -0.52710176660E+02 -0.64074788983E+03  0.64291530752E+03  0.00000000000E+00 0. -1.
          1    1    1    2  502    0 -0.48347193805E+02  0.70977042724E+01  0.20947857936E+04  0.20953556619E+04  0.00000000000E+00 0. -1.
         22    1    3    3    0    0  0.83550322279E+02  0.13217479219E+02 -0.51487445136E+02  0.99026840384E+02  0.00000000000E+00 0.  1.
         22    1    3    3    0    0 -0.37170766260E+02  0.32394993169E+02 -0.78405227401E+02  0.92620090318E+02  0.00000000000E+00 0.  1.
</event>
<event>
 7    1  0.7527776E-006  0.8631492E+02  0.7818608E-02  0.1337318E+00
          2   -1    0    0  502    0  0.00000000000E+00  0.00000000000E+00  0.70322103158E+03  0.70322103158E+03  0.00000000000E+00 0. -1.
          1   -1    0    0  501    0 -0.00000000000E+00 -0.00000000000E+00 -0.15895174787E+03  0.15895174787E+03  0.00000000000E+00 0. -1.
         25    2    1    2    0    0 -0.45228461905E+02  0.51805072128E+02  0.42366500894E+03  0.44704118872E+03  0.12499762135E+03 0.  0.
          2    1    1    2  501    0  0.33137792866E+02  0.60489196957E+02 -0.12614096818E+03  0.14376578216E+03  0.00000000000E+00 0. -1.
          1    1    1    2  502    0  0.12090669039E+02 -0.11229426909E+03  0.24674524295E+03  0.27136580858E+03  0.00000000000E+00 0. -1.
         22    1    3    3    0    0 -0.67620938445E+02  0.72825226515E+02  0.22437021471E+03  0.24539376149E+03  0.00000000000E+00 0.  1.
         22    1    3    3    0    0  0.22392476540E+02 -0.21020154387E+02  0.19929479424E+03  0.20164742722E+03  0.00000000000E+00 0.  1.
</event>
<event>
 7    1  0.7527776E-006  0.6539336E+02  0.7818608E-02  0.1483489E+00
          2   -1    0    0  502    0  0.00000000000E+00  0.00000000000E+00  0.43558046696E+03  0.43558046696E+03  0.00000000000E+00 0. -1.
          1   -1    0    0  501    0 -0.00000000000E+00 -0.00000000000E+00 -0.32626492900E+02  0.32626492900E+02  0.00000000000E+00 0. -1.
         25    2    1    2    0    0  0.56083172543E+02 -0.20757688497E+02  0.25017898050E+03  0.28599108392E+03  0.12500069570E+03 0.  0.
          2    1    1    2  501    0 -0.69630522608E+02 -0.49129057051E+01  0.11576004604E+03  0.13517741889E+03  0.00000000000E+00 0. -1.
          1    1    1    2  502    0  0.13547350065E+02  0.25670594203E+02  0.37014947522E+02  0.47038457039E+02  0.00000000000E+00 0. -1.
         22    1    3    3    0    0  0.68915614594E+02 -0.17550228870E+02  0.53814686388E+02  0.89181797130E+02  0.00000000000E+00 0.  1.
         22    1    3    3    0    0 -0.12832442052E+02 -0.32074596277E+01  0.19636429411E+03  0.19680928679E+03  0.00000000000E+00 0.  1.
</event>
<event>
 7    1  0.7527776E-006  0.8748944E+02  0.7818608E-02  0.1456577E+00
          2   -1    0    0  502    0  0.00000000000E+00  0.00000000000E+00  0.33567028489E+02  0.33567028489E+02  0.00000000000E+00 0. -1.
          1   -1    0    0  501    0 -0.00000000000E+00 -0.00000000000E+00 -0.13373477963E+04  0.13373477963E+04  0.00000000000E+00 0. -1.
         25    2    1    2    0    0  0.62197777076E+02 -0.66828409024E+02 -0.87960112911E+03  0.89311614397E+03  0.12499480216E+03 0.  0.
          2    1    1    2  501    0  0.13318239473E+02  0.22687520354E+02 -0.37794721588E+03  0.37886171234E+03  0.00000000000E+00 0. -1.
          1    1    1    2  502    0 -0.75516016549E+02  0.44140888669E+02 -0.46232422779E+02  0.98936968439E+02  0.00000000000E+00 0. -1.
         22    1    3    3    0    0 -0.36149904511E+02 -0.79952078586E+00 -0.18855417693E+03  0.19198992803E+03  0.00000000000E+00 0. -1.
         22    1    3    3    0    0  0.98347681586E+02 -0.66028888238E+02 -0.69104695218E+03  0.70112621594E+03  0.00000000000E+00 0. -1.
</event>
<event>
 7    1  0.7527776E-006  0.2127543E+03  0.7818608E-02  0.1277081E+00
          2   -1    0    0  502    0  0.00000000000E+00  0.00000000000E+00  0.78845977666E+03  0.78845977666E+03  0.00000000000E+00 0. -1.
          1   -1    0    0  501    0 -0.00000000000E+00 -0.00000000000E+00 -0.61849882588E+03  0.61849882588E+03  0.00000000000E+00 0. -1.
         25    2    1    2    0    0  0.72398998493E+02 -0.17070497694E+03  0.88278077742E+00  0.22362084820E+03  0.12499480114E+03 0.  0.
          2    1    1    2  501    0  0.47220523223E+02 -0.10916757990E+02 -0.48841385020E+03  0.49081263480E+03  0.00000000000E+00 0. -1.
          1    1    1    2  502    0 -0.11961952172E+03  0.18162173493E+03  0.65749202020E+03  0.69252511954E+03  0.00000000000E+00 0. -1.
         22    1    3    3    0    0  0.49601209155E+02 -0.15657254982E+03 -0.45158120583E+02  0.17033642934E+03  0.00000000000E+00 0. -1.
         22    1    3    3    0    0  0.22797789338E+02 -0.14132427124E+02  0.46040901360E+02  0.53284418859E+02  0.00000000000E+00 0. -1.
</event>
<event>
 7    1  0.7527776E-006  0.5167199E+02  0.7818608E-02  0.1518122E+00
          2   -1    0    0  502    0  0.00000000000E+00  0.00000000000E+00  0.16218355577E+04  0.16218355577E+04  0.00000000000E+00 0. -1.
          1   -1    0    0  501    0 -0.00000000000E+00 -0.00000000000E+00 -0.38740418613E+03  0.38740418613E+03  0.00000000000E+00 0. -1.
         25    2    1    2    0    0  0.71864228210E-01  0.79656905830E+02  0.28183817912E+03  0.31843740595E+03  0.12499757792E+03 0.  0.
          2    1    1    2  501    0 -0.55121202799E+01 -0.51211249376E+02 -0.36714803279E+03  0.37074337960E+03  0.00000000000E+00 0. -1.
          1    1    1    2  502    0  0.54402560517E+01 -0.28445656455E+02  0.13197412252E+04  0.13200589583E+04  0.00000000000E+00 0. -1.
         22    1    3    3    0    0  0.37558143740E+02  0.71214798083E+02  0.81923776537E+02  0.11486368786E+03  0.00000000000E+00 0. -1.
         22    1    3    3    0    0 -0.37486279512E+02  0.84421077471E+01  0.19991440258E+03  0.20357371808E+03  0.00000000000E+00 0. -1.
</event>
<event>
 7    1  0.7527776E-006  0.1028555E+03  0.7818608E-02  0.1408549E+00
          2   -1    0    0  502    0  0.00000000000E+00  0.00000000000E+00  0.21904122369E+03  0.21904122369E+03  0.00000000000E+00 0. -1.
          1   -1    0    0  501    0 -0.00000000000E+00 -0.00000000000E+00 -0.11399006321E+03  0.11399006321E+03  0.00000000000E+00 0. -1.
         25    2    1    2    0    0  0.36398473088E+02 -0.73916314215E+02  0.66911109681E+02  0.16398129248E+03  0.12499718930E+03 0.  0.
          2    1    1    2  501    0 -0.61575895629E+02  0.93934623714E+02 -0.82264459647E+01  0.11261873231E+03  0.00000000000E+00 0. -1.
          1    1    1    2  502    0  0.25177422540E+02 -0.20018309499E+02  0.46366496762E+02  0.56431262107E+02  0.00000000000E+00 0. -1.
         22    1    3    3    0    0  0.31463479722E+02  0.29254986850E+02  0.36318069799E+02  0.56256617440E+02  0.00000000000E+00 0.  1.
         22    1    3    3    0    0  0.49349933666E+01 -0.10317130107E+03  0.30593039881E+02  0.10772467504E+03  0.00000000000E+00 0.  1.
</event>
<event>
 7    1  0.7527776E-006  0.5728648E+02  0.7818608E-02  0.1501491E+00
          2   -1    0    0  502    0  0.00000000000E+00  0.00000000000E+00  0.24717028668E+03  0.24717028668E+03  0.00000000000E+00 0. -1.
          1   -1    0    0  501    0 -0.00000000000E+00 -0.00000000000E+00 -0.11216737018E+03  0.11216737018E+03  0.00000000000E+00 0. -1.
         25    2    1    2    0    0  0.13962490123E+01 -0.67187180077E+02  0.16127700881E+03  0.21482729531E+03  0.12499770622E+03 0.  0.
          2    1    1    2  501    0 -0.25724331135E+02  0.50964683166E+02 -0.70980829393E+02  0.91090165682E+02  0.00000000000E+00 0. -1.
          1    1    1    2  502    0  0.24328082122E+02  0.16222496910E+02  0.44706737079E+02  0.53420195863E+02  0.00000000000E+00 0. -1.
         22    1    3    3    0    0  0.90985947582E+01 -0.14789218600E+02  0.16093107591E+03  0.16186511856E+03  0.00000000000E+00 0.  1.
         22    1    3    3    0    0 -0.77023457458E+01 -0.52397961476E+02  0.34593290831E+00  0.52962176753E+02  0.00000000000E+00 0.  1.
</event>
<event>
 7    1  0.7527776E-006  0.6227474E+02  0.7818608E-02  0.1421597E+00
          2   -1    0    0  502    0  0.00000000000E+00  0.00000000000E+00  0.12789441906E+04  0.12789441906E+04  0.00000000000E+00 0. -1.
          1   -1    0    0  501    0 -0.00000000000E+00 -0.00000000000E+00 -0.29216115864E+03  0.29216115864E+03  0.00000000000E+00 0. -1.
         25    2    1    2    0    0 -0.29723136465E+02 -0.29935570724E+02  0.63891377999E+03  0.65239216850E+03  0.12500048010E+03 0.  0.
          2    1    1    2  501    0  0.62226915545E+02 -0.54107405294E+01 -0.28107847128E+03  0.28793501376E+03  0.00000000000E+00 0. -1.
          1    1    1    2  502    0 -0.32503779080E+02  0.35346311253E+02  0.62894772323E+03  0.63077816697E+03  0.00000000000E+00 0. -1.
         22    1    3    3    0    0  0.75410138487E-01  0.31815708617E+02  0.45503551335E+03  0.45614642760E+03  0.00000000000E+00 0. -1.
         22    1    3    3    0    0 -0.29798546603E+02 -0.61751279341E+02  0.18387826664E+03  0.19624574090E+03  0.00000000000E+00 0. -1.
</event>
<event>
 7    1  0.7527776E-006  0.5621428E+02  0.7818608E-02  0.1456402E+00
          2   -1    0    0  502    0  0.00000000000E+00  0.00000000000E+00  0.16281906859E+04  0.16281906859E+04  0.00000000000E+00 0. -1.
          1   -1    0    0  501    0 -0.00000000000E+00 -0.00000000000E+00 -0.10969692188E+03  0.10969692188E+03  0.00000000000E+00 0. -1.
         25    2    1    2    0    0 -0.58213091603E+02  0.16026645175E+01  0.27582359226E+03  0.30837471225E+03  0.12499990616E+03 0.  0.
          2    1    1    2  501    0  0.43195020263E+02  0.36544158822E+02 -0.84508925209E+02  0.10170075594E+03  0.00000000000E+00 0. -1.
          1    1    1    2  502    0  0.15018071340E+02 -0.38146823339E+02  0.13271790970E+04  0.13278121396E+04  0.00000000000E+00 0. -1.
         22    1    3    3    0    0 -0.40732908407E+02 -0.45594619569E+01  0.10375231190E+02  0.42280065549E+02  0.00000000000E+00 0. -1.
         22    1    3    3    0    0 -0.17480183197E+02  0.61621264743E+01  0.26544836107E+03  0.26609464670E+03  0.00000000000E+00 0. -1.
</event>
<event>
 7    1  0.7527776E-006  0.2669170E+02  0.7818608E-02  0.1663395E+00
          2   -1    0    0  502    0  0.00000000000E+00  0.00000000000E+00  0.70999755218E+03  0.70999755218E+03  0.00000000000E+00 0. -1.
          1   -1    0    0  501    0 -0.00000000000E+00 -0.00000000000E+00 -0.48290654951E+02  0.48290654951E+02  0.00000000000E+00 0. -1.
         25    2    1    2    0    0  0.17169516588E+02  0.11263913967E+01  0.51213037695E+02  0.13616725314E+03  0.12499073782E+03 0.  0.
          2    1    1    2  501    0 -0.27062229886E+02  0.19754619079E+02  0.44738856814E+02  0.55894316083E+02  0.00000000000E+00 0. -1.
          1    1    1    2  502    0  0.98927132975E+01 -0.20881010476E+02  0.56575500272E+03  0.56622663791E+03  0.00000000000E+00 0. -1.
         22    1    3    3    0    0  0.16370842278E+02  0.60496830407E+02  0.90011100790E+01  0.63315803311E+02  0.00000000000E+00 0. -1.
         22    1    3    3    0    0  0.79867431004E+00 -0.59370439011E+02  0.42211927616E+02  0.72851449828E+02  0.00000000000E+00 0. -1.
</event>
<event>
 7    1  0.7527776E-006  0.5064008E+02  0.7818608E-02  0.1466101E+00
          2   -1    0    0  502    0  0.00000000000E+00  0.00000000000E+00  0.80959025733E+02  0.80959025733E+02  0.00000000000E+00 0. -1.
          1   -1    0    0  501    0 -0.00000000000E+00 -0.00000000000E+00 -0.20861613294E+03  0.20861613294E+03  0.00000000000E+00 0. -1.
         25    2    1    2    0    0 -0.10395883689E+02  0.23185029535E+02 -0.99135690954E+02  0.16154316459E+03  0.12499075491E+03 0.  0.
          2    1    1    2  501    0 -0.37590010363E+02 -0.39364402397E+02 -0.49164021812E+02  0.73346207099E+02  0.00000000000E+00 0. -1.
          1    1    1    2  502    0  0.47985894052E+02  0.16179372862E+02  0.20642605556E+02  0.54685786987E+02  0.00000000000E+00 0. -1.
         22    1    3    3    0    0  0.25822813129E+02  0.59081321542E+01  0.21684287899E+02  0.34233493031E+02  0.00000000000E+00 0. -1.
         22    1    3    3    0    0 -0.36218696818E+02  0.17276897381E+02 -0.12081997885E+03  0.12730967156E+03  0.00000000000E+00 0. -1.
</event>
<event>
 7    1  0.7527776E-006  0.4215970E+02  0.7818608E-02  0.1515369E+00
          2   -1    0    0  502    0  0.00000000000E+00  0.00000000000E+00  0.50801210512E+03  0.50801210512E+03  0.00000000000E+00 0. -1.
          1   -1    0    0  501    0 -0.00000000000E+00 -0.00000000000E+00 -0.12261147392E+04  0.12261147392E+04  0.00000000000E+00 0. -1.
         25    2    1    2    0    0 -0.22360541775E+02  0.69675379430E+02  0.17076170344E+03  0.22392090694E+03  0.12500544338E+03 0.  0.
          2    1    1    2  501    0  0.21681155299E+02 -0.28936624744E+02 -0.11979252728E+04  0.11984708424E+04  0.00000000000E+00 0. -1.
          1    1    1    2  502    0  0.67938647633E+00 -0.40738754686E+02  0.30906093533E+03  0.31173509498E+03  0.00000000000E+00 0. -1.
         22    1    3    3    0    0 -0.59560000131E+02 -0.54742071112E+01  0.57234114213E+02  0.82783478961E+02  0.00000000000E+00 0. -1.
         22    1    3    3    0    0  0.37199458356E+02  0.75149586541E+02  0.11352758923E+03  0.14113742798E+03  0.00000000000E+00 0. -1.
</event>
<event>
 7    1  0.7527776E-006  0.1537217E+03  0.7818608E-02  0.1246925E+00
          2   -1    0    0  502    0  0.00000000000E+00  0.00000000000E+00  0.17615757240E+04  0.17615757240E+04  0.00000000000E+00 0. -1.
          1   -1    0    0  501    0 -0.00000000000E+00 -0.00000000000E+00 -0.15310660429E+03  0.15310660429E+03  0.00000000000E+00 0. -1.
         25    2    1    2    0    0  0.19931884890E+03 -0.10411709832E+03  0.53853324952E+03  0.59683492733E+03  0.12500198379E+03 0.  0.
          2    1    1    2  501    0 -0.14509894657E+03  0.32115538561E+02 -0.77000819412E+02  0.16737454497E+03  0.00000000000E+00 0. -1.
          1    1    1    2  502    0 -0.54219902328E+02  0.72001559764E+02  0.11469366896E+04  0.11504728560E+04  0.00000000000E+00 0. -1.
         22    1    3    3    0    0  0.13729873661E+03 -0.35059794443E+02  0.19542882185E+03  0.24139709333E+03  0.00000000000E+00 0. -1.
         22    1    3    3    0    0  0.62020112290E+02 -0.69057303881E+02  0.34310442767E+03  0.35543783400E+03  0.00000000000E+00 0. -1.
</event>
<event>
 7    1  0.7527776E-006  0.1272980E+03  0.7818608E-02  0.1305423E+00
          2   -1    0    0  502    0  0.00000000000E+00  0.00000000000E+00  0.30910692010E+04  0.30910692010E+04  0.00000000000E+00 0. -1.
          1   -1    0    0  501    0 -0.00000000000E+00 -0.00000000000E+00 -0.22532129935E+02  0.22532129935E+02  0.00000000000E+00 0. -1.
         25    2    1    2    0    0  0.15146159330E+02 -0.11046786563E+03  0.16492051186E+04  0.16576897567E+04  0.12500100357E+03 0.  0.
          2    1    1    2  501    0 -0.77160736722E+02  0.10637953908E+03  0.22954073864E+03  0.26449827281E+03  0.00000000000E+00 0. -1.
          1    1    1    2  502    0  0.62014577393E+02  0.40883265567E+01  0.11897912139E+04  0.11914133014E+04  0.00000000000E+00 0. -1.
         22    1    3    3    0    0  0.39040659576E+02 -0.12946695833E+03  0.12412900600E+04  0.12486340054E+04  0.00000000000E+00 0.  1.
         22    1    3    3    0    0 -0.23894500247E+02  0.18999092695E+02  0.40791505856E+03  0.40905575130E+03  0.00000000000E+00 0.  1.
</event>
<event>
 7    1  0.7527776E-006  0.1298200E+03  0.7818608E-02  0.1374819E+00
          2   -1    0    0  502    0  0.00000000000E+00  0.00000000000E+00  0.29402529996E+03  0.29402529996E+03  0.00000000000E+00 0. -1.
          1   -1    0    0  501    0 -0.00000000000E+00 -0.00000000000E+00 -0.76788679238E+03  0.76788679238E+03  0.00000000000E+00 0. -1.
         25    2    1    2    0    0 -0.95835491635E+02 -0.76667066209E+02 -0.78772617910E+02  0.19209200257E+03  0.12502772340E+03 0.  0.
          2    1    1    2  501    0 -0.24025502806E+02  0.23197962880E+02 -0.61382330428E+03  0.61473117633E+03  0.00000000000E+00 0. -1.
          1    1    1    2  502    0  0.11986099444E+03  0.53469103330E+02  0.21873442977E+03  0.25508891345E+03  0.00000000000E+00 0. -1.
         22    1    3    3    0    0 -0.23410204176E+01 -0.85283250709E+01  0.31226805235E+02  0.32454985292E+02  0.00000000000E+00 0.  1.
         22    1    3    3    0    0 -0.93494471217E+02 -0.68138741138E+02 -0.10999942314E+03  0.15963701727E+03  0.00000000000E+00 0.  1.
</event>
<event>
 7    1  0.7527776E-006  0.2130527E+02  0.7818608E-02  0.1724677E+00
          2   -1    0    0  502    0  0.00000000000E+00  0.00000000000E+00  0.97323937457E+03  0.97323937457E+03  0.00000000000E+00 0. -1.
          1   -1    0    0  501    0 -0.00000000000E+00 -0.00000000000E+00 -0.60438519329E+03  0.60438519329E+03  0.00000000000E+00 0. -1.
         25    2    1    2    0    0  0.17476386791E+02  0.34104329175E+02 -0.23004728980E+02  0.13275034220E+03  0.12499962574E+03 0.  0.
          2    1    1    2  501    0 -0.16602287445E+02 -0.13266722439E+02 -0.52617472150E+03  0.52660372143E+03  0.00000000000E+00 0. -1.
          1    1    1    2  502    0 -0.87409934637E+00 -0.20837606736E+02  0.91803363176E+03  0.91827050423E+03  0.00000000000E+00 0. -1.
         22    1    3    3    0    0  0.39741335696E+02 -0.11338692971E+02 -0.58004811791E+02  0.71221470865E+02  0.00000000000E+00 0.  1.
         22    1    3    3    0    0 -0.22264948905E+02  0.45443022147E+02  0.35000082811E+02  0.61528871340E+02  0.00000000000E+00 0.  1.
</event>
<event>
 7    1  0.7527776E-006  0.7227821E+02  0.7818608E-02  0.1461977E+00
          2   -1    0    0  502    0  0.00000000000E+00  0.00000000000E+00  0.76033117717E+03  0.76033117717E+03  0.00000000000E+00 0. -1.
          1   -1    0    0  501    0 -0.00000000000E+00 -0.00000000000E+00 -0.34190923571E+03  0.34190923571E+03  0.00000000000E+00 0. -1.
         25    2    1    2    0    0 -0.35974423217E+02  0.59622432234E+02  0.74148345807E+01  0.14327827270E+03  0.12499876041E+03 0.  0.
          2    1    1    2  501    0  0.27966533738E+02  0.12463820746E+02 -0.27119367151E+03  0.27291661969E+03  0.00000000000E+00 0. -1.
          1    1    1    2  502    0  0.80078894791E+01 -0.72086252981E+02  0.68220077838E+03  0.68604552049E+03  0.00000000000E+00 0. -1.
         22    1    3    3    0    0 -0.70879106650E+02  0.34098425929E+02  0.40839030775E+02  0.88624922257E+02  0.00000000000E+00 0.  1.
         22    1    3    3    0    0  0.34904683434E+02  0.25524006305E+02 -0.33424196195E+02  0.54653350444E+02  0.00000000000E+00 0.  1.
</event>
<event>
 7    1  0.7527776E-006  0.3411206E+02  0.7818608E-02  0.1615655E+00
          2   -1    0    0  502    0  0.00000000000E+00  0.00000000000E+00  0.49433154942E+03  0.49433154942E+03  0.00000000000E+00 0. -1.
          1   -1    0    0  501    0 -0.00000000000E+00 -0.00000000000E+00 -0.24833077441E+03  0.24833077441E+03  0.00000000000E+00 0. -1.
         25    2    1    2    0    0  0.12456872598E+02  0.20430031679E+02  0.72802692477E+02  0.14662064079E+03  0.12499928162E+03 0.  0.
          2    1    1    2  501    0  0.20815600184E+02 -0.11455431764E+02 -0.20997854772E+03  0.21131849572E+03  0.00000000000E+00 0. -1.
          1    1    1    2  502    0 -0.33272472781E+02 -0.89745999157E+01  0.38317663026E+03  0.38472318732E+03  0.00000000000E+00 0. -1.
         22    1    3    3    0    0  0.41767188138E+02  0.15909455782E+02 -0.20168094356E+02  0.49034282071E+02  0.00000000000E+00 0.  1.
         22    1    3    3    0    0 -0.29310315541E+02  0.45205758976E+01  0.92970786833E+02  0.97586358719E+02  0.00000000000E+00 0.  1.
</event>
<event>
 7    1  0.7527776E-006  0.1116686E+03  0.7818608E-02  0.1371613E+00
          2   -1    0    0  502    0  0.00000000000E+00  0.00000000000E+00  0.16228927386E+04  0.16228927386E+04  0.00000000000E+00 0. -1.
          1   -1    0    0  501    0 -0.00000000000E+00 -0.00000000000E+00 -0.18316006251E+03  0.18316006251E+03  0.00000000000E+00 0. -1.
         25    2    1    2    0    0  0.40143249308E+02 -0.81163193954E+02  0.32919433654E+02  0.15782038407E+03  0.12499855998E+03 0.  0.
          2    1    1    2  501    0 -0.25739448384E+02 -0.30441538297E+02 -0.11528353610E+03  0.12198155661E+03  0.00000000000E+00 0. -1.
          1    1    1    2  502    0 -0.14403800924E+02  0.11160473225E+03  0.15220967786E+04  0.15262508605E+04  0.00000000000E+00 0. -1.
         22    1    3    3    0    0  0.19883217454E+02 -0.94896837378E+02  0.65545359882E+02  0.11703395355E+03  0.00000000000E+00 0. -1.
         22    1    3    3    0    0  0.20260031854E+02  0.13733643424E+02 -0.32625926228E+02  0.40786430521E+02  0.00000000000E+00 0. -1.
</event>
<event>
 7    1  0.7527776E-006  0.3395834E+02  0.7818608E-02  0.1582242E+00
          2   -1    0    0  502    0  0.00000000000E+00  0.00000000000E+00  0.84773175852E+02  0.84773175852E+02  0.00000000000E+00 0. -1.
          1   -1    0    0  501    0 -0.00000000000E+00 -0.00000000000E+00 -0.92702286540E+03  0.92702286540E+03  0.00000000000E+00 0. -1.
         25    2    1    2    0    0  0.31057892365E+02 -0.95700459686E+01 -0.75516530780E+02  0.14961583294E+03  0.12500389029E+03 0.  0.
          2    1    1    2  501    0 -0.27993689456E+02 -0.19458485953E+02 -0.80960068738E+03  0.81031817968E+03  0.00000000000E+00 0. -1.
          1    1    1    2  502    0 -0.30642029091E+01  0.29028531921E+02  0.42867528606E+02  0.51862028632E+02  0.00000000000E+00 0. -1.
         22    1    3    3    0    0 -0.53061596397E+01  0.34547057114E+02  0.18525922614E+02  0.39558365665E+02  0.00000000000E+00 0. -1.
         22    1    3    3    0    0  0.36364052005E+02 -0.44117103083E+02 -0.94042453394E+02  0.11005746728E+03  0.00000000000E+00 0. -1.
</event>
<event>
 7    1  0.7527776E-006  0.3192036E+03  0.7818608E-02  0.1215506E+00
          2   -1    0    0  502    0  0.00000000000E+00  0.00000000000E+00  0.98926325406E+03  0.98926325406E+03  0.00000000000E+00 0. -1.
          1   -1    0    0  501    0 -0.00000000000E+00 -0.00000000000E+00 -0.10479691379E+04  0.10479691379E+04  0.00000000000E+00 0. -1.
         25    2    1    2    0    0 -0.18306829803E+03 -0.20709531071E+03  0.82232904687E+02  0.31430630901E+03  0.12499494315E+03 0.  0.
          2    1    1    2  501    0 -0.18415113590E+02 -0.57106529047E+02 -0.89599244634E+03  0.89799929620E+03  0.00000000000E+00 0. -1.
          1    1    1    2  502    0  0.20148341162E+03  0.26420183975E+03  0.75505365783E+03  0.82492678674E+03  0.00000000000E+00 0. -1.
         22    1    3    3    0    0 -0.24197293782E+02 -0.11951015542E+03  0.31886551022E+02  0.12603546490E+03  0.00000000000E+00 0. -1.
         22    1    3    3    0    0 -0.15887100425E+03 -0.87585155282E+02  0.50346353664E+02  0.18827084412E+03  0.00000000000E+00 0. -1.
</event>
<event>
 7    1  0.7527776E-006  0.5936512E+02  0.7818608E-02  0.1460002E+00
          2   -1    0    0  502    0  0.00000000000E+00  0.00000000000E+00  0.20536885365E+04  0.20536885365E+04  0.00000000000E+00 0. -1.
          1   -1    0    0  501    0 -0.00000000000E+00 -0.00000000000E+00 -0.10863213981E+04  0.10863213981E+04  0.00000000000E+00 0. -1.
         25    2    1    2    0    0  0.28894811831E+02  0.66311963118E+02  0.86551082309E+03  0.87747694648E+03  0.12499848041E+03 0.  0.
          2    1    1    2  501    0  0.81673977843E+01 -0.58798383928E+02 -0.10792200073E+04  0.10808514147E+04  0.00000000000E+00 0. -1.
          1    1    1    2  502    0 -0.37062209615E+02 -0.75135791901E+01  0.11810763227E+04  0.11816815735E+04  0.00000000000E+00 0. -1.
         22    1    3    3    0    0 -0.38396640406E+02 -0.12863261955E+02  0.24878985509E+03  0.25206379649E+03  0.00000000000E+00 0. -1.
         22    1    3    3    0    0  0.67291452237E+02  0.79175225072E+02  0.61672096800E+03  0.62541314999E+03  0.00000000000E+00 0. -1.
</event>
<event>
 7    1  0.7527776E-006  0.9929998E+02  0.7818608E-02  0.1411190E+00
          2   -1    0    0  502    0  0.00000000000E+00  0.00000000000E+00  0.12544125917E+04  0.12544125917E+04  0.00000000000E+00 0. -1.
          1   -1    0    0  501    0 -0.00000000000E+00 -0.00000000000E+00 -0.52481381223E+03  0.52481381223E+03  0.00000000000E+00 0. -1.
         25    2    1    2    0    0 -0.93241857311E+02  0.13037843727E+02 -0.14175268589E+03  0.21114335048E+03  0.12499464458E+03 0.  0.
          2    1    1    2  501    0 -0.42817484860E+01 -0.32355682016E+02 -0.34556971245E+03  0.34710754773E+03  0.00000000000E+00 0. -1.
          1    1    1    2  502    0  0.97523605797E+02  0.19317838289E+02  0.12169211778E+04  0.12209755057E+04  0.00000000000E+00 0. -1.
         22    1    3    3    0    0 -0.34915600532E+02  0.31898678207E+02  0.92351856734E+01  0.48186237519E+02  0.00000000000E+00 0. -1.
         22    1    3    3    0    0 -0.58326256780E+02 -0.18860834480E+02 -0.15098787156E+03  0.16295711296E+03  0.00000000000E+00 0. -1.
</event>
<event>
 7    1  0.7527776E-006  0.5910430E+02  0.7818608E-02  0.1453353E+00
          2   -1    0    0  502    0  0.00000000000E+00  0.00000000000E+00  0.12852587355E+03  0.12852587355E+03  0.00000000000E+00 0. -1.
          1   -1    0    0  501    0 -0.00000000000E+00 -0.00000000000E+00 -0.11011472581E+04  0.11011472581E+04  0.00000000000E+00 0. -1.
         25    2    1    2    0    0  0.65666273022E+02 -0.45332997252E+02 -0.23039701574E+03  0.27399750023E+03  0.12499882087E+03 0.  0.
          2    1    1    2  501    0 -0.39230468086E+02 -0.71220910820E+01 -0.84035899296E+03  0.84130433902E+03  0.00000000000E+00 0. -1.
          1    1    1    2  502    0 -0.26435804936E+02  0.52455088334E+02  0.98134624130E+02  0.11437129241E+03  0.00000000000E+00 0. -1.
         22    1    3    3    0    0 -0.28464042325E+02 -0.62095894975E+01 -0.93813600806E+01  0.30606708810E+02  0.00000000000E+00 0. -1.
         22    1    3    3    0    0  0.94130315347E+02 -0.39123407754E+02 -0.22101565566E+03  0.24339079142E+03  0.00000000000E+00 0. -1.
</event>
<event>
 7    1  0.7527776E-006  0.2717885E+02  0.7818608E-02  0.1663801E+00
          2   -1    0    0  502    0  0.00000000000E+00  0.00000000000E+00  0.42638836099E+03  0.42638836099E+03  0.00000000000E+00 0. -1.
          1   -1    0    0  501    0 -0.00000000000E+00 -0.00000000000E+00 -0.25257473524E+02  0.25257473524E+02  0.00000000000E+00 0. -1.
         25    2    1    2    0    0 -0.46778803345E+01 -0.36622202672E+01  0.19345431766E+03  0.23040572072E+03  0.12500771455E+03 0.  0.
          2    1    1    2  501    0 -0.13213481849E+02 -0.18384899550E+02  0.16621881306E+02  0.28087142471E+02  0.00000000000E+00 0. -1.
          1    1    1    2  502    0  0.17891362183E+02  0.22047119817E+02  0.19105468850E+03  0.19315297132E+03  0.00000000000E+00 0. -1.
         22    1    3    3    0    0 -0.19677139914E+02  0.47108971182E+02  0.15959872605E+03  0.16756550468E+03  0.00000000000E+00 0.  1.
         22    1    3    3    0    0  0.14999259580E+02 -0.50771191449E+02  0.33855591609E+02  0.62840216042E+02  0.00000000000E+00 0.  1.
</event>
<event>
 7    1  0.7527776E-006  0.1816140E+03  0.7818608E-02  0.1253059E+00
          2   -1    0    0  502    0  0.00000000000E+00  0.00000000000E+00  0.19399246540E+04  0.19399246540E+04  0.00000000000E+00 0. -1.
          1   -1    0    0  501    0 -0.00000000000E+00 -0.00000000000E+00 -0.26218909695E+03  0.26218909695E+03  0.00000000000E+00 0. -1.
         25    2    1    2    0    0 -0.74469383749E+02  0.10449995667E+03  0.87538722508E+02  0.19938825112E+03  0.12500686655E+03 0.  0.
          2    1    1    2  501    0  0.12349043133E+03 -0.15690109725E+03 -0.15703347791E+03  0.25402234967E+03  0.00000000000E+00 0. -1.
          1    1    1    2  502    0 -0.49021047580E+02  0.52401140584E+02  0.17472303124E+04  0.17487031502E+04  0.00000000000E+00 0. -1.
         22    1    3    3    0    0 -0.79749862098E+02  0.10704322586E+03  0.11199183812E+03  0.17424254507E+03  0.00000000000E+00 0.  1.
         22    1    3    3    0    0  0.52804783488E+01 -0.25432691879E+01 -0.24453115609E+02  0.25145706050E+02  0.00000000000E+00 0.  1.
</event>
<event>
 7    1  0.7527776E-006  0.2739805E+02  0.7818608E-02  0.1665315E+00
          2   -1    0    0  502    0  0.00000000000E+00  0.00000000000E+00  0.29423299298E+03  0.29423299298E+03  0.00000000000E+00 0. -1.
          1   -1    0    0  501    0 -0.00000000000E+00 -0.00000000000E+00 -0.75063665551E+03  0.75063665551E+03  0.00000000000E+00 0. -1.
         25    2    1    2    0    0 -0.72410958025E+01 -0.18692048106E+02 -0.23992857655E+03  0.27127849504E+03  0.12499789556E+03 0.  0.
          2    1    1    2  501    0  0.26659873459E+02  0.77858870318E+01 -0.49419741093E+03  0.49497722155E+03  0.00000000000E+00 0. -1.
          1    1    1    2  502    0 -0.19418777656E+02  0.10906161075E+02  0.27772232495E+03  0.27861393190E+03  0.00000000000E+00 0. -1.
         22    1    3    3    0    0 -0.51896216847E+02 -0.42417723839E+02 -0.84643393175E+02  0.10796751654E+03  0.00000000000E+00 0. -1.
         22    1    3    3    0    0  0.44655121045E+02  0.23725675733E+02 -0.15528518338E+03  0.16331097851E+03  0.00000000000E+00 0. -1.
</event>
<event>
 7    1  0.7527776E-006  0.3941874E+02  0.7818608E-02  0.1615305E+00
          2   -1    0    0  502    0  0.00000000000E+00  0.00000000000E+00  0.33158707120E+03  0.33158707120E+03  0.00000000000E+00 0. -1.
          1   -1    0    0  501    0 -0.00000000000E+00 -0.00000000000E+00 -0.84802612840E+03  0.84802612840E+03  0.00000000000E+00 0. -1.
         25    2    1    2    0    0  0.15332690128E+02  0.17045607190E+02 -0.12415665699E+03  0.17766356370E+03  0.12499528903E+03 0.  0.
          2    1    1    2  501    0 -0.26290923391E+01  0.20434995722E+02 -0.69567840685E+03  0.69598343869E+03  0.00000000000E+00 0. -1.
          1    1    1    2  502    0 -0.12703597789E+02 -0.37480602912E+02  0.30339600664E+03  0.30596619722E+03  0.00000000000E+00 0. -1.
         22    1    3    3    0    0  0.46942745670E+02 -0.25594655687E+02 -0.13820884044E+02  0.55224311734E+02  0.00000000000E+00 0.  1.
         22    1    3    3    0    0 -0.31610055542E+02  0.42640262877E+02 -0.11033577295E+03  0.12243925196E+03  0.00000000000E+00 0.  1.
</event>
<event>
 7    1  0.7527776E-006  0.1004614E+03  0.7818608E-02  0.1336496E+00
          2   -1    0    0  502    0  0.00000000000E+00  0.00000000000E+00  0.25308511709E+04  0.25308511709E+04  0.00000000000E+00 0. -1.
          1   -1    0    0  501    0 -0.00000000000E+00 -0.00000000000E+00 -0.32729829526E+03  0.32729829526E+03  0.00000000000E+00 0. -1.
         25    2    1    2    0    0 -0.33427524030E+01  0.11112490735E+03  0.13946680981E+03  0.21779843852E+03  0.12500099901E+03 0.  0.
          2    1    1    2  501    0  0.56276823089E+02 -0.83552736438E+02 -0.27893572398E+03  0.29656918029E+03  0.00000000000E+00 0. -1.
          1    1    1    2  502    0 -0.52934070686E+02 -0.27572170917E+02  0.23430217899E+04  0.23437818474E+04  0.00000000000E+00 0. -1.
         22    1    3    3    0    0  0.79506726574E+01  0.93357284072E+01  0.11076098667E+03  0.11143771888E+03  0.00000000000E+00 0.  1.
         22    1    3    3    0    0 -0.11293425060E+02  0.10178917895E+03  0.28705823138E+02  0.10636071964E+03  0.00000000000E+00 0.  1.
</event>
<event>
 7    1  0.7527776E-006  0.7867685E+02  0.7818608E-02  0.1412061E+00
          2   -1    0    0  502    0  0.00000000000E+00  0.00000000000E+00  0.18397323009E+04  0.18397323009E+04  0.00000000000E+00 0. -1.
          1   -1    0    0  501    0 -0.00000000000E+00 -0.00000000000E+00 -0.18671187032E+02  0.18671187032E+02  0.00000000000E+00 0. -1.
         25    2    1    2    0    0 -0.33624704901E+02  0.95599322407E+02  0.58078430615E+03  0.60266553725E+03  0.12500195315E+03 0.  0.
          2    1    1    2  501    0  0.36310180313E+02 -0.18856603525E+02  0.58049154118E+02  0.71019046633E+02  0.00000000000E+00 0. -1.
          1    1    1    2  502    0 -0.26854754113E+01 -0.76742718883E+02  0.11822276536E+04  0.11847189041E+04  0.00000000000E+00 0. -1.
         22    1    3    3    0    0  0.14988479752E+02  0.40919399947E+02  0.45551486577E+03  0.45759462929E+03  0.00000000000E+00 0. -1.
         22    1    3    3    0    0 -0.48613184653E+02  0.54679922460E+02  0.12526944038E+03  0.14507090796E+03  0.00000000000E+00 0. -1.
</event>
<event>
 7    1  0.7527776E-006  0.4272559E+02  0.7818608E-02  0.1496475E+00
          2   -1    0    0  502    0  0.00000000000E+00  0.00000000000E+00  0.34426101958E+03  0.34426101958E+03  0.00000000000E+00 0. -1.
          1   -1    0    0  501    0 -0.00000000000E+00 -0.00000000000E+00 -0.73157313574E+02  0.73157313574E+02  0.00000000000E+00 0. -1.
         25    2    1    2    0    0 -0.92687540224E-01 -0.51780237046E+01  0.85849295597E+02  0.15172862799E+03  0.12499861790E+03 0.  0.
          2    1    1    2  501    0 -0.42718461126E+02 -0.78057870544E+00 -0.26029305705E+02  0.50030000795E+02  0.00000000000E+00 0. -1.
          1    1    1    2  502    0  0.42811148666E+02  0.59586024100E+01  0.21128371611E+03  0.21565970436E+03  0.00000000000E+00 0. -1.
         22    1    3    3    0    0  0.26664395116E+02  0.30736151970E+02 -0.13402073415E+02  0.42840594962E+02  0.00000000000E+00 0. -1.
         22    1    3    3    0    0 -0.26757082656E+02 -0.35914175675E+02  0.99251369012E+02  0.10888803303E+03  0.00000000000E+00 0. -1.
</event>
<event>
 7    1  0.7527776E-006  0.8718259E+02  0.7818608E-02  0.1410877E+00
          2   -1    0    0  502    0  0.00000000000E+00  0.00000000000E+00  0.44989234277E+03  0.44989234277E+03  0.00000000000E+00 0. -1.
          1   -1    0    0  501    0 -0.00000000000E+00 -0.00000000000E+00 -0.55533916529E+03  0.55533916529E+03  0.00000000000E+00 0. -1.
         25    2    1    2    0    0 -0.10497690099E+03  0.52697312465E+02  0.43032357168E+02  0.17684252623E+03  0.12499735533E+03 0.  0.
          2    1    1    2  501    0  0.23443578611E+02 -0.28966554721E+02 -0.48240147182E+03  0.48383865357E+03  0.00000000000E+00 0. -1.
          1    1    1    2  502    0  0.81533322377E+02 -0.23730757744E+02  0.33392229213E+03  0.34455032826E+03  0.00000000000E+00 0. -1.
         22    1    3    3    0    0 -0.27518950205E+02  0.80888074360E+02  0.40045307466E+02  0.94359948305E+02  0.00000000000E+00 0. -1.
         22    1    3    3    0    0 -0.77457950783E+02 -0.28190761896E+02  0.29870497026E+01  0.82482577928E+02  0.00000000000E+00 0. -1.
</event>
<event>
 7    1  0.7527776E-006  0.5892926E+02  0.7818608E-02  0.1459655E+00
          2   -1    0    0  502    0  0.00000000000E+00  0.00000000000E+00  0.13725624807E+04  0.13725624807E+04  0.00000000000E+00 0. -1.
          1   -1    0    0  501    0 -0.00000000000E+00 -0.00000000000E+00 -0.27904607360E+02  0.27904607360E+02  0.00000000000E+00 0. -1.
         25    2    1    2    0    0  0.30408777776E+02 -0.73853615614E+02  0.46490555194E+03  0.48799675837E+03  0.12499845458E+03 0.  0.
          2    1    1    2  501    0  0.13168458182E+02  0.35849968826E+02  0.82765497616E+01  0.39078508565E+02  0.00000000000E+00 0. -1.
          1    1    1    2  502    0 -0.43577235958E+02  0.38003646788E+02  0.87147577164E+03  0.87339182113E+03  0.00000000000E+00 0. -1.
         22    1    3    3    0    0  0.43903044702E+02 -0.46971109858E+02  0.83393119903E+02  0.10530040334E+03  0.00000000000E+00 0.  1.
         22    1    3    3    0    0 -0.13494266926E+02 -0.26882505756E+02  0.38151243204E+03  0.38269635503E+03  0.00000000000E+00 0.  1.
</event>
<event>
 7    1  0.7527776E-006  0.3865544E+03  0.7818608E-02  0.1078057E+00
          2   -1    0    0  502    0  0.00000000000E+00  0.00000000000E+00  0.22501682310E+04  0.22501682310E+04  0.00000000000E+00 0. -1.
          1   -1    0    0  501    0 -0.00000000000E+00 -0.00000000000E+00 -0.10902708107E+04  0.10902708107E+04  0.00000000000E+00 0. -1.
         25    2    1    2    0    0  0.46375838412E+03  0.11300059878E+03  0.62499306571E+03  0.79629331683E+03  0.12500296026E+03 0.  0.
          2    1    1    2  501    0 -0.20181703225E+03  0.15815023746E+03 -0.96453681924E+03  0.99803451232E+03  0.00000000000E+00 0. -1.
          1    1    1    2  502    0 -0.26194135187E+03 -0.27115083625E+03  0.14994411738E+04  0.15461112125E+04  0.00000000000E+00 0. -1.
         22    1    3    3    0    0  0.40198788899E+03  0.14012157400E+03  0.54801789595E+03  0.69393943012E+03  0.00000000000E+00 0. -1.
         22    1    3    3    0    0  0.61770495132E+02 -0.27120975211E+02  0.76975169761E+02  0.10235388671E+03  0.00000000000E+00 0. -1.
</event>
<event>
 7    1  0.7527776E-006  0.8329389E+02  0.7818608E-02  0.1322606E+00
          2   -1    0    0  502    0  0.00000000000E+00  0.00000000000E+00  0.20058588927E+04  0.20058588927E+04  0.00000000000E+00 0. -1.
          1   -1    0    0  501    0 -0.00000000000E+00 -0.00000000000E+00 -0.35599308488E+02  0.35599308488E+02  0.00000000000E+00 0. -1.
         25    2    1    2    0    0  0.93765899190E+01 -0.11377389878E+03  0.41789122188E+03  0.45087803470E+03  0.12500203347E+03 0.  0.
          2    1    1    2  501    0 -0.63268046150E+02  0.52837330035E+02  0.76458403341E+02  0.11243005181E+03  0.00000000000E+00 0. -1.
          1    1    1    2  502    0  0.53891456231E+02  0.60936568742E+02  0.14759099590E+04  0.14781501147E+04  0.00000000000E+00 0. -1.
         22    1    3    3    0    0 -0.26192216089E+02 -0.12801436589E+03  0.33409255920E+03  0.35873604247E+03  0.00000000000E+00 0. -1.
         22    1    3    3    0    0  0.35568806008E+02  0.14240467114E+02  0.83798662680E+02  0.92141992227E+02  0.00000000000E+00 0. -1.
</event>
<event>
 7    1  0.7527776E-006  0.3916634E+02  0.7818608E-02  0.1545829E+00
          2   -1    0    0  502    0  0.00000000000E+00  0.00000000000E+00  0.68864074512E+03  0.68864074512E+03  0.00000000000E+00 0. -1.
          1   -1    0    0  501    0 -0.00000000000E+00 -0.00000000000E+00 -0.19073888031E+03  0.19073888031E+03  0.00000000000E+00 0. -1.
         25    2    1    2    0    0  0.81585520109E+01  0.36783491231E+00  0.22499156524E+03  0.25751308681E+03  0.12500035271E+03 0.  0.
          2    1    1    2  501    0 -0.36720689041E+02 -0.14440393600E+02 -0.17167059501E+03  0.17614689086E+03  0.00000000000E+00 0. -1.
          1    1    1    2  502    0  0.28562137030E+02  0.14072558688E+02  0.44458089457E+03  0.44571964775E+03  0.00000000000E+00 0. -1.
         22    1    3    3    0    0  0.33964183421E+02  0.48301936591E+02  0.17071918076E+03  0.18064241338E+03  0.00000000000E+00 0.  1.
         22    1    3    3    0    0 -0.25805631410E+02 -0.47934101679E+02  0.54272384484E+02  0.76870673432E+02  0.00000000000E+00 0.  1.
</event>
<event>
 7    1  0.7527776E-006  0.1081710E+03  0.7818608E-02  0.1461195E+00
          2   -1    0    0  502    0  0.00000000000E+00  0.00000000000E+00  0.48243916818E+03  0.48243916818E+03  0.00000000000E+00 0. -1.
          1   -1    0    0  501    0 -0.00000000000E+00 -0.00000000000E+00 -0.14666256139E+04  0.14666256139E+04  0.00000000000E+00 0. -1.
         25    2    1    2    0    0  0.11803404847E+03  0.96009701472E+01 -0.85384036011E+03  0.87102969223E+03  0.12500059587E+03 0.  0.
          2    1    1    2  501    0 -0.12990204214E+02  0.15955687000E+02 -0.59784507530E+03  0.59819901656E+03  0.00000000000E+00 0. -1.
          1    1    1    2  502    0 -0.10504384426E+03 -0.25556657148E+02  0.46749898965E+03  0.47983607333E+03  0.00000000000E+00 0. -1.
         22    1    3    3    0    0 -0.23894613126E+02 -0.29563418646E+01 -0.62751713374E+02  0.67212127068E+02  0.00000000000E+00 0.  1.
         22    1    3    3    0    0  0.14192866160E+03  0.12557312012E+02 -0.79108864673E+03  0.80381756516E+03  0.00000000000E+00 0.  1.
</event>
<event>
 7    1  0.7527776E-006  0.5904519E+02  0.7818608E-02  0.1515084E+00
          2   -1    0    0  502    0  0.00000000000E+00  0.00000000000E+00  0.71098706770E+03  0.71098706770E+03  0.00000000000E+00 0. -1.
          1   -1    0    0  501    0 -0.00000000000E+00 -0.00000000000E+00 -0.25771487443E+04  0.25771487443E+04  0.00000000000E+00 0. -1.
         25    2    1    2    0    0  0.38135939487E+02  0.75813250507E+02  0.46418726529E+03  0.48815719630E+03  0.12500252882E+03 0.  0.
          2    1    1    2  501    0 -0.27439765512E+02 -0.52261080539E+02 -0.25641107037E+04  0.25647900230E+04  0.00000000000E+00 0. -1.
          1    1    1    2  502    0 -0.10696173975E+02 -0.23552169968E+02  0.23376176181E+03  0.23518859270E+03  0.00000000000E+00 0. -1.
         22    1    3    3    0    0 -0.39187727114E+01  0.27763086811E+02  0.38685229380E+03  0.38786704292E+03  0.00000000000E+00 0. -1.
         22    1    3    3    0    0  0.42054712198E+02  0.48050163696E+02  0.77334971491E+02  0.10029015338E+03  0.00000000000E+00 0. -1.
</event>
<event>
 7    1  0.7527776E-006  0.6166191E+02  0.7818608E-02  0.1448585E+00
          2   -1    0    0  502    0  0.00000000000E+00  0.00000000000E+00  0.22216373061E+04  0.22216373061E+04  0.00000000000E+00 0. -1.
          1   -1    0    0  501    0 -0.00000000000E+00 -0.00000000000E+00 -0.99940429698E+02  0.99940429698E+02  0.00000000000E+00 0. -1.
         25    2    1    2    0    0  0.75507022999E+02 -0.22153825803E+02  0.83896934158E+03  0.85187254909E+03  0.12500072504E+03 0.  0.
          2    1    1    2  501    0 -0.42729048921E+02  0.44342885437E+02 -0.83030480382E+02  0.10337370934E+03  0.00000000000E+00 0. -1.
          1    1    1    2  502    0 -0.32777974077E+02 -0.22189059635E+02  0.13657580152E+04  0.13663314774E+04  0.00000000000E+00 0. -1.
         22    1    3    3    0    0  0.55200075768E+02 -0.13491826548E+02  0.12223095242E+03  0.13479422643E+03  0.00000000000E+00 0. -1.
         22    1    3    3    0    0  0.20306947231E+02 -0.86619992551E+01  0.71673838915E+03  0.71707832266E+03  0.00000000000E+00 0. -1.
</event>
<event>
 7    1  0.7527776E-006  0.5378224E+02  0.7818608E-02  0.1499606E+00
          2   -1    0    0  502    0  0.00000000000E+00  0.00000000000E+00  0.60770464702E+03  0.60770464702E+03  0.00000000000E+00 0. -1.
          1   -1    0    0  501    0 -0.00000000000E+00 -0.00000000000E+00 -0.59781879335E+03  0.59781879335E+03  0.00000000000E+00 0. -1.
         25    2    1    2    0    0  0.56178207725E+02  0.11301747112E+02 -0.27671943501E+03  0.30900228575E+03  0.12500018548E+03 0.  0.
          2    1    1    2  501    0 -0.50723920140E+02  0.19775040882E+02 -0.30210229324E+03  0.30696866924E+03  0.00000000000E+00 0. -1.
          1    1    1    2  502    0 -0.54542875854E+01 -0.31076787994E+02  0.58870758192E+03  0.58955248538E+03  0.00000000000E+00 0. -1.
         22    1    3    3    0    0 -0.24948228760E+02  0.19596171512E+02 -0.15420327023E+02  0.35273368732E+02  0.00000000000E+00 0.  1.
         22    1    3    3    0    0  0.81126436485E+02 -0.82944244008E+01 -0.26129910799E+03  0.27372891701E+03  0.00000000000E+00 0.  1.
</event>
<event>
 7    1  0.7527776E-006  0.8127908E+02  0.7818608E-02  0.1408736E+00
          2   -1    0    0  502    0  0.00000000000E+00  0.00000000000E+00  0.46628440793E+03  0.46628440793E+03  0.00000000000E+00 0. -1.
          1   -1    0    0  501    0 -0.00000000000E+00 -0.00000000000E+00 -0.85063996842E+03  0.85063996842E+03  0.00000000000E+00 0. -1.
         25    2    1    2    0    0  0.71373475189E+01  0.42062753953E+02 -0.25249529459E+02  0.13447278606E+03  0.12500069781E+03 0.  0.
          2    1    1    2  501    0 -0.22016740511E+02 -0.79886197315E+02 -0.76754005459E+03  0.77200017927E+03  0.00000000000E+00 0. -1.
          1    1    1    2  502    0  0.14879392992E+02  0.37823443361E+02  0.40843402356E+03  0.41045141102E+03  0.00000000000E+00 0. -1.
         22    1    3    3    0    0  0.35081682221E+02  0.52337061251E+02 -0.61170892747E+02  0.87816687066E+02  0.00000000000E+00 0. -1.
         22    1    3    3    0    0 -0.27944334702E+02 -0.10274307298E+02  0.35921363288E+02  0.46656098989E+02  0.00000000000E+00 0. -1.
</event>
<event>
 7    1  0.7527776E-006  0.1588462E+03  0.7818608E-02  0.1240783E+00
          2   -1    0    0  502    0  0.00000000000E+00  0.00000000000E+00  0.44771437377E+03  0.44771437377E+03  0.00000000000E+00 0. -1.
          1   -1    0    0  501    0 -0.00000000000E+00 -0.00000000000E+00 -0.18265935712E+04  0.18265935712E+04  0.00000000000E+00 0. -1.
         25    2    1    2    0    0  0.18892220032E+03  0.57549039359E+02  0.14276519859E+03  0.27386614186E+03  0.12496908426E+03 0.  0.
          2    1    1    2  501    0 -0.80446532482E+02  0.46267160819E+02 -0.17361382015E+04  0.17386167345E+04  0.00000000000E+00 0. -1.
          1    1    1    2  502    0 -0.10847566784E+03 -0.10381620018E+03  0.21449380552E+03  0.26182506858E+03  0.00000000000E+00 0. -1.
         22    1    3    3    0    0  0.46128297402E+02 -0.27336156500E+01  0.10443279787E+03  0.11419939469E+03  0.00000000000E+00 0.  1.
         22    1    3    3    0    0  0.14279390292E+03  0.60282655009E+02  0.38332400722E+02  0.15966674717E+03  0.00000000000E+00 0.  1.
</event>
<event>
 7    1  0.7527776E-006  0.1727035E+03  0.7818608E-02  0.1315698E+00
          2   -1    0    0  502    0  0.00000000000E+00  0.00000000000E+00  0.14759551170E+04  0.14759551170E+04  0.00000000000E+00 0. -1.
          1   -1    0    0  501    0 -0.00000000000E+00 -0.00000000000E+00 -0.69925154502E+02  0.69925154502E+02  0.00000000000E+00 0. -1.
         25    2    1    2    0    0  0.14710476281E+03 -0.18358324338E+02  0.30143255560E+03  0.35841743988E+03  0.12499854526E+03 0.  0.
          2    1    1    2  501    0 -0.18593018592E+03  0.33668615032E+02  0.17693517435E+03  0.25886225216E+03  0.00000000000E+00 0. -1.
          1    1    1    2  502    0  0.38825423102E+02 -0.15310290694E+02  0.92766223255E+03  0.92860057947E+03  0.00000000000E+00 0. -1.
         22    1    3    3    0    0  0.13932007157E+03 -0.58489717814E+02  0.21477046641E+03  0.26259756791E+03  0.00000000000E+00 0. -1.
         22    1    3    3    0    0  0.77846912438E+01  0.40131393476E+02  0.86662089190E+02  0.95819871962E+02  0.00000000000E+00 0. -1.
</event>
<event>
 7    1  0.7527776E-006  0.1496390E+03  0.7818608E-02  0.1367349E+00
          2   -1    0    0  502    0  0.00000000000E+00  0.00000000000E+00  0.16794424784E+04  0.16794424784E+04  0.00000000000E+00 0. -1.
          1   -1    0    0  501    0 -0.00000000000E+00 -0.00000000000E+00 -0.12781217537E+04  0.12781217537E+04  0.00000000000E+00 0. -1.
         25    2    1    2    0    0  0.89631060406E+02 -0.87840203645E+02 -0.22234729058E+03  0.28427576563E+03  0.12499905973E+03 0.  0.
          2    1    1    2  501    0 -0.10115409470E+03  0.11642394934E+03 -0.10188621492E+04  0.10304691970E+04  0.00000000000E+00 0. -1.
          1    1    1    2  502    0  0.11523034295E+02 -0.28583745696E+02  0.16425301645E+04  0.16428192695E+04  0.00000000000E+00 0. -1.
         22    1    3    3    0    0  0.32013324015E+02 -0.11014771632E+03 -0.13277342023E+03  0.17545983428E+03  0.00000000000E+00 0. -1.
         22    1    3    3    0    0  0.57617736390E+02  0.22307512672E+02 -0.89573870347E+02  0.10881593136E+03  0.00000000000E+00 0. -1.
</event>
<event>
 7    1  0.7527776E-006  0.9976433E+02  0.7818608E-02  0.1336260E+00
          2   -1    0    0  502    0  0.00000000000E+00  0.00000000000E+00  0.21576453376E+04  0.21576453376E+04  0.00000000000E+00 0. -1.
          1   -1    0    0  501    0 -0.00000000000E+00 -0.00000000000E+00 -0.53500268789E+03  0.53500268789E+03  0.00000000000E+00 0. -1.
         25    2    1    2    0    0  0.14350086652E+03 -0.53222181446E+02 -0.14402136709E+03  0.24452430351E+03  0.12499952615E+03 0.  0.
          2    1    1    2  501    0 -0.88507222053E+02  0.28671222926E+02 -0.33393946423E+03  0.34665708294E+03  0.00000000000E+00 0. -1.
          1    1    1    2  502    0 -0.54993644472E+02  0.24550958520E+02  0.21006034810E+04  0.21014666391E+04  0.00000000000E+00 0. -1.
         22    1    3    3    0    0  0.10930567565E+03 -0.79717722980E+02 -0.14867644170E+03  0.20101574665E+03  0.00000000000E+00 0.  1.
         22    1    3    3    0    0  0.34195190875E+02  0.26495541534E+02  0.46550746087E+01  0.43508556857E+02  0.00000000000E+00 0.  1.
</event>
<event>
 7    1  0.7527776E-006  0.5636319E+02  0.7818608E-02  0.1507334E+00
          2   -1    0    0  502    0  0.00000000000E+00  0.00000000000E+00  0.15832272965E+04  0.15832272965E+04  0.00000000000E+00 0. -1.
          1   -1    0    0  501    0 -0.00000000000E+00 -0.00000000000E+00 -0.36182523511E+02  0.36182523511E+02  0.00000000000E+00 0. -1.
         25    2    1    2    0    0 -0.22846793581E+02  0.23255695635E+02  0.38867109139E+03  0.40957453313E+03  0.12499311001E+03 0.  0.
          2    1    1    2  501    0  0.27910747798E+02 -0.51360328555E+02  0.78750383496E+01  0.58982280567E+02  0.00000000000E+00 0. -1.
          1    1    1    2  502    0 -0.50639542171E+01  0.28104632920E+02  0.11504986432E+04  0.11508530063E+04  0.00000000000E+00 0. -1.
         22    1    3    3    0    0 -0.48778745406E+02  0.40247767931E+02  0.94095901559E+02  0.11337234018E+03  0.00000000000E+00 0.  1.
         22    1    3    3    0    0  0.25931951825E+02 -0.16992072296E+02  0.29457518983E+03  0.29620219295E+03  0.00000000000E+00 0.  1.
</event>
<event>
 7    1  0.7527776E-006  0.1385095E+03  0.7818608E-02  0.1342162E+00
          2   -1    0    0  502    0  0.00000000000E+00  0.00000000000E+00  0.11683717467E+04  0.11683717467E+04  0.00000000000E+00 0. -1.
          1   -1    0    0  501    0 -0.00000000000E+00 -0.00000000000E+00 -0.11820094433E+04  0.11820094433E+04  0.00000000000E+00 0. -1.
         25    2    1    2    0    0  0.63375236461E+02 -0.94664960353E+02 -0.46453700448E+02  0.17538374343E+03  0.12499454331E+03 0.  0.
          2    1    1    2  501    0 -0.46906981652E+02  0.13244545223E+03 -0.10660948394E+04  0.10753140329E+04  0.00000000000E+00 0. -1.
          1    1    1    2  502    0 -0.16468254809E+02 -0.37780491877E+02  0.10989108432E+04  0.10996834137E+04  0.00000000000E+00 0. -1.
         22    1    3    3    0    0  0.76525497593E+02 -0.11211285937E+03 -0.61329101441E+02  0.14895201812E+03  0.00000000000E+00 0.  1.
         22    1    3    3    0    0 -0.13150261133E+02  0.17447899017E+02  0.14875400994E+02  0.26431725307E+02  0.00000000000E+00 0.  1.
</event>
<event>
 7    1  0.7527776E-006  0.4356762E+02  0.7818608E-02  0.1510364E+00
          2   -1    0    0  502    0  0.00000000000E+00  0.00000000000E+00  0.67329293370E+03  0.67329293370E+03  0.00000000000E+00 0. -1.
          1   -1    0    0  501    0 -0.00000000000E+00 -0.00000000000E+00 -0.16453865020E+03  0.16453865020E+03  0.00000000000E+00 0. -1.
         25    2    1    2    0    0  0.38930650915E+02 -0.97753658339E+01  0.18927061432E+02  0.13264293528E+03  0.12499904506E+03 0.  0.
          2    1    1    2  501    0 -0.36050390772E+02 -0.26301856516E+02 -0.10248109381E+03  0.11177563652E+03  0.00000000000E+00 0. -1.
          1    1    1    2  502    0 -0.28802601431E+01  0.36077222350E+02  0.59230831588E+03  0.59341301210E+03  0.00000000000E+00 0. -1.
         22    1    3    3    0    0  0.19559128748E+02  0.45199643453E+02 -0.29023681140E+02  0.57165910756E+02  0.00000000000E+00 0. -1.
         22    1    3    3    0    0  0.19371522168E+02 -0.54975009287E+02  0.47950742572E+02  0.75477024520E+02  0.00000000000E+00 0. -1.
</event>
<event>
 7    1  0.7527776E-006  0.6230126E+02  0.7818608E-02  0.1492254E+00
          2   -1    0    0  502    0  0.00000000000E+00  0.00000000000E+00  0.30570896860E+04  0.30570896860E+04  0.00000000000E+00 0. -1.
          1   -1    0    0  501    0 -0.00000000000E+00 -0.00000000000E+00 -0.87203691831E+03  0.87203691831E+03  0.00000000000E+00 0. -1.
         25    2    1    2    0    0 -0.70437090236E+02 -0.43342757098E+02  0.31391789607E+03  0.34787646602E+03  0.12503444271E+03 0.  0.
          2    1    1    2  501    0  0.10818757327E+02  0.26536128493E+02 -0.85446555252E+03  0.85494595856E+03  0.00000000000E+00 0. -1.
          1    1    1    2  502    0  0.59618332910E+02  0.16806628605E+02  0.27256004241E+04  0.27263041797E+04  0.00000000000E+00 0. -1.
         22    1    3    3    0    0 -0.30933729379E+02 -0.42542533493E+01  0.28213237183E+03  0.28385501496E+03  0.00000000000E+00 0.  1.
         22    1    3    3    0    0 -0.39503360857E+02 -0.39088503748E+02  0.31785524242E+02  0.64021451058E+02  0.00000000000E+00 0.  1.
</event>
<event>
 7    1  0.7527776E-006  0.9311585E+02  0.7818608E-02  0.1319550E+00
          2   -1    0    0  502    0  0.00000000000E+00  0.00000000000E+00  0.88176796745E+03  0.88176796745E+03  0.00000000000E+00 0. -1.
          1   -1    0    0  501    0 -0.00000000000E+00 -0.00000000000E+00 -0.13222403894E+03  0.13222403894E+03  0.00000000000E+00 0. -1.
         25    2    1    2    0    0  0.11577222246E+02  0.22583363040E+02  0.20515927265E+02  0.12919062017E+03  0.12500109082E+03 0.  0.
          2    1    1    2  501    0 -0.10349899044E+03 -0.77189843481E+01 -0.39206036037E+02  0.11094474753E+03  0.00000000000E+00 0. -1.
          1    1    1    2  502    0  0.91921768198E+02 -0.14864378692E+02  0.76823403728E+03  0.77385663870E+03  0.00000000000E+00 0. -1.
         22    1    3    3    0    0  0.65508360105E+02  0.83739875558E+01 -0.80477645948E+01  0.66529958863E+02  0.00000000000E+00 0. -1.
         22    1    3    3    0    0 -0.53931137860E+02  0.14209375484E+02  0.28563691859E+02  0.62660661305E+02  0.00000000000E+00 0. -1.
</event>
<event>
 7    1  0.7527776E-006  0.5173548E+02  0.7818608E-02  0.1468220E+00
          2   -1    0    0  502    0  0.00000000000E+00  0.00000000000E+00  0.72336064101E+03  0.72336064101E+03  0.00000000000E+00 0. -1.
          1   -1    0    0  501    0 -0.00000000000E+00 -0.00000000000E+00 -0.13819178131E+04  0.13819178131E+04  0.00000000000E+00 0. -1.
         25    2    1    2    0    0  0.11055528400E+02 -0.41048241042E+02 -0.69249289384E+03  0.70496647423E+03  0.12499655581E+03 0.  0.
          2    1    1    2  501    0 -0.49107350355E+02  0.26072341376E+02 -0.68147207601E+03  0.68373641795E+03  0.00000000000E+00 0. -1.
          1    1    1    2  502    0  0.38051821954E+02  0.14975899666E+02  0.71540779781E+03  0.71657556189E+03  0.00000000000E+00 0. -1.
         22    1    3    3    0    0  0.36123648052E+01 -0.23436228518E+02 -0.16938032263E+02  0.29141086520E+02  0.00000000000E+00 0. -1.
         22    1    3    3    0    0  0.74431635952E+01 -0.17612012524E+02 -0.67555486158E+03  0.67582538771E+03  0.00000000000E+00 0. -1.
</event>
<event>
 7    1  0.7527776E-006  0.9372405E+02  0.7818608E-02  0.1336402E+00
          2   -1    0    0  502    0  0.00000000000E+00  0.00000000000E+00  0.44488334938E+03  0.44488334938E+03  0.00000000000E+00 0. -1.
          1   -1    0    0  501    0 -0.00000000000E+00 -0.00000000000E+00 -0.32951654191E+03  0.32951654191E+03  0.00000000000E+00 0. -1.
         25    2    1    2    0    0  0.15785158415E+01 -0.54542749870E+02  0.30971444771E+02  0.13986326977E+03  0.12500040225E+03 0.  0.
          2    1    1    2  501    0  0.58893483806E+02 -0.25120079810E+02 -0.26421539951E+03  0.27186253545E+03  0.00000000000E+00 0. -1.
          1    1    1    2  502    0 -0.60471999648E+02  0.79662829681E+02  0.34861076221E+03  0.36267408606E+03  0.00000000000E+00 0. -1.
         22    1    3    3    0    0  0.63278233938E+02 -0.26084346789E+02  0.15300043611E+02  0.70132869414E+02  0.00000000000E+00 0. -1.
         22    1    3    3    0    0 -0.61699718097E+02 -0.28458403081E+02  0.15671401160E+02  0.69730400353E+02  0.00000000000E+00 0. -1.
</event>
<event>
 7    1  0.7527776E-006  0.1510352E+03  0.7818608E-02  0.1233317E+00
          2   -1    0    0  502    0  0.00000000000E+00  0.00000000000E+00  0.31301130388E+03  0.31301130388E+03  0.00000000000E+00 0. -1.
          1   -1    0    0  501    0 -0.00000000000E+00 -0.00000000000E+00 -0.11197044534E+04  0.11197044534E+04  0.00000000000E+00 0. -1.
         25    2    1    2    0    0 -0.23873036632E+03  0.58205711724E+02 -0.26684261657E+03  0.38367979798E+03  0.12500045071E+03 0.  0.
          2    1    1    2  501    0  0.13829451153E+03 -0.26476850763E+02 -0.77694354590E+03  0.78959968912E+03  0.00000000000E+00 0. -1.
          1    1    1    2  502    0  0.10043585479E+03 -0.31728860961E+02  0.23709301290E+03  0.25943627023E+03  0.00000000000E+00 0. -1.
         22    1    3    3    0    0 -0.70470309759E+02  0.68193858276E+02 -0.14761056646E+03  0.17721553599E+03  0.00000000000E+00 0. -1.
         22    1    3    3    0    0 -0.16826005656E+03 -0.99881465521E+01 -0.11923205010E+03  0.20646426199E+03  0.00000000000E+00 0. -1.
</event>
<event>
 7    1  0.7527776E-006  0.6674665E+02  0.7818608E-02  0.1461514E+00
          2   -1    0    0  502    0  0.00000000000E+00  0.00000000000E+00  0.10374136974E+04  0.10374136974E+04  0.00000000000E+00 0. -1.
          1   -1    0    0  501    0 -0.00000000000E+00 -0.00000000000E+00 -0.22984430255E+04  0.22984430255E+04  0.00000000000E+00 0. -1.
         25    2    1    2    0    0 -0.36048484306E+02 -0.92920462582E+02 -0.47268329832E+02  0.16671374032E+03  0.12500188247E+03 0.  0.
          2    1    1    2  501    0  0.22412754272E+02  0.62576389243E+02 -0.21906647729E+04  0.21916729417E+04  0.00000000000E+00 0. -1.
          1    1    1    2  502    0  0.13635730034E+02  0.30344073339E+02  0.97690377460E+03  0.97747004085E+03  0.00000000000E+00 0. -1.
         22    1    3    3    0    0  0.34366506676E+02 -0.69933341353E+02 -0.50013234143E+02  0.92590780337E+02  0.00000000000E+00 0.  1.
         22    1    3    3    0    0 -0.70414990982E+02 -0.22987121229E+02  0.27449043112E+01  0.74122959986E+02  0.00000000000E+00 0.  1.
</event>
<event>
 7    1  0.7527776E-006  0.1238060E+03  0.7818608E-02  0.1320765E+00
          2   -1    0    0  502    0  0.00000000000E+00  0.00000000000E+00  0.87498049613E+03  0.87498049613E+03  0.00000000000E+00 0. -1.
          1   -1    0    0  501    0 -0.00000000000E+00 -0.00000000000E+00 -0.29640476088E+04  0.29640476088E+04  0.00000000000E+00 0. -1.
         25    2    1    2    0    0  0.17411181990E+03 -0.33923945985E+02  0.10144428068E+03  0.23954582978E+03  0.12500201016E+03 0.  0.
          2    1    1    2  501    0 -0.11847992312E+03  0.34490925143E+02 -0.28925809276E+04  0.28952118297E+04  0.00000000000E+00 0. -1.
          1    1    1    2  502    0 -0.55631896774E+02 -0.56697915835E+00  0.70206953426E+03  0.70427044545E+03  0.00000000000E+00 0. -1.
         22    1    3    3    0    0  0.16302226980E+03  0.16814508582E+02  0.66052669329E+02  0.17669732107E+03  0.00000000000E+00 0.  1.
         22    1    3    3    0    0  0.11089550101E+02 -0.50738454567E+02  0.35391611349E+02  0.62848508710E+02  0.00000000000E+00 0.  1.
</event>
<event>
 7    1  0.7527776E-006  0.8024470E+02  0.7818608E-02  0.1340375E+00
          2   -1    0    0  502    0  0.00000000000E+00  0.00000000000E+00  0.43186081278E+02  0.43186081278E+02  0.00000000000E+00 0. -1.
          1   -1    0    0  501    0 -0.00000000000E+00 -0.00000000000E+00 -0.10296365149E+04  0.10296365149E+04  0.00000000000E+00 0. -1.
         25    2    1    2    0    0  0.14391623405E+02  0.90795958197E+01 -0.36903438029E+03  0.39000052207E+03  0.12499790195E+03 0.  0.
          2    1    1    2  501    0  0.44342153624E+02 -0.66880381756E+02 -0.59080092423E+03  0.59622558157E+03  0.00000000000E+00 0. -1.
          1    1    1    2  502    0 -0.58733777029E+02  0.57800785936E+02 -0.26615129071E+02  0.86596492506E+02  0.00000000000E+00 0. -1.
         22    1    3    3    0    0  0.12335419600E+02 -0.14352951797E+02 -0.36576212456E+03  0.36625141852E+03  0.00000000000E+00 0. -1.
         22    1    3    3    0    0  0.20562038049E+01  0.23432547617E+02 -0.32722557288E+01  0.23749103551E+02  0.00000000000E+00 0. -1.
</event>
<event>
 7    1  0.7527776E-006  0.2411872E+03  0.7818608E-02  0.1165367E+00
          2   -1    0    0  502    0  0.00000000000E+00  0.00000000000E+00  0.24893219780E+04  0.24893219780E+04  0.00000000000E+00 0. -1.
          1   -1    0    0  501    0 -0.00000000000E+00 -0.00000000000E+00 -0.17909386846E+03  0.17909386846E+03  0.00000000000E+00 0. -1.
         25    2    1    2    0    0  0.11197013799E+02 -0.14551878289E+03  0.21492042800E+03  0.28830101472E+03  0.12500238168E+03 0.  0.
          2    1    1    2  501    0 -0.87767700184E+02 -0.10669212362E+03 -0.99044812652E+02  0.16998898009E+03  0.00000000000E+00 0. -1.
          1    1    1    2  502    0  0.76570686385E+02  0.25221090651E+03  0.21943524942E+04  0.22101258516E+04  0.00000000000E+00 0. -1.
         22    1    3    3    0    0 -0.22158813098E+02 -0.15512701593E+03  0.16558519198E+03  0.22797776180E+03  0.00000000000E+00 0.  1.
         22    1    3    3    0    0  0.33355826897E+02  0.96082330441E+01  0.49335236014E+02  0.60323252919E+02  0.00000000000E+00 0.  1.
</event>
<event>
 7    1  0.7527776E-006  0.2715108E+03  0.7818608E-02  0.1182767E+00
          2   -1    0    0  502    0  0.00000000000E+00  0.00000000000E+00  0.55438213929E+03  0.55438213929E+03  0.00000000000E+00 0. -1.
          1   -1    0    0  501    0 -0.00000000000E+00 -0.00000000000E+00 -0.11430455124E+04  0.11430455124E+04  0.00000000000E+00 0. -1.
         25    2    1    2    0    0 -0.15004922243E+03 -0.18394698392E+03 -0.13230133848E+03  0.29913108184E+03  0.12499799165E+03 0.  0.
          2    1    1    2  501    0  0.59107922727E+02 -0.81551657364E+02 -0.88240114944E+03  0.88813073806E+03  0.00000000000E+00 0. -1.
          1    1    1    2  502    0  0.90941299702E+02  0.26549864129E+03  0.42603911484E+03  0.51016583175E+03  0.00000000000E+00 0. -1.
         22    1    3    3    0    0 -0.13876763812E+03 -0.15537949537E+03 -0.15606339966E+03  0.26029796327E+03  0.00000000000E+00 0.  1.
         22    1    3    3    0    0 -0.11281584308E+02 -0.28567488548E+02  0.23762061180E+02  0.38833118571E+02  0.00000000000E+00 0.  1.
</event>
<event>
 7    1  0.7527776E-006  0.2199389E+03  0.7818608E-02  0.1347623E+00
          2   -1    0    0  502    0  0.00000000000E+00  0.00000000000E+00  0.12365585345E+04  0.12365585345E+04  0.00000000000E+00 0. -1.
          1   -1    0    0  501    0 -0.00000000000E+00 -0.00000000000E+00 -0.80755529862E+03  0.80755529862E+03  0.00000000000E+00 0. -1.
         25    2    1    2    0    0  0.87563841416E+02 -0.19567786685E+03 -0.26024421949E+03  0.35959555448E+03  0.12499862050E+03 0.  0.
          2    1    1    2  501    0  0.24050550488E+02  0.59029305480E+01 -0.48710815536E+03  0.48773725364E+03  0.00000000000E+00 0. -1.
          1    1    1    2  502    0 -0.11161439190E+03  0.18977493630E+03  0.11763556107E+04  0.11967810250E+04  0.00000000000E+00 0. -1.
         22    1    3    3    0    0 -0.11228121923E+02  0.59464428768E+01  0.35439748015E+01  0.13190552005E+02  0.00000000000E+00 0. -1.
         22    1    3    3    0    0  0.98791963339E+02 -0.20162430972E+03 -0.26378819429E+03  0.34640500247E+03  0.00000000000E+00 0. -1.
</event>
<event>
 7    1  0.7527776E-006  0.1205770E+03  0.7818608E-02  0.1244594E+00
          2   -1    0    0  502    0  0.00000000000E+00  0.00000000000E+00  0.29532146188E+04  0.29532146188E+04  0.00000000000E+00 0. -1.
          1   -1    0    0  501    0 -0.00000000000E+00 -0.00000000000E+00 -0.29376105252E+03  0.29376105252E+03  0.00000000000E+00 0. -1.
         25    2    1    2    0    0 -0.79165806713E+02  0.45587111834E+02  0.33526932978E+03  0.36929070553E+03  0.12499876791E+03 0.  0.
          2    1    1    2  501    0 -0.28457676140E+02 -0.11414127172E+03 -0.26260576272E+03  0.28774964093E+03  0.00000000000E+00 0. -1.
          1    1    1    2  502    0  0.10762348285E+03  0.68554159884E+02  0.25867899992E+04  0.25899353249E+04  0.00000000000E+00 0. -1.
         22    1    3    3    0    0 -0.93018859315E+02 -0.98554286720E+01  0.16477821437E+03  0.18947690517E+03  0.00000000000E+00 0.  1.
         22    1    3    3    0    0  0.13853052602E+02  0.55442540506E+02  0.17049111541E+03  0.17981380036E+03  0.00000000000E+00 0.  1.
</event>
<event>
 7    1  0.7527776E-006  0.5548665E+02  0.7818608E-02  0.1482638E+00
          2   -1    0    0  502    0  0.00000000000E+00  0.00000000000E+00  0.17362894962E+04  0.17362894962E+04  0.00000000000E+00 0. -1.
          1   -1    0    0  501    0 -0.00000000000E+00 -0.00000000000E+00 -0.14712751173E+03  0.14712751173E+03  0.00000000000E+00 0. -1.
         25    2    1    2    0    0 -0.11383250287E+02  0.19858969729E+02  0.10387807792E+03  0.16413505150E+03  0.12500281194E+03 0.  0.
          2    1    1    2  501    0  0.32142318028E+02 -0.47306457911E+02 -0.10981288772E+03  0.12381397287E+03  0.00000000000E+00 0. -1.
          1    1    1    2  502    0 -0.20759067741E+02  0.27447488183E+02  0.15950967943E+04  0.15954679836E+04  0.00000000000E+00 0. -1.
         22    1    3    3    0    0 -0.60198505036E+02  0.18049461903E+02  0.95871962211E+02  0.11463453329E+03  0.00000000000E+00 0.  1.
         22    1    3    3    0    0  0.48815254749E+02  0.18095078253E+01  0.80061157062E+01  0.49500518214E+02  0.00000000000E+00 0.  1.
</event>
<event>
 7    1  0.7527776E-006  0.4970717E+02  0.7818608E-02  0.1482528E+00
          2   -1    0    0  502    0  0.00000000000E+00  0.00000000000E+00  0.21144214126E+04  0.21144214126E+04  0.00000000000E+00 0. -1.
          1   -1    0    0  501    0 -0.00000000000E+00 -0.00000000000E+00 -0.56870613979E+02  0.56870613979E+02  0.00000000000E+00 0. -1.
         25    2    1    2    0    0 -0.37353984320E+02 -0.60363006733E+02  0.13770879302E+03  0.19906793780E+03  0.12500127783E+03 0.  0.
          2    1    1    2  501    0 -0.68250483901E+01  0.37834182774E+02 -0.11591271772E+02  0.40154255727E+02  0.00000000000E+00 0. -1.
          1    1    1    2  502    0  0.44179032710E+02  0.22528823960E+02  0.19314332774E+04  0.19320698331E+04  0.00000000000E+00 0. -1.
         22    1    3    3    0    0  0.29418446624E+02  0.83235907103E+01 -0.89015445098E+00  0.30586263895E+02  0.00000000000E+00 0. -1.
         22    1    3    3    0    0 -0.66772430944E+02 -0.68686597444E+02  0.13859894747E+03  0.16848167391E+03  0.00000000000E+00 0. -1.
</event>
<event>
 7    1  0.7527776E-006  0.4675490E+02  0.7818608E-02  0.1510137E+00
          2   -1    0    0  502    0  0.00000000000E+00  0.00000000000E+00  0.61497866962E+03  0.61497866962E+03  0.00000000000E+00 0. -1.
          1   -1    0    0  501    0 -0.00000000000E+00 -0.00000000000E+00 -0.18980518038E+04  0.18980518038E+04  0.00000000000E+00 0. -1.
         25    2    1    2    0    0 -0.18837515490E+02  0.10949533069E+02 -0.13501648855E+03  0.18529098404E+03  0.12501420848E+03 0.  0.
          2    1    1    2  501    0 -0.27211601760E+02 -0.20009929743E+02 -0.17368000420E+04  0.17371284508E+04  0.00000000000E+00 0. -1.
          1    1    1    2  502    0  0.46049117250E+02  0.90603966737E+01  0.58874339644E+03  0.59061103854E+03  0.00000000000E+00 0. -1.
         22    1    3    3    0    0 -0.19966299869E+02 -0.51646248157E+02 -0.29861808866E+02  0.62910378380E+02  0.00000000000E+00 0. -1.
         22    1    3    3    0    0  0.11287843787E+01  0.62595781226E+02 -0.10515467968E+03  0.12238060566E+03  0.00000000000E+00 0. -1.
</event>
<event>
 7    1  0.7527776E-006  0.1470342E+03  0.7818608E-02  0.1339360E+00
          2   -1    0    0  502    0  0.00000000000E+00  0.00000000000E+00  0.23302079875E+04  0.23302079875E+04  0.00000000000E+00 0. -1.
          1   -1    0    0  501    0 -0.00000000000E+00 -0.00000000000E+00 -0.58927429514E+03  0.58927429514E+03  0.00000000000E+00 0. -1.
         25    2    1    2    0    0 -0.91878957220E+02  0.90593116581E+02  0.82931479709E+02  0.19786631062E+03  0.12499836398E+03 0.  0.
          2    1    1    2  501    0  0.12841582571E+03 -0.74868547899E+02 -0.52123464617E+03  0.54201612534E+03  0.00000000000E+00 0. -1.
          1    1    1    2  502    0 -0.36536868490E+02 -0.15724568682E+02  0.21792368588E+04  0.21795998467E+04  0.00000000000E+00 0. -1.
         22    1    3    3    0    0  0.49953624123E+01 -0.65532472458E+01 -0.23067045062E+02  0.24494637433E+02  0.00000000000E+00 0. -1.
         22    1    3    3    0    0 -0.96874319632E+02  0.97146363827E+02  0.10599852477E+03  0.17337167318E+03  0.00000000000E+00 0. -1.
</event>
<event>
 7    1  0.7527776E-006  0.8183183E+02  0.7818608E-02  0.1504874E+00
          2   -1    0    0  502    0  0.00000000000E+00  0.00000000000E+00  0.18293474931E+04  0.18293474931E+04  0.00000000000E+00 0. -1.
          1   -1    0    0  501    0 -0.00000000000E+00 -0.00000000000E+00 -0.18214713571E+02  0.18214713571E+02  0.00000000000E+00 0. -1.
         25    2    1    2    0    0  0.75557005685E+02  0.98350752518E+01  0.11014534769E+04  0.11111400755E+04  0.12500766249E+03 0.  0.
          2    1    1    2  501    0 -0.82227359984E+02  0.90216789530E+01  0.11636591920E+03  0.14277169388E+03  0.00000000000E+00 0. -1.
          1    1    1    2  502    0  0.66703542985E+01 -0.18856754205E+02  0.59331338344E+03  0.59365043735E+03  0.00000000000E+00 0. -1.
         22    1    3    3    0    0  0.64585931063E+02  0.43065828782E+02  0.10136739559E+04  0.10166419709E+04  0.00000000000E+00 0.  1.
         22    1    3    3    0    0  0.10971074622E+02 -0.33230753530E+02  0.87779520990E+02  0.94498104551E+02  0.00000000000E+00 0.  1.
</event>
<event>
 7    1  0.7527776E-006  0.6271944E+02  0.7818608E-02  0.1434503E+00
          2   -1    0    0  502    0  0.00000000000E+00  0.00000000000E+00  0.52674389779E+03  0.52674389779E+03  0.00000000000E+00 0. -1.
          1   -1    0    0  501    0 -0.00000000000E+00 -0.00000000000E+00 -0.18964456754E+04  0.18964456754E+04  0.00000000000E+00 0. -1.
         25    2    1    2    0    0  0.71520841530E+02  0.48796473021E+02  0.11885842145E+03  0.19299901808E+03  0.12499988031E+03 0.  0.
          2    1    1    2  501    0 -0.28843041882E+02 -0.55642100252E+02 -0.18575855304E+04  0.18586425065E+04  0.00000000000E+00 0. -1.
          1    1    1    2  502    0 -0.42677799648E+02  0.68456272301E+01  0.36902533136E+03  0.37154804855E+03  0.00000000000E+00 0. -1.
         22    1    3    3    0    0 -0.19524420550E+02  0.12518113426E+02  0.86856391635E+02  0.89899604723E+02  0.00000000000E+00 0.  1.
         22    1    3    3    0    0  0.91045262080E+02  0.36278359596E+02  0.32002029816E+02  0.10309941336E+03  0.00000000000E+00 0.  1.
</event>
<event>
 7    1  0.7527776E-006  0.1469480E+03  0.7818608E-02  0.1249135E+00
          2   -1    0    0  502    0  0.00000000000E+00  0.00000000000E+00  0.37235514490E+03  0.37235514490E+03  0.00000000000E+00 0. -1.
          1   -1    0    0  501    0 -0.00000000000E+00 -0.00000000000E+00 -0.18645683077E+04  0.18645683077E+04  0.00000000000E+00 0. -1.
         25    2    1    2    0    0 -0.47158487517E+02  0.36636831754E+02 -0.76353270646E+03  0.77599951581E+03  0.12500749704E+03 0.  0.
          2    1    1    2  501    0 -0.89640004922E+02  0.21672034868E+02 -0.10776510886E+04  0.10815899761E+04  0.00000000000E+00 0. -1.
          1    1    1    2  502    0  0.13679849244E+03 -0.58308866622E+02  0.34897063233E+03  0.37933396064E+03  0.00000000000E+00 0. -1.
         22    1    3    3    0    0  0.25680727231E+02 -0.33144668470E+01 -0.47605423462E+03  0.47675792572E+03  0.00000000000E+00 0. -1.
         22    1    3    3    0    0 -0.72839214748E+02  0.39951298601E+02 -0.28747847185E+03  0.29924159009E+03  0.00000000000E+00 0. -1.
</event>
<event>
 7    1  0.7527776E-006  0.1056374E+03  0.7818608E-02  0.1293920E+00
          2   -1    0    0  502    0  0.00000000000E+00  0.00000000000E+00  0.81488622605E+03  0.81488622605E+03  0.00000000000E+00 0. -1.
          1   -1    0    0  501    0 -0.00000000000E+00 -0.00000000000E+00 -0.75090493454E+02  0.75090493454E+02  0.00000000000E+00 0. -1.
         25    2    1    2    0    0 -0.25612694687E+02 -0.15285684227E+03  0.40110485888E+03  0.44780991782E+03  0.12500956092E+03 0.  0.
          2    1    1    2  501    0  0.63781104728E+02  0.78844006374E+02  0.86478981122E+01  0.10178011988E+03  0.00000000000E+00 0. -1.
          1    1    1    2  502    0 -0.38168410041E+02  0.74012835898E+02  0.33004297561E+03  0.34038668181E+03  0.00000000000E+00 0. -1.
         22    1    3    3    0    0 -0.32588744022E+01 -0.17714155424E+02 -0.54349641599E+01  0.18813569576E+02  0.00000000000E+00 0. -1.
         22    1    3    3    0    0 -0.22353820285E+02 -0.13514268685E+03  0.40653982304E+03  0.42899634824E+03  0.00000000000E+00 0. -1.
</event>
<event>
 7    1  0.7527776E-006  0.1499064E+03  0.7818608E-02  0.1312998E+00
          2   -1    0    0  502    0  0.00000000000E+00  0.00000000000E+00  0.17044890578E+04  0.17044890578E+04  0.00000000000E+00 0. -1.
          1   -1    0    0  501    0 -0.00000000000E+00 -0.00000000000E+00 -0.34216766762E+03  0.34216766762E+03  0.00000000000E+00 0. -1.
         25    2    1    2    0    0 -0.15113125955E+03 -0.12040947018E+03  0.35611288358E+03  0.42400512225E+03  0.12499943886E+03 0.  0.
          2    1    1    2  501    0  0.10436408843E+03  0.10491841398E+03 -0.28996358761E+03  0.32554357417E+03  0.00000000000E+00 0. -1.
          1    1    1    2  502    0  0.46767171125E+02  0.15491056199E+02  0.12961720942E+04  0.12971080290E+04  0.00000000000E+00 0. -1.
         22    1    3    3    0    0 -0.16369643727E+03 -0.84934957265E+02  0.24473165626E+03  0.30643768390E+03  0.00000000000E+00 0. -1.
         22    1    3    3    0    0  0.12565177723E+02 -0.35474512918E+02  0.11138122732E+03  0.11756743834E+03  0.00000000000E+00 0. -1.
</event>
<event>
 7    1  0.7527776E-006  0.5066268E+02  0.7818608E-02  0.1491366E+00
          2   -1    0    0  502    0  0.00000000000E+00  0.00000000000E+00  0.69059378595E+03  0.69059378595E+03  0.00000000000E+00 0. -1.
          1   -1    0    0  501    0 -0.00000000000E+00 -0.00000000000E+00 -0.44079817709E+03  0.44079817709E+03  0.00000000000E+00 0. -1.
         25    2    1    2    0    0 -0.14649103287E+02 -0.53519338717E+01 -0.10684399425E+03  0.16518115333E+03  0.12500373948E+03 0.  0.
          2    1    1    2  501    0 -0.30947924176E+02 -0.17306185123E+02 -0.30276957220E+03  0.30483879659E+03  0.00000000000E+00 0. -1.
          1    1    1    2  502    0  0.45597027463E+02  0.22658118995E+02  0.65940917530E+03  0.66137201312E+03  0.00000000000E+00 0. -1.
         22    1    3    3    0    0 -0.47374884471E+02 -0.33673069101E+02 -0.10715239361E+03  0.12190115142E+03  0.00000000000E+00 0. -1.
         22    1    3    3    0    0  0.32725781184E+02  0.28321135229E+02  0.30839936538E+00  0.43280001906E+02  0.00000000000E+00 0. -1.
</event>
<event>
 7    1  0.7527776E-006  0.5104561E+02  0.7818608E-02  0.1472277E+00
          2   -1    0    0  502    0  0.00000000000E+00  0.00000000000E+00  0.10570265201E+04  0.10570265201E+04  0.00000000000E+00 0. -1.
          1   -1    0    0  501    0 -0.00000000000E+00 -0.00000000000E+00 -0.25578903400E+04  0.25578903400E+04  0.00000000000E+00 0. -1.
         25    2    1    2    0    0  0.30830414482E+02  0.24687133309E+02 -0.97499635092E+02  0.16337368208E+03  0.12499924857E+03 0.  0.
          2    1    1    2  501    0 -0.30321434570E+02  0.26483435159E+02 -0.24266473415E+04  0.24269812693E+04  0.00000000000E+00 0. -1.
          1    1    1    2  502    0 -0.50897991227E+00 -0.51170568468E+02  0.10232831567E+04  0.10245619088E+04  0.00000000000E+00 0. -1.
         22    1    3    3    0    0  0.10133400769E+02  0.70070820733E+02 -0.87404971922E+02  0.11248215346E+03  0.00000000000E+00 0.  1.
         22    1    3    3    0    0  0.20697013713E+02 -0.45383687424E+02 -0.10094663170E+02  0.50891528621E+02  0.00000000000E+00 0.  1.
</event>
<event>
 7    1  0.7527776E-006  0.5289615E+02  0.7818608E-02  0.1476273E+00
          2   -1    0    0  502    0  0.00000000000E+00  0.00000000000E+00  0.72290042926E+03  0.72290042926E+03  0.00000000000E+00 0. -1.
          1   -1    0    0  501    0 -0.00000000000E+00 -0.00000000000E+00 -0.58525662214E+03  0.58525662214E+03  0.00000000000E+00 0. -1.
         25    2    1    2    0    0  0.15057037217E+02 -0.18556976980E+02 -0.28921602413E+03  0.31597644673E+03  0.12499652199E+03 0.  0.
          2    1    1    2  501    0 -0.22912216784E+02  0.55491241832E+02 -0.27896222653E+03  0.28534920962E+03  0.00000000000E+00 0. -1.
          1    1    1    2  502    0  0.78551795666E+01 -0.36934264852E+02  0.70582205779E+03  0.70683139505E+03  0.00000000000E+00 0. -1.
         22    1    3    3    0    0  0.68418686477E+02  0.56708305202E+01 -0.15708849823E+03  0.17143532673E+03  0.00000000000E+00 0. -1.
         22    1    3    3    0    0 -0.53361649260E+02 -0.24227807500E+02 -0.13212752591E+03  0.14454112000E+03  0.00000000000E+00 0. -1.
</event>
<event>
 7    1  0.7527776E-006  0.4069461E+02  0.7818608E-02  0.1533961E+00
          2   -1    0    0  502    0  0.00000000000E+00  0.00000000000E+00  0.40750471153E+03  0.40750471153E+03  0.00000000000E+00 0. -1.
          1   -1    0    0  501    0 -0.00000000000E+00 -0.00000000000E+00 -0.64922697591E+03  0.64922697591E+03  0.00000000000E+00 0. -1.
         25    2    1    2    0    0  0.72346494344E+02  0.56333440496E+01  0.61257341325E+02  0.15697955084E+03  0.12499747080E+03 0.  0.
          2    1    1    2  501    0 -0.33090533350E+02  0.10246331818E+01 -0.59957890418E+03  0.60049221112E+03  0.00000000000E+00 0. -1.
          1    1    1    2  502    0 -0.39255960994E+02 -0.66579772315E+01  0.29659929848E+03  0.29925992547E+03  0.00000000000E+00 0. -1.
         22    1    3    3    0    0  0.10731508549E+03  0.11546487463E+02  0.37372650522E+02  0.11422155643E+03  0.00000000000E+00 0. -1.
         22    1    3    3    0    0 -0.34968591143E+02 -0.59131434132E+01  0.23884690803E+02  0.42757994414E+02  0.00000000000E+00 0. -1.
</event>
<event>
 7    1  0.7527776E-006  0.1273905E+03  0.7818608E-02  0.1261972E+00
          2   -1    0    0  502    0  0.00000000000E+00  0.00000000000E+00  0.34425239778E+04  0.34425239778E+04  0.00000000000E+00 0. -1.
          1   -1    0    0  501    0 -0.00000000000E+00 -0.00000000000E+00 -0.22583633849E+03  0.22583633849E+03  0.00000000000E+00 0. -1.
         25    2    1    2    0    0 -0.60964868500E+02 -0.51123030894E+02  0.10676891648E+03  0.18263541159E+03  0.12500325021E+03 0.  0.
          2    1    1    2  501    0  0.13899848829E+03 -0.72247799268E+00 -0.16143418679E+03  0.21303074516E+03  0.00000000000E+00 0. -1.
          1    1    1    2  502    0 -0.78033619787E+02  0.51845508886E+02  0.32713529096E+04  0.32726941595E+04  0.00000000000E+00 0. -1.
         22    1    3    3    0    0 -0.83302079574E+02 -0.12712252650E+02  0.22259765591E+02  0.87156956079E+02  0.00000000000E+00 0. -1.
         22    1    3    3    0    0  0.22337211074E+02 -0.38410778244E+02  0.84509150886E+02  0.95478455514E+02  0.00000000000E+00 0. -1.
</event>
<event>
 7    1  0.7527776E-006  0.3493800E+03  0.7818608E-02  0.1254508E+00
          2   -1    0    0  502    0  0.00000000000E+00  0.00000000000E+00  0.28290857665E+04  0.28290857665E+04  0.00000000000E+00 0. -1.
          1   -1    0    0  501    0 -0.00000000000E+00 -0.00000000000E+00 -0.61435720376E+02  0.61435720376E+02  0.00000000000E+00 0. -1.
         25    2    1    2    0    0 -0.47828990657E+02  0.34660362709E+03  0.16655898466E+04  0.17065275325E+04  0.12499998178E+03 0.  0.
          2    1    1    2  501    0  0.83910876973E+02 -0.33953758963E+03  0.72298813751E+03  0.80314298666E+03  0.00000000000E+00 0. -1.
          1    1    1    2  502    0 -0.36081886317E+02 -0.70660374595E+01  0.37907206201E+03  0.38085096770E+03  0.00000000000E+00 0. -1.
         22    1    3    3    0    0  0.34791906595E+02  0.82924463967E+02  0.29675415126E+03  0.31008058594E+03  0.00000000000E+00 0.  1.
         22    1    3    3    0    0 -0.82620897252E+02  0.26367916312E+03  0.13688356954E+04  0.13964469466E+04  0.00000000000E+00 0.  1.
</event>
<event>
 7    1  0.7527776E-006  0.8261590E+02  0.7818608E-02  0.1451359E+00
          2   -1    0    0  502    0  0.00000000000E+00  0.00000000000E+00  0.16650681469E+04  0.16650681469E+04  0.00000000000E+00 0. -1.
          1   -1    0    0  501    0 -0.00000000000E+00 -0.00000000000E+00 -0.23549583379E+03  0.23549583379E+03  0.00000000000E+00 0. -1.
         25    2    1    2    0    0 -0.75769283707E+02 -0.32380882017E+02 -0.60410082114E+02  0.16144108318E+03  0.12499735774E+03 0.  0.
          2    1    1    2  501    0 -0.67876911749E+01  0.28138211395E+02 -0.12181513975E+03  0.12520686868E+03  0.00000000000E+00 0. -1.
          1    1    1    2  502    0  0.82556974881E+02  0.42426706222E+01  0.16117975350E+04  0.16139160288E+04  0.00000000000E+00 0. -1.
         22    1    3    3    0    0 -0.17336755611E+02 -0.44867640194E+01 -0.88911243758E+02  0.90696766276E+02  0.00000000000E+00 0. -1.
         22    1    3    3    0    0 -0.58432528096E+02 -0.27894117997E+02  0.28501161643E+02  0.70744316899E+02  0.00000000000E+00 0. -1.
</event>
<event>
 7    1  0.7527776E-006  0.1238583E+03  0.7818608E-02  0.1377470E+00
          2   -1    0    0  502    0  0.00000000000E+00  0.00000000000E+00  0.82275582773E+03  0.82275582773E+03  0.00000000000E+00 0. -1.
          1   -1    0    0  501    0 -0.00000000000E+00 -0.00000000000E+00 -0.17549182122E+04  0.17549182122E+04  0.00000000000E+00 0. -1.
         25    2    1    2    0    0  0.98879142636E+02 -0.11220384173E+03  0.56096693301E+02  0.20282829032E+03  0.12500275761E+03 0.  0.
          2    1    1    2  501    0 -0.65470449865E+02  0.10465039397E+03 -0.16788619242E+04  0.16833940256E+04  0.00000000000E+00 0. -1.
          1    1    1    2  502    0 -0.33408692772E+02  0.75534477595E+01  0.69060284638E+03  0.69145172409E+03  0.00000000000E+00 0. -1.
         22    1    3    3    0    0  0.57742436711E+02 -0.13406387677E+03  0.55717269342E+02  0.15624252352E+03  0.00000000000E+00 0.  1.
         22    1    3    3    0    0  0.41136705925E+02  0.21860035042E+02  0.37942395905E+00  0.46585766807E+02  0.00000000000E+00 0.  1.
</event>
<event>
 7    1  0.7527776E-006  0.3287949E+02  0.7818608E-02  0.1614559E+00
          2   -1    0    0  502    0  0.00000000000E+00  0.00000000000E+00  0.59038963659E+02  0.59038963659E+02  0.00000000000E+00 0. -1.
          1   -1    0    0  501    0 -0.00000000000E+00 -0.00000000000E+00 -0.22163884985E+03  0.22163884985E+03  0.00000000000E+00 0. -1.
         25    2    1    2    0    0 -0.45759096326E+02 -0.21167840271E+01 -0.12733380903E+03  0.18422103123E+03  0.12500045502E+03 0.  0.
          2    1    1    2  501    0  0.26420902181E+02  0.17659622487E+02 -0.55824146819E+02  0.64235984515E+02  0.00000000000E+00 0. -1.
          1    1    1    2  502    0  0.19338194145E+02 -0.15542838460E+02  0.20558069657E+02  0.32220797759E+02  0.00000000000E+00 0. -1.
         22    1    3    3    0    0 -0.28874968040E+02  0.38675514709E+02  0.12372150876E+01  0.48281362020E+02  0.00000000000E+00 0. -1.
         22    1    3    3    0    0 -0.16884128286E+02 -0.40792298736E+02 -0.12857102411E+03  0.13593966921E+03  0.00000000000E+00 0. -1.
</event>
<event>
 7    1  0.8704664E-006  0.5202981E+02  0.7818608E-02  0.1487095E+00
          2   -1    0    0  502    0  0.00000000000E+00  0.00000000000E+00  0.22808900948E+04  0.22808900948E+04  0.00000000000E+00 0. -1.
          1   -1    0    0  501    0 -0.00000000000E+00 -0.00000000000E+00 -0.12338813340E+04  0.12338813340E+04  0.00000000000E+00 0. -1.
         25    2    1    2    0    0  0.28043206901E+02 -0.32522070159E+01 -0.91756631618E+02  0.15761484879E+03  0.12500465115E+03 0.  0.
          2    1    1    2  501    0 -0.44275618533E+02 -0.28398371163E+02 -0.11084311602E+04  0.11096785276E+04  0.00000000000E+00 0. -1.
          1    1    1    2  502    0  0.16232411632E+02  0.31650578179E+02  0.22471965526E+04  0.22474780524E+04  0.00000000000E+00 0. -1.
         22    1    3    3    0    0 -0.34378815531E+02 -0.22750423419E+02 -0.81616365023E+02  0.91436949657E+02  0.00000000000E+00 0.  1.
         22    1    3    3    0    0  0.62422022432E+02  0.19498216403E+02 -0.10140266595E+02  0.66177899135E+02  0.00000000000E+00 0.  1.
</event>
<event>
 7    1  0.7527776E-006  0.1049028E+03  0.7818608E-02  0.1337526E+00
          2   -1    0    0  502    0  0.00000000000E+00  0.00000000000E+00  0.54271420182E+03  0.54271420182E+03  0.00000000000E+00 0. -1.
          1   -1    0    0  501    0 -0.00000000000E+00 -0.00000000000E+00 -0.88352557201E+03  0.88352557201E+03  0.00000000000E+00 0. -1.
         25    2    1    2    0    0 -0.40864168796E+02 -0.40681115964E+02 -0.11017561886E+02  0.13810007905E+03  0.12500164669E+03 0.  0.
          2    1    1    2  501    0 -0.10065645510E+02 -0.55745809550E+02 -0.80174999457E+03  0.80374869599E+03  0.00000000000E+00 0. -1.
          1    1    1    2  502    0  0.50929814306E+02  0.96426925514E+02  0.47195618627E+03  0.48439099879E+03  0.00000000000E+00 0. -1.
         22    1    3    3    0    0 -0.30834859575E+02 -0.76978474559E+02 -0.38554001120E+02  0.91448811434E+02  0.00000000000E+00 0.  1.
         22    1    3    3    0    0 -0.10029309222E+02  0.36297358595E+02  0.27536439234E+02  0.46651267616E+02  0.00000000000E+00 0.  1.
</event>
<event>
 7    1  0.7527776E-006  0.7555037E+02  0.7818608E-02  0.1496614E+00
          2   -1    0    0  502    0  0.00000000000E+00  0.00000000000E+00  0.28041913072E+04  0.28041913072E+04  0.00000000000E+00 0. -1.
          1   -1    0    0  501    0 -0.00000000000E+00 -0.00000000000E+00 -0.85210397518E+02  0.85210397518E+02  0.00000000000E+00 0. -1.
         25    2    1    2    0    0 -0.40214271157E+02 -0.71588951736E+02  0.68851753282E+03  0.70457353875E+03  0.12500125152E+03 0.  0.
          2    1    1    2  501    0  0.22870643853E+02 -0.16304206498E+01 -0.74792434843E+02  0.78228082755E+02  0.00000000000E+00 0. -1.
          1    1    1    2  502    0  0.17343627304E+02  0.73219372386E+02  0.21052558117E+04  0.21066000832E+04  0.00000000000E+00 0. -1.
         22    1    3    3    0    0 -0.26258591539E+02 -0.71137616691E+02  0.68625103530E+03  0.69042780766E+03  0.00000000000E+00 0. -1.
         22    1    3    3    0    0 -0.13955679617E+02 -0.45133504554E+00  0.22664975193E+01  0.14145731084E+02  0.00000000000E+00 0. -1.
</event>
<event>
 7    1  0.7527776E-006  0.5473914E+02  0.7818608E-02  0.1447462E+00
          2   -1    0    0  502    0  0.00000000000E+00  0.00000000000E+00  0.25135228233E+04  0.25135228233E+04  0.00000000000E+00 0. -1.
          1   -1    0    0  501    0 -0.00000000000E+00 -0.00000000000E+00 -0.29430128838E+02  0.29430128838E+02  0.00000000000E+00 0. -1.
         25    2    1    2    0    0 -0.41961207261E+02 -0.16110174216E+01  0.30603026026E+03  0.33323297842E+03  0.12500543756E+03 0.  0.
          2    1    1    2  501    0  0.37056095062E+02  0.46302174439E+02  0.40798196188E+02  0.71982903187E+02  0.00000000000E+00 0. -1.
          1    1    1    2  502    0  0.49051121989E+01 -0.44691157017E+02  0.21372642381E+04  0.21377370706E+04  0.00000000000E+00 0. -1.
         22    1    3    3    0    0  0.18420925415E+02 -0.15973152581E+02  0.24492166908E+03  0.24613227355E+03  0.00000000000E+00 0.  1.
         22    1    3    3    0    0 -0.60382132676E+02  0.14362135160E+02  0.61108591177E+02  0.87100704867E+02  0.00000000000E+00 0.  1.
</event>
<event>
 7    1  0.7527776E-006  0.6832870E+02  0.7818608E-02  0.1448437E+00
          2   -1    0    0  502    0  0.00000000000E+00  0.00000000000E+00  0.17008705951E+03  0.17008705951E+03  0.00000000000E+00 0. -1.
          1   -1    0    0  501    0 -0.00000000000E+00 -0.00000000000E+00 -0.14983705626E+03  0.14983705626E+03  0.00000000000E+00 0. -1.
         25    2    1    2    0    0 -0.49812907705E+02 -0.77570450357E+02 -0.59560002658E+02  0.16634304017E+03  0.12499645017E+03 0.  0.
          2    1    1    2  501    0  0.36483702508E+02  0.44388281426E+02 -0.87072537437E+01  0.58113650242E+02  0.00000000000E+00 0. -1.
          1    1    1    2  502    0  0.13329205196E+02  0.33182168932E+02  0.88517259651E+02  0.95467425347E+02  0.00000000000E+00 0. -1.
         22    1    3    3    0    0 -0.64038282736E+02 -0.83330056734E+02 -0.85983162657E+02  0.13578624478E+03  0.00000000000E+00 0.  1.
         22    1    3    3    0    0  0.14225375031E+02  0.57596063765E+01  0.26423159999E+02  0.30556795393E+02  0.00000000000E+00 0.  1.
</event>
<event>
 7    1  0.7527776E-006  0.5456111E+02  0.7818608E-02  0.1425833E+00
          2   -1    0    0  502    0  0.00000000000E+00  0.00000000000E+00  0.23421483002E+04  0.23421483002E+04  0.00000000000E+00 0. -1.
          1   -1    0    0  501    0 -0.00000000000E+00 -0.00000000000E+00 -0.19823638476E+04  0.19823638476E+04  0.00000000000E+00 0. -1.
         25    2    1    2    0    0 -0.95137587092E+02 -0.12565076331E+02  0.19853011662E+03  0.25347159130E+03  0.12499839506E+03 0.  0.
          2    1    1    2  501    0  0.50090346577E+02 -0.17503323318E+02 -0.19541863958E+04  0.19549066164E+04  0.00000000000E+00 0. -1.
          1    1    1    2  502    0  0.45047240514E+02  0.30068399650E+02  0.21154407318E+04  0.21161339401E+04  0.00000000000E+00 0. -1.
         22    1    3    3    0    0 -0.14477673665E+01 -0.30415631066E+02  0.13613702455E+03  0.13950088207E+03  0.00000000000E+00 0.  1.
         22    1    3    3    0    0 -0.93689819725E+02  0.17850554735E+02  0.62393092067E+02  0.11397070923E+03  0.00000000000E+00 0.  1.
</event>
<event>
 7    1  0.7527776E-006  0.9979763E+02  0.7818608E-02  0.1414141E+00
          2   -1    0    0  502    0  0.00000000000E+00  0.00000000000E+00  0.29027340940E+04  0.29027340940E+04  0.00000000000E+00 0. -1.
          1   -1    0    0  501    0 -0.00000000000E+00 -0.00000000000E+00 -0.33146370678E+02  0.33146370678E+02  0.00000000000E+00 0. -1.
         25    2    1    2    0    0  0.87110486112E+02  0.74845660344E+02  0.66956279487E+03  0.69074518641E+03  0.12499786643E+03 0.  0.
          2    1    1    2  501    0 -0.87918895952E+02 -0.43117358370E+02  0.84409734925E+02  0.12928202585E+03  0.00000000000E+00 0. -1.
          1    1    1    2  502    0  0.80840983941E+00 -0.31728301974E+02  0.21156151935E+04  0.21158532524E+04  0.00000000000E+00 0. -1.
         22    1    3    3    0    0  0.51484687314E+02  0.10837618101E+03  0.44303854582E+03  0.45899806396E+03  0.00000000000E+00 0. -1.
         22    1    3    3    0    0  0.35625798798E+02 -0.33530520665E+02  0.22652424905E+03  0.23174712245E+03  0.00000000000E+00 0. -1.
</event>
<event>
 7    1  0.7527776E-006  0.1359897E+03  0.7818608E-02  0.1234012E+00
          2   -1    0    0  502    0  0.00000000000E+00  0.00000000000E+00  0.18244702327E+04  0.18244702327E+04  0.00000000000E+00 0. -1.
          1   -1    0    0  501    0 -0.00000000000E+00 -0.00000000000E+00 -0.67059953986E+03  0.67059953986E+03  0.00000000000E+00 0. -1.
         25    2    1    2    0    0  0.12593591806E+03  0.81001447963E+02  0.17484053460E+03  0.26194295384E+03  0.12499523392E+03 0.  0.
          2    1    1    2  501    0  0.77479686456E+01 -0.11589087785E+03 -0.61866262581E+03  0.62947134260E+03  0.00000000000E+00 0. -1.
          1    1    1    2  502    0 -0.13368388670E+03  0.34889429888E+02  0.15976927841E+04  0.16036554762E+04  0.00000000000E+00 0. -1.
         22    1    3    3    0    0  0.29982916439E+02 -0.32301726972E+02  0.58900393001E+02  0.73563803187E+02  0.00000000000E+00 0.  1.
         22    1    3    3    0    0  0.95953001616E+02  0.11330317493E+03  0.11594014159E+03  0.18837915066E+03  0.00000000000E+00 0.  1.
</event>
<event>
 7    1  0.7527776E-006  0.7001558E+02  0.7818608E-02  0.1494201E+00
          2   -1    0    0  502    0  0.00000000000E+00  0.00000000000E+00  0.23106615953E+03  0.23106615953E+03  0.00000000000E+00 0. -1.
          1   -1    0    0  501    0 -0.00000000000E+00 -0.00000000000E+00 -0.14394464650E+04  0.14394464650E+04  0.00000000000E+00 0. -1.
         25    2    1    2    0    0  0.19892660854E+02 -0.83818268486E+02  0.51611604240E+02  0.16033691919E+03  0.12499179923E+03 0.  0.
          2    1    1    2  501    0  0.98886884372E+01  0.23132375778E+02 -0.13758277134E+04  0.13760576986E+04  0.00000000000E+00 0. -1.
          1    1    1    2  502    0 -0.29781349291E+02  0.60685892708E+02  0.11583580363E+03  0.13411800678E+03  0.00000000000E+00 0. -1.
         22    1    3    3    0    0  0.50918084856E+02 -0.28767713254E+02  0.73078728964E+02  0.93598789085E+02  0.00000000000E+00 0. -1.
         22    1    3    3    0    0 -0.31025424002E+02 -0.55050555232E+02 -0.21467124724E+02  0.66738130104E+02  0.00000000000E+00 0. -1.
</event>
<event>
 7    1  0.7527776E-006  0.1531936E+03  0.7818608E-02  0.1281580E+00
          2   -1    0    0  502    0  0.00000000000E+00  0.00000000000E+00  0.58889422541E+03  0.58889422541E+03  0.00000000000E+00 0. -1.
          1   -1    0    0  501    0 -0.00000000000E+00 -0.00000000000E+00 -0.38743533362E+03  0.38743533362E+03  0.00000000000E+00 0. -1.
         25    2    1    2    0    0 -0.17165661806E+03 -0.33242453239E+02  0.18544908521E+03  0.28388214062E+03  0.12500660516E+03 0.  0.
          2    1    1    2  501    0  0.45375672593E+02 -0.45819353520E+02 -0.31918425240E+03  0.32563315526E+03  0.00000000000E+00 0. -1.
          1    1    1    2  502    0  0.12628094546E+03  0.79061806760E+02  0.33519405899E+03  0.36681426316E+03  0.00000000000E+00 0. -1.
         22    1    3    3    0    0 -0.15760589469E+03 -0.42940901298E+02  0.89176555583E+02  0.18610748805E+03  0.00000000000E+00 0.  1.
         22    1    3    3    0    0 -0.14050723369E+02  0.96984480582E+01  0.96272529631E+02  0.97774652562E+02  0.00000000000E+00 0.  1.
</event>
<event>
 7    1  0.7527776E-006  0.1275144E+03  0.7818608E-02  0.1325564E+00
          2   -1    0    0  502    0  0.00000000000E+00  0.00000000000E+00  0.58261299590E+03  0.58261299590E+03  0.00000000000E+00 0. -1.
          1   -1    0    0  501    0 -0.00000000000E+00 -0.00000000000E+00 -0.65288559223E+03  0.65288559223E+03  0.00000000000E+00 0. -1.
         25    2    1    2    0    0 -0.13679771333E+03  0.19657387718E+02 -0.32139598950E+03  0.37150575051E+03  0.12498445236E+03 0.  0.
          2    1    1    2  501    0  0.10839757351E+03 -0.62930730483E+02 -0.29233640138E+03  0.31807370585E+03  0.00000000000E+00 0. -1.
          1    1    1    2  502    0  0.28400139814E+02  0.43273342765E+02  0.54345979455E+03  0.54591913177E+03  0.00000000000E+00 0. -1.
         22    1    3    3    0    0 -0.32360827044E+02 -0.49483497163E+02 -0.79145688635E+02  0.98792103166E+02  0.00000000000E+00 0. -1.
         22    1    3    3    0    0 -0.10443688628E+03  0.69140884881E+02 -0.24225030087E+03  0.27271364735E+03  0.00000000000E+00 0. -1.
</event>
<event>
 7    1  0.7527776E-006  0.1439578E+03  0.7818608E-02  0.1305438E+00
          2   -1    0    0  502    0  0.00000000000E+00  0.00000000000E+00  0.54798089441E+03  0.54798089441E+03  0.00000000000E+00 0. -1.
          1   -1    0    0  501    0 -0.00000000000E+00 -0.00000000000E+00 -0.10491049508E+04  0.10491049508E+04  0.00000000000E+00 0. -1.
         25    2    1    2    0    0  0.58887745774E+02 -0.15012500714E+03 -0.36081262979E+03  0.41450679556E+03  0.12499938151E+03 0.  0.
          2    1    1    2  501    0  0.35638273078E+02  0.41825592144E+02 -0.65035153985E+03  0.65266882265E+03  0.00000000000E+00 0. -1.
          1    1    1    2  502    0 -0.94526018852E+02  0.10829941499E+03  0.51004011326E+03  0.52991022699E+03  0.00000000000E+00 0. -1.
         22    1    3    3    0    0  0.57057702691E+02 -0.45714645942E+01 -0.82305274558E+02  0.10025287001E+03  0.00000000000E+00 0. -1.
         22    1    3    3    0    0  0.18300430828E+01 -0.14555354254E+03 -0.27850735523E+03  0.31425392555E+03  0.00000000000E+00 0. -1.
</event>
<event>
 7    1  0.7527776E-006  0.1110862E+03  0.7818608E-02  0.1311627E+00
          2   -1    0    0  502    0  0.00000000000E+00  0.00000000000E+00  0.87706139630E+03  0.87706139630E+03  0.00000000000E+00 0. -1.
          1   -1    0    0  501    0 -0.00000000000E+00 -0.00000000000E+00 -0.10110683663E+04  0.10110683663E+04  0.00000000000E+00 0. -1.
         25    2    1    2    0    0 -0.49557049145E+02 -0.87585308775E+02 -0.14467687271E+03  0.21605960868E+03  0.12499307810E+03 0.  0.
          2    1    1    2  501    0  0.10374247953E+03  0.47649895129E+02 -0.82541882877E+03  0.83327621919E+03  0.00000000000E+00 0. -1.
          1    1    1    2  502    0 -0.54185430386E+02  0.39935413645E+02  0.83608873146E+03  0.83879393477E+03  0.00000000000E+00 0. -1.
         22    1    3    3    0    0  0.29571642430E+02  0.88206267321E+01 -0.98520604922E+01  0.32393650426E+02  0.00000000000E+00 0.  1.
         22    1    3    3    0    0 -0.79128691575E+02 -0.96405935507E+02 -0.13482481222E+03  0.18366595825E+03  0.00000000000E+00 0.  1.
</event>
<event>
 7    1  0.7527776E-006  0.4563540E+02  0.7818608E-02  0.1494456E+00
          2   -1    0    0  502    0  0.00000000000E+00  0.00000000000E+00  0.23126197353E+04  0.23126197353E+04  0.00000000000E+00 0. -1.
          1   -1    0    0  501    0 -0.00000000000E+00 -0.00000000000E+00 -0.11674175524E+04  0.11674175524E+04  0.00000000000E+00 0. -1.
         25    2    1    2    0    0 -0.21229523955E+02 -0.29882071884E+02  0.40140449195E+02  0.13630495606E+03  0.12499661787E+03 0.  0.
          2    1    1    2  501    0 -0.14898778870E+02  0.43270841019E+02 -0.11187005856E+04  0.11196362532E+04  0.00000000000E+00 0. -1.
          1    1    1    2  502    0  0.36128302824E+02 -0.13388769135E+02  0.22237623193E+04  0.22240960784E+04  0.00000000000E+00 0. -1.
         22    1    3    3    0    0  0.39825242011E+02 -0.11408741698E+02 -0.22295582585E+02  0.47045746791E+02  0.00000000000E+00 0.  1.
         22    1    3    3    0    0 -0.61054765965E+02 -0.18473330186E+02  0.62436031780E+02  0.89259209271E+02  0.00000000000E+00 0.  1.
</event>
<event>
 7    1  0.7527776E-006  0.8267659E+02  0.7818608E-02  0.1498555E+00
          2   -1    0    0  502    0  0.00000000000E+00  0.00000000000E+00  0.13295126045E+04  0.13295126045E+04  0.00000000000E+00 0. -1.
          1   -1    0    0  501    0 -0.00000000000E+00 -0.00000000000E+00 -0.45862715961E+03  0.45862715961E+03  0.00000000000E+00 0. -1.
         25    2    1    2    0    0  0.79137146715E+02 -0.21167141926E+02  0.28827035613E+03  0.32471581775E+03  0.12501931126E+03 0.  0.
          2    1    1    2  501    0 -0.82714571945E+02  0.80514175504E+00 -0.43641452983E+03  0.44418463561E+03  0.00000000000E+00 0. -1.
          1    1    1    2  502    0  0.35774252307E+01  0.20362000171E+02  0.10190296186E+04  0.10192393107E+04  0.00000000000E+00 0. -1.
         22    1    3    3    0    0  0.40677962223E+02 -0.43751745398E+02  0.38673867851E+02  0.71165861834E+02  0.00000000000E+00 0. -1.
         22    1    3    3    0    0  0.38459184492E+02  0.22584603472E+02  0.24959648828E+03  0.25354995592E+03  0.00000000000E+00 0. -1.
</event>
<event>
 7    1  0.7527776E-006  0.1064679E+03  0.7818608E-02  0.1351302E+00
          2   -1    0    0  502    0  0.00000000000E+00  0.00000000000E+00  0.14493256560E+03  0.14493256560E+03  0.00000000000E+00 0. -1.
          1   -1    0    0  501    0 -0.00000000000E+00 -0.00000000000E+00 -0.38528858578E+03  0.38528858578E+03  0.00000000000E+00 0. -1.
         25    2    1    2    0    0  0.11678900369E+03 -0.92936559491E+01 -0.96035406042E+02  0.19640516397E+03  0.12500458310E+03 0.  0.
          2    1    1    2  501    0 -0.17384826597E+02  0.46427862122E+02 -0.20545486693E+03  0.21135155766E+03  0.00000000000E+00 0. -1.
          1    1    1    2  502    0 -0.99404177093E+02 -0.37134206172E+02  0.61134252799E+02  0.12246442976E+03  0.00000000000E+00 0. -1.
         22    1    3    3    0    0  0.85897039016E+02  0.50644066559E+02 -0.78017653445E+02  0.12660915069E+03  0.00000000000E+00 0.  1.
         22    1    3    3    0    0  0.30891964674E+02 -0.59937722508E+02 -0.18017752597E+02  0.69796013278E+02  0.00000000000E+00 0.  1.
</event>
<event>
 7    1  0.7527776E-006  0.1108914E+03  0.7818608E-02  0.1411744E+00
          2   -1    0    0  502    0  0.00000000000E+00  0.00000000000E+00  0.33752314773E+03  0.33752314773E+03  0.00000000000E+00 0. -1.
          1   -1    0    0  501    0 -0.00000000000E+00 -0.00000000000E+00 -0.34553056340E+03  0.34553056340E+03  0.00000000000E+00 0. -1.
         25    2    1    2    0    0 -0.12286425060E+03  0.39581406552E+02  0.50575491946E+02  0.18666827392E+03  0.12499940914E+03 0.  0.
          2    1    1    2  501    0  0.10846716695E+03 -0.14291896388E+02 -0.26564319064E+03  0.28729025278E+03  0.00000000000E+00 0. -1.
          1    1    1    2  502    0  0.14397083646E+02 -0.25289510164E+02  0.20706028302E+03  0.20909518442E+03  0.00000000000E+00 0. -1.
         22    1    3    3    0    0 -0.13439632107E+03  0.63697748267E+02  0.56829239924E+02  0.15921475045E+03  0.00000000000E+00 0. -1.
         22    1    3    3    0    0  0.11532070476E+02 -0.24116341715E+02 -0.62537479773E+01  0.27453523470E+02  0.00000000000E+00 0. -1.
</event>
<event>
 7    1  0.7527776E-006  0.5713533E+02  0.7818608E-02  0.1477862E+00
          2   -1    0    0  502    0  0.00000000000E+00  0.00000000000E+00  0.84331493846E+02  0.84331493846E+02  0.00000000000E+00 0. -1.
          1   -1    0    0  501    0 -0.00000000000E+00 -0.00000000000E+00 -0.42994421361E+03  0.42994421361E+03  0.00000000000E+00 0. -1.
         25    2    1    2    0    0  0.18570316216E+02  0.22276745237E+02 -0.62553928703E+02  0.14274863329E+03  0.12499227291E+03 0.  0.
          2    1    1    2  501    0 -0.52853107013E+02 -0.26700016992E+02 -0.31735560577E+03  0.32283265378E+03  0.00000000000E+00 0. -1.
          1    1    1    2  502    0  0.34282790798E+02  0.44232717545E+01  0.34296814711E+02  0.48694420391E+02  0.00000000000E+00 0. -1.
         22    1    3    3    0    0 -0.41205410435E+02 -0.15741846454E+02 -0.56456254058E+02  0.71644959356E+02  0.00000000000E+00 0.  1.
         22    1    3    3    0    0  0.59775726651E+02  0.38018591691E+02 -0.60976746448E+01  0.71103673934E+02  0.00000000000E+00 0.  1.
</event>
<event>
 7    1  0.7527776E-006  0.8124825E+02  0.7818608E-02  0.1377154E+00
          2   -1    0    0  502    0  0.00000000000E+00  0.00000000000E+00  0.51918090386E+03  0.51918090386E+03  0.00000000000E+00 0. -1.
          1   -1    0    0  501    0 -0.00000000000E+00 -0.00000000000E+00 -0.63186034437E+03  0.63186034437E+03  0.00000000000E+00 0. -1.
         25    2    1    2    0    0 -0.83408034729E+02  0.48341505312E+02 -0.16544750179E+03  0.22867451402E+03  0.12500142447E+03 0.  0.
          2    1    1    2  501    0  0.80970543021E+02  0.39518690789E+01 -0.42959210064E+03  0.43717412897E+03  0.00000000000E+00 0. -1.
          1    1    1    2  502    0  0.24374917086E+01 -0.52293374391E+02  0.48236016192E+03  0.48519260524E+03  0.00000000000E+00 0. -1.
         22    1    3    3    0    0 -0.56848883470E+02 -0.67887757935E+01 -0.56145062922E+01  0.57527434407E+02  0.00000000000E+00 0. -1.
         22    1    3    3    0    0 -0.26559151259E+02  0.55130281105E+02 -0.15983299549E+03  0.17114707961E+03  0.00000000000E+00 0. -1.
</event>
<event>
 7    1  0.7527776E-006  0.4477472E+02  0.7818608E-02  0.1517498E+00
          2   -1    0    0  502    0  0.00000000000E+00  0.00000000000E+00  0.72206572569E+03  0.72206572569E+03  0.00000000000E+00 0. -1.
          1   -1    0    0  501    0 -0.00000000000E+00 -0.00000000000E+00 -0.12485477628E+04  0.12485477628E+04  0.00000000000E+00 0. -1.
         25    2    1    2    0    0  0.13495611353E+02  0.19911777930E+02 -0.23621877983E+03  0.26833170939E+03  0.12499593551E+03 0.  0.
          2    1    1    2  501    0  0.90460509087E+01 -0.44778004850E+02 -0.99534945347E+03  0.99639722766E+03  0.00000000000E+00 0. -1.
          1    1    1    2  502    0 -0.22541662261E+02  0.24866226921E+02  0.70508619623E+03  0.70588455139E+03  0.00000000000E+00 0. -1.
         22    1    3    3    0    0 -0.21579193994E+02 -0.43213211980E+02 -0.54689285395E+02  0.72965479784E+02  0.00000000000E+00 0. -1.
         22    1    3    3    0    0  0.35074805347E+02  0.63124989909E+02 -0.18152949444E+03  0.19536622961E+03  0.00000000000E+00 0. -1.
</event>
<event>
 7    1  0.7527776E-006  0.5752723E+02  0.7818608E-02  0.1467359E+00
          2   -1    0    0  502    0  0.00000000000E+00  0.00000000000E+00  0.14324226113E+03  0.14324226113E+03  0.00000000000E+00 0. -1.
          1   -1    0    0  501    0 -0.00000000000E+00 -0.00000000000E+00 -0.10311672691E+04  0.10311672691E+04  0.00000000000E+00 0. -1.
         25    2    1    2    0    0 -0.34098472748E+02  0.62568866352E+02 -0.36896660271E+03  0.39602971343E+03  0.12500244446E+03 0.  0.
          2    1    1    2  501    0 -0.24920566941E+01 -0.57053225397E+02 -0.64474196082E+03  0.64726615616E+03  0.00000000000E+00 0. -1.
          1    1    1    2  502    0  0.36590529442E+02 -0.55156409551E+01  0.12578355559E+03  0.13111366061E+03  0.00000000000E+00 0. -1.
         22    1    3    3    0    0 -0.24866709519E+02  0.80614401847E+02 -0.36593602232E+03  0.37553456227E+03  0.00000000000E+00 0. -1.
         22    1    3    3    0    0 -0.92317632298E+01 -0.18045535495E+02 -0.30305803936E+01  0.20495151162E+02  0.00000000000E+00 0. -1.
</event>
<event>
 7    1  0.7527776E-006  0.1142000E+03  0.7818608E-02  0.1424002E+00
          2   -1    0    0  502    0  0.00000000000E+00  0.00000000000E+00  0.12716635336E+04  0.12716635336E+04  0.00000000000E+00 0. -1.
          1   -1    0    0  501    0 -0.00000000000E+00 -0.00000000000E+00 -0.13413192508E+03  0.13413192508E+03  0.00000000000E+00 0. -1.
         25    2    1    2    0    0 -0.44239364012E+01 -0.90454976998E+02 -0.19834917093E+02  0.15564025554E+03  0.12501516361E+03 0.  0.
          2    1    1    2  501    0 -0.10317300636E+02 -0.23546355727E+02 -0.39855609774E+02  0.47427283191E+02  0.00000000000E+00 0. -1.
          1    1    1    2  502    0  0.14741237038E+02  0.11400133273E+03  0.11972221354E+04  0.12027279200E+04  0.00000000000E+00 0. -1.
         22    1    3    3    0    0  0.12651590301E+02 -0.98708089425E+02 -0.56445370266E+02  0.11440904457E+03  0.00000000000E+00 0.  1.
         22    1    3    3    0    0 -0.17075526702E+02  0.82531124262E+01  0.36610453173E+02  0.41231210974E+02  0.00000000000E+00 0.  1.
</event>
<event>
 7    1  0.7527776E-006  0.6395881E+02  0.7818608E-02  0.1452437E+00
          2   -1    0    0  502    0  0.00000000000E+00  0.00000000000E+00  0.14500980611E+04  0.14500980611E+04  0.00000000000E+00 0. -1.
          1   -1    0    0  501    0 -0.00000000000E+00 -0.00000000000E+00 -0.28756674899E+02  0.28756674899E+02  0.00000000000E+00 0. -1.
         25    2    1    2    0    0 -0.80483363431E+02  0.43600683193E+02  0.89133773316E+03  0.90470131229E+03  0.12499167394E+03 0.  0.
          2    1    1    2  501    0  0.24908670816E+02 -0.27486525295E+02 -0.37404722929E+01  0.37281927091E+02  0.00000000000E+00 0. -1.
          1    1    1    2  502    0  0.55574692615E+02 -0.16114157898E+02  0.53374412532E+03  0.53687149659E+03  0.00000000000E+00 0. -1.
         22    1    3    3    0    0 -0.10527667015E+03  0.19595453679E+02  0.47430604253E+03  0.48624415787E+03  0.00000000000E+00 0.  1.
         22    1    3    3    0    0  0.24793306716E+02  0.24005229514E+02  0.41703169063E+03  0.41845715443E+03  0.00000000000E+00 0.  1.
</event>
<event>
 7    1  0.7527776E-006  0.1612058E+03  0.7818608E-02  0.1276779E+00
          2   -1    0    0  502    0  0.00000000000E+00  0.00000000000E+00  0.15620603203E+04  0.15620603203E+04  0.00000000000E+00 0. -1.
          1   -1    0    0  501    0 -0.00000000000E+00 -0.00000000000E+00 -0.24510497120E+03  0.24510497120E+03  0.00000000000E+00 0. -1.
         25    2    1    2    0    0 -0.10449639146E+03  0.53902938948E+02  0.49409595970E+03  0.52304960719E+03  0.12500020614E+03 0.  0.
          2    1    1    2  501    0  0.11476312637E+03 -0.11722451502E+03 -0.20032339591E+03  0.25892397542E+03  0.00000000000E+00 0. -1.
          1    1    1    2  502    0 -0.10266734908E+02  0.63321576067E+02  0.10231827853E+04  0.10251917089E+04  0.00000000000E+00 0. -1.
         22    1    3    3    0    0 -0.64169200972E+02 -0.28232171543E+02  0.13074200767E+03  0.14835165801E+03  0.00000000000E+00 0. -1.
         22    1    3    3    0    0 -0.40327190489E+02  0.82135110491E+02  0.36335395203E+03  0.37469794918E+03  0.00000000000E+00 0. -1.
</event>
<event>
 7    1  0.7527776E-006  0.5427277E+02  0.7818608E-02  0.1469999E+00
          2   -1    0    0  502    0  0.00000000000E+00  0.00000000000E+00  0.29361825003E+02  0.29361825003E+02  0.00000000000E+00 0. -1.
          1   -1    0    0  501    0 -0.00000000000E+00 -0.00000000000E+00 -0.58872827481E+03  0.58872827481E+03  0.00000000000E+00 0. -1.
         25    2    1    2    0    0  0.45291252608E+02 -0.62233390243E+02 -0.35666106497E+03  0.38569039631E+03  0.12500269642E+03 0.  0.
          2    1    1    2  501    0  0.94216730976E+00  0.38475275026E+02 -0.16162980437E+03  0.16614881320E+03  0.00000000000E+00 0. -1.
          1    1    1    2  502    0 -0.46233419917E+02  0.23758115217E+02 -0.41075580466E+02  0.66250890308E+02  0.00000000000E+00 0. -1.
         22    1    3    3    0    0  0.43700782954E+02 -0.97514693112E+02 -0.30442877802E+03  0.32263873712E+03  0.00000000000E+00 0. -1.
         22    1    3    3    0    0  0.15904696532E+01  0.35281302869E+02 -0.52232286957E+02  0.63051659190E+02  0.00000000000E+00 0. -1.
</event>
<event>
 7    1  0.7527776E-006  0.4065513E+02  0.7818608E-02  0.1530076E+00
          2   -1    0    0  502    0  0.00000000000E+00  0.00000000000E+00  0.17358527049E+04  0.17358527049E+04  0.00000000000E+00 0. -1.
          1   -1    0    0  501    0 -0.00000000000E+00 -0.00000000000E+00 -0.27455338809E+03  0.27455338809E+03  0.00000000000E+00 0. -1.
         25    2    1    2    0    0  0.10561681146E+02  0.55835979271E+02  0.59184960950E+03  0.60756953849E+03  0.12500231257E+03 0.  0.
          2    1    1    2  501    0 -0.27935661104E+02 -0.19374383683E+02 -0.26524923887E+03  0.26741900947E+03  0.00000000000E+00 0. -1.
          1    1    1    2  502    0  0.17373979957E+02 -0.36461595588E+02  0.11346989462E+04  0.11354175450E+04  0.00000000000E+00 0. -1.
         22    1    3    3    0    0  0.16951833529E+02  0.54584791281E+02  0.59671184687E+03  0.59944298503E+03  0.00000000000E+00 0. -1.
         22    1    3    3    0    0 -0.63901523825E+01  0.12511879901E+01 -0.48622373761E+01  0.81265534613E+01  0.00000000000E+00 0. -1.
</event>
<event>
 7    1  0.7527776E-006  0.1320282E+03  0.7818608E-02  0.1261168E+00
          2   -1    0    0  502    0  0.00000000000E+00  0.00000000000E+00  0.63201924081E+03  0.63201924081E+03  0.00000000000E+00 0. -1.
          1   -1    0    0  501    0 -0.00000000000E+00 -0.00000000000E+00 -0.22247887282E+03  0.22247887282E+03  0.00000000000E+00 0. -1.
         25    2    1    2    0    0 -0.21643773049E+02 -0.15304825079E+03  0.24949794400E+02  0.20034957685E+03  0.12500096288E+03 0.  0.
          2    1    1    2  501    0 -0.70405498660E+02  0.57828886024E+02 -0.10959712053E+03  0.14252243027E+03  0.00000000000E+00 0. -1.
          1    1    1    2  502    0  0.92049271708E+02  0.95219364762E+02  0.49418769412E+03  0.51162610651E+03  0.00000000000E+00 0. -1.
         22    1    3    3    0    0 -0.20585721253E+02  0.61449609093E+01  0.34746626826E+02  0.40851689560E+02  0.00000000000E+00 0.  1.
         22    1    3    3    0    0 -0.10580517955E+01 -0.15919321170E+03 -0.97968324263E+01  0.15949788729E+03  0.00000000000E+00 0.  1.
</event>
<event>
 7    1  0.7527776E-006  0.7241797E+02  0.7818608E-02  0.1504536E+00
          2   -1    0    0  502    0  0.00000000000E+00  0.00000000000E+00  0.66518806973E+03  0.66518806973E+03  0.00000000000E+00 0. -1.
          1   -1    0    0  501    0 -0.00000000000E+00 -0.00000000000E+00 -0.14017687923E+04  0.14017687923E+04  0.00000000000E+00 0. -1.
         25    2    1    2    0    0 -0.56017887647E+02  0.21749941201E+02 -0.48891926694E+03  0.50821183134E+03  0.12500460893E+03 0.  0.
          2    1    1    2  501    0 -0.16216463502E+02 -0.15818676239E+02 -0.90105714333E+03  0.90134187729E+03  0.00000000000E+00 0. -1.
          1    1    1    2  502    0  0.72234351149E+02 -0.59312649618E+01  0.65339568770E+03  0.65740315340E+03  0.00000000000E+00 0. -1.
         22    1    3    3    0    0  0.12522472948E+02  0.51519784888E+02 -0.11147341431E+03  0.12343995569E+03  0.00000000000E+00 0. -1.
         22    1    3    3    0    0 -0.68540360595E+02 -0.29769843688E+02 -0.37744585263E+03  0.38477187565E+03  0.00000000000E+00 0. -1.
</event>
<event>
 7    1  0.7527776E-006  0.2114145E+03  0.7818608E-02  0.1225536E+00
          2   -1    0    0  502    0  0.00000000000E+00  0.00000000000E+00  0.57126366810E+03  0.57126366810E+03  0.00000000000E+00 0. -1.
          1   -1    0    0  501    0 -0.00000000000E+00 -0.00000000000E+00 -0.68725059127E+03  0.68725059127E+03  0.00000000000E+00 0. -1.
         25    2    1    2    0    0 -0.59561974030E+02  0.17128601321E+03 -0.10613997333E+03  0.24449311465E+03  0.12499864840E+03 0.  0.
          2    1    1    2  501    0  0.67653529106E+02  0.45530257609E+02 -0.48493005495E+03  0.49173891707E+03  0.00000000000E+00 0. -1.
          1    1    1    2  502    0 -0.80915550760E+01 -0.21681627082E+03  0.47508310511E+03  0.52228222765E+03  0.00000000000E+00 0. -1.
         22    1    3    3    0    0 -0.55826984185E+02  0.14910903282E+03 -0.13441230390E+03  0.20836703979E+03  0.00000000000E+00 0.  1.
         22    1    3    3    0    0 -0.37349898457E+01  0.22176980391E+02  0.28272330576E+02  0.36126074858E+02  0.00000000000E+00 0.  1.
</event>
<event>
 7    1  0.7527776E-006  0.5813762E+02  0.7818608E-02  0.1406823E+00
          2   -1    0    0  502    0  0.00000000000E+00  0.00000000000E+00  0.80785732932E+03  0.80785732932E+03  0.00000000000E+00 0. -1.
          1   -1    0    0  501    0 -0.00000000000E+00 -0.00000000000E+00 -0.47668854418E+02  0.47668854418E+02  0.00000000000E+00 0. -1.
         25    2    1    2    0    0  0.42640975443E+00 -0.30807014712E+01  0.40808628123E+03  0.42681223558E+03  0.12499839586E+03 0.  0.
          2    1    1    2  501    0 -0.27143352005E+02  0.54715844454E+02 -0.10071824551E+02  0.61903366969E+02  0.00000000000E+00 0. -1.
          1    1    1    2  502    0  0.26716942250E+02 -0.51635142983E+02  0.36217401823E+03  0.36681058119E+03  0.00000000000E+00 0. -1.
         22    1    3    3    0    0  0.11146548942E+02  0.42516810003E+02  0.53934443715E+02  0.69576209331E+02  0.00000000000E+00 0.  1.
         22    1    3    3    0    0 -0.10720139188E+02 -0.45597511474E+02  0.35415183751E+03  0.35723602625E+03  0.00000000000E+00 0.  1.
</event>
<event>
 7    1  0.7527776E-006  0.1121970E+03  0.7818608E-02  0.1260862E+00
          2   -1    0    0  502    0  0.00000000000E+00  0.00000000000E+00  0.61527510327E+03  0.61527510327E+03  0.00000000000E+00 0. -1.
          1   -1    0    0  501    0 -0.00000000000E+00 -0.00000000000E+00 -0.20041831094E+03  0.20041831094E+03  0.00000000000E+00 0. -1.
         25    2    1    2    0    0  0.11410944004E+02  0.11370193496E+02  0.25994954210E+01  0.12606106742E+03  0.12500057760E+03 0.  0.
          2    1    1    2  501    0  0.61619206454E+02  0.88131807321E+02 -0.10950033941E+03  0.15347464415E+03  0.00000000000E+00 0. -1.
          1    1    1    2  502    0 -0.73030150458E+02 -0.99502000817E+02  0.52175763632E+03  0.53615770264E+03  0.00000000000E+00 0. -1.
         22    1    3    3    0    0  0.13439093763E+02 -0.26746137896E+02 -0.51669085487E+02  0.59713143684E+02  0.00000000000E+00 0.  1.
         22    1    3    3    0    0 -0.20281497585E+01  0.38116331392E+02  0.54268580908E+02  0.66347923736E+02  0.00000000000E+00 0.  1.
</event>
<event>
 7    1  0.7527776E-006  0.1096663E+03  0.7818608E-02  0.1262393E+00
          2   -1    0    0  502    0  0.00000000000E+00  0.00000000000E+00  0.20349504645E+04  0.20349504645E+04  0.00000000000E+00 0. -1.
          1   -1    0    0  501    0 -0.00000000000E+00 -0.00000000000E+00 -0.14497614832E+03  0.14497614832E+03  0.00000000000E+00 0. -1.
         25    2    1    2    0    0  0.15508457110E+02  0.32060086725E+02  0.19171220077E+03  0.23161857775E+03  0.12500094491E+03 0.  0.
          2    1    1    2  501    0  0.72960508800E+02 -0.96866952670E+02 -0.93539341010E+02  0.15315368321E+03  0.00000000000E+00 0. -1.
          1    1    1    2  502    0 -0.88468965909E+02  0.64806865945E+02  0.17918014565E+04  0.17951543519E+04  0.00000000000E+00 0. -1.
         22    1    3    3    0    0  0.62278674937E+01  0.36740258830E+02  0.20853800551E+03  0.21184129129E+03  0.00000000000E+00 0. -1.
         22    1    3    3    0    0  0.92805896160E+01 -0.46801721054E+01 -0.16825804737E+02  0.19777286457E+02  0.00000000000E+00 0. -1.
</event>
<event>
 7    1  0.7527776E-006  0.6062165E+02  0.7818608E-02  0.1452022E+00
          2   -1    0    0  502    0  0.00000000000E+00  0.00000000000E+00  0.25545943268E+04  0.25545943268E+04  0.00000000000E+00 0. -1.
          1   -1    0    0  501    0 -0.00000000000E+00 -0.00000000000E+00 -0.98576379320E+02  0.98576379320E+02  0.00000000000E+00 0. -1.
         25    2    1    2    0    0 -0.14455524255E+01  0.24244298766E+02  0.23085501996E+03  0.26364635137E+03  0.12500193082E+03 0.  0.
          2    1    1    2  501    0 -0.11332947531E+02 -0.61361485370E+02 -0.70143813473E+02  0.93881958625E+02  0.00000000000E+00 0. -1.
          1    1    1    2  502    0  0.12778499956E+02  0.37117186604E+02  0.22953067410E+04  0.22956423961E+04  0.00000000000E+00 0. -1.
         22    1    3    3    0    0  0.42784777999E+02 -0.32525446177E+02  0.78318685164E+02  0.94985569027E+02  0.00000000000E+00 0.  1.
         22    1    3    3    0    0 -0.44230330425E+02  0.56769744944E+02  0.15253633479E+03  0.16866078235E+03  0.00000000000E+00 0.  1.
</event>
<event>
 7    1  0.7527776E-006  0.1044873E+03  0.7818608E-02  0.1464632E+00
          2   -1    0    0  502    0  0.00000000000E+00  0.00000000000E+00  0.27662684162E+03  0.27662684162E+03  0.00000000000E+00 0. -1.
          1   -1    0    0  501    0 -0.00000000000E+00 -0.00000000000E+00 -0.12559486451E+04  0.12559486451E+04  0.00000000000E+00 0. -1.
         25    2    1    2    0    0 -0.55061657442E+02  0.87019964817E+02  0.11022384105E+02  0.16232927025E+03  0.12500015452E+03 0.  0.
          2    1    1    2  501    0  0.72358322559E+02 -0.75508268789E+02 -0.11774022604E+04  0.11820377778E+04  0.00000000000E+00 0. -1.
          1    1    1    2  502    0 -0.17296665117E+02 -0.11511696028E+02  0.18705807280E+03  0.18820843863E+03  0.00000000000E+00 0. -1.
         22    1    3    3    0    0 -0.20832428760E+02 -0.50832112592E+01  0.51710229214E+02  0.55980147643E+02  0.00000000000E+00 0.  1.
         22    1    3    3    0    0 -0.34229228682E+02  0.92103176077E+02 -0.40687845109E+02  0.10634912261E+03  0.00000000000E+00 0.  1.
</event>
<event>
 7    1  0.7527776E-006  0.1632178E+03  0.7818608E-02  0.1255975E+00
          2   -1    0    0  502    0  0.00000000000E+00  0.00000000000E+00  0.24703365535E+04  0.24703365535E+04  0.00000000000E+00 0. -1.
          1   -1    0    0  501    0 -0.00000000000E+00 -0.00000000000E+00 -0.71474744334E+03  0.71474744334E+03  0.00000000000E+00 0. -1.
         25    2    1    2    0    0 -0.13347622861E+03  0.13561053822E+03  0.37252439430E+03  0.43658370815E+03  0.12499915276E+03 0.  0.
          2    1    1    2  501    0 -0.16998517559E+02 -0.75682925826E+02 -0.67732598083E+03  0.68175313653E+03  0.00000000000E+00 0. -1.
          1    1    1    2  502    0  0.15047474617E+03 -0.59927612391E+02  0.20603906967E+04  0.20667471522E+04  0.00000000000E+00 0. -1.
         22    1    3    3    0    0 -0.69384489937E+02  0.14004162717E+03  0.20962699149E+03  0.26147531498E+03  0.00000000000E+00 0. -1.
         22    1    3    3    0    0 -0.64091738678E+02 -0.44310889484E+01  0.16289740280E+03  0.17510839316E+03  0.00000000000E+00 0. -1.
</event>
<event>
 7    1  0.7527776E-006  0.6871535E+02  0.7818608E-02  0.1456810E+00
          2   -1    0    0  502    0  0.00000000000E+00  0.00000000000E+00  0.98376718859E+03  0.98376718859E+03  0.00000000000E+00 0. -1.
          1   -1    0    0  501    0 -0.00000000000E+00 -0.00000000000E+00 -0.13040729529E+03  0.13040729529E+03  0.00000000000E+00 0. -1.
         25    2    1    2    0    0 -0.53048262752E+02 -0.56518393371E+02  0.49313888630E+03  0.51460516107E+03  0.12499625457E+03 0.  0.
          2    1    1    2  501    0  0.64005821581E+02  0.24926237565E+02 -0.10917410633E+03  0.12898468129E+03  0.00000000000E+00 0. -1.
          1    1    1    2  502    0 -0.10957558829E+02  0.31592155806E+02  0.46939511334E+03  0.47058464151E+03  0.00000000000E+00 0. -1.
         22    1    3    3    0    0 -0.99274270830E+01 -0.88462414554E+02  0.36468657689E+03  0.37539372925E+03  0.00000000000E+00 0. -1.
         22    1    3    3    0    0 -0.43120835669E+02  0.31944021184E+02  0.12845230941E+03  0.13921143182E+03  0.00000000000E+00 0. -1.
</event>
<event>
 7    1  0.7527776E-006  0.1919091E+03  0.7818608E-02  0.1342918E+00
          2   -1    0    0  502    0  0.00000000000E+00  0.00000000000E+00  0.69890944896E+03  0.69890944896E+03  0.00000000000E+00 0. -1.
          1   -1    0    0  501    0 -0.00000000000E+00 -0.00000000000E+00 -0.61853413118E+03  0.61853413118E+03  0.00000000000E+00 0. -1.
         25    2    1    2    0    0 -0.39662050630E+02 -0.16078089779E+03  0.15991022853E+03  0.26194927674E+03  0.12499026778E+03 0.  0.
          2    1    1    2  501    0  0.55032987438E+02  0.18602149419E+03 -0.55046006176E+03  0.58364278939E+03  0.00000000000E+00 0. -1.
          1    1    1    2  502    0 -0.15370936808E+02 -0.25240596397E+02  0.47092515102E+03  0.47185151401E+03  0.00000000000E+00 0. -1.
         22    1    3    3    0    0 -0.72268180031E+02 -0.40677514758E+02  0.60075925255E+02  0.10240345134E+03  0.00000000000E+00 0. -1.
         22    1    3    3    0    0  0.32606129401E+02 -0.12010338304E+03  0.99834303270E+02  0.15954582539E+03  0.00000000000E+00 0. -1.
</event>
<event>
 7    1  0.7527776E-006  0.7841046E+02  0.7818608E-02  0.1492174E+00
          2   -1    0    0  502    0  0.00000000000E+00  0.00000000000E+00  0.11047288567E+04  0.11047288567E+04  0.00000000000E+00 0. -1.
          1   -1    0    0  501    0 -0.00000000000E+00 -0.00000000000E+00 -0.12881652972E+04  0.12881652972E+04  0.00000000000E+00 0. -1.
         25    2    1    2    0    0  0.62584110163E+02  0.39648577059E+02 -0.14756919330E+03  0.20710575779E+03  0.12500939002E+03 0.  0.
          2    1    1    2  501    0 -0.51521491850E+02 -0.59564346608E+02 -0.11093109158E+04  0.11121030003E+04  0.00000000000E+00 0. -1.
          1    1    1    2  502    0 -0.11062618314E+02  0.19915769549E+02  0.10734436686E+04  0.10736853957E+04  0.00000000000E+00 0. -1.
         22    1    3    3    0    0  0.16703193600E+02 -0.43542843420E+02 -0.28030989309E+02  0.54412427360E+02  0.00000000000E+00 0.  1.
         22    1    3    3    0    0  0.45880916563E+02  0.83191420479E+02 -0.11953820399E+03  0.15269333043E+03  0.00000000000E+00 0.  1.
</event>
<event>
 7    1  0.1204089E-005  0.1136818E+03  0.7818608E-02  0.1286211E+00
          2   -1    0    0  502    0  0.00000000000E+00  0.00000000000E+00  0.18813931545E+04  0.18813931545E+04  0.00000000000E+00 0. -1.
          1   -1    0    0  501    0 -0.00000000000E+00 -0.00000000000E+00 -0.12185240865E+04  0.12185240865E+04  0.00000000000E+00 0. -1.
         25    2    1    2    0    0  0.17508375474E+02  0.25579028734E+02 -0.39361757344E+03  0.41415083582E+03  0.12500116307E+03 0.  0.
          2    1    1    2  501    0  0.54160405521E+02  0.63124527262E+02 -0.81077276565E+03  0.81502793387E+03  0.00000000000E+00 0. -1.
          1    1    1    2  502    0 -0.71668780995E+02 -0.88703555995E+02  0.18672594070E+04  0.18707384714E+04  0.00000000000E+00 0. -1.
         22    1    3    3    0    0  0.71434940474E+02  0.10668826966E+02 -0.24153470792E+03  0.25210273644E+03  0.00000000000E+00 0.  1.
         22    1    3    3    0    0 -0.53926565000E+02  0.14910201768E+02 -0.15208286552E+03  0.16204809939E+03  0.00000000000E+00 0.  1.
</event>
<event>
 7    1  0.7527776E-006  0.1128885E+03  0.7818608E-02  0.1383712E+00
          2   -1    0    0  502    0  0.00000000000E+00  0.00000000000E+00  0.43322201334E+03  0.43322201334E+03  0.00000000000E+00 0. -1.
          1   -1    0    0  501    0 -0.00000000000E+00 -0.00000000000E+00 -0.14875237005E+04  0.14875237005E+04  0.00000000000E+00 0. -1.
         25    2    1    2    0    0  0.48009594586E+02  0.10951490403E+03  0.15894024526E+03  0.23491639053E+03  0.12500109439E+03 0.  0.
          2    1    1    2  501    0 -0.12393238667E+02 -0.11219158128E+03 -0.14459738445E+04  0.14503726770E+04  0.00000000000E+00 0. -1.
          1    1    1    2  502    0 -0.35616355919E+02  0.26766772487E+01  0.23273191205E+03  0.23545664632E+03  0.00000000000E+00 0. -1.
         22    1    3    3    0    0 -0.49044246348E+01  0.11206687333E+03  0.72595222547E+02  0.13361550739E+03  0.00000000000E+00 0. -1.
         22    1    3    3    0    0  0.52914019221E+02 -0.25519692992E+01  0.86345022713E+02  0.10130088314E+03  0.00000000000E+00 0. -1.
</event>
<event>
 7    1  0.7527776E-006  0.8040386E+02  0.7818608E-02  0.1451404E+00
          2   -1    0    0  502    0  0.00000000000E+00  0.00000000000E+00  0.24274800248E+02  0.24274800248E+02  0.00000000000E+00 0. -1.
          1   -1    0    0  501    0 -0.00000000000E+00 -0.00000000000E+00 -0.11547483984E+04  0.11547483984E+04  0.00000000000E+00 0. -1.
         25    2    1    2    0    0  0.33358892611E+02  0.84328450263E+02 -0.55769482740E+03  0.57868253793E+03  0.12500342378E+03 0.  0.
          2    1    1    2  501    0 -0.29244294072E+02 -0.53624762125E+01 -0.46864642598E+03  0.46958860449E+03  0.00000000000E+00 0. -1.
          1    1    1    2  502    0 -0.41145985387E+01 -0.78965974050E+02 -0.10413234477E+03  0.13075205622E+03  0.00000000000E+00 0. -1.
         22    1    3    3    0    0 -0.22639919762E+02  0.77177441588E+02 -0.44956285941E+03  0.45670087368E+03  0.00000000000E+00 0.  1.
         22    1    3    3    0    0  0.55998812373E+02  0.71510086745E+01 -0.10813196799E+03  0.12198166425E+03  0.00000000000E+00 0.  1.
</event>
<event>
 7    1  0.7527776E-006  0.9782976E+02  0.7818608E-02  0.1420236E+00
          2   -1    0    0  502    0  0.00000000000E+00  0.00000000000E+00  0.11172548784E+03  0.11172548784E+03  0.00000000000E+00 0. -1.
          1   -1    0    0  501    0 -0.00000000000E+00 -0.00000000000E+00 -0.30437120267E+03  0.30437120267E+03  0.00000000000E+00 0. -1.
         25    2    1    2    0    0  0.26794724694E+02  0.66069870314E+02 -0.20276007493E+03  0.24863647886E+03  0.12500106241E+03 0.  0.
          2    1    1    2  501    0  0.39075663658E+01  0.30640438791E+02 -0.42990520539E+02  0.52936664236E+02  0.00000000000E+00 0. -1.
          1    1    1    2  502    0 -0.30702291060E+02 -0.96710309104E+02  0.53104880632E+02  0.11452354741E+03  0.00000000000E+00 0. -1.
         22    1    3    3    0    0  0.55089871960E+02  0.59305902219E+02 -0.54579089078E+02  0.97626640806E+02  0.00000000000E+00 0. -1.
         22    1    3    3    0    0 -0.28295147266E+02  0.67639680951E+01 -0.14818098585E+03  0.15100983806E+03  0.00000000000E+00 0. -1.
</event>
<event>
 7    1  0.7527776E-006  0.1847176E+03  0.7818608E-02  0.1384562E+00
          2   -1    0    0  502    0  0.00000000000E+00  0.00000000000E+00  0.34100217795E+03  0.34100217795E+03  0.00000000000E+00 0. -1.
          1   -1    0    0  501    0 -0.00000000000E+00 -0.00000000000E+00 -0.17143078042E+03  0.17143078042E+03  0.00000000000E+00 0. -1.
         25    2    1    2    0    0 -0.52157753738E+01 -0.19640655493E+03  0.47920034797E+02  0.23774379575E+03  0.12499217395E+03 0.  0.
          2    1    1    2  501    0 -0.28122744605E+01  0.17626981131E+03  0.27927121108E+02  0.17849055818E+03  0.00000000000E+00 0. -1.
          1    1    1    2  502    0  0.80280498343E+01  0.20136743619E+02  0.93724241631E+02  0.96198604444E+02  0.00000000000E+00 0. -1.
         22    1    3    3    0    0  0.16247492526E+02 -0.34655982073E+02 -0.37486581271E+02  0.53574825079E+02  0.00000000000E+00 0.  1.
         22    1    3    3    0    0 -0.21463267900E+02 -0.16175057286E+03  0.85406616068E+02  0.18416897067E+03  0.00000000000E+00 0.  1.
</event>
<event>
 7    1  0.7527776E-006  0.2191405E+02  0.7818608E-02  0.1718839E+00
          2   -1    0    0  502    0  0.00000000000E+00  0.00000000000E+00  0.43891299270E+03  0.43891299270E+03  0.00000000000E+00 0. -1.
          1   -1    0    0  501    0 -0.00000000000E+00 -0.00000000000E+00 -0.13554266752E+03  0.13554266752E+03  0.00000000000E+00 0. -1.
         25    2    1    2    0    0  0.39112644548E+02 -0.62628808213E+01  0.12083836855E+03  0.17831713967E+03  0.12500427332E+03 0.  0.
          2    1    1    2  501    0 -0.21297789469E+02 -0.46623735889E+01 -0.10530786498E+03  0.10754106188E+03  0.00000000000E+00 0. -1.
          1    1    1    2  502    0 -0.17814855079E+02  0.10925254410E+02  0.28783982161E+03  0.28859745867E+03  0.00000000000E+00 0. -1.
         22    1    3    3    0    0  0.53272456357E+02  0.46008215364E+02  0.39839136595E+02  0.80881810637E+02  0.00000000000E+00 0. -1.
         22    1    3    3    0    0 -0.14159811809E+02 -0.52271096185E+02  0.80999231952E+02  0.97435329033E+02  0.00000000000E+00 0. -1.
</event>
<event>
 7    1  0.7527776E-006  0.8995049E+02  0.7818608E-02  0.1354448E+00
          2   -1    0    0  502    0  0.00000000000E+00  0.00000000000E+00  0.28433080643E+03  0.28433080643E+03  0.00000000000E+00 0. -1.
          1   -1    0    0  501    0 -0.00000000000E+00 -0.00000000000E+00 -0.72648680434E+03  0.72648680434E+03  0.00000000000E+00 0. -1.
         25    2    1    2    0    0 -0.16124229461E+01  0.35638060896E+02 -0.51585134019E+01  0.13008940812E+03  0.12499589014E+03 0.  0.
          2    1    1    2  501    0  0.40927406681E+01 -0.92716055058E+02 -0.65184281519E+03  0.65841633721E+03  0.00000000000E+00 0. -1.
          1    1    1    2  502    0 -0.24803177221E+01  0.57077994162E+02  0.21484533069E+03  0.22231186543E+03  0.00000000000E+00 0. -1.
         22    1    3    3    0    0  0.25973524361E+02  0.24315540466E+02  0.53520989595E+02  0.64267922039E+02  0.00000000000E+00 0.  1.
         22    1    3    3    0    0 -0.27585947307E+02  0.11322520430E+02 -0.58679502997E+02  0.65821486080E+02  0.00000000000E+00 0.  1.
</event>
<event>
 7    1  0.7527776E-006  0.1305925E+03  0.7818608E-02  0.1310861E+00
          2   -1    0    0  502    0  0.00000000000E+00  0.00000000000E+00  0.11341219840E+04  0.11341219840E+04  0.00000000000E+00 0. -1.
          1   -1    0    0  501    0 -0.00000000000E+00 -0.00000000000E+00 -0.35084230941E+02  0.35084230941E+02  0.00000000000E+00 0. -1.
         25    2    1    2    0    0 -0.53020395300E+02  0.91361944128E+02  0.28200009547E+03  0.32604765823E+03  0.12499941777E+03 0.  0.
          2    1    1    2  501    0  0.32245847462E+02  0.47796012622E+02  0.13562823964E+03  0.14737460056E+03  0.00000000000E+00 0. -1.
          1    1    1    2  502    0  0.20774547837E+02 -0.13915795675E+03  0.68140941794E+03  0.69578395614E+03  0.00000000000E+00 0. -1.
         22    1    3    3    0    0  0.24591000714E+02  0.67308907732E+02  0.75288901883E+02  0.10394048837E+03  0.00000000000E+00 0.  1.
         22    1    3    3    0    0 -0.77611396014E+02  0.24053036396E+02  0.20671119358E+03  0.22210716986E+03  0.00000000000E+00 0.  1.
</event>
<event>
 7    1  0.7527776E-006  0.1478170E+03  0.7818608E-02  0.1333830E+00
          2   -1    0    0  502    0  0.00000000000E+00  0.00000000000E+00  0.35401112705E+03  0.35401112705E+03  0.00000000000E+00 0. -1.
          1   -1    0    0  501    0 -0.00000000000E+00 -0.00000000000E+00 -0.72048644398E+03  0.72048644398E+03  0.00000000000E+00 0. -1.
         25    2    1    2    0    0  0.74771086782E+02  0.14393815654E+03  0.34538591227E+02  0.20767461215E+03  0.12500768744E+03 0.  0.
          2    1    1    2  501    0 -0.33257126624E+02 -0.14332614292E+03 -0.62343400151E+03  0.64056098379E+03  0.00000000000E+00 0. -1.
          1    1    1    2  502    0 -0.41513960158E+02 -0.61201362400E+00  0.22242009335E+03  0.22626197510E+03  0.00000000000E+00 0. -1.
         22    1    3    3    0    0  0.24377040854E+02  0.10149327578E+02 -0.38849370288E+02  0.46973636679E+02  0.00000000000E+00 0.  1.
         22    1    3    3    0    0  0.50394045928E+02  0.13378882897E+03  0.73387961515E+02  0.16070097547E+03  0.00000000000E+00 0.  1.
</event>
<event>
 7    1  0.7527776E-006  0.5092590E+02  0.7818608E-02  0.1572963E+00
          2   -1    0    0  502    0  0.00000000000E+00  0.00000000000E+00  0.60376061146E+02  0.60376061146E+02  0.00000000000E+00 0. -1.
          1   -1    0    0  501    0 -0.00000000000E+00 -0.00000000000E+00 -0.11868754045E+04  0.11868754045E+04  0.00000000000E+00 0. -1.
         25    2    1    2    0    0 -0.10795223327E+01 -0.31568886833E+02 -0.23944802461E+03  0.27195229954E+03  0.12499974699E+03 0.  0.
          2    1    1    2  501    0  0.20141874609E+01 -0.20517086764E+02 -0.91564253884E+03  0.91587459116E+03  0.00000000000E+00 0. -1.
          1    1    1    2  502    0 -0.93466512820E+00  0.52085973597E+02  0.28591220080E+02  0.59424574968E+02  0.00000000000E+00 0. -1.
         22    1    3    3    0    0  0.29642756002E+01  0.13951456998E+02  0.10594929565E+02  0.17767459433E+02  0.00000000000E+00 0.  1.
         22    1    3    3    0    0 -0.40437979329E+01 -0.45520343831E+02 -0.25004295418E+03  0.25418484010E+03  0.00000000000E+00 0.  1.
</event>
<event>
 7    1  0.7527776E-006  0.7299038E+02  0.7818608E-02  0.1455485E+00
          2   -1    0    0  502    0  0.00000000000E+00  0.00000000000E+00  0.29501769300E+03  0.29501769300E+03  0.00000000000E+00 0. -1.
          1   -1    0    0  501    0 -0.00000000000E+00 -0.00000000000E+00 -0.17473474491E+04  0.17473474491E+04  0.00000000000E+00 0. -1.
         25    2    1    2    0    0 -0.29119819707E+02  0.55429921677E+02 -0.22744179854E+03  0.26697607801E+03  0.12500405748E+03 0.  0.
          2    1    1    2  501    0  0.58909226545E+02 -0.44341142166E+02 -0.14983112515E+04  0.15001243416E+04  0.00000000000E+00 0. -1.
          1    1    1    2  502    0 -0.29789406838E+02 -0.11088779511E+02  0.27342329394E+03  0.27526472251E+03  0.00000000000E+00 0. -1.
         22    1    3    3    0    0 -0.30503187155E+02  0.89338274206E+02 -0.11112611813E+03  0.14581078765E+03  0.00000000000E+00 0.  1.
         22    1    3    3    0    0  0.13833674482E+01 -0.33908352528E+02 -0.11631568042E+03  0.12116529036E+03  0.00000000000E+00 0.  1.
</event>
<event>
 7    1  0.7527776E-006  0.7416393E+02  0.7818608E-02  0.1364605E+00
          2   -1    0    0  502    0  0.00000000000E+00  0.00000000000E+00  0.95893967029E+03  0.95893967029E+03  0.00000000000E+00 0. -1.
          1   -1    0    0  501    0 -0.00000000000E+00 -0.00000000000E+00 -0.16858564805E+03  0.16858564805E+03  0.00000000000E+00 0. -1.
         25    2    1    2    0    0 -0.14618661131E+02  0.13195000790E+03  0.33192837748E+03  0.37871524048E+03  0.12499710301E+03 0.  0.
          2    1    1    2  501    0  0.77669215327E+01 -0.63144364887E+02 -0.13612175383E+03  0.15025534184E+03  0.00000000000E+00 0. -1.
          1    1    1    2  502    0  0.68517395983E+01 -0.68805643011E+02  0.59454739858E+03  0.59855473602E+03  0.00000000000E+00 0. -1.
         22    1    3    3    0    0 -0.51975346852E+02  0.61680445768E+02  0.25718577478E+03  0.26953744975E+03  0.00000000000E+00 0.  1.
         22    1    3    3    0    0  0.37356685721E+02  0.70269562129E+02  0.74742602698E+02  0.10917779073E+03  0.00000000000E+00 0.  1.
</event>
<event>
 7    1  0.7527776E-006  0.3623912E+02  0.7818608E-02  0.1614797E+00
          2   -1    0    0  502    0  0.00000000000E+00  0.00000000000E+00  0.46004601693E+03  0.46004601693E+03  0.00000000000E+00 0. -1.
          1   -1    0    0  501    0 -0.00000000000E+00 -0.00000000000E+00 -0.12110994548E+03  0.12110994548E+03  0.00000000000E+00 0. -1.
         25    2    1    2    0    0 -0.38142740024E+02 -0.25245959094E+02 -0.12723482703E+02  0.13371274805E+03  0.12499993965E+03 0.  0.
          2    1    1    2  501    0  0.21409484312E+02 -0.68495863689E+01 -0.44382663226E+02  0.49750413535E+02  0.00000000000E+00 0. -1.
          1    1    1    2  502    0  0.16733255712E+02  0.32095545463E+02  0.39604221738E+03  0.39769280083E+03  0.00000000000E+00 0. -1.
         22    1    3    3    0    0 -0.18047646950E+02  0.26247994871E+02 -0.55382614696E+02  0.63889817700E+02  0.00000000000E+00 0.  1.
         22    1    3    3    0    0 -0.20095093074E+02 -0.51493953965E+02  0.42659131992E+02  0.69822930352E+02  0.00000000000E+00 0.  1.
</event>
<event>
 7    1  0.7527776E-006  0.4341729E+02  0.7818608E-02  0.1549280E+00
          2   -1    0    0  502    0  0.00000000000E+00  0.00000000000E+00  0.12651857370E+04  0.12651857370E+04  0.00000000000E+00 0. -1.
          1   -1    0    0  501    0 -0.00000000000E+00 -0.00000000000E+00 -0.13626568257E+04  0.13626568257E+04  0.00000000000E+00 0. -1.
         25    2    1    2    0    0  0.23543818225E+02 -0.59390348484E+01  0.31207422385E+03  0.33704497166E+03  0.12497763087E+03 0.  0.
          2    1    1    2  501    0 -0.40074184755E+02 -0.16773932923E+02 -0.13496121271E+04  0.13503111489E+04  0.00000000000E+00 0. -1.
          1    1    1    2  502    0  0.16530366530E+02  0.22712967771E+02  0.94006681463E+03  0.94048644216E+03  0.00000000000E+00 0. -1.
         22    1    3    3    0    0 -0.46771543792E+02 -0.14249534543E+02  0.74235062235E+02  0.88890218857E+02  0.00000000000E+00 0.  1.
         22    1    3    3    0    0  0.70315362017E+02  0.83104996944E+01  0.23783916162E+03  0.24815475281E+03  0.00000000000E+00 0.  1.
</event>
<event>
 7    1  0.7527776E-006  0.7011933E+02  0.7818608E-02  0.1362166E+00
          2   -1    0    0  502    0  0.00000000000E+00  0.00000000000E+00  0.13232814802E+04  0.13232814802E+04  0.00000000000E+00 0. -1.
          1   -1    0    0  501    0 -0.00000000000E+00 -0.00000000000E+00 -0.77634169078E+02  0.77634169078E+02  0.00000000000E+00 0. -1.
         25    2    1    2    0    0  0.10577258870E+02 -0.52906565635E+02  0.67846742879E+03  0.69199287771E+03  0.12500043112E+03 0.  0.
          2    1    1    2  501    0  0.57312121444E+02  0.42542535325E+02 -0.50501443498E+02  0.87435361106E+02  0.00000000000E+00 0. -1.
          1    1    1    2  502    0 -0.67889380314E+02  0.10364030310E+02  0.61768132586E+03  0.62148741049E+03  0.00000000000E+00 0. -1.
         22    1    3    3    0    0 -0.36017516153E+02 -0.27164431638E+02  0.56346020826E+03  0.56526327858E+03  0.00000000000E+00 0.  1.
         22    1    3    3    0    0  0.46594775022E+02 -0.25742133997E+02  0.11500722053E+03  0.12672959913E+03  0.00000000000E+00 0.  1.
</event>
<event>
 7    1  0.7527776E-006  0.5254134E+02  0.7818608E-02  0.1479294E+00
          2   -1    0    0  502    0  0.00000000000E+00  0.00000000000E+00  0.38752848248E+04  0.38752848248E+04  0.00000000000E+00 0. -1.
          1   -1    0    0  501    0 -0.00000000000E+00 -0.00000000000E+00 -0.67372309594E+01  0.67372309594E+01  0.00000000000E+00 0. -1.
         25    2    1    2    0    0 -0.42167060419E+02  0.32523287312E+02  0.15140739627E+04  0.15201583207E+04  0.12500212155E+03 0.  0.
          2    1    1    2  501    0 -0.11461948592E+02 -0.35400977237E+02  0.99176866805E+02  0.10592759963E+03  0.00000000000E+00 0. -1.
          1    1    1    2  502    0  0.53629009012E+02  0.28776899254E+01  0.22552967643E+04  0.22559361354E+04  0.00000000000E+00 0. -1.
         22    1    3    3    0    0 -0.59412583477E+02  0.29964635438E+02  0.14832781425E+04  0.14847699426E+04  0.00000000000E+00 0. -1.
         22    1    3    3    0    0  0.17245523058E+02  0.25586518742E+01  0.30795820172E+02  0.35388378106E+02  0.00000000000E+00 0. -1.
</event>
<event>
 7    1  0.7527776E-006  0.2152016E+03  0.7818608E-02  0.1167598E+00
          2   -1    0    0  502    0  0.00000000000E+00  0.00000000000E+00  0.59307378373E+03  0.59307378373E+03  0.00000000000E+00 0. -1.
          1   -1    0    0  501    0 -0.00000000000E+00 -0.00000000000E+00 -0.13763813515E+04  0.13763813515E+04  0.00000000000E+00 0. -1.
         25    2    1    2    0    0 -0.29885529827E+03  0.12229006868E+03  0.27810435469E+03  0.44411279134E+03  0.12499915652E+03 0.  0.
          2    1    1    2  501    0  0.21312373125E+03  0.19037494664E+01 -0.12588894699E+04  0.12768038402E+04  0.00000000000E+00 0. -1.
          1    1    1    2  502    0  0.85731567023E+02 -0.12419381815E+03  0.19747754743E+03  0.24853850363E+03  0.00000000000E+00 0. -1.
         22    1    3    3    0    0 -0.87800173598E+02 -0.35988078744E+01  0.13086625306E+03  0.15763184352E+03  0.00000000000E+00 0. -1.
         22    1    3    3    0    0 -0.21105512468E+03  0.12588887656E+03  0.14723810163E+03  0.28648094782E+03  0.00000000000E+00 0. -1.
</event>
<event>
 7    1  0.7527776E-006  0.1032057E+03  0.7818608E-02  0.1324378E+00
          2   -1    0    0  502    0  0.00000000000E+00  0.00000000000E+00  0.15499244274E+03  0.15499244274E+03  0.00000000000E+00 0. -1.
          1   -1    0    0  501    0 -0.00000000000E+00 -0.00000000000E+00 -0.93132725733E+03  0.93132725733E+03  0.00000000000E+00 0. -1.
         25    2    1    2    0    0  0.38428064031E+02  0.12198296514E+03 -0.55641049779E+03  0.58444262158E+03  0.12499590389E+03 0.  0.
          2    1    1    2  501    0 -0.60932946638E+02 -0.21539399648E+02 -0.33863918138E+03  0.34475101870E+03  0.00000000000E+00 0. -1.
          1    1    1    2  502    0  0.22504882606E+02 -0.10044356549E+03  0.11871486458E+03  0.15712605978E+03  0.00000000000E+00 0. -1.
         22    1    3    3    0    0 -0.29970904841E+02  0.60149523552E+02 -0.11238862285E+03  0.13094816863E+03  0.00000000000E+00 0.  1.
         22    1    3    3    0    0  0.68398968872E+02  0.61833441584E+02 -0.44402187494E+03  0.45349445296E+03  0.00000000000E+00 0.  1.
</event>
<event>
 7    1  0.7527776E-006  0.7992366E+02  0.7818608E-02  0.1392099E+00
          2   -1    0    0  502    0  0.00000000000E+00  0.00000000000E+00  0.15752624284E+03  0.15752624284E+03  0.00000000000E+00 0. -1.
          1   -1    0    0  501    0 -0.00000000000E+00 -0.00000000000E+00 -0.13930022766E+04  0.13930022766E+04  0.00000000000E+00 0. -1.
         25    2    1    2    0    0 -0.51587726192E+02  0.47750656140E+02 -0.10339564655E+03  0.17679677038E+03  0.12500007855E+03 0.  0.
          2    1    1    2  501    0  0.80074627226E+02 -0.10178700827E+02 -0.12469509918E+04  0.12495608540E+04  0.00000000000E+00 0. -1.
          1    1    1    2  502    0 -0.28486901034E+02 -0.37571955314E+02  0.11487060465E+03  0.12417089501E+03  0.00000000000E+00 0. -1.
         22    1    3    3    0    0 -0.69679141762E+02  0.77668769595E+02 -0.57618695005E+02  0.11919536309E+03  0.00000000000E+00 0.  1.
         22    1    3    3    0    0  0.18091415569E+02 -0.29918113455E+02 -0.45776951541E+02  0.57601407295E+02  0.00000000000E+00 0.  1.
</event>
<event>
 7    1  0.7527776E-006  0.9746717E+02  0.7818608E-02  0.1411081E+00
          2   -1    0    0  502    0  0.00000000000E+00  0.00000000000E+00  0.86956559880E+03  0.86956559880E+03  0.00000000000E+00 0. -1.
          1   -1    0    0  501    0 -0.00000000000E+00 -0.00000000000E+00 -0.72893269481E+02  0.72893269481E+02  0.00000000000E+00 0. -1.
         25    2    1    2    0    0 -0.49369655117E+02 -0.99901578970E+02  0.17339100533E+03  0.24105440440E+03  0.12500038730E+03 0.  0.
          2    1    1    2  501    0  0.16818589527E+02  0.92975867544E+02  0.19210924272E+02  0.96418030008E+02  0.00000000000E+00 0. -1.
          1    1    1    2  502    0  0.32551065589E+02  0.69257114257E+01  0.60407039971E+03  0.60498643386E+03  0.00000000000E+00 0. -1.
         22    1    3    3    0    0 -0.66289738574E+02 -0.24993302734E+00  0.64794276310E+02  0.92696764503E+02  0.00000000000E+00 0.  1.
         22    1    3    3    0    0  0.16920083457E+02 -0.99651645943E+02  0.10859672902E+03  0.14835763990E+03  0.00000000000E+00 0.  1.
</event>
<event>
 7    1  0.7527776E-006  0.6224148E+02  0.7818608E-02  0.1441242E+00
          2   -1    0    0  502    0  0.00000000000E+00  0.00000000000E+00  0.48994392301E+03  0.48994392301E+03  0.00000000000E+00 0. -1.
          1   -1    0    0  501    0 -0.00000000000E+00 -0.00000000000E+00 -0.23095896468E+04  0.23095896468E+04  0.00000000000E+00 0. -1.
         25    2    1    2    0    0 -0.23804506854E+02  0.15417331896E+02  0.20539326278E+03  0.24210714994E+03  0.12500052395E+03 0.  0.
          2    1    1    2  501    0  0.62313916840E+02 -0.19228924196E+00 -0.22891956894E+04  0.22900436602E+04  0.00000000000E+00 0. -1.
          1    1    1    2  502    0 -0.38509409986E+02 -0.15225042654E+02  0.26415670278E+03  0.26738275974E+03  0.00000000000E+00 0. -1.
         22    1    3    3    0    0  0.35135339367E+02  0.48352974045E+02  0.82323812521E+02  0.10173353567E+03  0.00000000000E+00 0. -1.
         22    1    3    3    0    0 -0.58939846221E+02 -0.32935642149E+02  0.12306945026E+03  0.14037361427E+03  0.00000000000E+00 0. -1.
</event>
<event>
 7    1  0.7527776E-006  0.3069695E+03  0.7818608E-02  0.1183972E+00
          2   -1    0    0  502    0  0.00000000000E+00  0.00000000000E+00  0.11691289390E+04  0.11691289390E+04  0.00000000000E+00 0. -1.
          1   -1    0    0  501    0 -0.00000000000E+00 -0.00000000000E+00 -0.79960030601E+03  0.79960030601E+03  0.00000000000E+00 0. -1.
         25    2    1    2    0    0 -0.24651809768E+03 -0.81221354501E+02 -0.22424738866E+03  0.36508494036E+03  0.12502816264E+03 0.  0.
          2    1    1    2  501    0  0.32841714139E+03  0.11312504889E+03 -0.44311604910E+03  0.56303368320E+03  0.00000000000E+00 0. -1.
          1    1    1    2  502    0 -0.81899043717E+02 -0.31903694387E+02  0.10368920707E+04  0.10406106214E+04  0.00000000000E+00 0. -1.
         22    1    3    3    0    0 -0.41624221790E+02 -0.46526868983E+01  0.11559978807E+02  0.43449470020E+02  0.00000000000E+00 0. -1.
         22    1    3    3    0    0 -0.20489387589E+03 -0.76568667602E+02 -0.23580736746E+03  0.32163547034E+03  0.00000000000E+00 0. -1.
</event>
<event>
 7    1  0.7527776E-006  0.1139881E+03  0.7818608E-02  0.1291900E+00
          2   -1    0    0  502    0  0.00000000000E+00  0.00000000000E+00  0.12534042477E+04  0.12534042477E+04  0.00000000000E+00 0. -1.
          1   -1    0    0  501    0 -0.00000000000E+00 -0.00000000000E+00 -0.81697418916E+03  0.81697418916E+03  0.00000000000E+00 0. -1.
         25    2    1    2    0    0 -0.16624503264E+02 -0.48583795226E+02  0.10267981240E+03  0.16972503963E+03  0.12500674356E+03 0.  0.
          2    1    1    2  501    0 -0.29160299212E+02  0.11252328748E+03 -0.77774298702E+03  0.78638156587E+03  0.00000000000E+00 0. -1.
          1    1    1    2  502    0  0.45784802476E+02 -0.63939492249E+02  0.11114932331E+04  0.11142718314E+04  0.00000000000E+00 0. -1.
         22    1    3    3    0    0  0.43313169480E+02 -0.26638829872E+02  0.24643743233E+01  0.50909046821E+02  0.00000000000E+00 0. -1.
         22    1    3    3    0    0 -0.59937672744E+02 -0.21944965354E+02  0.10021543808E+03  0.11881599281E+03  0.00000000000E+00 0. -1.
</event>
<event>
 7    1  0.7527776E-006  0.5567252E+02  0.7818608E-02  0.1475091E+00
          2   -1    0    0  502    0  0.00000000000E+00  0.00000000000E+00  0.71292629474E+03  0.71292629474E+03  0.00000000000E+00 0. -1.
          1   -1    0    0  501    0 -0.00000000000E+00 -0.00000000000E+00 -0.12246360015E+04  0.12246360015E+04  0.00000000000E+00 0. -1.
         25    2    1    2    0    0 -0.11100067111E+02 -0.27173422417E+02 -0.69460018916E+03  0.70636811438E+03  0.12499953547E+03 0.  0.
          2    1    1    2  501    0 -0.36097162565E+02 -0.24477129252E+01 -0.52242734563E+03  0.52367864946E+03  0.00000000000E+00 0. -1.
          1    1    1    2  502    0  0.47197229676E+02  0.29621135343E+02  0.70531782799E+03  0.70751553243E+03  0.00000000000E+00 0. -1.
         22    1    3    3    0    0 -0.23649587968E+02 -0.29644001999E+02 -0.69234215212E+03  0.69337992866E+03  0.00000000000E+00 0.  1.
         22    1    3    3    0    0  0.12549520858E+02  0.24705795821E+01 -0.22580370392E+01  0.12988185728E+02  0.00000000000E+00 0.  1.
</event>
<event>
 7    1  0.7527776E-006  0.9386393E+02  0.7818608E-02  0.1387809E+00
          2   -1    0    0  502    0  0.00000000000E+00  0.00000000000E+00  0.26581349218E+03  0.26581349218E+03  0.00000000000E+00 0. -1.
          1   -1    0    0  501    0 -0.00000000000E+00 -0.00000000000E+00 -0.51767440717E+03  0.51767440717E+03  0.00000000000E+00 0. -1.
         25    2    1    2    0    0  0.46574946533E+02 -0.75557889579E+02 -0.65292728523E+02  0.16663243041E+03  0.12500002458E+03 0.  0.
          2    1    1    2  501    0 -0.80338833132E+02  0.51331712488E+02 -0.39396490316E+03  0.40533642537E+03  0.00000000000E+00 0. -1.
          1    1    1    2  502    0  0.33763886599E+02  0.24226177091E+02  0.20739671669E+03  0.21151904356E+03  0.00000000000E+00 0. -1.
         22    1    3    3    0    0 -0.42617458133E+02 -0.33925045191E+02 -0.29111206083E+02  0.61762599917E+02  0.00000000000E+00 0.  1.
         22    1    3    3    0    0  0.89192404666E+02 -0.41632844388E+02 -0.36181522440E+02  0.10486983049E+03  0.00000000000E+00 0.  1.
</event>
<event>
 7    1  0.7527776E-006  0.3151639E+02  0.7818608E-02  0.1597592E+00
          2   -1    0    0  502    0  0.00000000000E+00  0.00000000000E+00  0.43696904693E+03  0.43696904693E+03  0.00000000000E+00 0. -1.
          1   -1    0    0  501    0 -0.00000000000E+00 -0.00000000000E+00 -0.53874207929E+02  0.53874207929E+02  0.00000000000E+00 0. -1.
         25    2    1    2    0    0  0.38794192504E+01  0.49100147013E+01  0.24588186757E+03  0.27590929352E+03  0.12501554828E+03 0.  0.
          2    1    1    2  501    0  0.25133030306E+02  0.13737355837E+02 -0.31591252982E+02  0.42642601032E+02  0.00000000000E+00 0. -1.
          1    1    1    2  502    0 -0.29012449556E+02 -0.18647370539E+02  0.16880422442E+03  0.17229136031E+03  0.00000000000E+00 0. -1.
         22    1    3    3    0    0  0.57046519730E+01  0.51743917437E+02  0.42517932485E+02  0.67214214483E+02  0.00000000000E+00 0. -1.
         22    1    3    3    0    0 -0.18252327226E+01 -0.46833902736E+02  0.20336393509E+03  0.20869507904E+03  0.00000000000E+00 0. -1.
</event>
<event>
 7    1  0.9634948E-006  0.1237146E+03  0.7818608E-02  0.1317624E+00
          2   -1    0    0  502    0  0.00000000000E+00  0.00000000000E+00  0.16558047649E+04  0.16558047649E+04  0.00000000000E+00 0. -1.
          1   -1    0    0  501    0 -0.00000000000E+00 -0.00000000000E+00 -0.11077547434E+04  0.11077547434E+04  0.00000000000E+00 0. -1.
         25    2    1    2    0    0  0.28493023814E+02  0.75306472411E+02 -0.20465225188E+03  0.25296632319E+03  0.12500599696E+03 0.  0.
          2    1    1    2  501    0 -0.29787963788E+02  0.48904618400E+02 -0.87564475035E+03  0.87751507868E+03  0.00000000000E+00 0. -1.
          1    1    1    2  502    0  0.12949399739E+01 -0.12421109081E+03  0.16283470237E+04  0.16330781064E+04  0.00000000000E+00 0. -1.
         22    1    3    3    0    0  0.68802185190E+02  0.53019451623E+02 -0.72912017114E+02  0.11340619550E+03  0.00000000000E+00 0. -1.
         22    1    3    3    0    0 -0.40309161375E+02  0.22287020787E+02 -0.13174023477E+03  0.13956012770E+03  0.00000000000E+00 0. -1.
</event>
<event>
 7    1  0.7527776E-006  0.7120269E+02  0.7818608E-02  0.1453274E+00
          2   -1    0    0  502    0  0.00000000000E+00  0.00000000000E+00  0.14430835769E+04  0.14430835769E+04  0.00000000000E+00 0. -1.
          1   -1    0    0  501    0 -0.00000000000E+00 -0.00000000000E+00 -0.17803541578E+04  0.17803541578E+04  0.00000000000E+00 0. -1.
         25    2    1    2    0    0  0.44279460246E+02  0.19652702014E+02  0.16718380642E+03  0.21429193644E+03  0.12499483828E+03 0.  0.
          2    1    1    2  501    0 -0.48212329522E+02 -0.52534453890E+02 -0.17558574346E+04  0.17573046487E+04  0.00000000000E+00 0. -1.
          1    1    1    2  502    0  0.39328692757E+01  0.32881751875E+02  0.12514030473E+04  0.12518411496E+04  0.00000000000E+00 0. -1.
         22    1    3    3    0    0 -0.24236186114E+02 -0.12462894855E+02  0.12443089356E+03  0.12738038993E+03  0.00000000000E+00 0.  1.
         22    1    3    3    0    0  0.68515646360E+02  0.32115596869E+02  0.42752912854E+02  0.86911546505E+02  0.00000000000E+00 0.  1.
</event>
<event>
 7    1  0.7527776E-006  0.2133852E+03  0.7818608E-02  0.1220806E+00
          2   -1    0    0  502    0  0.00000000000E+00  0.00000000000E+00  0.44651343485E+03  0.44651343485E+03  0.00000000000E+00 0. -1.
          1   -1    0    0  501    0 -0.00000000000E+00 -0.00000000000E+00 -0.13181575366E+04  0.13181575366E+04  0.00000000000E+00 0. -1.
         25    2    1    2    0    0 -0.15356733404E+03  0.11173370132E+03 -0.32191402189E+03  0.39411548590E+03  0.12502412824E+03 0.  0.
          2    1    1    2  501    0  0.42075422443E+02  0.73724058724E+02 -0.92955071245E+03  0.93341850476E+03  0.00000000000E+00 0. -1.
          1    1    1    2  502    0  0.11149191160E+03 -0.18545776004E+03  0.37982063255E+03  0.43713698084E+03  0.00000000000E+00 0. -1.
         22    1    3    3    0    0 -0.96314563597E+02  0.12756927966E+03 -0.18268054789E+03  0.24273977600E+03  0.00000000000E+00 0. -1.
         22    1    3    3    0    0 -0.57252770447E+02 -0.15835578348E+02 -0.13923347400E+03  0.15137570990E+03  0.00000000000E+00 0. -1.
</event>
<event>
 7    1  0.7527776E-006  0.6336458E+02  0.7818608E-02  0.1405242E+00
          2   -1    0    0  502    0  0.00000000000E+00  0.00000000000E+00  0.75520561496E+03  0.75520561496E+03  0.00000000000E+00 0. -1.
          1   -1    0    0  501    0 -0.00000000000E+00 -0.00000000000E+00 -0.34115753618E+03  0.34115753618E+03  0.00000000000E+00 0. -1.
         25    2    1    2    0    0 -0.88081448769E+02  0.44204688013E+01  0.37741467827E+02  0.15756827599E+03  0.12500184416E+03 0.  0.
          2    1    1    2  501    0  0.52216249539E+02  0.35389970659E+02 -0.27659577692E+03  0.28369739257E+03  0.00000000000E+00 0. -1.
          1    1    1    2  502    0  0.35865199231E+02 -0.39810439461E+02  0.65290238787E+03  0.65509748258E+03  0.00000000000E+00 0. -1.
         22    1    3    3    0    0  0.13612514962E+02 -0.35137116530E+02  0.30021245833E+02  0.48178758006E+02  0.00000000000E+00 0.  1.
         22    1    3    3    0    0 -0.10169396373E+03  0.39557585331E+02  0.77202219942E+01  0.10938951798E+03  0.00000000000E+00 0.  1.
</event>
<event>
 7    1  0.7527776E-006  0.2035230E+03  0.7818608E-02  0.1260437E+00
          2   -1    0    0  502    0  0.00000000000E+00  0.00000000000E+00  0.27899694005E+04  0.27899694005E+04  0.00000000000E+00 0. -1.
          1   -1    0    0  501    0 -0.00000000000E+00 -0.00000000000E+00 -0.24123357092E+02  0.24123357092E+02  0.00000000000E+00 0. -1.
         25    2    1    2    0    0  0.64013047760E+02  0.20205637397E+03  0.14571752259E+04  0.14778050821E+04  0.12499509239E+03 0.  0.
          2    1    1    2  501    0 -0.11245526345E+03 -0.16745601457E+03  0.84143817806E+03  0.86527793834E+03  0.00000000000E+00 0. -1.
          1    1    1    2  502    0  0.48442215689E+02 -0.34600359392E+02  0.46723263948E+03  0.47100973719E+03  0.00000000000E+00 0. -1.
         22    1    3    3    0    0  0.31461477363E+02  0.14045206361E+03  0.12691459332E+04  0.12772814907E+04  0.00000000000E+00 0. -1.
         22    1    3    3    0    0  0.32551570397E+02  0.61604310352E+02  0.18802929272E+03  0.20052359140E+03  0.00000000000E+00 0. -1.
</event>
<event>
 7    1  0.7527776E-006  0.7396846E+02  0.7818608E-02  0.1377438E+00
          2   -1    0    0  502    0  0.00000000000E+00  0.00000000000E+00  0.20974114616E+03  0.20974114616E+03  0.00000000000E+00 0. -1.
          1   -1    0    0  501    0 -0.00000000000E+00 -0.00000000000E+00 -0.56303295902E+03  0.56303295902E+03  0.00000000000E+00 0. -1.
         25    2    1    2    0    0 -0.46879860324E+02  0.64307972975E+02  0.13111431190E+02  0.14878305727E+03  0.12502500474E+03 0.  0.
          2    1    1    2  501    0 -0.27943012841E+02 -0.50103773210E+02 -0.48208700993E+03  0.48548850162E+03  0.00000000000E+00 0. -1.
          1    1    1    2  502    0  0.74822873165E+02 -0.14204199765E+02  0.11568376588E+03  0.13850254629E+03  0.00000000000E+00 0. -1.
         22    1    3    3    0    0  0.11127108867E+02 -0.75163720572E+01  0.48185919280E+02  0.50021907376E+02  0.00000000000E+00 0. -1.
         22    1    3    3    0    0 -0.58006969191E+02  0.71824345032E+02 -0.35074488091E+02  0.98761149896E+02  0.00000000000E+00 0. -1.
</event>
<event>
 7    1  0.7527776E-006  0.4935943E+02  0.7818608E-02  0.1453582E+00
          2   -1    0    0  502    0  0.00000000000E+00  0.00000000000E+00  0.18569701830E+04  0.18569701830E+04  0.00000000000E+00 0. -1.
          1   -1    0    0  501    0 -0.00000000000E+00 -0.00000000000E+00 -0.29229382113E+04  0.29229382113E+04  0.00000000000E+00 0. -1.
         25    2    1    2    0    0  0.53458231131E+02  0.19000273829E+00 -0.38427687250E+02  0.14128046281E+03  0.12500265376E+03 0.  0.
          2    1    1    2  501    0 -0.24981035600E+02 -0.40592203196E+02 -0.28325453024E+04  0.28329462877E+04  0.00000000000E+00 0. -1.
          1    1    1    2  502    0 -0.28477195531E+02  0.40402200458E+02  0.18050049613E+04  0.18056816438E+04  0.00000000000E+00 0. -1.
         22    1    3    3    0    0 -0.31693023758E+01 -0.40071546516E+02  0.24887837916E+02  0.47277666967E+02  0.00000000000E+00 0.  1.
         22    1    3    3    0    0  0.56627533507E+02  0.40261549255E+02 -0.63315525166E+02  0.94002795844E+02  0.00000000000E+00 0.  1.
</event>
<event>
 7    1  0.7527776E-006  0.1084547E+03  0.7818608E-02  0.1369805E+00
          2   -1    0    0  502    0  0.00000000000E+00  0.00000000000E+00  0.20833253614E+04  0.20833253614E+04  0.00000000000E+00 0. -1.
          1   -1    0    0  501    0 -0.00000000000E+00 -0.00000000000E+00 -0.19564265595E+03  0.19564265595E+03  0.00000000000E+00 0. -1.
         25    2    1    2    0    0  0.77289716901E+02 -0.64671356868E+02  0.19152714234E+03  0.24992430969E+03  0.12499371819E+03 0.  0.
          2    1    1    2  501    0 -0.26549610164E+02 -0.32109939022E+02 -0.16220628154E+03  0.16747181182E+03  0.00000000000E+00 0. -1.
          1    1    1    2  502    0 -0.50740106737E+02  0.96781295890E+02  0.18583618446E+04  0.18615718958E+04  0.00000000000E+00 0. -1.
         22    1    3    3    0    0  0.68463982937E+02  0.45309687612E+01  0.15855018367E+03  0.17275997042E+03  0.00000000000E+00 0. -1.
         22    1    3    3    0    0  0.88257339645E+01 -0.69202325629E+02  0.32976958664E+02  0.77164339272E+02  0.00000000000E+00 0. -1.
</event>
<event>
 7    1  0.7527776E-006  0.6693918E+02  0.7818608E-02  0.1448089E+00
          2   -1    0    0  502    0  0.00000000000E+00  0.00000000000E+00  0.26557279433E+03  0.26557279433E+03  0.00000000000E+00 0. -1.
          1   -1    0    0  501    0 -0.00000000000E+00 -0.00000000000E+00 -0.38042087926E+03  0.38042087926E+03  0.00000000000E+00 0. -1.
         25    2    1    2    0    0 -0.22321155447E+02 -0.93290061749E+02  0.24903210004E+02  0.15952618500E+03  0.12500865662E+03 0.  0.
          2    1    1    2  501    0 -0.71972811509E+01  0.35880832772E+02 -0.30597152761E+03  0.30815225251E+03  0.00000000000E+00 0. -1.
          1    1    1    2  502    0  0.29518436598E+02  0.57409228977E+02  0.16622023267E+03  0.17831523609E+03  0.00000000000E+00 0. -1.
         22    1    3    3    0    0  0.55311747070E+01 -0.38080286826E+02 -0.49553430228E+02  0.62739497812E+02  0.00000000000E+00 0.  1.
         22    1    3    3    0    0 -0.27852330154E+02 -0.55209774922E+02  0.74456640231E+02  0.96786687186E+02  0.00000000000E+00 0.  1.
</event>
<event>
 7    1  0.7527776E-006  0.7027298E+02  0.7818608E-02  0.1393257E+00
          2   -1    0    0  502    0  0.00000000000E+00  0.00000000000E+00  0.13139167481E+04  0.13139167481E+04  0.00000000000E+00 0. -1.
          1   -1    0    0  501    0 -0.00000000000E+00 -0.00000000000E+00 -0.31657074658E+03  0.31657074658E+03  0.00000000000E+00 0. -1.
         25    2    1    2    0    0  0.10465409341E+03 -0.19805716284E+02  0.10318081363E+03  0.19394792951E+03  0.12499909358E+03 0.  0.
          2    1    1    2  501    0 -0.67157217920E+02 -0.17836051224E+02 -0.26611826805E+03  0.27504026838E+03  0.00000000000E+00 0. -1.
          1    1    1    2  502    0 -0.37496875491E+02  0.37641767507E+02  0.11602834560E+04  0.11614992968E+04  0.00000000000E+00 0. -1.
         22    1    3    3    0    0  0.38698881687E+02 -0.55852678268E+02  0.20966922920E+01  0.67981771322E+02  0.00000000000E+00 0.  1.
         22    1    3    3    0    0  0.65955211724E+02  0.36046961984E+02  0.10108412134E+03  0.12596615819E+03  0.00000000000E+00 0.  1.
</event>
<event>
 7    1  0.7527776E-006  0.5414101E+02  0.7818608E-02  0.1536663E+00
          2   -1    0    0  502    0  0.00000000000E+00  0.00000000000E+00  0.19360106790E+04  0.19360106790E+04  0.00000000000E+00 0. -1.
          1   -1    0    0  501    0 -0.00000000000E+00 -0.00000000000E+00 -0.37610496295E+03  0.37610496295E+03  0.00000000000E+00 0. -1.
         25    2    1    2    0    0 -0.61683388131E+02 -0.41760298458E+02  0.10525122741E+04  0.10625235641E+04  0.12500189694E+03 0.  0.
          2    1    1    2  501    0  0.23018771498E+02  0.82357584953E+01 -0.36995024836E+03  0.37075716827E+03  0.00000000000E+00 0. -1.
          1    1    1    2  502    0  0.38664616632E+02  0.33524539963E+02  0.87734369025E+03  0.87883490952E+03  0.00000000000E+00 0. -1.
         22    1    3    3    0    0 -0.27568532878E+02 -0.49201679933E+02  0.98410916736E+03  0.98572393833E+03  0.00000000000E+00 0.  1.
         22    1    3    3    0    0 -0.34114855253E+02  0.74413814742E+01  0.68403106755E+02  0.76799625787E+02  0.00000000000E+00 0.  1.
</event>
<event>
 7    1  0.7527776E-006  0.5116655E+02  0.7818608E-02  0.1571073E+00
          2   -1    0    0  502    0  0.00000000000E+00  0.00000000000E+00  0.35538246661E+03  0.35538246661E+03  0.00000000000E+00 0. -1.
          1   -1    0    0  501    0 -0.00000000000E+00 -0.00000000000E+00 -0.10171898162E+03  0.10171898162E+03  0.00000000000E+00 0. -1.
         25    2    1    2    0    0  0.13323582856E+02 -0.50593388605E+02  0.14818795212E+03  0.20080111232E+03  0.12499683486E+03 0.  0.
          2    1    1    2  501    0 -0.20758595750E+02 -0.38817448540E+00 -0.70210341483E+02  0.73215859130E+02  0.00000000000E+00 0. -1.
          1    1    1    2  502    0  0.74350128933E+01  0.50981563090E+02  0.17568587435E+03  0.18308447678E+03  0.00000000000E+00 0. -1.
         22    1    3    3    0    0 -0.33548529950E+02 -0.11400748817E+02  0.13328049835E+03  0.13791001478E+03  0.00000000000E+00 0. -1.
         22    1    3    3    0    0  0.46872112806E+02 -0.39192639788E+02  0.14907453772E+02  0.62891097545E+02  0.00000000000E+00 0. -1.
</event>
<event>
 7    1  0.7527776E-006  0.3581224E+02  0.7818608E-02  0.1549131E+00
          2   -1    0    0  502    0  0.00000000000E+00  0.00000000000E+00  0.75332091080E+02  0.75332091080E+02  0.00000000000E+00 0. -1.
          1   -1    0    0  501    0 -0.00000000000E+00 -0.00000000000E+00 -0.58294927453E+03  0.58294927453E+03  0.00000000000E+00 0. -1.
         25    2    1    2    0    0 -0.33744244596E+02  0.64650547600E+01 -0.12993219505E+03  0.18354199630E+03  0.12499927247E+03 0.  0.
          2    1    1    2  501    0  0.13339040393E+02 -0.33773104203E+02 -0.41934231374E+03  0.42091154494E+03  0.00000000000E+00 0. -1.
          1    1    1    2  502    0  0.20405204203E+02  0.27308049443E+02  0.41657325340E+02  0.53827824379E+02  0.00000000000E+00 0. -1.
         22    1    3    3    0    0 -0.68161466873E+02  0.61772966150E+01 -0.13239157668E+03  0.14903581494E+03  0.00000000000E+00 0. -1.
         22    1    3    3    0    0  0.34417222277E+02  0.28775814505E+00  0.24593816255E+01  0.34506181359E+02  0.00000000000E+00 0. -1.
</event>
<event>
 7    1  0.7527776E-006  0.1047915E+03  0.7818608E-02  0.1291801E+00
          2   -1    0    0  502    0  0.00000000000E+00  0.00000000000E+00  0.78362971083E+03  0.78362971083E+03  0.00000000000E+00 0. -1.
          1   -1    0    0  501    0 -0.00000000000E+00 -0.00000000000E+00 -0.81328592324E+03  0.81328592324E+03  0.00000000000E+00 0. -1.
         25    2    1    2    0    0 -0.49561019914E+02  0.60340873057E+02  0.20892439684E+03  0.25567985970E+03  0.12500188560E+03 0.  0.
          2    1    1    2  501    0 -0.67876495777E+02 -0.52191145394E+02 -0.78125856710E+03  0.78593643700E+03  0.00000000000E+00 0. -1.
          1    1    1    2  502    0  0.11743751569E+03 -0.81497276632E+01  0.54267795785E+03  0.55529933738E+03  0.00000000000E+00 0. -1.
         22    1    3    3    0    0 -0.73374972247E+01  0.92299858475E+02  0.11280472658E+03  0.14593837425E+03  0.00000000000E+00 0. -1.
         22    1    3    3    0    0 -0.42223522689E+02 -0.31958985418E+02  0.96119670260E+02  0.10974148545E+03  0.00000000000E+00 0. -1.
</event>
<event>
 7    1  0.7527776E-006  0.1233138E+03  0.7818608E-02  0.1337967E+00
          2   -1    0    0  502    0  0.00000000000E+00  0.00000000000E+00  0.17181671257E+03  0.17181671257E+03  0.00000000000E+00 0. -1.
          1   -1    0    0  501    0 -0.00000000000E+00 -0.00000000000E+00 -0.87391447095E+03  0.87391447095E+03  0.00000000000E+00 0. -1.
         25    2    1    2    0    0 -0.21010709268E+02 -0.92666273599E+02 -0.15539782511E+03  0.22091210007E+03  0.12500073496E+03 0.  0.
          2    1    1    2  501    0  0.32561869796E+02 -0.35274188024E+02 -0.65502504958E+03  0.65678182015E+03  0.00000000000E+00 0. -1.
          1    1    1    2  502    0 -0.11551160529E+02  0.12794046162E+03  0.10832511632E+03  0.16803726329E+03  0.00000000000E+00 0. -1.
         22    1    3    3    0    0 -0.30806668960E+02  0.18783246463E+02 -0.99792627015E+01  0.37435903678E+02  0.00000000000E+00 0. -1.
         22    1    3    3    0    0  0.97959596930E+01 -0.11144952006E+03 -0.14541856241E+03  0.18347619639E+03  0.00000000000E+00 0. -1.
</event>
<event>
 7    1  0.7527776E-006  0.4045664E+02  0.7818608E-02  0.1550401E+00
          2   -1    0    0  502    0  0.00000000000E+00  0.00000000000E+00  0.50993711354E+03  0.50993711354E+03  0.00000000000E+00 0. -1.
          1   -1    0    0  501    0 -0.00000000000E+00 -0.00000000000E+00 -0.26363274316E+02  0.26363274316E+02  0.00000000000E+00 0. -1.
         25    2    1    2    0    0  0.10344029803E+01 -0.62816035206E+02  0.40557893286E+03  0.42902948937E+03  0.12500043081E+03 0.  0.
          2    1    1    2  501    0 -0.14487906855E+02  0.36079116388E+02  0.24449919860E+02  0.45928212087E+02  0.00000000000E+00 0. -1.
          1    1    1    2  502    0  0.13453503875E+02  0.26736918818E+02  0.53544986507E+02  0.61342686397E+02  0.00000000000E+00 0. -1.
         22    1    3    3    0    0 -0.31196599204E+02 -0.49574717731E+02  0.38312473684E+03  0.38757637237E+03  0.00000000000E+00 0. -1.
         22    1    3    3    0    0  0.32231002184E+02 -0.13241317475E+02  0.22454196013E+02  0.41453116998E+02  0.00000000000E+00 0. -1.
</event>
<event>
 7    1  0.7527776E-006  0.1260386E+03  0.7818608E-02  0.1306435E+00
          2   -1    0    0  502    0  0.00000000000E+00  0.00000000000E+00  0.75579040810E+03  0.75579040810E+03  0.00000000000E+00 0. -1.
          1   -1    0    0  501    0 -0.00000000000E+00 -0.00000000000E+00 -0.14989550949E+04  0.14989550949E+04  0.00000000000E+00 0. -1.
         25    2    1    2    0    0  0.47664948147E+02  0.91933186974E+02 -0.28060137968E+02  0.16472956415E+03  0.12499919925E+03 0.  0.
          2    1    1    2  501    0 -0.50556626830E+02  0.36221798253E+02 -0.13958861338E+04  0.13972709436E+04  0.00000000000E+00 0. -1.
          1    1    1    2  502    0  0.28916786826E+01 -0.12815498523E+03  0.68078158498E+03  0.69274499528E+03  0.00000000000E+00 0. -1.
         22    1    3    3    0    0  0.89269327479E+02  0.76664297490E+02 -0.25064599627E+02  0.12031068736E+03  0.00000000000E+00 0. -1.
         22    1    3    3    0    0 -0.41604379332E+02  0.15268889485E+02 -0.29955383409E+01  0.44418876794E+02  0.00000000000E+00 0. -1.
</event>
<event>
 7    1  0.7527776E-006  0.9212628E+02  0.7818608E-02  0.1300521E+00
          2   -1    0    0  502    0  0.00000000000E+00  0.00000000000E+00  0.59558651256E+03  0.59558651256E+03  0.00000000000E+00 0. -1.
          1   -1    0    0  501    0 -0.00000000000E+00 -0.00000000000E+00 -0.38042560954E+03  0.38042560954E+03  0.00000000000E+00 0. -1.
         25    2    1    2    0    0  0.12254911755E+03 -0.11195917205E+03  0.11972997291E+03  0.23982840060E+03  0.12501701045E+03 0.  0.
          2    1    1    2  501    0 -0.38055454844E+02  0.81468823209E+02 -0.30904131752E+03  0.32185699112E+03  0.00000000000E+00 0. -1.
          1    1    1    2  502    0 -0.84493662708E+02  0.30490348842E+02  0.40447224762E+03  0.41432673038E+03  0.00000000000E+00 0. -1.
         22    1    3    3    0    0  0.46576112326E+02 -0.12206442098E+03  0.67253411793E+02  0.14694243263E+03  0.00000000000E+00 0. -1.
         22    1    3    3    0    0  0.75973005226E+02  0.10105248931E+02  0.52476561121E+02  0.92885967973E+02  0.00000000000E+00 0. -1.
</event>
<event>
 7    1  0.7527776E-006  0.7398533E+02  0.7818608E-02  0.1377195E+00
          2   -1    0    0  502    0  0.00000000000E+00  0.00000000000E+00  0.86478401382E+03  0.86478401382E+03  0.00000000000E+00 0. -1.
          1   -1    0    0  501    0 -0.00000000000E+00 -0.00000000000E+00 -0.59891538733E+03  0.59891538733E+03  0.00000000000E+00 0. -1.
         25    2    1    2    0    0  0.11442693985E+03 -0.59622086783E+02 -0.91636404911E+02  0.20166986790E+03  0.12500074848E+03 0.  0.
          2    1    1    2  501    0 -0.45078445715E+02  0.35647691923E+02 -0.44876380530E+03  0.45242875368E+03  0.00000000000E+00 0. -1.
          1    1    1    2  502    0 -0.69348494136E+02  0.23974394861E+02  0.80626883670E+03  0.80960077957E+03  0.00000000000E+00 0. -1.
         22    1    3    3    0    0  0.27890607731E+02  0.29969382572E+02 -0.60886687166E+02  0.73370556530E+02  0.00000000000E+00 0. -1.
         22    1    3    3    0    0  0.86536332119E+02 -0.89591469356E+02 -0.30749717744E+02  0.12829931138E+03  0.00000000000E+00 0. -1.
</event>
<event>
 7    1  0.7527776E-006  0.4261922E+02  0.7818608E-02  0.1527397E+00
          2   -1    0    0  502    0  0.00000000000E+00  0.00000000000E+00  0.11268356722E+04  0.11268356722E+04  0.00000000000E+00 0. -1.
          1   -1    0    0  501    0 -0.00000000000E+00 -0.00000000000E+00 -0.12507997070E+03  0.12507997070E+03  0.00000000000E+00 0. -1.
         25    2    1    2    0    0 -0.49424356677E+02 -0.46240863242E+02  0.36541388685E+03  0.39208975713E+03  0.12500433785E+03 0.  0.
          2    1    1    2  501    0  0.10461855030E+02  0.31307256290E+02 -0.10870772577E+03  0.11360882161E+03  0.00000000000E+00 0. -1.
          1    1    1    2  502    0  0.38962501647E+02  0.14933606952E+02  0.74504954039E+03  0.74621706412E+03  0.00000000000E+00 0. -1.
         22    1    3    3    0    0 -0.62216965527E+02 -0.71714010007E+02  0.17092347846E+03  0.19552157303E+03  0.00000000000E+00 0.  1.
         22    1    3    3    0    0  0.12792608850E+02  0.25473146765E+02  0.19449040838E+03  0.19656818410E+03  0.00000000000E+00 0.  1.
</event>
<event>
 7    1  0.7527776E-006  0.3036118E+02  0.7818608E-02  0.1636172E+00
          2   -1    0    0  502    0  0.00000000000E+00  0.00000000000E+00  0.22698826320E+04  0.22698826320E+04  0.00000000000E+00 0. -1.
          1   -1    0    0  501    0 -0.00000000000E+00 -0.00000000000E+00 -0.86601749873E+01  0.86601749873E+01  0.00000000000E+00 0. -1.
         25    2    1    2    0    0 -0.51424849253E+02  0.10589733166E+02  0.73371001631E+03  0.74613117245E+03  0.12499872358E+03 0.  0.
          2    1    1    2  501    0  0.21597587252E+02 -0.97342040772E+01  0.58754679351E+02  0.63350792021E+02  0.00000000000E+00 0. -1.
          1    1    1    2  502    0  0.29827262001E+02 -0.85552908905E+00  0.14687577613E+04  0.14690608425E+04  0.00000000000E+00 0. -1.
         22    1    3    3    0    0  0.30794971558E+02  0.23556266176E+02  0.41227138858E+03  0.41409048020E+03  0.00000000000E+00 0. -1.
         22    1    3    3    0    0 -0.82219820811E+02 -0.12966533010E+02  0.32143862773E+03  0.33204069225E+03  0.00000000000E+00 0. -1.
</event>
<event>
 7    1  0.7527776E-006  0.1240136E+03  0.7818608E-02  0.1329038E+00
          2   -1    0    0  502    0  0.00000000000E+00  0.00000000000E+00  0.25610011026E+04  0.25610011026E+04  0.00000000000E+00 0. -1.
          1   -1    0    0  501    0 -0.00000000000E+00 -0.00000000000E+00 -0.92851711598E+03  0.92851711598E+03  0.00000000000E+00 0. -1.
         25    2    1    2    0    0  0.53081847243E+02 -0.15189099471E+03  0.29796665943E+03  0.36096746542E+03  0.12499929671E+03 0.  0.
          2    1    1    2  501    0  0.14038552684E+02  0.49667336027E+02 -0.89459692705E+03  0.89608458703E+03  0.00000000000E+00 0. -1.
          1    1    1    2  502    0 -0.67120399927E+02  0.10222365868E+03  0.22291142542E+04  0.22324661661E+04  0.00000000000E+00 0. -1.
         22    1    3    3    0    0  0.64064789401E+02 -0.14457810468E+03  0.30675277933E+03  0.34511504346E+03  0.00000000000E+00 0.  1.
         22    1    3    3    0    0 -0.10982942158E+02 -0.73128900344E+01 -0.87861199019E+01  0.15852421961E+02  0.00000000000E+00 0.  1.
</event>
<event>
 7    1  0.7527776E-006  0.2022706E+03  0.7818608E-02  0.1185497E+00
          2   -1    0    0  502    0  0.00000000000E+00  0.00000000000E+00  0.21474863884E+03  0.21474863884E+03  0.00000000000E+00 0. -1.
          1   -1    0    0  501    0 -0.00000000000E+00 -0.00000000000E+00 -0.16026162199E+04  0.16026162199E+04  0.00000000000E+00 0. -1.
         25    2    1    2    0    0  0.72431554964E+02 -0.48365652076E+01 -0.38354341408E+03  0.40987836801E+03  0.12500001426E+03 0.  0.
          2    1    1    2  501    0 -0.32483417623E+02  0.20312312180E+03 -0.11435677749E+04  0.11619214391E+04  0.00000000000E+00 0. -1.
          1    1    1    2  502    0 -0.39948137341E+02 -0.19828655659E+03  0.13924360791E+03  0.24556505156E+03  0.00000000000E+00 0. -1.
         22    1    3    3    0    0  0.79605001903E+02  0.41648459390E+02 -0.18261999002E+03  0.20352299932E+03  0.00000000000E+00 0.  1.
         22    1    3    3    0    0 -0.71734469384E+01 -0.46485024598E+02 -0.20092342406E+03  0.20635536869E+03  0.00000000000E+00 0.  1.
</event>
<event>
 7    1  0.7527776E-006  0.3104784E+02  0.7818608E-02  0.1597579E+00
          2   -1    0    0  502    0  0.00000000000E+00  0.00000000000E+00  0.77222654101E+03  0.77222654101E+03  0.00000000000E+00 0. -1.
          1   -1    0    0  501    0 -0.00000000000E+00 -0.00000000000E+00 -0.47095974826E+03  0.47095974826E+03  0.00000000000E+00 0. -1.
         25    2    1    2    0    0  0.42732656415E+02 -0.29927550969E+01 -0.49086878192E+02  0.14096371956E+03  0.12500484836E+03 0.  0.
          2    1    1    2  501    0 -0.18515522909E+02  0.22419515537E+02 -0.37503967761E+03  0.37616514863E+03  0.00000000000E+00 0. -1.
          1    1    1    2  502    0 -0.24217133506E+02 -0.19426760440E+02  0.72539334856E+03  0.72605742108E+03  0.00000000000E+00 0. -1.
         22    1    3    3    0    0  0.63579626658E+02  0.16761570764E+02 -0.76766643900E+02  0.10107639089E+03  0.00000000000E+00 0. -1.
         22    1    3    3    0    0 -0.20846970243E+02 -0.19754325860E+02  0.27679765708E+02  0.39887328667E+02  0.00000000000E+00 0. -1.
</event>
<event>
 7    1  0.7527776E-006  0.4102691E+02  0.7818608E-02  0.1501600E+00
          2   -1    0    0  502    0  0.00000000000E+00  0.00000000000E+00  0.17150759558E+04  0.17150759558E+04  0.00000000000E+00 0. -1.
          1   -1    0    0  501    0 -0.00000000000E+00 -0.00000000000E+00 -0.13155877682E+04  0.13155877682E+04  0.00000000000E+00 0. -1.
         25    2    1    2    0    0 -0.29884402017E+01  0.59306994781E+02  0.45193448211E+01  0.13846269203E+03  0.12500096880E+03 0.  0.
          2    1    1    2  501    0  0.29592473955E+02 -0.28086392023E+02 -0.12480267740E+04  0.12486934726E+04  0.00000000000E+00 0. -1.
          1    1    1    2  502    0 -0.26604033753E+02 -0.31220602758E+02  0.16429956168E+04  0.16435075593E+04  0.00000000000E+00 0. -1.
         22    1    3    3    0    0 -0.33469697564E+02 -0.22748685859E+02  0.26294120255E+02  0.48260792817E+02  0.00000000000E+00 0. -1.
         22    1    3    3    0    0  0.30481257362E+02  0.82055680640E+02 -0.21774775434E+02  0.90201899209E+02  0.00000000000E+00 0. -1.
</event>
<event>
 7    1  0.7527776E-006  0.6610503E+02  0.7818608E-02  0.1449827E+00
          2   -1    0    0  502    0  0.00000000000E+00  0.00000000000E+00  0.94829659082E+03  0.94829659082E+03  0.00000000000E+00 0. -1.
          1   -1    0    0  501    0 -0.00000000000E+00 -0.00000000000E+00 -0.18918833656E+04  0.18918833656E+04  0.00000000000E+00 0. -1.
         25    2    1    2    0    0  0.92041295545E+01 -0.45344131324E+02  0.20587487562E+02  0.13487263166E+03  0.12500390346E+03 0.  0.
          2    1    1    2  501    0 -0.32267094328E+02 -0.17242614720E+02 -0.18332804029E+04  0.18336454152E+04  0.00000000000E+00 0. -1.
          1    1    1    2  502    0  0.23062964774E+02  0.62586746044E+02  0.86910614051E+03  0.87166190957E+03  0.00000000000E+00 0. -1.
         22    1    3    3    0    0 -0.54928118027E+02 -0.15719751423E+01  0.15328198714E+02  0.57048426198E+02  0.00000000000E+00 0.  1.
         22    1    3    3    0    0  0.64132247582E+02 -0.43772156182E+02  0.52592888477E+01  0.77824205463E+02  0.00000000000E+00 0.  1.
</event>
<event>
 7    1  0.7527776E-006  0.5442371E+02  0.7818608E-02  0.1456308E+00
          2   -1    0    0  502    0  0.00000000000E+00  0.00000000000E+00  0.33926555154E+04  0.33926555154E+04  0.00000000000E+00 0. -1.
          1   -1    0    0  501    0 -0.00000000000E+00 -0.00000000000E+00 -0.27504998382E+02  0.27504998382E+02  0.00000000000E+00 0. -1.
         25    2    1    2    0    0  0.57905981838E+02  0.57472410059E+02  0.17450604827E+04  0.17514328283E+04  0.12499873343E+03 0.  0.
          2    1    1    2  501    0 -0.85746549557E+01 -0.41497784105E+02 -0.51271861251E+01  0.42683472572E+02  0.00000000000E+00 0. -1.
          1    1    1    2  502    0 -0.49331326882E+02 -0.15974625954E+02  0.16252172205E+04  0.16260442129E+04  0.00000000000E+00 0. -1.
         22    1    3    3    0    0 -0.14631027202E+02  0.53338417927E+01  0.27913134813E+02  0.31963415342E+02  0.00000000000E+00 0. -1.
         22    1    3    3    0    0  0.72537009040E+02  0.52138568267E+02  0.17171473478E+04  0.17194694130E+04  0.00000000000E+00 0. -1.
</event>
<event>
 7    1  0.7527776E-006  0.5648148E+02  0.7818608E-02  0.1453049E+00
          2   -1    0    0  502    0  0.00000000000E+00  0.00000000000E+00  0.21604820191E+04  0.21604820191E+04  0.00000000000E+00 0. -1.
          1   -1    0    0  501    0 -0.00000000000E+00 -0.00000000000E+00 -0.20997105345E+03  0.20997105345E+03  0.00000000000E+00 0. -1.
         25    2    1    2    0    0  0.74202230507E+02  0.16587234797E+02  0.15131085553E+02  0.14709875361E+03  0.12501194421E+03 0.  0.
          2    1    1    2  501    0 -0.34542820087E+02  0.23566648688E+02 -0.14055957458E+03  0.14664783447E+03  0.00000000000E+00 0. -1.
          1    1    1    2  502    0 -0.39659410420E+02 -0.40153883485E+02  0.20759394546E+04  0.20767064844E+04  0.00000000000E+00 0. -1.
         22    1    3    3    0    0  0.10698061898E+03  0.28988664933E+02  0.66312732077E+01  0.11103679263E+03  0.00000000000E+00 0. -1.
         22    1    3    3    0    0 -0.32778388475E+02 -0.12401430136E+02  0.84998123454E+01  0.36061960988E+02  0.00000000000E+00 0. -1.
</event>
<event>
 7    1  0.8886408E-006  0.7504755E+02  0.7818608E-02  0.1396480E+00
          2   -1    0    0  502    0  0.00000000000E+00  0.00000000000E+00  0.17418105078E+04  0.17418105078E+04  0.00000000000E+00 0. -1.
          1   -1    0    0  501    0 -0.00000000000E+00 -0.00000000000E+00 -0.19878165825E+04  0.19878165825E+04  0.00000000000E+00 0. -1.
         25    2    1    2    0    0 -0.87098979767E+02 -0.63857828184E+02 -0.23256594929E+03  0.28526855543E+03  0.12500869350E+03 0.  0.
          2    1    1    2  501    0  0.14199221687E+02  0.46362406981E+02 -0.17277399468E+04  0.17284202077E+04  0.00000000000E+00 0. -1.
          1    1    1    2  502    0  0.72899758080E+02  0.17495421204E+02  0.17142998215E+04  0.17159383271E+04  0.00000000000E+00 0. -1.
         22    1    3    3    0    0 -0.11062916607E+03 -0.75397665692E+02 -0.21643319221E+03  0.25449351086E+03  0.00000000000E+00 0.  1.
         22    1    3    3    0    0  0.23530186308E+02  0.11539837507E+02 -0.16132757082E+02  0.30775044573E+02  0.00000000000E+00 0.  1.
</event>
<event>
 7    1  0.7527776E-006  0.1001321E+03  0.7818608E-02  0.1310201E+00
          2   -1    0    0  502    0  0.00000000000E+00  0.00000000000E+00  0.46611903106E+03  0.46611903106E+03  0.00000000000E+00 0. -1.
          1   -1    0    0  501    0 -0.00000000000E+00 -0.00000000000E+00 -0.20466638738E+03  0.20466638738E+03  0.00000000000E+00 0. -1.
         25    2    1    2    0    0 -0.10096855206E+03  0.19898777438E+02  0.16030071316E+03  0.22783575362E+03  0.12498880806E+03 0.  0.
          2    1    1    2  501    0  0.38093544772E+02  0.65355435617E+02 -0.15130886411E+03  0.16916507759E+03  0.00000000000E+00 0. -1.
          1    1    1    2  502    0  0.62875007284E+02 -0.85254213054E+02  0.25246079463E+03  0.27378458724E+03  0.00000000000E+00 0. -1.
         22    1    3    3    0    0 -0.10279733299E+03 -0.24126886363E+02  0.14851098253E+03  0.18222214533E+03  0.00000000000E+00 0. -1.
         22    1    3    3    0    0  0.18287809322E+01  0.44025663801E+02  0.11789730623E+02  0.45613608287E+02  0.00000000000E+00 0. -1.
</event>
<event>
 7    1  0.7527776E-006  0.4924680E+02  0.7818608E-02  0.1499719E+00
          2   -1    0    0  502    0  0.00000000000E+00  0.00000000000E+00  0.93687582712E+02  0.93687582712E+02  0.00000000000E+00 0. -1.
          1   -1    0    0  501    0 -0.00000000000E+00 -0.00000000000E+00 -0.26310549439E+03  0.26310549439E+03  0.00000000000E+00 0. -1.
         25    2    1    2    0    0  0.36611055342E+02  0.33477298360E+02 -0.46594894345E+02  0.14233142711E+03  0.12500420827E+03 0.  0.
          2    1    1    2  501    0 -0.50081297215E+02 -0.17908363378E+01 -0.15768900298E+03  0.16546046382E+03  0.00000000000E+00 0. -1.
          1    1    1    2  502    0  0.13470241874E+02 -0.31686462022E+02  0.34865985647E+02  0.49001186177E+02  0.00000000000E+00 0. -1.
         22    1    3    3    0    0  0.11030652535E+02  0.18738270248E+02  0.42898321089E+02  0.48094324192E+02  0.00000000000E+00 0. -1.
         22    1    3    3    0    0  0.25580402807E+02  0.14739028112E+02 -0.89493215434E+02  0.94237102916E+02  0.00000000000E+00 0. -1.
</event>
<event>
 7    1  0.7527776E-006  0.5861183E+02  0.7818608E-02  0.1452889E+00
          2   -1    0    0  502    0  0.00000000000E+00  0.00000000000E+00  0.56081834216E+03  0.56081834216E+03  0.00000000000E+00 0. -1.
          1   -1    0    0  501    0 -0.00000000000E+00 -0.00000000000E+00 -0.53167416761E+02  0.53167416761E+02  0.00000000000E+00 0. -1.
         25    2    1    2    0    0 -0.20999215453E+01  0.60569963584E+02  0.23555897874E+03  0.27346996316E+03  0.12499863251E+03 0.  0.
          2    1    1    2  501    0  0.39305437619E+02 -0.44969801815E+02 -0.55265819418E+01  0.59981193800E+02  0.00000000000E+00 0. -1.
          1    1    1    2  502    0 -0.37205516074E+02 -0.15600161769E+02  0.27761852860E+03  0.28053460195E+03  0.00000000000E+00 0. -1.
         22    1    3    3    0    0  0.75316416093E+01 -0.82864027559E+01  0.19003630908E+03  0.19036593409E+03  0.00000000000E+00 0.  1.
         22    1    3    3    0    0 -0.96315631546E+01  0.68856366340E+02  0.45522669665E+02  0.83104029071E+02  0.00000000000E+00 0.  1.
</event>
<event>
 7    1  0.7527776E-006  0.1030503E+03  0.7818608E-02  0.1350935E+00
          2   -1    0    0  502    0  0.00000000000E+00  0.00000000000E+00  0.73310561323E+03  0.73310561323E+03  0.00000000000E+00 0. -1.
          1   -1    0    0  501    0 -0.00000000000E+00 -0.00000000000E+00 -0.23705104706E+04  0.23705104706E+04  0.00000000000E+00 0. -1.
         25    2    1    2    0    0 -0.43729308152E+02 -0.11147144713E+03  0.17315098050E+03  0.24483408025E+03  0.12499731553E+03 0.  0.
          2    1    1    2  501    0  0.74959402692E+02  0.70671814813E+02 -0.23322698304E+04  0.23345440624E+04  0.00000000000E+00 0. -1.
          1    1    1    2  502    0 -0.31230094541E+02  0.40799632316E+02  0.52171399262E+03  0.52423794111E+03  0.00000000000E+00 0. -1.
         22    1    3    3    0    0 -0.28743416429E+02 -0.10636055068E+03  0.50557164226E+02  0.12122201773E+03  0.00000000000E+00 0. -1.
         22    1    3    3    0    0 -0.14985891722E+02 -0.51108964533E+01  0.12259381627E+03  0.12361206252E+03  0.00000000000E+00 0. -1.
</event>
<event>
 7    1  0.7527776E-006  0.2220120E+03  0.7818608E-02  0.1322402E+00
          2   -1    0    0  502    0  0.00000000000E+00  0.00000000000E+00  0.13167013739E+04  0.13167013739E+04  0.00000000000E+00 0. -1.
          1   -1    0    0  501    0 -0.00000000000E+00 -0.00000000000E+00 -0.30420460648E+03  0.30420460648E+03  0.00000000000E+00 0. -1.
         25    2    1    2    0    0 -0.99653860311E+02 -0.22272221526E+03  0.40452363488E+02  0.27712329771E+03  0.12499940550E+03 0.  0.
          2    1    1    2  501    0  0.89200564993E+02  0.19398915458E+03 -0.12426755171E+03  0.24704444397E+03  0.00000000000E+00 0. -1.
          1    1    1    2  502    0  0.10453295318E+02  0.28733060682E+02  0.10963119557E+04  0.10967382387E+04  0.00000000000E+00 0. -1.
         22    1    3    3    0    0 -0.49010967490E+02 -0.22774921766E+02 -0.26601888553E+02  0.60236471264E+02  0.00000000000E+00 0. -1.
         22    1    3    3    0    0 -0.50642892822E+02 -0.19994729349E+03  0.67054252041E+02  0.21688682644E+03  0.00000000000E+00 0. -1.
</event>
<event>
 7    1  0.7527776E-006  0.1135413E+03  0.7818608E-02  0.1263052E+00
          2   -1    0    0  502    0  0.00000000000E+00  0.00000000000E+00  0.45795382196E+03  0.45795382196E+03  0.00000000000E+00 0. -1.
          1   -1    0    0  501    0 -0.00000000000E+00 -0.00000000000E+00 -0.22404196667E+03  0.22404196667E+03  0.00000000000E+00 0. -1.
         25    2    1    2    0    0  0.87036383679E+02  0.73767621271E+02 -0.87077081586E+02  0.19032748942E+03  0.12500056423E+03 0.  0.
          2    1    1    2  501    0 -0.11720977025E+03  0.35691058637E+02 -0.27138546100E+02  0.12549295834E+03  0.00000000000E+00 0. -1.
          1    1    1    2  502    0  0.30173386566E+02 -0.10945867991E+03  0.34812748297E+03  0.36617534088E+03  0.00000000000E+00 0. -1.
         22    1    3    3    0    0 -0.25820211718E+02 -0.36462333156E+01  0.33567153239E+01  0.26291555456E+02  0.00000000000E+00 0. -1.
         22    1    3    3    0    0  0.11285659540E+03  0.77413854586E+02 -0.90433796910E+02  0.16403593396E+03  0.00000000000E+00 0. -1.
</event>
<event>
 7    1  0.7527776E-006  0.8405937E+02  0.7818608E-02  0.1347792E+00
          2   -1    0    0  502    0  0.00000000000E+00  0.00000000000E+00  0.75703155116E+03  0.75703155116E+03  0.00000000000E+00 0. -1.
          1   -1    0    0  501    0 -0.00000000000E+00 -0.00000000000E+00 -0.19621606571E+03  0.19621606571E+03  0.00000000000E+00 0. -1.
         25    2    1    2    0    0 -0.81946879101E+02 -0.65757544427E+02  0.57856621201E+03  0.60116871002E+03  0.12500244229E+03 0.  0.
          2    1    1    2  501    0  0.64193032656E+02 -0.80990324817E+01 -0.17001961824E+03  0.18191484369E+03  0.00000000000E+00 0. -1.
          1    1    1    2  502    0  0.17753846445E+02  0.73856576909E+02  0.15226889168E+03  0.17016406315E+03  0.00000000000E+00 0. -1.
         22    1    3    3    0    0  0.15389950160E+02 -0.63788004755E+02  0.21474462234E+03  0.22454623787E+03  0.00000000000E+00 0.  1.
         22    1    3    3    0    0 -0.97336829261E+02 -0.19695396721E+01  0.36382158967E+03  0.37662247214E+03  0.00000000000E+00 0.  1.
</event>
<event>
 7    1  0.7527776E-006  0.4804686E+02  0.7818608E-02  0.1533225E+00
          2   -1    0    0  502    0  0.00000000000E+00  0.00000000000E+00  0.22431330004E+03  0.22431330004E+03  0.00000000000E+00 0. -1.
          1   -1    0    0  501    0 -0.00000000000E+00 -0.00000000000E+00 -0.17005591993E+04  0.17005591993E+04  0.00000000000E+00 0. -1.
         25    2    1    2    0    0 -0.30288770818E+01 -0.49337669577E+02 -0.89499112607E+03  0.90502890331E+03  0.12499928143E+03 0.  0.
          2    1    1    2  501    0  0.27095351752E+02  0.77296255123E+01 -0.79766351906E+03  0.79816100809E+03  0.00000000000E+00 0. -1.
          1    1    1    2  502    0 -0.24066474670E+02  0.41608044065E+02  0.21640874583E+03  0.22168258796E+03  0.00000000000E+00 0. -1.
         22    1    3    3    0    0 -0.11358384310E+01 -0.35386422619E+02 -0.88903841408E+03  0.88974310379E+03  0.00000000000E+00 0.  1.
         22    1    3    3    0    0 -0.18930386508E+01 -0.13951246958E+02 -0.59527119873E+01  0.15285799522E+02  0.00000000000E+00 0.  1.
</event>
<event>
 7    1  0.7527776E-006  0.5264281E+02  0.7818608E-02  0.1500767E+00
          2   -1    0    0  502    0  0.00000000000E+00  0.00000000000E+00  0.14022790509E+02  0.14022790509E+02  0.00000000000E+00 0. -1.
          1   -1    0    0  501    0 -0.00000000000E+00 -0.00000000000E+00 -0.16517706831E+04  0.16517706831E+04  0.00000000000E+00 0. -1.
         25    2    1    2    0    0  0.29466162814E+02  0.22402295905E+02 -0.10182085599E+04  0.10265202625E+04  0.12500024129E+03 0.  0.
          2    1    1    2  501    0 -0.24828738045E+02 -0.54042947880E+02 -0.59745988737E+03  0.60041271095E+03  0.00000000000E+00 0. -1.
          1    1    1    2  502    0 -0.46374247697E+01  0.31640651975E+02 -0.22079445353E+02  0.38860500164E+02  0.00000000000E+00 0. -1.
         22    1    3    3    0    0  0.32605222504E+01  0.48769667309E+02 -0.15527820488E+03  0.16278953395E+03  0.00000000000E+00 0.  1.
         22    1    3    3    0    0  0.26205640564E+02 -0.26367371404E+02 -0.86293035499E+03  0.86373072854E+03  0.00000000000E+00 0.  1.
</event>
<event>
 7    1  0.7527776E-006  0.7536460E+02  0.7818608E-02  0.1496805E+00
          2   -1    0    0  502    0  0.00000000000E+00  0.00000000000E+00  0.29768862383E+03  0.29768862383E+03  0.00000000000E+00 0. -1.
          1   -1    0    0  501    0 -0.00000000000E+00 -0.00000000000E+00 -0.42732624072E+03  0.42732624072E+03  0.00000000000E+00 0. -1.
         25    2    1    2    0    0  0.10773838440E+02  0.91036496880E+02 -0.67236027870E+02  0.16896672404E+03  0.12500140411E+03 0.  0.
          2    1    1    2  501    0  0.45192491730E+01 -0.73917917989E+02 -0.30423967692E+03  0.31312308000E+03  0.00000000000E+00 0. -1.
          1    1    1    2  502    0 -0.15293087613E+02 -0.17118578891E+02  0.24183808789E+03  0.24292506052E+03  0.00000000000E+00 0. -1.
         22    1    3    3    0    0  0.43756930450E+02  0.10553090365E+03 -0.67966602878E+02  0.13293193632E+03  0.00000000000E+00 0.  1.
         22    1    3    3    0    0 -0.32983092010E+02 -0.14494406766E+02  0.73057500860E+00  0.36034787718E+02  0.00000000000E+00 0.  1.
</event>
<event>
 7    1  0.7527776E-006  0.1222619E+03  0.7818608E-02  0.1274378E+00
          2   -1    0    0  502    0  0.00000000000E+00  0.00000000000E+00  0.72828041597E+03  0.72828041597E+03  0.00000000000E+00 0. -1.
          1   -1    0    0  501    0 -0.00000000000E+00 -0.00000000000E+00 -0.36815621705E+03  0.36815621705E+03  0.00000000000E+00 0. -1.
         25    2    1    2    0    0  0.60392304100E+02  0.29995137728E+02  0.19259626663E+03  0.23929937677E+03  0.12499572440E+03 0.  0.
          2    1    1    2  501    0  0.48867776227E+02  0.71434264260E+02 -0.32822958572E+03  0.33944892783E+03  0.00000000000E+00 0. -1.
          1    1    1    2  502    0 -0.10926008033E+03 -0.10142940199E+03  0.49575751800E+03  0.51768832843E+03  0.00000000000E+00 0. -1.
         22    1    3    3    0    0  0.44341394516E+02  0.37239434662E+02  0.13653856018E+02  0.59492541934E+02  0.00000000000E+00 0.  1.
         22    1    3    3    0    0  0.16050909584E+02 -0.72442969344E+01  0.17894241062E+03  0.17980683484E+03  0.00000000000E+00 0.  1.
</event>
<event>
 7    1  0.7527776E-006  0.6370988E+02  0.7818608E-02  0.1424077E+00
          2   -1    0    0  502    0  0.00000000000E+00  0.00000000000E+00  0.13650582514E+04  0.13650582514E+04  0.00000000000E+00 0. -1.
          1   -1    0    0  501    0 -0.00000000000E+00 -0.00000000000E+00 -0.30058757562E+02  0.30058757562E+02  0.00000000000E+00 0. -1.
         25    2    1    2    0    0  0.47929225066E+02  0.45955389700E+02  0.52135582815E+03  0.54022839544E+03  0.12500284491E+03 0.  0.
          2    1    1    2  501    0 -0.64856632125E+02 -0.31246655434E+01  0.32906188918E+02  0.72793980070E+02  0.00000000000E+00 0. -1.
          1    1    1    2  502    0  0.16927407059E+02 -0.42830724156E+02  0.78073747681E+03  0.78209463350E+03  0.00000000000E+00 0. -1.
         22    1    3    3    0    0  0.65565077919E+02 -0.47478172368E+01  0.42388645485E+03  0.42895343316E+03  0.00000000000E+00 0. -1.
         22    1    3    3    0    0 -0.17635852852E+02  0.50703206936E+02  0.97469373297E+02  0.11127496228E+03  0.00000000000E+00 0. -1.
</event>
<event>
 7    1  0.7527776E-006  0.1637732E+03  0.7818608E-02  0.1257148E+00
          2   -1    0    0  502    0  0.00000000000E+00  0.00000000000E+00  0.50837493834E+03  0.50837493834E+03  0.00000000000E+00 0. -1.
          1   -1    0    0  501    0 -0.00000000000E+00 -0.00000000000E+00 -0.12256960353E+04  0.12256960353E+04  0.00000000000E+00 0. -1.
         25    2    1    2    0    0 -0.47667376622E+02 -0.10109425639E+03 -0.17888266333E+02  0.16863099589E+03  0.12499678089E+03 0.  0.
          2    1    1    2  501    0 -0.71806428301E+02 -0.26133680853E+02 -0.11134865938E+04  0.11161055178E+04  0.00000000000E+00 0. -1.
          1    1    1    2  502    0  0.11947380492E+03  0.12722793724E+03  0.41405376316E+03  0.44933445991E+03  0.00000000000E+00 0. -1.
         22    1    3    3    0    0 -0.80636017293E+02 -0.10347253721E+03 -0.27854904177E+02  0.13410678181E+03  0.00000000000E+00 0. -1.
         22    1    3    3    0    0  0.32968640671E+02  0.23782808246E+01  0.99666378449E+01  0.34524214072E+02  0.00000000000E+00 0. -1.
</event>
<event>
 7    1  0.7527776E-006  0.1368674E+03  0.7818608E-02  0.1339980E+00
          2   -1    0    0  502    0  0.00000000000E+00  0.00000000000E+00  0.28280073162E+04  0.28280073162E+04  0.00000000000E+00 0. -1.
          1   -1    0    0  501    0 -0.00000000000E+00 -0.00000000000E+00 -0.22558088123E+03  0.22558088123E+03  0.00000000000E+00 0. -1.
         25    2    1    2    0    0 -0.71220385511E+02 -0.78764161035E+02  0.82212692458E+03  0.83832876276E+03  0.12500519182E+03 0.  0.
          2    1    1    2  501    0 -0.17643241269E+02 -0.38667835591E+02 -0.21266033159E+03  0.21686609256E+03  0.00000000000E+00 0. -1.
          1    1    1    2  502    0  0.88863626780E+02  0.11743199663E+03  0.19929598420E+04  0.19983933421E+04  0.00000000000E+00 0. -1.
         22    1    3    3    0    0 -0.44468630394E+02 -0.76941341699E+01  0.76310706635E+02  0.88656543678E+02  0.00000000000E+00 0.  1.
         22    1    3    3    0    0 -0.26751755117E+02 -0.71070026865E+02  0.74581621794E+03  0.74967221908E+03  0.00000000000E+00 0.  1.
</event>
<event>
 7    1  0.7527776E-006  0.6022290E+02  0.7818608E-02  0.1430305E+00
          2   -1    0    0  502    0  0.00000000000E+00  0.00000000000E+00  0.52099534391E+03  0.52099534391E+03  0.00000000000E+00 0. -1.
          1   -1    0    0  501    0 -0.00000000000E+00 -0.00000000000E+00 -0.18284220048E+03  0.18284220048E+03  0.00000000000E+00 0. -1.
         25    2    1    2    0    0 -0.32196888952E+02 -0.83714021873E+00  0.13750652998E+03  0.18860329215E+03  0.12500326220E+03 0.  0.
          2    1    1    2  501    0  0.40406207130E+02  0.46571603693E+02 -0.14965804439E+03  0.16186137926E+03  0.00000000000E+00 0. -1.
          1    1    1    2  502    0 -0.82093181783E+01 -0.45734463475E+02  0.35030465784E+03  0.35337287298E+03  0.00000000000E+00 0. -1.
         22    1    3    3    0    0 -0.59502729475E+01  0.47260413523E+02  0.12303149691E+03  0.13193066993E+03  0.00000000000E+00 0.  1.
         22    1    3    3    0    0 -0.26246616005E+02 -0.48097553742E+02  0.14475033071E+02  0.56672622227E+02  0.00000000000E+00 0.  1.
</event>
<event>
 7    1  0.7527776E-006  0.6776818E+02  0.7818608E-02  0.1408869E+00
          2   -1    0    0  502    0  0.00000000000E+00  0.00000000000E+00  0.38457174243E+04  0.38457174243E+04  0.00000000000E+00 0. -1.
          1   -1    0    0  501    0 -0.00000000000E+00 -0.00000000000E+00 -0.60126779869E+02  0.60126779869E+02  0.00000000000E+00 0. -1.
         25    2    1    2    0    0  0.65072056794E+02 -0.27012385793E+02  0.20021366264E+04  0.20072717598E+04  0.12499922073E+03 0.  0.
          2    1    1    2  501    0  0.21832272225E+01  0.48648909333E+02 -0.46453911981E+02  0.67301179772E+02  0.00000000000E+00 0. -1.
          1    1    1    2  502    0 -0.67255284016E+02 -0.21636523540E+02  0.18299079299E+04  0.18312712646E+04  0.00000000000E+00 0. -1.
         22    1    3    3    0    0 -0.29962613389E+02 -0.25664752116E+02  0.95991697724E+03  0.96072734993E+03  0.00000000000E+00 0.  1.
         22    1    3    3    0    0  0.95034670183E+02 -0.13476336772E+01  0.10422196492E+04  0.10465444098E+04  0.00000000000E+00 0.  1.
</event>
<event>
 7    1  0.7527776E-006  0.9765908E+02  0.7818608E-02  0.1417922E+00
          2   -1    0    0  502    0  0.00000000000E+00  0.00000000000E+00  0.64690528202E+03  0.64690528202E+03  0.00000000000E+00 0. -1.
          1   -1    0    0  501    0 -0.00000000000E+00 -0.00000000000E+00 -0.19072878691E+03  0.19072878691E+03  0.00000000000E+00 0. -1.
         25    2    1    2    0    0  0.28634675606E+01 -0.74113977004E+02  0.46494191983E+03  0.48712669589E+03  0.12498139061E+03 0.  0.
          2    1    1    2  501    0  0.19325474480E+02  0.96470719865E+02 -0.16446823688E+03  0.19165039707E+03  0.00000000000E+00 0. -1.
          1    1    1    2  502    0 -0.22188942041E+02 -0.22356742862E+02  0.15570281216E+03  0.15885697597E+03  0.00000000000E+00 0. -1.
         22    1    3    3    0    0 -0.41746019875E+02  0.97971162532E+01  0.22502176703E+03  0.22907097001E+03  0.00000000000E+00 0. -1.
         22    1    3    3    0    0  0.44609487436E+02 -0.83911093257E+02  0.23992015280E+03  0.25805572589E+03  0.00000000000E+00 0. -1.
</event>
<event>
 7    1  0.7527776E-006  0.4057733E+02  0.7818608E-02  0.1556419E+00
          2   -1    0    0  502    0  0.00000000000E+00  0.00000000000E+00  0.11344393667E+04  0.11344393667E+04  0.00000000000E+00 0. -1.
          1   -1    0    0  501    0 -0.00000000000E+00 -0.00000000000E+00 -0.28912944318E+03  0.28912944318E+03  0.00000000000E+00 0. -1.
         25    2    1    2    0    0 -0.36856418257E+02 -0.34171716137E+02  0.71214437819E+03  0.72477688533E+03  0.12500326542E+03 0.  0.
          2    1    1    2  501    0  0.86663592192E+01  0.39639609075E+02 -0.28085793682E+03  0.28377382730E+03  0.00000000000E+00 0. -1.
          1    1    1    2  502    0  0.28190059038E+02 -0.54678929373E+01  0.41402348212E+03  0.41501809723E+03  0.00000000000E+00 0. -1.
         22    1    3    3    0    0 -0.88489920609E+01 -0.80287289742E+02  0.42852634706E+03  0.43607245232E+03  0.00000000000E+00 0.  1.
         22    1    3    3    0    0 -0.28007426196E+02  0.46115573605E+02  0.28361803114E+03  0.28870443301E+03  0.00000000000E+00 0.  1.
</event>
<event>
 7    1  0.7527776E-006  0.1776444E+03  0.7818608E-02  0.1228160E+00
          2   -1    0    0  502    0  0.00000000000E+00  0.00000000000E+00  0.13467061226E+04  0.13467061226E+04  0.00000000000E+00 0. -1.
          1   -1    0    0  501    0 -0.00000000000E+00 -0.00000000000E+00 -0.10121115861E+04  0.10121115861E+04  0.00000000000E+00 0. -1.
         25    2    1    2    0    0 -0.11922322305E+03  0.12667521126E+03  0.45262976850E+03  0.50075582960E+03  0.12498762932E+03 0.  0.
          2    1    1    2  501    0 -0.59339840249E+02 -0.73472179377E+02 -0.97576693349E+03  0.98032672425E+03  0.00000000000E+00 0. -1.
          1    1    1    2  502    0  0.17856306330E+03 -0.53203031882E+02  0.85773170149E+03  0.87773515477E+03  0.00000000000E+00 0. -1.
         22    1    3    3    0    0 -0.57234733030E+02  0.48141303061E+02  0.60890871664E+02  0.96442200189E+02  0.00000000000E+00 0.  1.
         22    1    3    3    0    0 -0.61988490023E+02  0.78533908198E+02  0.39173889684E+03  0.40431362941E+03  0.00000000000E+00 0.  1.
</event>
<event>
 7    1  0.7527776E-006  0.1571336E+03  0.7818608E-02  0.1362294E+00
          2   -1    0    0  502    0  0.00000000000E+00  0.00000000000E+00  0.84381588229E+03  0.84381588229E+03  0.00000000000E+00 0. -1.
          1   -1    0    0  501    0 -0.00000000000E+00 -0.00000000000E+00 -0.15141275824E+04  0.15141275824E+04  0.00000000000E+00 0. -1.
         25    2    1    2    0    0 -0.92784164990E+02 -0.93308087244E+02 -0.14448134277E+03  0.23197824630E+03  0.12499499161E+03 0.  0.
          2    1    1    2  501    0 -0.64562426698E+01 -0.29924606258E+02 -0.13178955325E+04  0.13182510382E+04  0.00000000000E+00 0. -1.
          1    1    1    2  502    0  0.99240407660E+02  0.12323269350E+03  0.79206517514E+03  0.80771418022E+03  0.00000000000E+00 0. -1.
         22    1    3    3    0    0 -0.52545701716E+02 -0.11814125152E+03 -0.80105517885E+02  0.15210292593E+03  0.00000000000E+00 0. -1.
         22    1    3    3    0    0 -0.40238463273E+02  0.24833164275E+02 -0.64375824888E+02  0.79875320372E+02  0.00000000000E+00 0. -1.
</event>
<event>
 7    1  0.7527776E-006  0.6984568E+02  0.7818608E-02  0.1509541E+00
          2   -1    0    0  502    0  0.00000000000E+00  0.00000000000E+00  0.11648342439E+03  0.11648342439E+03  0.00000000000E+00 0. -1.
          1   -1    0    0  501    0 -0.00000000000E+00 -0.00000000000E+00 -0.18731092533E+04  0.18731092533E+04  0.00000000000E+00 0. -1.
         25    2    1    2    0    0  0.25045837048E+02 -0.66151017286E+02 -0.10390439851E+04  0.10489232491E+04  0.12499731444E+03 0.  0.
          2    1    1    2  501    0 -0.27408391446E+01  0.70377325139E+02 -0.82645700851E+03  0.82945263096E+03  0.00000000000E+00 0. -1.
          1    1    1    2  502    0 -0.22304997903E+02 -0.42263078539E+01  0.10887516461E+03  0.11121679765E+03  0.00000000000E+00 0. -1.
         22    1    3    3    0    0 -0.12493427464E+02  0.29369546185E+02 -0.12020010072E+03  0.12436526921E+03  0.00000000000E+00 0. -1.
         22    1    3    3    0    0  0.37539264512E+02 -0.95520563471E+02 -0.91884388434E+03  0.92455797991E+03  0.00000000000E+00 0. -1.
</event>
<event>
 7    1  0.7527776E-006  0.7571475E+02  0.7818608E-02  0.1380125E+00
          2   -1    0    0  502    0  0.00000000000E+00  0.00000000000E+00  0.34254224348E+03  0.34254224348E+03  0.00000000000E+00 0. -1.
          1   -1    0    0  501    0 -0.00000000000E+00 -0.00000000000E+00 -0.66750928105E+03  0.66750928105E+03  0.00000000000E+00 0. -1.
         25    2    1    2    0    0  0.29753750448E+02 -0.34083070108E+02 -0.26250196404E+01  0.13296700386E+03  0.12500556809E+03 0.  0.
          2    1    1    2  501    0  0.40350259880E+01  0.77262907616E+02 -0.59447231115E+03  0.59948575217E+03  0.00000000000E+00 0. -1.
          1    1    1    2  502    0 -0.33788776436E+02 -0.43179837508E+02  0.27213029322E+03  0.27759876850E+03  0.00000000000E+00 0. -1.
         22    1    3    3    0    0 -0.14336042821E+02  0.14898329355E+02 -0.48464373623E+02  0.52690396203E+02  0.00000000000E+00 0. -1.
         22    1    3    3    0    0  0.44089793270E+02 -0.48981399463E+02  0.45839353983E+02  0.80276607660E+02  0.00000000000E+00 0. -1.
</event>
<event>
 7    1  0.7527776E-006  0.8072456E+02  0.7818608E-02  0.1338973E+00
          2   -1    0    0  502    0  0.00000000000E+00  0.00000000000E+00  0.34091555522E+03  0.34091555522E+03  0.00000000000E+00 0. -1.
          1   -1    0    0  501    0 -0.00000000000E+00 -0.00000000000E+00 -0.12893209991E+04  0.12893209991E+04  0.00000000000E+00 0. -1.
         25    2    1    2    0    0 -0.11336184059E+03 -0.95499640285E+02  0.54548716160E+02  0.20142421694E+03  0.12500025816E+03 0.  0.
          2    1    1    2  501    0  0.71472729697E+02  0.36086898038E+02 -0.12083148841E+04  0.12109646875E+04  0.00000000000E+00 0. -1.
          1    1    1    2  502    0  0.41889110892E+02  0.59412742247E+02  0.20536072407E+03  0.21784764984E+03  0.00000000000E+00 0. -1.
         22    1    3    3    0    0 -0.94982694619E+02 -0.24233454604E+01  0.69170168192E+01  0.95265051314E+02  0.00000000000E+00 0.  1.
         22    1    3    3    0    0 -0.18379145970E+02 -0.93076294825E+02  0.47631699341E+02  0.10615916563E+03  0.00000000000E+00 0.  1.
</event>
<event>
 7    1  0.7527776E-006  0.9298220E+02  0.7818608E-02  0.1390064E+00
          2   -1    0    0  502    0  0.00000000000E+00  0.00000000000E+00  0.89904880011E+03  0.89904880011E+03  0.00000000000E+00 0. -1.
          1   -1    0    0  501    0 -0.00000000000E+00 -0.00000000000E+00 -0.14585847346E+03  0.14585847346E+03  0.00000000000E+00 0. -1.
         25    2    1    2    0    0 -0.10408477104E+03  0.60473369290E+02  0.40606708257E+03  0.44159332180E+03  0.12499407330E+03 0.  0.
          2    1    1    2  501    0  0.41195435044E+02  0.14766762729E+00 -0.12063222507E+03  0.12747242603E+03  0.00000000000E+00 0. -1.
          1    1    1    2  502    0  0.62889335999E+02 -0.60621036917E+02  0.46775546915E+03  0.47584152574E+03  0.00000000000E+00 0. -1.
         22    1    3    3    0    0 -0.96435207452E+02 -0.21450748058E+01  0.15369730828E+03  0.18145857146E+03  0.00000000000E+00 0. -1.
         22    1    3    3    0    0 -0.76495635920E+01  0.62618444096E+02  0.25236977429E+03  0.26013475035E+03  0.00000000000E+00 0. -1.
</event>
<event>
 7    1  0.7527776E-006  0.8487030E+02  0.7818608E-02  0.1317984E+00
          2   -1    0    0  502    0  0.00000000000E+00  0.00000000000E+00  0.14736814112E+04  0.14736814112E+04  0.00000000000E+00 0. -1.
          1   -1    0    0  501    0 -0.00000000000E+00 -0.00000000000E+00 -0.17926398252E+04  0.17926398252E+04  0.00000000000E+00 0. -1.
         25    2    1    2    0    0  0.11995741273E+03  0.10998348542E+03 -0.32457887756E+02  0.20776043225E+03  0.12499893918E+03 0.  0.
          2    1    1    2  501    0 -0.73206179864E+02 -0.41158808832E+02 -0.16702260337E+04  0.16723361492E+04  0.00000000000E+00 0. -1.
          1    1    1    2  502    0 -0.46751232865E+02 -0.68824676593E+02  0.13837255075E+04  0.13862246549E+04  0.00000000000E+00 0. -1.
         22    1    3    3    0    0 -0.13676280802E+02  0.38850672547E+02 -0.38325122880E+02  0.56260380888E+02  0.00000000000E+00 0.  1.
         22    1    3    3    0    0  0.13363369353E+03  0.71132812878E+02  0.58672351234E+01  0.15150005136E+03  0.00000000000E+00 0.  1.
</event>
<event>
 7    1  0.7527776E-006  0.2255560E+03  0.7818608E-02  0.1299124E+00
          2   -1    0    0  502    0  0.00000000000E+00  0.00000000000E+00  0.61024988437E+02  0.61024988437E+02  0.00000000000E+00 0. -1.
          1   -1    0    0  501    0 -0.00000000000E+00 -0.00000000000E+00 -0.14666178269E+04  0.14666178269E+04  0.00000000000E+00 0. -1.
         25    2    1    2    0    0  0.20869591047E+03 -0.14063595450E+03 -0.57042605843E+03  0.63588042056E+03  0.12500226546E+03 0.  0.
          2    1    1    2  501    0 -0.17636539351E+03  0.12230733859E+03 -0.82607648506E+03  0.85350231181E+03  0.00000000000E+00 0. -1.
          1    1    1    2  502    0 -0.32330516958E+02  0.18328615917E+02 -0.90902950159E+01  0.38260083006E+02  0.00000000000E+00 0. -1.
         22    1    3    3    0    0  0.58502001071E+02 -0.74821188650E+02 -0.34030930709E+03  0.35331447592E+03  0.00000000000E+00 0. -1.
         22    1    3    3    0    0  0.15019390940E+03 -0.65814765853E+02 -0.23011675133E+03  0.28256594464E+03  0.00000000000E+00 0. -1.
</event>
<event>
 7    1  0.7527776E-006  0.2153629E+03  0.7818608E-02  0.1297628E+00
          2   -1    0    0  502    0  0.00000000000E+00  0.00000000000E+00  0.89649861687E+03  0.89649861687E+03  0.00000000000E+00 0. -1.
          1   -1    0    0  501    0 -0.00000000000E+00 -0.00000000000E+00 -0.31387612148E+03  0.31387612148E+03  0.00000000000E+00 0. -1.
         25    2    1    2    0    0 -0.14704635551E+03  0.14208045233E+03  0.35854684584E+03  0.43126600834E+03  0.12500017474E+03 0.  0.
          2    1    1    2  501    0  0.12902273308E+02  0.37296836950E+02 -0.25089110199E+03  0.25397611652E+03  0.00000000000E+00 0. -1.
          1    1    1    2  502    0  0.13414408220E+03 -0.17937728928E+03  0.47496675154E+03  0.52513261351E+03  0.00000000000E+00 0. -1.
         22    1    3    3    0    0 -0.97526203676E+02  0.41026184430E+02  0.26355197075E+03  0.28399674206E+03  0.00000000000E+00 0.  1.
         22    1    3    3    0    0 -0.49520151831E+02  0.10105426790E+03  0.94994875088E+02  0.14726926628E+03  0.00000000000E+00 0.  1.
</event>
<event>
 7    1  0.7527776E-006  0.9482233E+02  0.7818608E-02  0.1470763E+00
          2   -1    0    0  502    0  0.00000000000E+00  0.00000000000E+00  0.95578412176E+03  0.95578412176E+03  0.00000000000E+00 0. -1.
          1   -1    0    0  501    0 -0.00000000000E+00 -0.00000000000E+00 -0.43720705612E+03  0.43720705612E+03  0.00000000000E+00 0. -1.
         25    2    1    2    0    0  0.93857920875E+01  0.10464888854E+03 -0.32929475905E+02  0.16657863840E+03  0.12499843768E+03 0.  0.
          2    1    1    2  501    0  0.94778336088E+01 -0.93507263818E+02 -0.33077017934E+03  0.34386385279E+03  0.00000000000E+00 0. -1.
          1    1    1    2  502    0 -0.18863625696E+02 -0.11141624721E+02  0.88227672088E+03  0.88254868669E+03  0.00000000000E+00 0. -1.
         22    1    3    3    0    0 -0.31761335467E+02 -0.13536342321E+02 -0.22044038825E+02  0.40962844650E+02  0.00000000000E+00 0. -1.
         22    1    3    3    0    0  0.41147127554E+02  0.11818523086E+03 -0.10885437081E+02  0.12561579375E+03  0.00000000000E+00 0. -1.
</event>
<event>
 7    1  0.7527776E-006  0.4154213E+02  0.7818608E-02  0.1599733E+00
          2   -1    0    0  502    0  0.00000000000E+00  0.00000000000E+00  0.73544811070E+03  0.73544811070E+03  0.00000000000E+00 0. -1.
          1   -1    0    0  501    0 -0.00000000000E+00 -0.00000000000E+00 -0.18211538338E+04  0.18211538338E+04  0.00000000000E+00 0. -1.
         25    2    1    2    0    0  0.24199225837E+02 -0.39348571472E+02 -0.53581760485E+02  0.14362268222E+03  0.12499022835E+03 0.  0.
          2    1    1    2  501    0 -0.28510231895E+01  0.41447497633E+02 -0.17221344056E+04  0.17226354618E+04  0.00000000000E+00 0. -1.
          1    1    1    2  502    0 -0.21348202647E+02 -0.20989261613E+01  0.69001044304E+03  0.69034380040E+03  0.00000000000E+00 0. -1.
         22    1    3    3    0    0  0.43758820672E+02  0.93997046597E+00 -0.80313633948E+02  0.91465828204E+02  0.00000000000E+00 0. -1.
         22    1    3    3    0    0 -0.19559594835E+02 -0.40288541938E+02  0.26731873464E+02  0.52156854013E+02  0.00000000000E+00 0. -1.
</event>
<event>
 7    1  0.7527776E-006  0.4434245E+02  0.7818608E-02  0.1489975E+00
          2   -1    0    0  502    0  0.00000000000E+00  0.00000000000E+00  0.56821833525E+03  0.56821833525E+03  0.00000000000E+00 0. -1.
          1   -1    0    0  501    0 -0.00000000000E+00 -0.00000000000E+00 -0.29313249370E+03  0.29313249370E+03  0.00000000000E+00 0. -1.
         25    2    1    2    0    0  0.64647313460E+01 -0.34048562245E+02  0.30058570828E+03  0.32736893753E+03  0.12497022004E+03 0.  0.
          2    1    1    2  501    0  0.37123099843E+02  0.24251350337E+02 -0.27599481961E+03  0.27953424296E+03  0.00000000000E+00 0. -1.
          1    1    1    2  502    0 -0.43587831189E+02  0.97972119075E+01  0.25049495288E+03  0.25444764846E+03  0.00000000000E+00 0. -1.
         22    1    3    3    0    0 -0.51839417481E+02 -0.45575753209E+02  0.13888592975E+03  0.15509279793E+03  0.00000000000E+00 0.  1.
         22    1    3    3    0    0  0.58304148827E+02  0.11527190964E+02  0.16169977853E+03  0.17227613961E+03  0.00000000000E+00 0.  1.
</event>
<event>
 7    1  0.7527776E-006  0.1701591E+03  0.7818608E-02  0.1247162E+00
          2   -1    0    0  502    0  0.00000000000E+00  0.00000000000E+00  0.44592342682E+03  0.44592342682E+03  0.00000000000E+00 0. -1.
          1   -1    0    0  501    0 -0.00000000000E+00 -0.00000000000E+00 -0.35055008943E+03  0.35055008943E+03  0.00000000000E+00 0. -1.
         25    2    1    2    0    0  0.29656289168E+02  0.14035568546E+03  0.42111994803E+02  0.19487842516E+03  0.12499986623E+03 0.  0.
          2    1    1    2  501    0  0.81054079589E+02  0.53858322669E+01 -0.24141014422E+03  0.25471087283E+03  0.00000000000E+00 0. -1.
          1    1    1    2  502    0 -0.11071036876E+03 -0.14574151773E+03  0.29467148681E+03  0.34688421826E+03  0.00000000000E+00 0. -1.
         22    1    3    3    0    0  0.23806228852E+02  0.15092866785E+03  0.18114874642E+01  0.15280536901E+03  0.00000000000E+00 0. -1.
         22    1    3    3    0    0  0.58500603154E+01 -0.10572982384E+02  0.40300507339E+02  0.42073056152E+02  0.00000000000E+00 0. -1.
</event>
<event>
 7    1  0.7527776E-006  0.9786085E+02  0.7818608E-02  0.1333471E+00
          2   -1    0    0  502    0  0.00000000000E+00  0.00000000000E+00  0.49822969821E+03  0.49822969821E+03  0.00000000000E+00 0. -1.
          1   -1    0    0  501    0 -0.00000000000E+00 -0.00000000000E+00 -0.82233528294E+02  0.82233528294E+02  0.00000000000E+00 0. -1.
         25    2    1    2    0    0  0.72972906995E+02 -0.74585223413E+02  0.12733402453E+03  0.20670413682E+03  0.12499858267E+03 0.  0.
          2    1    1    2  501    0  0.25486046161E+02  0.57516104385E+02 -0.54396867648E+01  0.63144524740E+02  0.00000000000E+00 0. -1.
          1    1    1    2  502    0 -0.98458953156E+02  0.17069119028E+02  0.29410183215E+03  0.31061456495E+03  0.00000000000E+00 0. -1.
         22    1    3    3    0    0  0.78330621658E+02 -0.64843263981E+01  0.22817369193E+02  0.81843540460E+02  0.00000000000E+00 0.  1.
         22    1    3    3    0    0 -0.53577146627E+01 -0.68100897015E+02  0.10451665533E+03  0.12486059636E+03  0.00000000000E+00 0.  1.
</event>
<event>
 7    1  0.7527776E-006  0.1506946E+03  0.7818608E-02  0.1313038E+00
          2   -1    0    0  502    0  0.00000000000E+00  0.00000000000E+00  0.15674947852E+04  0.15674947852E+04  0.00000000000E+00 0. -1.
          1   -1    0    0  501    0 -0.00000000000E+00 -0.00000000000E+00 -0.27023253177E+03  0.27023253177E+03  0.00000000000E+00 0. -1.
         25    2    1    2    0    0  0.18318049962E+03  0.42881327034E+02  0.18737955045E+03  0.29348008873E+03  0.12500225160E+03 0.  0.
          2    1    1    2  501    0 -0.46794762917E+02  0.14502872942E+02 -0.21023262089E+03  0.21586532387E+03  0.00000000000E+00 0. -1.
          1    1    1    2  502    0 -0.13638573670E+03 -0.57384199976E+02  0.13201153239E+04  0.13283819044E+04  0.00000000000E+00 0. -1.
         22    1    3    3    0    0  0.13069675470E+03  0.57164126987E+02  0.19165896712E+03  0.23891952365E+03  0.00000000000E+00 0.  1.
         22    1    3    3    0    0  0.52483744912E+02 -0.14282799954E+02 -0.42794166662E+01  0.54560565077E+02  0.00000000000E+00 0.  1.
</event>
<event>
 7    1  0.7527776E-006  0.4507367E+02  0.7818608E-02  0.1593980E+00
          2   -1    0    0  502    0  0.00000000000E+00  0.00000000000E+00  0.29941891276E+02  0.29941891276E+02  0.00000000000E+00 0. -1.
          1   -1    0    0  501    0 -0.00000000000E+00 -0.00000000000E+00 -0.18862931051E+04  0.18862931051E+04  0.00000000000E+00 0. -1.
         25    2    1    2    0    0 -0.16742963812E+02  0.59523236218E+02 -0.77017390020E+03  0.78269833200E+03  0.12500199949E+03 0.  0.
          2    1    1    2  501    0  0.19773513592E+02 -0.39279216805E+02 -0.11049126857E+04  0.11057874533E+04  0.00000000000E+00 0. -1.
          1    1    1    2  502    0 -0.30305497797E+01 -0.20244019413E+02  0.18735372056E+02  0.27749211161E+02  0.00000000000E+00 0. -1.
         22    1    3    3    0    0  0.52570869419E+01 -0.12538514289E+02 -0.54661757325E+03  0.54678663360E+03  0.00000000000E+00 0.  1.
         22    1    3    3    0    0 -0.22000050754E+02  0.72061750507E+02 -0.22355632695E+03  0.23591169840E+03  0.00000000000E+00 0.  1.
</event>
<event>
 7    1  0.7527776E-006  0.5078671E+02  0.7818608E-02  0.1561164E+00
          2   -1    0    0  502    0  0.00000000000E+00  0.00000000000E+00  0.14498026187E+04  0.14498026187E+04  0.00000000000E+00 0. -1.
          1   -1    0    0  501    0 -0.00000000000E+00 -0.00000000000E+00 -0.18815677124E+03  0.18815677124E+03  0.00000000000E+00 0. -1.
         25    2    1    2    0    0  0.58420081395E+02 -0.23256766252E+02  0.15381446968E+03  0.20793642651E+03  0.12499953320E+03 0.  0.
          2    1    1    2  501    0 -0.38384178861E+02  0.32960528365E+02 -0.15702303711E+03  0.16497265168E+03  0.00000000000E+00 0. -1.
          1    1    1    2  502    0 -0.20035902534E+02 -0.97037621129E+01  0.12648544149E+04  0.12650503118E+04  0.00000000000E+00 0. -1.
         22    1    3    3    0    0  0.79370072015E+02  0.10670738627E+02  0.14711904013E+03  0.16750368642E+03  0.00000000000E+00 0.  1.
         22    1    3    3    0    0 -0.20949990620E+02 -0.33927504879E+02  0.66954295450E+01  0.40432740089E+02  0.00000000000E+00 0.  1.
</event>
<event>
 7    1  0.7527776E-006  0.1703225E+03  0.7818608E-02  0.1205417E+00
          2   -1    0    0  502    0  0.00000000000E+00  0.00000000000E+00  0.72924955123E+03  0.72924955123E+03  0.00000000000E+00 0. -1.
          1   -1    0    0  501    0 -0.00000000000E+00 -0.00000000000E+00 -0.15674090055E+04  0.15674090055E+04  0.00000000000E+00 0. -1.
         25    2    1    2    0    0  0.68913690820E+02  0.27526558617E+03 -0.14343608987E+03  0.34164185207E+03  0.12500001398E+03 0.  0.
          2    1    1    2  501    0  0.77499983440E+00 -0.12522781273E+03 -0.13109768055E+04  0.13169444902E+04  0.00000000000E+00 0. -1.
          1    1    1    2  502    0 -0.69688690654E+02 -0.15003777345E+03  0.61625344115E+03  0.63807221440E+03  0.00000000000E+00 0. -1.
         22    1    3    3    0    0  0.17707805454E+02  0.24042095199E+03 -0.82615331356E+02  0.25483542435E+03  0.00000000000E+00 0.  1.
         22    1    3    3    0    0  0.51205885366E+02  0.34844634187E+02 -0.60820758511E+02  0.86806427720E+02  0.00000000000E+00 0.  1.
</event>
<event>
 7    1  0.7527776E-006  0.1386300E+03  0.7818608E-02  0.1303761E+00
          2   -1    0    0  502    0  0.00000000000E+00  0.00000000000E+00  0.95180734753E+03  0.95180734753E+03  0.00000000000E+00 0. -1.
          1   -1    0    0  501    0 -0.00000000000E+00 -0.00000000000E+00 -0.20662815563E+04  0.20662815563E+04  0.00000000000E+00 0. -1.
         25    2    1    2    0    0 -0.59962378530E+01  0.10088915913E+03 -0.67108866200E+02  0.17419363504E+03  0.12500098107E+03 0.  0.
          2    1    1    2  501    0 -0.41166968335E+02 -0.13455081331E+03 -0.19421480032E+04  0.19472384310E+04  0.00000000000E+00 0. -1.
          1    1    1    2  502    0  0.47163206188E+02  0.33661654172E+02  0.89478266066E+03  0.89665683781E+03  0.00000000000E+00 0. -1.
         22    1    3    3    0    0 -0.44361854772E+02  0.81498959635E+02 -0.86664193208E+02  0.12696746420E+03  0.00000000000E+00 0. -1.
         22    1    3    3    0    0  0.38365616919E+02  0.19390199498E+02  0.19555327008E+02  0.47226170844E+02  0.00000000000E+00 0. -1.
</event>
<event>
 7    1  0.7527776E-006  0.4839650E+02  0.7818608E-02  0.1455997E+00
          2   -1    0    0  502    0  0.00000000000E+00  0.00000000000E+00  0.81196198208E+03  0.81196198208E+03  0.00000000000E+00 0. -1.
          1   -1    0    0  501    0 -0.00000000000E+00 -0.00000000000E+00 -0.40845274977E+03  0.40845274977E+03  0.00000000000E+00 0. -1.
         25    2    1    2    0    0  0.48758067852E+01  0.28868325011E+02 -0.71823398884E+02  0.14710479761E+03  0.12499626864E+03 0.  0.
          2    1    1    2  501    0  0.43085166634E+02 -0.20608180745E+02 -0.29630987156E+03  0.30013425110E+03  0.00000000000E+00 0. -1.
          1    1    1    2  502    0 -0.47960973419E+02 -0.82601442658E+01  0.77164250275E+03  0.77317568314E+03  0.00000000000E+00 0. -1.
         22    1    3    3    0    0 -0.98311513605E+01  0.76193031659E+02 -0.30791735455E+02  0.82765696897E+02  0.00000000000E+00 0.  1.
         22    1    3    3    0    0  0.14706958146E+02 -0.47324706648E+02 -0.41031663429E+02  0.64339100716E+02  0.00000000000E+00 0.  1.
</event>
<event>
 7    1  0.7527776E-006  0.5826721E+02  0.7818608E-02  0.1444092E+00
          2   -1    0    0  502    0  0.00000000000E+00  0.00000000000E+00  0.10607263588E+04  0.10607263588E+04  0.00000000000E+00 0. -1.
          1   -1    0    0  501    0 -0.00000000000E+00 -0.00000000000E+00 -0.61680970318E+02  0.61680970318E+02  0.00000000000E+00 0. -1.
         25    2    1    2    0    0  0.33202960979E+02  0.36029810258E+02  0.24463585843E+03  0.27905595176E+03  0.12499974854E+03 0.  0.
          2    1    1    2  501    0 -0.36246336882E+02  0.23697596309E+02 -0.32517576526E+02  0.54155016308E+02  0.00000000000E+00 0. -1.
          1    1    1    2  502    0  0.30433759032E+01 -0.59727406566E+02  0.78692710655E+03  0.78919636103E+03  0.00000000000E+00 0. -1.
         22    1    3    3    0    0 -0.30613245378E+02  0.56887362980E+02  0.14694904289E+03  0.16052216067E+03  0.00000000000E+00 0.  1.
         22    1    3    3    0    0  0.63816206356E+02 -0.20857552722E+02  0.97686815541E+02  0.11853379109E+03  0.00000000000E+00 0.  1.
</event>
<event>
 7    1  0.7527776E-006  0.7856117E+02  0.7818608E-02  0.1474994E+00
          2   -1    0    0  502    0  0.00000000000E+00  0.00000000000E+00  0.83820451195E+03  0.83820451195E+03  0.00000000000E+00 0. -1.
          1   -1    0    0  501    0 -0.00000000000E+00 -0.00000000000E+00 -0.26727018716E+03  0.26727018716E+03  0.00000000000E+00 0. -1.
         25    2    1    2    0    0  0.62403374772E+02 -0.34140183727E+02 -0.86608611563E+02  0.16788537420E+03  0.12499885577E+03 0.  0.
          2    1    1    2  501    0 -0.56216614591E+02  0.59039852935E+02 -0.12793004713E+03  0.15169742566E+03  0.00000000000E+00 0. -1.
          1    1    1    2  502    0 -0.61867601809E+01 -0.24899669207E+02  0.78547298349E+03  0.78589189926E+03  0.00000000000E+00 0. -1.
         22    1    3    3    0    0  0.87027494359E+02  0.15728711063E+01 -0.21514423345E+02  0.89661190656E+02  0.00000000000E+00 0. -1.
         22    1    3    3    0    0 -0.24624119587E+02 -0.35713054834E+02 -0.65094188217E+02  0.78224183541E+02  0.00000000000E+00 0. -1.
</event>
<event>
 7    1  0.7527776E-006  0.9124110E+02  0.7818608E-02  0.1427273E+00
          2   -1    0    0  502    0  0.00000000000E+00  0.00000000000E+00  0.67428974992E+03  0.67428974992E+03  0.00000000000E+00 0. -1.
          1   -1    0    0  501    0 -0.00000000000E+00 -0.00000000000E+00 -0.11464056300E+03  0.11464056300E+03  0.00000000000E+00 0. -1.
         25    2    1    2    0    0  0.10348879935E+03 -0.20724771213E+02  0.43301741938E+02  0.16923272404E+03  0.12500090519E+03 0.  0.
          2    1    1    2  501    0 -0.77961381688E+02  0.38980448626E+02 -0.14122558091E+02  0.88300051285E+02  0.00000000000E+00 0. -1.
          1    1    1    2  502    0 -0.25527417659E+02 -0.18255677413E+02  0.53047000307E+03  0.53139753760E+03  0.00000000000E+00 0. -1.
         22    1    3    3    0    0 -0.20378600268E+02  0.95497889142E+01 -0.16975968000E+02  0.28189879509E+02  0.00000000000E+00 0. -1.
         22    1    3    3    0    0  0.12386739962E+03 -0.30274560128E+02  0.60277709938E+02  0.14104284453E+03  0.00000000000E+00 0. -1.
</event>
<event>
 7    1  0.7527776E-006  0.1237260E+03  0.7818608E-02  0.1287834E+00
          2   -1    0    0  502    0  0.00000000000E+00  0.00000000000E+00  0.56870847844E+03  0.56870847844E+03  0.00000000000E+00 0. -1.
          1   -1    0    0  501    0 -0.00000000000E+00 -0.00000000000E+00 -0.30579139813E+04  0.30579139813E+04  0.00000000000E+00 0. -1.
         25    2    1    2    0    0  0.64236580796E+02  0.11406499891E+02 -0.33498020626E+03  0.36344911154E+03  0.12500828588E+03 0.  0.
          2    1    1    2  501    0 -0.10943239191E+03 -0.71589948038E+02 -0.27045581387E+04  0.27077177281E+04  0.00000000000E+00 0. -1.
          1    1    1    2  502    0  0.45195811117E+02  0.60183448147E+02  0.55033284215E+03  0.55545562012E+03  0.00000000000E+00 0. -1.
         22    1    3    3    0    0  0.35999816014E+02 -0.88006058092E+01 -0.32529780643E+03  0.32740204685E+03  0.00000000000E+00 0.  1.
         22    1    3    3    0    0  0.28236764782E+02  0.20207105700E+02 -0.96823998383E+01  0.36047064690E+02  0.00000000000E+00 0.  1.
</event>
<event>
 7    1  0.7527776E-006  0.1424958E+03  0.7818608E-02  0.1368891E+00
          2   -1    0    0  502    0  0.00000000000E+00  0.00000000000E+00  0.61227228073E+03  0.61227228073E+03  0.00000000000E+00 0. -1.
          1   -1    0    0  501    0 -0.00000000000E+00 -0.00000000000E+00 -0.71770634179E+03  0.71770634179E+03  0.00000000000E+00 0. -1.
         25    2    1    2    0    0 -0.16212833487E+03  0.15146517064E+02  0.43241416118E+03  0.47866768880E+03  0.12500294225E+03 0.  0.
          2    1    1    2  501    0  0.13765238687E+03 -0.35686380947E+02 -0.68557521082E+03  0.70016788493E+03  0.00000000000E+00 0. -1.
          1    1    1    2  502    0  0.24475947991E+02  0.20539863883E+02  0.14772698858E+03  0.15114304878E+03  0.00000000000E+00 0. -1.
         22    1    3    3    0    0 -0.14350293222E+03  0.25222641459E+02  0.21201781735E+03  0.25725634700E+03  0.00000000000E+00 0. -1.
         22    1    3    3    0    0 -0.18625402651E+02 -0.10076124395E+02  0.22039634383E+03  0.22141134181E+03  0.00000000000E+00 0. -1.
</event>
<event>
 7    1  0.7527776E-006  0.1046261E+03  0.7818608E-02  0.1350026E+00
          2   -1    0    0  502    0  0.00000000000E+00  0.00000000000E+00  0.14944826340E+03  0.14944826340E+03  0.00000000000E+00 0. -1.
          1   -1    0    0  501    0 -0.00000000000E+00 -0.00000000000E+00 -0.21398453846E+04  0.21398453846E+04  0.00000000000E+00 0. -1.
         25    2    1    2    0    0 -0.55301848613E+02 -0.80980385566E+01 -0.74481874829E+02  0.15587345533E+03  0.12500044684E+03 0.  0.
          2    1    1    2  501    0  0.10620002881E+03  0.48718307086E+01 -0.20172107593E+04  0.20200102545E+04  0.00000000000E+00 0. -1.
          1    1    1    2  502    0 -0.50898180194E+02  0.32262078480E+01  0.10129551286E+03  0.11340993823E+03  0.00000000000E+00 0. -1.
         22    1    3    3    0    0 -0.67613152490E+02 -0.18913058265E+02 -0.10201080495E+03  0.12383636982E+03  0.00000000000E+00 0. -1.
         22    1    3    3    0    0  0.12311303877E+02  0.10815019708E+02  0.27528930123E+02  0.32037085513E+02  0.00000000000E+00 0. -1.
</event>
<event>
 7    1  0.7527776E-006  0.1702784E+03  0.7818608E-02  0.1251033E+00
          2   -1    0    0  502    0  0.00000000000E+00  0.00000000000E+00  0.13507236876E+04  0.13507236876E+04  0.00000000000E+00 0. -1.
          1   -1    0    0  501    0 -0.00000000000E+00 -0.00000000000E+00 -0.94865138887E+02  0.94865138887E+02  0.00000000000E+00 0. -1.
         25    2    1    2    0    0 -0.14211298108E+03  0.14822714004E+03  0.20686334182E+03  0.31715144087E+03  0.12500083927E+03 0.  0.
          2    1    1    2  501    0 -0.96989907497E+01 -0.77488002548E+02  0.13214130160E+02  0.79202741091E+02  0.00000000000E+00 0. -1.
          1    1    1    2  502    0  0.15181197183E+03 -0.70739137490E+02  0.10357810768E+04  0.10492346446E+04  0.00000000000E+00 0. -1.
         22    1    3    3    0    0 -0.62453134578E+01  0.75146493318E+02  0.26777007656E+02  0.80018794899E+02  0.00000000000E+00 0.  1.
         22    1    3    3    0    0 -0.13586766763E+03  0.73080646720E+02  0.18008633417E+03  0.23713264597E+03  0.00000000000E+00 0.  1.
</event>
<event>
 7    1  0.7527776E-006  0.7891009E+02  0.7818608E-02  0.1366069E+00
          2   -1    0    0  502    0  0.00000000000E+00  0.00000000000E+00  0.46966631121E+03  0.46966631121E+03  0.00000000000E+00 0. -1.
          1   -1    0    0  501    0 -0.00000000000E+00 -0.00000000000E+00 -0.56723168566E+03  0.56723168566E+03  0.00000000000E+00 0. -1.
         25    2    1    2    0    0 -0.18421457385E+02 -0.85066939406E+02  0.28778479873E+02  0.15501266159E+03  0.12499996031E+03 0.  0.
          2    1    1    2  501    0  0.57045183432E+02  0.15327236173E+02 -0.49814428255E+03  0.50163413297E+03  0.00000000000E+00 0. -1.
          1    1    1    2  502    0 -0.38623726047E+02  0.69739703233E+02  0.37180042824E+03  0.38025120231E+03  0.00000000000E+00 0. -1.
         22    1    3    3    0    0 -0.31587395472E+02 -0.68845978988E+01  0.61312663471E+02  0.69313807736E+02  0.00000000000E+00 0.  1.
         22    1    3    3    0    0  0.13165938087E+02 -0.78182341507E+02 -0.32534183598E+02  0.85698853852E+02  0.00000000000E+00 0.  1.
</event>
<event>
 7    1  0.7527776E-006  0.1205118E+03  0.7818608E-02  0.1266869E+00
          2   -1    0    0  502    0  0.00000000000E+00  0.00000000000E+00  0.55097284827E+03  0.55097284827E+03  0.00000000000E+00 0. -1.
          1   -1    0    0  501    0 -0.00000000000E+00 -0.00000000000E+00 -0.18733387105E+04  0.18733387105E+04  0.00000000000E+00 0. -1.
         25    2    1    2    0    0  0.89333914794E+02 -0.53690702415E+02  0.84010700467E+02  0.18316176963E+03  0.12500878450E+03 0.  0.
          2    1    1    2  501    0 -0.21508387621E+02  0.11936853777E+03 -0.18163754898E+04  0.18204206597E+04  0.00000000000E+00 0. -1.
          1    1    1    2  502    0 -0.67825527173E+02 -0.65677835358E+02  0.40999892704E+03  0.42072912945E+03  0.00000000000E+00 0. -1.
         22    1    3    3    0    0 -0.44415437187E+01  0.40902800356E+01  0.72122211693E+02  0.72374519831E+02  0.00000000000E+00 0. -1.
         22    1    3    3    0    0  0.93775458513E+02 -0.57780982451E+02  0.11888488775E+02  0.11078724980E+03  0.00000000000E+00 0. -1.
</event>
<event>
 7    1  0.7527776E-006  0.4905983E+02  0.7818608E-02  0.1450690E+00
          2   -1    0    0  502    0  0.00000000000E+00  0.00000000000E+00  0.52168551713E+03  0.52168551713E+03  0.00000000000E+00 0. -1.
          1   -1    0    0  501    0 -0.00000000000E+00 -0.00000000000E+00 -0.33241216164E+02  0.33241216164E+02  0.00000000000E+00 0. -1.
         25    2    1    2    0    0 -0.70327155136E+01 -0.94409317704E+01  0.21837654042E+03  0.25189679705E+03  0.12500037071E+03 0.  0.
          2    1    1    2  501    0  0.11726852310E+02 -0.47559457489E+02  0.32764102254E+02  0.58931379233E+02  0.00000000000E+00 0. -1.
          1    1    1    2  502    0 -0.46941367968E+01  0.57000389260E+02  0.23730365830E+03  0.24409855702E+03  0.00000000000E+00 0. -1.
         22    1    3    3    0    0  0.28646304298E+02  0.48446560458E+02  0.11690386184E+03  0.12974664883E+03  0.00000000000E+00 0. -1.
         22    1    3    3    0    0 -0.35679019811E+02 -0.57887492228E+02  0.10147267858E+03  0.12215014822E+03  0.00000000000E+00 0. -1.
</event>
<event>
 7    1  0.7527776E-006  0.1364194E+03  0.7818608E-02  0.1277691E+00
          2   -1    0    0  502    0  0.00000000000E+00  0.00000000000E+00  0.21898976634E+04  0.21898976634E+04  0.00000000000E+00 0. -1.
          1   -1    0    0  501    0 -0.00000000000E+00 -0.00000000000E+00 -0.49662658065E+03  0.49662658065E+03  0.00000000000E+00 0. -1.
         25    2    1    2    0    0 -0.43614964229E+01  0.88960653296E+02  0.60534291131E+03  0.62449798484E+03  0.12499868923E+03 0.  0.
          2    1    1    2  501    0  0.74769603200E+02 -0.11522127566E+03 -0.47644511887E+03  0.49584915773E+03  0.00000000000E+00 0. -1.
          1    1    1    2  502    0 -0.70408106777E+02  0.26260622366E+02  0.15643732903E+04  0.15661771015E+04  0.00000000000E+00 0. -1.
         22    1    3    3    0    0  0.22163586408E+02  0.11180363024E+03  0.38948013546E+03  0.40581529323E+03  0.00000000000E+00 0.  1.
         22    1    3    3    0    0 -0.26525082831E+02 -0.22842976940E+02  0.21586277585E+03  0.21868269161E+03  0.00000000000E+00 0.  1.
</event>
<event>
 7    1  0.7527776E-006  0.2335544E+03  0.7818608E-02  0.1128424E+00
          2   -1    0    0  502    0  0.00000000000E+00  0.00000000000E+00  0.60238412131E+03  0.60238412131E+03  0.00000000000E+00 0. -1.
          1   -1    0    0  501    0 -0.00000000000E+00 -0.00000000000E+00 -0.16570604459E+04  0.16570604459E+04  0.00000000000E+00 0. -1.
         25    2    1    2    0    0 -0.15912488536E+03  0.15601122349E+03 -0.11783626077E+03  0.28137242808E+03  0.12499931174E+03 0.  0.
          2    1    1    2  501    0 -0.66592006876E+02 -0.22385969930E+03 -0.14207481688E+04  0.14398170090E+04  0.00000000000E+00 0. -1.
          1    1    1    2  502    0  0.22571689223E+03  0.67848475812E+02  0.48390810493E+03  0.53825513015E+03  0.00000000000E+00 0. -1.
         22    1    3    3    0    0 -0.87129471050E+02  0.31681053683E+02 -0.10038271532E+03  0.13664524662E+03  0.00000000000E+00 0. -1.
         22    1    3    3    0    0 -0.71995414306E+02  0.12433016980E+03 -0.17453545446E+02  0.14472718146E+03  0.00000000000E+00 0. -1.
</event>
<event>
 7    1  0.7527776E-006  0.8556428E+02  0.7818608E-02  0.1325452E+00
          2   -1    0    0  502    0  0.00000000000E+00  0.00000000000E+00  0.18748101052E+03  0.18748101052E+03  0.00000000000E+00 0. -1.
          1   -1    0    0  501    0 -0.00000000000E+00 -0.00000000000E+00 -0.21561815118E+04  0.21561815118E+04  0.00000000000E+00 0. -1.
         25    2    1    2    0    0 -0.26775582698E+02  0.92326177007E+02 -0.14783079405E+03  0.21613855644E+03  0.12498350740E+03 0.  0.
          2    1    1    2  501    0  0.78688798848E+02 -0.35167689811E+02 -0.19634699495E+04  0.19653607648E+04  0.00000000000E+00 0. -1.
          1    1    1    2  502    0 -0.51913216150E+02 -0.57158487196E+02  0.14260024227E+03  0.16216320102E+03  0.00000000000E+00 0. -1.
         22    1    3    3    0    0  0.83395707314E+01  0.34111427702E+02 -0.14380882423E+03  0.14803417128E+03  0.00000000000E+00 0. -1.
         22    1    3    3    0    0 -0.35115153429E+02  0.58214749305E+02 -0.40219698212E+01  0.68104385162E+02  0.00000000000E+00 0. -1.
</event>
<event>
 7    1  0.7527776E-006  0.9174692E+02  0.7818608E-02  0.1386150E+00
          2   -1    0    0  502    0  0.00000000000E+00  0.00000000000E+00  0.18104188768E+04  0.18104188768E+04  0.00000000000E+00 0. -1.
          1   -1    0    0  501    0 -0.00000000000E+00 -0.00000000000E+00 -0.33019242110E+03  0.33019242110E+03  0.00000000000E+00 0. -1.
         25    2    1    2    0    0  0.33359323558E+02  0.10918565646E+03  0.28197609867E+03  0.32888913700E+03  0.12499276847E+03 0.  0.
          2    1    1    2  501    0  0.21906372654E+02 -0.37103977978E+02 -0.30384407680E+03  0.30688404545E+03  0.00000000000E+00 0. -1.
          1    1    1    2  502    0 -0.55265696212E+02 -0.72081678482E+02  0.15020944338E+04  0.15048381154E+04  0.00000000000E+00 0. -1.
         22    1    3    3    0    0  0.30478075340E+01  0.13156468251E+03  0.21790069244E+03  0.25455700065E+03  0.00000000000E+00 0. -1.
         22    1    3    3    0    0  0.30311516024E+02 -0.22379026051E+02  0.64075406232E+02  0.74332136351E+02  0.00000000000E+00 0. -1.
</event>
<event>
 7    1  0.7527776E-006  0.1327297E+03  0.7818608E-02  0.1328148E+00
          2   -1    0    0  502    0  0.00000000000E+00  0.00000000000E+00  0.79480070761E+03  0.79480070761E+03  0.00000000000E+00 0. -1.
          1   -1    0    0  501    0 -0.00000000000E+00 -0.00000000000E+00 -0.84451869559E+03  0.84451869559E+03  0.00000000000E+00 0. -1.
         25    2    1    2    0    0  0.14756693989E+03 -0.10063117218E+03 -0.74564720345E+02  0.23040606046E+03  0.12499768243E+03 0.  0.
          2    1    1    2  501    0 -0.35025995706E+02  0.33697535094E+02 -0.68518602803E+03  0.68690773562E+03  0.00000000000E+00 0. -1.
          1    1    1    2  502    0 -0.11254094418E+03  0.66933637087E+02  0.71003276039E+03  0.72200560712E+03  0.00000000000E+00 0. -1.
         22    1    3    3    0    0  0.21989232239E+02 -0.28686630936E+01  0.31959714830E+02  0.38899600697E+02  0.00000000000E+00 0. -1.
         22    1    3    3    0    0  0.12557770765E+03 -0.97762509088E+02 -0.10652443517E+03  0.19150645976E+03  0.00000000000E+00 0. -1.
</event>
<event>
 7    1  0.7527776E-006  0.6772498E+02  0.7818608E-02  0.1377018E+00
          2   -1    0    0  502    0  0.00000000000E+00  0.00000000000E+00  0.42840950049E+03  0.42840950049E+03  0.00000000000E+00 0. -1.
          1   -1    0    0  501    0 -0.00000000000E+00 -0.00000000000E+00 -0.38590339526E+04  0.38590339526E+04  0.00000000000E+00 0. -1.
         25    2    1    2    0    0 -0.15753888284E+02 -0.74529902053E+01 -0.12676810974E+04  0.12739486761E+04  0.12500453061E+03 0.  0.
          2    1    1    2  501    0  0.17537704007E+02 -0.60377906104E+02 -0.25851277942E+04  0.25858922589E+04  0.00000000000E+00 0. -1.
          1    1    1    2  502    0 -0.17838157231E+01  0.67830896309E+02  0.42218443946E+03  0.42760251802E+03  0.00000000000E+00 0. -1.
         22    1    3    3    0    0  0.33305247621E+02 -0.37163956231E+02 -0.93719292192E+03  0.93852062953E+03  0.00000000000E+00 0. -1.
         22    1    3    3    0    0 -0.49059135905E+02  0.29710966026E+02 -0.33048817547E+03  0.33542804659E+03  0.00000000000E+00 0. -1.
</event>
<event>
 7    1  0.7527776E-006  0.2926910E+03  0.7818608E-02  0.1233981E+00
          2   -1    0    0  502    0  0.00000000000E+00  0.00000000000E+00  0.18558655316E+04  0.18558655316E+04  0.00000000000E+00 0. -1.
          1   -1    0    0  501    0 -0.00000000000E+00 -0.00000000000E+00 -0.10348758807E+04  0.10348758807E+04  0.00000000000E+00 0. -1.
         25    2    1    2    0    0  0.32671211442E+02  0.30597385259E+03  0.10132973056E+04  0.10663404750E+04  0.12499269077E+03 0.  0.
          2    1    1    2  501    0 -0.47532227364E+02 -0.25588842418E+02 -0.98344014140E+03  0.98492061265E+03  0.00000000000E+00 0. -1.
          1    1    1    2  502    0  0.14861015922E+02 -0.28038501018E+03  0.79113248674E+03  0.83948032454E+03  0.00000000000E+00 0. -1.
         22    1    3    3    0    0  0.10911781439E+02  0.10952163016E+01  0.15238425114E+03  0.15277835733E+03  0.00000000000E+00 0.  1.
         22    1    3    3    0    0  0.21759430003E+02  0.30487863629E+03  0.86091305442E+03  0.91356211772E+03  0.00000000000E+00 0.  1.
</event>
<event>
 7    1  0.7527776E-006  0.9703919E+02  0.7818608E-02  0.1334401E+00
          2   -1    0    0  502    0  0.00000000000E+00  0.00000000000E+00  0.11043134383E+04  0.11043134383E+04  0.00000000000E+00 0. -1.
          1   -1    0    0  501    0 -0.00000000000E+00 -0.00000000000E+00 -0.42731136220E+03  0.42731136220E+03  0.00000000000E+00 0. -1.
         25    2    1    2    0    0  0.15771514849E+03 -0.16427538047E+02  0.50400835896E+03  0.54294733507E+03  0.12499380260E+03 0.  0.
          2    1    1    2  501    0 -0.94793365523E+02  0.17373444879E+02 -0.40040318881E+03  0.41183775003E+03  0.00000000000E+00 0. -1.
          1    1    1    2  502    0 -0.62921782972E+02 -0.94590683253E+00  0.57339690594E+03  0.57683971539E+03  0.00000000000E+00 0. -1.
         22    1    3    3    0    0 -0.12585685722E+02  0.14091257875E+02  0.14659906503E+02  0.23913926742E+02  0.00000000000E+00 0.  1.
         22    1    3    3    0    0  0.17030083422E+03 -0.30518795921E+02  0.48934845246E+03  0.51903340833E+03  0.00000000000E+00 0.  1.
</event>
<event>
 7    1  0.7527776E-006  0.9854908E+02  0.7818608E-02  0.1296332E+00
          2   -1    0    0  502    0  0.00000000000E+00  0.00000000000E+00  0.22792202876E+04  0.22792202876E+04  0.00000000000E+00 0. -1.
          1   -1    0    0  501    0 -0.00000000000E+00 -0.00000000000E+00 -0.25680218787E+04  0.25680218787E+04  0.00000000000E+00 0. -1.
         25    2    1    2    0    0 -0.14978906029E+02  0.10010532835E+02 -0.27401144878E+03  0.30171471576E+03  0.12499966901E+03 0.  0.
          2    1    1    2  501    0 -0.28500662381E+01  0.87240172222E+02 -0.22782438416E+04  0.22799153432E+04  0.00000000000E+00 0. -1.
          1    1    1    2  502    0  0.17828972267E+02 -0.97250705057E+02  0.22634536993E+04  0.22656121073E+04  0.00000000000E+00 0. -1.
         22    1    3    3    0    0 -0.39424454970E+02 -0.40050106398E+02 -0.67559742424E+02  0.87878424363E+02  0.00000000000E+00 0.  1.
         22    1    3    3    0    0  0.24445548941E+02  0.50060639233E+02 -0.20645170635E+03  0.21383629140E+03  0.00000000000E+00 0.  1.
</event>
<event>
 7    1  0.7527776E-006  0.8661366E+02  0.7818608E-02  0.1472743E+00
          2   -1    0    0  502    0  0.00000000000E+00  0.00000000000E+00  0.36164207767E+03  0.36164207767E+03  0.00000000000E+00 0. -1.
          1   -1    0    0  501    0 -0.00000000000E+00 -0.00000000000E+00 -0.42392058607E+03  0.42392058607E+03  0.00000000000E+00 0. -1.
         25    2    1    2    0    0 -0.38710648239E+02 -0.10090709234E+03 -0.92479633009E+02  0.18936440598E+03  0.12500256061E+03 0.  0.
          2    1    1    2  501    0  0.14533494142E+02  0.18654306368E+02 -0.27661771737E+03  0.27762666867E+03  0.00000000000E+00 0. -1.
          1    1    1    2  502    0  0.24177154097E+02  0.82252785971E+02  0.30681884198E+03  0.31857158909E+03  0.00000000000E+00 0. -1.
         22    1    3    3    0    0 -0.76965206330E+02 -0.10099386760E+03 -0.70030596757E+02  0.14500927129E+03  0.00000000000E+00 0.  1.
         22    1    3    3    0    0  0.38254558091E+02  0.86775255839E-01 -0.22449036252E+02  0.44355134689E+02  0.00000000000E+00 0.  1.
</event>
<event>
 7    1  0.7527776E-006  0.8279478E+02  0.7818608E-02  0.1358406E+00
          2   -1    0    0  502    0  0.00000000000E+00  0.00000000000E+00  0.21525558072E+04  0.21525558072E+04  0.00000000000E+00 0. -1.
          1   -1    0    0  501    0 -0.00000000000E+00 -0.00000000000E+00 -0.20370578371E+03  0.20370578371E+03  0.00000000000E+00 0. -1.
         25    2    1    2    0    0  0.27767212936E+02 -0.19071552242E+02  0.11218588954E+03  0.17130249444E+03  0.12499651423E+03 0.  0.
          2    1    1    2  501    0  0.56682566398E+02  0.19761754138E+02 -0.16805892972E+03  0.17845796177E+03  0.00000000000E+00 0. -1.
          1    1    1    2  502    0 -0.84449779334E+02 -0.69020189683E+00  0.20047230637E+04  0.20065011347E+04  0.00000000000E+00 0. -1.
         22    1    3    3    0    0 -0.27500062022E+02 -0.41664791238E+02  0.97925123252E+02  0.10991604980E+03  0.00000000000E+00 0. -1.
         22    1    3    3    0    0  0.55267274958E+02  0.22593238997E+02  0.14260766287E+02  0.61386444633E+02  0.00000000000E+00 0. -1.
</event>
<event>
 7    1  0.7527776E-006  0.1107401E+03  0.7818608E-02  0.1296216E+00
          2   -1    0    0  502    0  0.00000000000E+00  0.00000000000E+00  0.24416115227E+03  0.24416115227E+03  0.00000000000E+00 0. -1.
          1   -1    0    0  501    0 -0.00000000000E+00 -0.00000000000E+00 -0.36950609323E+04  0.36950609323E+04  0.00000000000E+00 0. -1.
         25    2    1    2    0    0  0.14473208436E+03  0.81671490674E+02 -0.28318183470E+03  0.35133433190E+03  0.12500501044E+03 0.  0.
          2    1    1    2  501    0 -0.77658567257E+02  0.39959225403E+01 -0.33632363513E+04  0.33641351897E+04  0.00000000000E+00 0. -1.
          1    1    1    2  502    0 -0.67073517103E+02 -0.85667413214E+02  0.19551840590E+03  0.22375256296E+03  0.00000000000E+00 0. -1.
         22    1    3    3    0    0  0.12862572563E+03  0.29592521375E+02 -0.11678518236E+03  0.17623584605E+03  0.00000000000E+00 0. -1.
         22    1    3    3    0    0  0.16106358725E+02  0.52078969299E+02 -0.16639665234E+03  0.17509848585E+03  0.00000000000E+00 0. -1.
</event>
<event>
 7    1  0.7527776E-006  0.3193169E+02  0.7818608E-02  0.1582907E+00
          2   -1    0    0  502    0  0.00000000000E+00  0.00000000000E+00  0.25325310676E+04  0.25325310676E+04  0.00000000000E+00 0. -1.
          1   -1    0    0  501    0 -0.00000000000E+00 -0.00000000000E+00 -0.71252105582E+02  0.71252105582E+02  0.00000000000E+00 0. -1.
         25    2    1    2    0    0  0.10139548608E+02  0.34580845432E+02  0.22561126455E+03  0.26043153880E+03  0.12500199355E+03 0.  0.
          2    1    1    2  501    0 -0.30179033691E+02 -0.11039529649E+02 -0.48933255554E+02  0.58541513378E+02  0.00000000000E+00 0. -1.
          1    1    1    2  502    0  0.20039485083E+02 -0.23541315783E+02  0.22846009530E+04  0.22848101210E+04  0.00000000000E+00 0. -1.
         22    1    3    3    0    0  0.21700610354E+02 -0.38756145246E+02  0.14117281484E+03  0.14799567201E+03  0.00000000000E+00 0.  1.
         22    1    3    3    0    0 -0.11561061746E+02  0.73336990678E+02  0.84438449710E+02  0.11243586679E+03  0.00000000000E+00 0.  1.
</event>
<event>
 7    1  0.7527776E-006  0.6190546E+02  0.7818608E-02  0.1391549E+00
          2   -1    0    0  502    0  0.00000000000E+00  0.00000000000E+00  0.16505766735E+04  0.16505766735E+04  0.00000000000E+00 0. -1.
          1   -1    0    0  501    0 -0.00000000000E+00 -0.00000000000E+00 -0.68448468091E+02  0.68448468091E+02  0.00000000000E+00 0. -1.
         25    2    1    2    0    0  0.76584693734E+02 -0.41042173433E+02  0.22892803505E+03  0.27492328133E+03  0.12500036028E+03 0.  0.
          2    1    1    2  501    0 -0.18136876175E+02  0.58996129398E+02 -0.23500825814E+02  0.66043761062E+02  0.00000000000E+00 0. -1.
          1    1    1    2  502    0 -0.58447817559E+02 -0.17953955965E+02  0.13767009962E+04  0.13780580992E+04  0.00000000000E+00 0. -1.
         22    1    3    3    0    0  0.92207440394E+02 -0.68327679413E+02  0.14258530559E+03  0.18303402200E+03  0.00000000000E+00 0.  1.
         22    1    3    3    0    0 -0.15622746660E+02  0.27285505980E+02  0.86342729458E+02  0.91889259329E+02  0.00000000000E+00 0.  1.
</event>
<event>
 7    1  0.7527776E-006  0.5788382E+02  0.7818608E-02  0.1522367E+00
          2   -1    0    0  502    0  0.00000000000E+00  0.00000000000E+00  0.13440854277E+03  0.13440854277E+03  0.00000000000E+00 0. -1.
          1   -1    0    0  501    0 -0.00000000000E+00 -0.00000000000E+00 -0.13975687209E+04  0.13975687209E+04  0.00000000000E+00 0. -1.
         25    2    1    2    0    0  0.80982648764E+01  0.42444002510E+02 -0.24458038923E+03  0.27804930820E+03  0.12499910299E+03 0.  0.
          2    1    1    2  501    0 -0.32367519660E+02 -0.48964821681E+02 -0.11341445746E+04  0.11356624174E+04  0.00000000000E+00 0. -1.
          1    1    1    2  502    0  0.24269254783E+02  0.65208191704E+01  0.11556478571E+03  0.11826553812E+03  0.00000000000E+00 0. -1.
         22    1    3    3    0    0  0.95116969833E+01 -0.11714078554E+02  0.97811038933E+01  0.17982269302E+02  0.00000000000E+00 0.  1.
         22    1    3    3    0    0 -0.14134321069E+01  0.54158081065E+02 -0.25436149313E+03  0.26006703890E+03  0.00000000000E+00 0.  1.
</event>
<event>
 7    1  0.7527776E-006  0.4963953E+02  0.7818608E-02  0.1471861E+00
          2   -1    0    0  502    0  0.00000000000E+00  0.00000000000E+00  0.19223175088E+03  0.19223175088E+03  0.00000000000E+00 0. -1.
          1   -1    0    0  501    0 -0.00000000000E+00 -0.00000000000E+00 -0.29808721246E+03  0.29808721246E+03  0.00000000000E+00 0. -1.
         25    2    1    2    0    0  0.80511914507E+02  0.18309603159E+02  0.10691359076E+02  0.15019508692E+03  0.12500739590E+03 0.  0.
          2    1    1    2  501    0 -0.40779411670E+02  0.78187868713E+01 -0.22125800686E+03  0.22512041099E+03  0.00000000000E+00 0. -1.
          1    1    1    2  502    0 -0.39732502837E+02 -0.26128390030E+02  0.10471118620E+03  0.11500346543E+03  0.00000000000E+00 0. -1.
         22    1    3    3    0    0 -0.10147169351E+02  0.35940226863E+02  0.38604222650E+02  0.53711739492E+02  0.00000000000E+00 0. -1.
         22    1    3    3    0    0  0.90659083858E+02 -0.17630623705E+02 -0.27912863574E+02  0.96483347429E+02  0.00000000000E+00 0. -1.
</event>
<event>
 7    1  0.7527776E-006  0.2773542E+02  0.7818608E-02  0.1681024E+00
          2   -1    0    0  502    0  0.00000000000E+00  0.00000000000E+00  0.59953157107E+03  0.59953157107E+03  0.00000000000E+00 0. -1.
          1   -1    0    0  501    0 -0.00000000000E+00 -0.00000000000E+00 -0.32412615254E+02  0.32412615254E+02  0.00000000000E+00 0. -1.
         25    2    1    2    0    0 -0.38467119350E+02  0.27341996305E+02  0.26420535024E+03  0.29606924496E+03  0.12500090671E+03 0.  0.
          2    1    1    2  501    0  0.16126874086E+02 -0.12137594658E+02 -0.94906923922E+01  0.22304047031E+02  0.00000000000E+00 0. -1.
          1    1    1    2  502    0  0.22340245264E+02 -0.15204401647E+02  0.31240429796E+03  0.31357089433E+03  0.00000000000E+00 0. -1.
         22    1    3    3    0    0 -0.26244363544E+02  0.39930646685E+02  0.27250251095E+03  0.27666015549E+03  0.00000000000E+00 0.  1.
         22    1    3    3    0    0 -0.12222755805E+02 -0.12588650380E+02 -0.82971607108E+01  0.19409089462E+02  0.00000000000E+00 0.  1.
</event>
<event>
 7    1  0.7527776E-006  0.2804055E+03  0.7818608E-02  0.1255534E+00
          2   -1    0    0  502    0  0.00000000000E+00  0.00000000000E+00  0.11641311587E+04  0.11641311587E+04  0.00000000000E+00 0. -1.
          1   -1    0    0  501    0 -0.00000000000E+00 -0.00000000000E+00 -0.18384218145E+04  0.18384218145E+04  0.00000000000E+00 0. -1.
         25    2    1    2    0    0  0.23235333885E+03 -0.74124013888E+02  0.10875323278E+03  0.29484394315E+03  0.12499296646E+03 0.  0.
          2    1    1    2  501    0  0.41102762380E+02 -0.19157347326E+02 -0.17233846742E+04  0.17239811995E+04  0.00000000000E+00 0. -1.
          1    1    1    2  502    0 -0.27345610123E+03  0.93281361214E+02  0.94034078552E+03  0.98372783054E+03  0.00000000000E+00 0. -1.
         22    1    3    3    0    0  0.20900370247E+03 -0.10361788617E+03  0.77128391527E+02  0.24569900846E+03  0.00000000000E+00 0. -1.
         22    1    3    3    0    0  0.23349636380E+02  0.29493872285E+02  0.31624841250E+02  0.49144934688E+02  0.00000000000E+00 0. -1.
</event>
<event>
 7    1  0.7527776E-006  0.3145336E+02  0.7818608E-02  0.1636757E+00
          2   -1    0    0  502    0  0.00000000000E+00  0.00000000000E+00  0.68565650540E+03  0.68565650540E+03  0.00000000000E+00 0. -1.
          1   -1    0    0  501    0 -0.00000000000E+00 -0.00000000000E+00 -0.20157722147E+03  0.20157722147E+03  0.00000000000E+00 0. -1.
         25    2    1    2    0    0  0.47094412186E+02 -0.24004178119E+02  0.17520487494E+03  0.22162012221E+03  0.12499858456E+03 0.  0.
          2    1    1    2  501    0 -0.24848694107E+02  0.19050367218E+02 -0.17672619910E+03  0.17947847654E+03  0.00000000000E+00 0. -1.
          1    1    1    2  502    0 -0.22245718079E+02  0.49538109017E+01  0.48560060809E+03  0.48613512812E+03  0.00000000000E+00 0. -1.
         22    1    3    3    0    0  0.41965808630E+02  0.35587508072E+02  0.14400626578E+03  0.15416032047E+03  0.00000000000E+00 0.  1.
         22    1    3    3    0    0  0.51286035554E+01 -0.59591686191E+02  0.31198609159E+02  0.67459801742E+02  0.00000000000E+00 0.  1.
</event>
<event>
 7    1  0.7527776E-006  0.1610161E+03  0.7818608E-02  0.1277591E+00
          2   -1    0    0  502    0  0.00000000000E+00  0.00000000000E+00  0.12596658786E+04  0.12596658786E+04  0.00000000000E+00 0. -1.
          1   -1    0    0  501    0 -0.00000000000E+00 -0.00000000000E+00 -0.36108278387E+03  0.36108278387E+03  0.00000000000E+00 0. -1.
         25    2    1    2    0    0 -0.10447936270E+03 -0.13614960680E+03  0.66088498830E+03  0.69415143767E+03  0.12499839201E+03 0.  0.
          2    1    1    2  501    0  0.13847020330E+03  0.82243748096E+02 -0.32372213657E+03  0.36157164298E+03  0.00000000000E+00 0. -1.
          1    1    1    2  502    0 -0.33990840595E+02  0.53905858706E+02  0.56142024297E+03  0.56502558177E+03  0.00000000000E+00 0. -1.
         22    1    3    3    0    0 -0.11343894810E+03 -0.60939358056E+02  0.31968105440E+03  0.34464180949E+03  0.00000000000E+00 0. -1.
         22    1    3    3    0    0  0.89595853974E+01 -0.75210248746E+02  0.34120393390E+03  0.34950962818E+03  0.00000000000E+00 0. -1.
</event>
<event>
 7    1  0.7527776E-006  0.8027158E+02  0.7818608E-02  0.1413973E+00
          2   -1    0    0  502    0  0.00000000000E+00  0.00000000000E+00  0.45806920971E+03  0.45806920971E+03  0.00000000000E+00 0. -1.
          1   -1    0    0  501    0 -0.00000000000E+00 -0.00000000000E+00 -0.14133026554E+03  0.14133026554E+03  0.00000000000E+00 0. -1.
         25    2    1    2    0    0  0.85945361531E+02 -0.71825994156E+02  0.10794036733E+03  0.19955739801E+03  0.12500581424E+03 0.  0.
          2    1    1    2  501    0 -0.67955906085E+02  0.36648543920E+02 -0.78343378696E+02  0.10999457227E+03  0.00000000000E+00 0. -1.
          1    1    1    2  502    0 -0.17989455447E+02  0.35177450236E+02  0.28714195553E+03  0.28984750497E+03  0.00000000000E+00 0. -1.
         22    1    3    3    0    0 -0.28053966799E+02 -0.38670579977E+02  0.19904984630E+02  0.51755649180E+02  0.00000000000E+00 0. -1.
         22    1    3    3    0    0  0.11399932833E+03 -0.33155414180E+02  0.88035382698E+02  0.14780174883E+03  0.00000000000E+00 0. -1.
</event>
<event>
 7    1  0.7527776E-006  0.2902823E+02  0.7818608E-02  0.1637784E+00
          2   -1    0    0  502    0  0.00000000000E+00  0.00000000000E+00  0.32482826730E+03  0.32482826730E+03  0.00000000000E+00 0. -1.
          1   -1    0    0  501    0 -0.00000000000E+00 -0.00000000000E+00 -0.31251571752E+03  0.31251571752E+03  0.00000000000E+00 0. -1.
         25    2    1    2    0    0  0.48252779788E+02 -0.25712189743E+00 -0.10537641599E+03  0.17045942002E+03  0.12499531175E+03 0.  0.
          2    1    1    2  501    0 -0.21749108604E+02 -0.11386501518E+02 -0.17301237340E+03  0.17474540764E+03  0.00000000000E+00 0. -1.
          1    1    1    2  502    0 -0.26503671185E+02  0.11643623415E+02  0.29070133917E+03  0.29213915716E+03  0.00000000000E+00 0. -1.
         22    1    3    3    0    0  0.82629010727E+02 -0.14448866497E+02 -0.10349707501E+03  0.13322149862E+03  0.00000000000E+00 0. -1.
         22    1    3    3    0    0 -0.34376230939E+02  0.14191744599E+02 -0.18793409713E+01  0.37237921408E+02  0.00000000000E+00 0. -1.
</event>
<event>
 7    1  0.7527776E-006  0.7979751E+02  0.7818608E-02  0.1391694E+00
          2   -1    0    0  502    0  0.00000000000E+00  0.00000000000E+00  0.82480206596E+03  0.82480206596E+03  0.00000000000E+00 0. -1.
          1   -1    0    0  501    0 -0.00000000000E+00 -0.00000000000E+00 -0.76543999914E+03  0.76543999914E+03  0.00000000000E+00 0. -1.
         25    2    1    2    0    0 -0.81607174444E+02  0.46860248310E+02 -0.12276852741E+03  0.19887924771E+03  0.12500092022E+03 0.  0.
          2    1    1    2  501    0  0.79628169555E+02  0.47684197292E+00 -0.60127546684E+03  0.60652539913E+03  0.00000000000E+00 0. -1.
          1    1    1    2  502    0  0.19790048890E+01 -0.47337090283E+02  0.78340606108E+03  0.78483741826E+03  0.00000000000E+00 0. -1.
         22    1    3    3    0    0 -0.53751474228E+02  0.15375557711E+02 -0.14203069290E+03  0.15263795885E+03  0.00000000000E+00 0.  1.
         22    1    3    3    0    0 -0.27855700217E+02  0.31484690599E+02  0.19262165484E+02  0.46241288864E+02  0.00000000000E+00 0.  1.
</event>
<event>
 7    1  0.7527776E-006  0.7030727E+02  0.7818608E-02  0.1372784E+00
          2   -1    0    0  502    0  0.00000000000E+00  0.00000000000E+00  0.32144880076E+04  0.32144880076E+04  0.00000000000E+00 0. -1.
          1   -1    0    0  501    0 -0.00000000000E+00 -0.00000000000E+00 -0.65155150512E+03  0.65155150512E+03  0.00000000000E+00 0. -1.
         25    2    1    2    0    0 -0.21593800561E+02 -0.11463366734E+03  0.36002689597E+03  0.39856259852E+03  0.12500243681E+03 0.  0.
          2    1    1    2  501    0 -0.20489072585E+02  0.59266972290E+02 -0.63030107433E+03  0.63341283568E+03  0.00000000000E+00 0. -1.
          1    1    1    2  502    0  0.42082873147E+02  0.55366695053E+02  0.28332106809E+04  0.28340640785E+04  0.00000000000E+00 0. -1.
         22    1    3    3    0    0 -0.11382030821E+02 -0.13757820277E+03  0.24876938720E+03  0.28450574777E+03  0.00000000000E+00 0. -1.
         22    1    3    3    0    0 -0.10211769740E+02  0.22944535428E+02  0.11125750876E+03  0.11405685075E+03  0.00000000000E+00 0. -1.
</event>
<event>
 7    1  0.7527776E-006  0.8363984E+02  0.7818608E-02  0.1405082E+00
          2   -1    0    0  502    0  0.00000000000E+00  0.00000000000E+00  0.26611977488E+04  0.26611977488E+04  0.00000000000E+00 0. -1.
          1   -1    0    0  501    0 -0.00000000000E+00 -0.00000000000E+00 -0.17034615138E+03  0.17034615138E+03  0.00000000000E+00 0. -1.
         25    2    1    2    0    0  0.15177653114E+02  0.11586829618E+03  0.17590637661E+04  0.17673667427E+04  0.12499618739E+03 0.  0.
          2    1    1    2  501    0  0.87362880930E+01 -0.83002385731E+02 -0.15522160882E+03  0.17623696153E+03  0.00000000000E+00 0. -1.
          1    1    1    2  502    0 -0.23913941207E+02 -0.32865910452E+02  0.88700944020E+03  0.88794019599E+03  0.00000000000E+00 0. -1.
         22    1    3    3    0    0 -0.41676089859E+02  0.70072807229E+02  0.12981074061E+04  0.13006651884E+04  0.00000000000E+00 0. -1.
         22    1    3    3    0    0  0.56853742972E+02  0.45795488953E+02  0.46095636000E+03  0.46670155423E+03  0.00000000000E+00 0. -1.
</event>
<event>
 7    1  0.7527776E-006  0.1029849E+03  0.7818608E-02  0.1340917E+00
          2   -1    0    0  502    0  0.00000000000E+00  0.00000000000E+00  0.10015596533E+04  0.10015596533E+04  0.00000000000E+00 0. -1.
          1   -1    0    0  501    0 -0.00000000000E+00 -0.00000000000E+00 -0.15987914015E+03  0.15987914015E+03  0.00000000000E+00 0. -1.
         25    2    1    2    0    0  0.14861653089E+03 -0.31666557979E+02  0.17897338988E+03  0.26598156505E+03  0.12500029806E+03 0.  0.
          2    1    1    2  501    0 -0.92615152563E+02  0.33464448238E+02 -0.94320431454E+02  0.13635900986E+03  0.00000000000E+00 0. -1.
          1    1    1    2  502    0 -0.56001378324E+02 -0.17978902594E+01  0.75702755470E+03  0.75909821852E+03  0.00000000000E+00 0. -1.
         22    1    3    3    0    0  0.85101977269E+02  0.13953561603E+02  0.16551155745E+03  0.18663098367E+03  0.00000000000E+00 0.  1.
         22    1    3    3    0    0  0.63514553618E+02 -0.45620119582E+02  0.13461832422E+02  0.79350581373E+02  0.00000000000E+00 0.  1.
</event>
<event>
 7    1  0.7527776E-006  0.7325651E+02  0.7818608E-02  0.1498166E+00
          2   -1    0    0  502    0  0.00000000000E+00  0.00000000000E+00  0.61983889051E+02  0.61983889051E+02  0.00000000000E+00 0. -1.
          1   -1    0    0  501    0 -0.00000000000E+00 -0.00000000000E+00 -0.53377333672E+03  0.53377333672E+03  0.00000000000E+00 0. -1.
         25    2    1    2    0    0  0.27343825966E+02 -0.45636668047E+02 -0.26143375093E+03  0.29462274887E+03  0.12499827093E+03 0.  0.
          2    1    1    2  501    0  0.43540150073E+01 -0.22986165091E+02 -0.22323292529E+03  0.22445547479E+03  0.00000000000E+00 0. -1.
          1    1    1    2  502    0 -0.31697840973E+02  0.68622833138E+02  0.12877228545E+02  0.76679002114E+02  0.00000000000E+00 0. -1.
         22    1    3    3    0    0  0.22608306435E+02  0.41362651450E+02 -0.11411401219E+03  0.12346664421E+03  0.00000000000E+00 0. -1.
         22    1    3    3    0    0  0.47355195305E+01 -0.86999319497E+02 -0.14731973874E+03  0.17115610466E+03  0.00000000000E+00 0. -1.
</event>
<event>
 7    1  0.7527776E-006  0.1685838E+03  0.7818608E-02  0.1197703E+00
          2   -1    0    0  502    0  0.00000000000E+00  0.00000000000E+00  0.18214414261E+04  0.18214414261E+04  0.00000000000E+00 0. -1.
          1   -1    0    0  501    0 -0.00000000000E+00 -0.00000000000E+00 -0.62266986351E+03  0.62266986351E+03  0.00000000000E+00 0. -1.
         25    2    1    2    0    0 -0.12469773273E+03  0.24841149015E+03  0.10618027413E+02  0.30493908845E+03  0.12496924489E+03 0.  0.
          2    1    1    2  501    0  0.11397142217E+01 -0.13754159301E+03 -0.46130831135E+03  0.48137755128E+03  0.00000000000E+00 0. -1.
          1    1    1    2  502    0  0.12355801851E+03 -0.11086989714E+03  0.16494618466E+04  0.16577946499E+04  0.00000000000E+00 0. -1.
         22    1    3    3    0    0 -0.10402653503E+03  0.10707214661E+03  0.48839604920E+02  0.15707091258E+03  0.00000000000E+00 0. -1.
         22    1    3    3    0    0 -0.20671197705E+02  0.14133934354E+03 -0.38221577507E+02  0.14786817587E+03  0.00000000000E+00 0. -1.
</event>
<event>
 7    1  0.7527776E-006  0.2262949E+03  0.7818608E-02  0.1366158E+00
          2   -1    0    0  502    0  0.00000000000E+00  0.00000000000E+00  0.82356491955E+03  0.82356491955E+03  0.00000000000E+00 0. -1.
          1   -1    0    0  501    0 -0.00000000000E+00 -0.00000000000E+00 -0.32088716077E+03  0.32088716077E+03  0.00000000000E+00 0. -1.
         25    2    1    2    0    0  0.23246789246E+02  0.20887273170E+03  0.57960758417E+02  0.25130091037E+03  0.12499786710E+03 0.  0.
          2    1    1    2  501    0 -0.48843318783E+01  0.19994273593E+02 -0.20398196395E+03  0.20501772921E+03  0.00000000000E+00 0. -1.
          1    1    1    2  502    0 -0.18362457368E+02 -0.22886700530E+03  0.64869896431E+03  0.68813344073E+03  0.00000000000E+00 0. -1.
         22    1    3    3    0    0  0.65040184558E+02  0.18053959918E+03  0.59111204758E+02  0.20079568473E+03  0.00000000000E+00 0.  1.
         22    1    3    3    0    0 -0.41793395312E+02  0.28333132525E+02 -0.11504463409E+01  0.50505225642E+02  0.00000000000E+00 0.  1.
</event>
<event>
 7    1  0.7527776E-006  0.7286150E+02  0.7818608E-02  0.1368044E+00
          2   -1    0    0  502    0  0.00000000000E+00  0.00000000000E+00  0.98020566107E+03  0.98020566107E+03  0.00000000000E+00 0. -1.
          1   -1    0    0  501    0 -0.00000000000E+00 -0.00000000000E+00 -0.88287826726E+02  0.88287826726E+02  0.00000000000E+00 0. -1.
         25    2    1    2    0    0 -0.49740109274E+02 -0.68634619106E+02  0.30357498123E+03  0.33906481014E+03  0.12498954691E+03 0.  0.
          2    1    1    2  501    0 -0.13073286738E+02  0.72466386891E+02 -0.49346465953E+02  0.88641760797E+02  0.00000000000E+00 0. -1.
          1    1    1    2  502    0  0.62813396012E+02 -0.38317677850E+01  0.63768931907E+03  0.64078691686E+03  0.00000000000E+00 0. -1.
         22    1    3    3    0    0 -0.56205767118E+02 -0.77307927403E+02  0.31138368217E+03  0.32572289054E+03  0.00000000000E+00 0. -1.
         22    1    3    3    0    0  0.64656578438E+01  0.86733082969E+01 -0.78087009461E+01  0.13341919601E+02  0.00000000000E+00 0. -1.
</event>
<event>
 7    1  0.7527776E-006  0.7617430E+02  0.7818608E-02  0.1464742E+00
          2   -1    0    0  502    0  0.00000000000E+00  0.00000000000E+00  0.19581111418E+03  0.19581111418E+03  0.00000000000E+00 0. -1.
          1   -1    0    0  501    0 -0.00000000000E+00 -0.00000000000E+00 -0.62604506934E+03  0.62604506934E+03  0.00000000000E+00 0. -1.
         25    2    1    2    0    0  0.43842235583E+02 -0.24730438498E+02 -0.85998645975E+02  0.15985686091E+03  0.12499885063E+03 0.  0.
          2    1    1    2  501    0 -0.64773289185E+02  0.44039449647E+02 -0.49875984334E+03  0.50487269033E+03  0.00000000000E+00 0. -1.
          1    1    1    2  502    0  0.20931053601E+02 -0.19309011149E+02  0.15452453416E+03  0.15712663228E+03  0.00000000000E+00 0. -1.
         22    1    3    3    0    0  0.26244922338E+02 -0.48418325807E+02  0.12971776622E+02  0.56580890866E+02  0.00000000000E+00 0. -1.
         22    1    3    3    0    0  0.17597313245E+02  0.23687887309E+02 -0.98970422597E+02  0.10327597004E+03  0.00000000000E+00 0. -1.
</event>
<event>
 7    1  0.7527776E-006  0.4368732E+02  0.7818608E-02  0.1490808E+00
          2   -1    0    0  502    0  0.00000000000E+00  0.00000000000E+00  0.36317869875E+03  0.36317869875E+03  0.00000000000E+00 0. -1.
          1   -1    0    0  501    0 -0.00000000000E+00 -0.00000000000E+00 -0.10266945464E+04  0.10266945464E+04  0.00000000000E+00 0. -1.
         25    2    1    2    0    0 -0.63193839145E+02  0.50925035976E+02 -0.36449212760E+03  0.39378525797E+03  0.12500199085E+03 0.  0.
          2    1    1    2  501    0  0.37792002111E+02 -0.18386628680E+02 -0.64564797935E+03  0.64701438684E+03  0.00000000000E+00 0. -1.
          1    1    1    2  502    0  0.25401837034E+02 -0.32538407296E+02  0.34662425933E+03  0.34907360031E+03  0.00000000000E+00 0. -1.
         22    1    3    3    0    0 -0.89512957612E+02 -0.22009510491E+01 -0.20895643375E+03  0.22733280663E+03  0.00000000000E+00 0. -1.
         22    1    3    3    0    0  0.26319118467E+02  0.53125987025E+02 -0.15553569385E+03  0.16645245134E+03  0.00000000000E+00 0. -1.
</event>
<event>
 7    1  0.7527776E-006  0.1334641E+03  0.7818608E-02  0.1343186E+00
          2   -1    0    0  502    0  0.00000000000E+00  0.00000000000E+00  0.12787552796E+04  0.12787552796E+04  0.00000000000E+00 0. -1.
          1   -1    0    0  501    0 -0.00000000000E+00 -0.00000000000E+00 -0.18745899300E+03  0.18745899300E+03  0.00000000000E+00 0. -1.
         25    2    1    2    0    0 -0.12757256222E+03  0.12035161673E+02  0.18030083401E+02  0.17991542132E+03  0.12499948469E+03 0.  0.
          2    1    1    2  501    0 -0.29801900077E+01 -0.42290649642E+02 -0.98321027901E+02  0.10707196228E+03  0.00000000000E+00 0. -1.
          1    1    1    2  502    0  0.13055275223E+03  0.30255487970E+02  0.11715872311E+04  0.11792268890E+04  0.00000000000E+00 0. -1.
         22    1    3    3    0    0 -0.99086459353E+02  0.63570028022E+02 -0.19281715290E+01  0.11774121086E+03  0.00000000000E+00 0.  1.
         22    1    3    3    0    0 -0.28486102869E+02 -0.51534866349E+02  0.19958254930E+02  0.62174210459E+02  0.00000000000E+00 0.  1.
</event>
<event>
 7    1  0.7527776E-006  0.6929711E+02  0.7818608E-02  0.1387652E+00
          2   -1    0    0  502    0  0.00000000000E+00  0.00000000000E+00  0.11518654820E+03  0.11518654820E+03  0.00000000000E+00 0. -1.
          1   -1    0    0  501    0 -0.00000000000E+00 -0.00000000000E+00 -0.17698209176E+03  0.17698209176E+03  0.00000000000E+00 0. -1.
         25    2    1    2    0    0 -0.81782262900E+01  0.33487934662E+02 -0.24148049792E+02  0.13189757063E+03  0.12500206269E+03 0.  0.
          2    1    1    2  501    0 -0.37730596119E+02  0.41866306525E+02 -0.44439739639E+02  0.71772389989E+02  0.00000000000E+00 0. -1.
          1    1    1    2  502    0  0.45908822409E+02 -0.75354241188E+02  0.67922458786E+01  0.88498679335E+02  0.00000000000E+00 0. -1.
         22    1    3    3    0    0 -0.38724201302E+02  0.40370518722E+02 -0.61514280385E+02  0.83146552783E+02  0.00000000000E+00 0.  1.
         22    1    3    3    0    0  0.30545975012E+02 -0.68825840593E+01  0.37366230593E+02  0.48751017851E+02  0.00000000000E+00 0.  1.
</event>
<event>
 7    1  0.7527776E-006  0.6435543E+02  0.7818608E-02  0.1463781E+00
          2   -1    0    0  502    0  0.00000000000E+00  0.00000000000E+00  0.25672283051E+03  0.25672283051E+03  0.00000000000E+00 0. -1.
          1   -1    0    0  501    0 -0.00000000000E+00 -0.00000000000E+00 -0.18690658452E+03  0.18690658452E+03  0.00000000000E+00 0. -1.
         25    2    1    2    0    0 -0.60993893136E+02  0.52357581644E+00  0.12107432465E+03  0.18440549028E+03  0.12500345445E+03 0.  0.
          2    1    1    2  501    0  0.55279865000E+02 -0.33980852216E+02 -0.14536116646E+03  0.15918677868E+03  0.00000000000E+00 0. -1.
          1    1    1    2  502    0  0.57140281353E+01  0.33457276400E+02  0.94103087794E+02  0.10003714607E+03  0.00000000000E+00 0. -1.
         22    1    3    3    0    0 -0.68582193809E+02  0.47411136951E+02  0.10539799795E+03  0.13438776427E+03  0.00000000000E+00 0. -1.
         22    1    3    3    0    0  0.75883006735E+01 -0.46887561135E+02  0.15676326705E+02  0.50017726010E+02  0.00000000000E+00 0. -1.
</event>
<event>
 7    1  0.7527776E-006  0.7883953E+02  0.7818608E-02  0.1485957E+00
          2   -1    0    0  502    0  0.00000000000E+00  0.00000000000E+00  0.41197935889E+02  0.41197935889E+02  0.00000000000E+00 0. -1.
          1   -1    0    0  501    0 -0.00000000000E+00 -0.00000000000E+00 -0.20777231375E+04  0.20777231375E+04  0.00000000000E+00 0. -1.
         25    2    1    2    0    0 -0.13940762300E+01  0.83479855246E+02 -0.76715001697E+03  0.78173900920E+03  0.12500360107E+03 0.  0.
          2    1    1    2  501    0  0.23472335089E+02 -0.74967770550E+02 -0.12978124014E+04  0.13001877350E+04  0.00000000000E+00 0. -1.
          1    1    1    2  502    0 -0.22078258859E+02 -0.85120846967E+01  0.28437216698E+02  0.36994329209E+02  0.00000000000E+00 0. -1.
         22    1    3    3    0    0 -0.62106383247E+02  0.28971185508E+02 -0.33024888531E+03  0.33728453668E+03  0.00000000000E+00 0. -1.
         22    1    3    3    0    0  0.60712307017E+02  0.54508669738E+02 -0.43690113166E+03  0.44445447252E+03  0.00000000000E+00 0. -1.
</event>
<event>
 7    1  0.7527776E-006  0.4914321E+02  0.7818608E-02  0.1472317E+00
          2   -1    0    0  502    0  0.00000000000E+00  0.00000000000E+00  0.26432570804E+04  0.26432570804E+04  0.00000000000E+00 0. -1.
          1   -1    0    0  501    0 -0.00000000000E+00 -0.00000000000E+00 -0.20609945443E+04  0.20609945443E+04  0.00000000000E+00 0. -1.
         25    2    1    2    0    0 -0.83468430662E+01 -0.71055697084E+02  0.34912109856E+02  0.14819754815E+03  0.12500030395E+03 0.  0.
          2    1    1    2  501    0 -0.24073627397E+02  0.34178173933E+02 -0.20038975741E+04  0.20043335986E+04  0.00000000000E+00 0. -1.
          1    1    1    2  502    0  0.32420470463E+02  0.36877523151E+02  0.25512480003E+04  0.25517204779E+04  0.00000000000E+00 0. -1.
         22    1    3    3    0    0  0.64596267902E+01  0.29581702636E+02  0.35259475655E+02  0.46476171664E+02  0.00000000000E+00 0. -1.
         22    1    3    3    0    0 -0.14806469856E+02 -0.10063739972E+03 -0.34736579926E+00  0.10172137649E+03  0.00000000000E+00 0. -1.
</event>
<event>
 7    1  0.1417567E-005  0.6468853E+02  0.7818608E-02  0.1411151E+00
          2   -1    0    0  502    0  0.00000000000E+00  0.00000000000E+00  0.21419805274E+04  0.21419805274E+04  0.00000000000E+00 0. -1.
          1   -1    0    0  501    0 -0.00000000000E+00 -0.00000000000E+00 -0.10586503942E+04  0.10586503942E+04  0.00000000000E+00 0. -1.
         25    2    1    2    0    0 -0.19682440235E+02 -0.69302679468E+01 -0.26002300955E+03  0.28926278686E+03  0.12500226918E+03 0.  0.
          2    1    1    2  501    0 -0.14873875247E+02 -0.47857535777E+02 -0.78271284772E+03  0.78431561114E+03  0.00000000000E+00 0. -1.
          1    1    1    2  502    0  0.34556315482E+02  0.54787803723E+02  0.21260659905E+04  0.21270525236E+04  0.00000000000E+00 0. -1.
         22    1    3    3    0    0  0.40195842396E+02 -0.95496283172E+01 -0.28709327235E+02  0.50310303291E+02  0.00000000000E+00 0. -1.
         22    1    3    3    0    0 -0.59878282631E+02  0.26193603704E+01 -0.23131368231E+03  0.23895248357E+03  0.00000000000E+00 0. -1.
</event>
<event>
 7    1  0.7527776E-006  0.4810869E+02  0.7818608E-02  0.1469801E+00
          2   -1    0    0  502    0  0.00000000000E+00  0.00000000000E+00  0.24980542635E+02  0.24980542635E+02  0.00000000000E+00 0. -1.
          1   -1    0    0  501    0 -0.00000000000E+00 -0.00000000000E+00 -0.23831233110E+04  0.23831233110E+04  0.00000000000E+00 0. -1.
         25    2    1    2    0    0 -0.95050981353E+01  0.15962913855E+02 -0.24433171832E+03  0.27507714404E+03  0.12499714032E+03 0.  0.
          2    1    1    2  501    0  0.37978528161E+02  0.29530959517E+02 -0.20459132750E+04  0.20464788235E+04  0.00000000000E+00 0. -1.
          1    1    1    2  502    0 -0.28473430026E+02 -0.45493873373E+02 -0.67897775015E+02  0.86547886074E+02  0.00000000000E+00 0. -1.
         22    1    3    3    0    0 -0.55612965248E+02  0.43285224417E+02 -0.11228444196E+03  0.13256775046E+03  0.00000000000E+00 0. -1.
         22    1    3    3    0    0  0.46107867113E+02 -0.27322310561E+02 -0.13204727636E+03  0.14250939358E+03  0.00000000000E+00 0. -1.
</event>
<event>
 7    1  0.7527776E-006  0.9197030E+02  0.7818608E-02  0.1318901E+00
          2   -1    0    0  502    0  0.00000000000E+00  0.00000000000E+00  0.66752106642E+03  0.66752106642E+03  0.00000000000E+00 0. -1.
          1   -1    0    0  501    0 -0.00000000000E+00 -0.00000000000E+00 -0.16246756050E+03  0.16246756050E+03  0.00000000000E+00 0. -1.
         25    2    1    2    0    0  0.23110779580E+02  0.17441308151E+02 -0.27780098031E+02  0.13128991482E+03  0.12500800184E+03 0.  0.
          2    1    1    2  501    0 -0.11454887655E+03 -0.27321082670E+02 -0.35480547947E+02  0.12299087754E+03  0.00000000000E+00 0. -1.
          1    1    1    2  502    0  0.91438096965E+02  0.98797745195E+01  0.56831415191E+03  0.57570783456E+03  0.00000000000E+00 0. -1.
         22    1    3    3    0    0 -0.30546988258E+02  0.54926698640E+02 -0.12671626786E+02  0.64114201551E+02  0.00000000000E+00 0. -1.
         22    1    3    3    0    0  0.53657767838E+02 -0.37485390489E+02 -0.15108471245E+02  0.67175713267E+02  0.00000000000E+00 0. -1.
</event>
<event>
 7    1  0.7527776E-006  0.7817354E+02  0.7818608E-02  0.1419604E+00
          2   -1    0    0  502    0  0.00000000000E+00  0.00000000000E+00  0.69029731553E+03  0.69029731553E+03  0.00000000000E+00 0. -1.
          1   -1    0    0  501    0 -0.00000000000E+00 -0.00000000000E+00 -0.17629829122E+04  0.17629829122E+04  0.00000000000E+00 0. -1.
         25    2    1    2    0    0  0.91978724353E+01 -0.50904576461E+02  0.13729176622E+03  0.19274353709E+03  0.12500066103E+03 0.  0.
          2    1    1    2  501    0  0.20853524064E+02  0.75516179519E+02 -0.17336531027E+04  0.17354223242E+04  0.00000000000E+00 0. -1.
          1    1    1    2  502    0 -0.30051396500E+02 -0.24611603058E+02  0.52367573978E+03  0.52511436647E+03  0.00000000000E+00 0. -1.
         22    1    3    3    0    0 -0.33260211569E+02 -0.78079155033E+02  0.86795896666E+02  0.12139243717E+03  0.00000000000E+00 0. -1.
         22    1    3    3    0    0  0.42458084004E+02  0.27174578572E+02  0.50495869551E+02  0.71351099918E+02  0.00000000000E+00 0. -1.
</event>
<event>
 7    1  0.7527776E-006  0.7296255E+02  0.7818608E-02  0.1521165E+00
          2   -1    0    0  502    0  0.00000000000E+00  0.00000000000E+00  0.80177946422E+02  0.80177946422E+02  0.00000000000E+00 0. -1.
          1   -1    0    0  501    0 -0.00000000000E+00 -0.00000000000E+00 -0.55510793819E+03  0.55510793819E+03  0.00000000000E+00 0. -1.
         25    2    1    2    0    0 -0.53289005439E+02  0.65525583117E+02 -0.29289575194E+02  0.15367469443E+03  0.12499884939E+03 0.  0.
          2    1    1    2  501    0  0.76135753022E+01 -0.18599058737E+02 -0.40292487349E+03  0.40342576168E+03  0.00000000000E+00 0. -1.
          1    1    1    2  502    0  0.45675430137E+02 -0.46926524381E+02 -0.42715543088E+02  0.78185428501E+02  0.00000000000E+00 0. -1.
         22    1    3    3    0    0 -0.64508199394E+02  0.77548644561E+00 -0.53328637174E+02  0.83700971984E+02  0.00000000000E+00 0.  1.
         22    1    3    3    0    0  0.11219193954E+02  0.64750096672E+02  0.24039061979E+02  0.69973722445E+02  0.00000000000E+00 0.  1.
</event>
<event>
 7    1  0.7527776E-006  0.3723276E+02  0.7818608E-02  0.1562482E+00
          2   -1    0    0  502    0  0.00000000000E+00  0.00000000000E+00  0.15963486606E+03  0.15963486606E+03  0.00000000000E+00 0. -1.
          1   -1    0    0  501    0 -0.00000000000E+00 -0.00000000000E+00 -0.98363280131E+02  0.98363280131E+02  0.00000000000E+00 0. -1.
         25    2    1    2    0    0  0.16008062314E+02 -0.45596023916E+02  0.72378253810E+02  0.15231408972E+03  0.12500285935E+03 0.  0.
          2    1    1    2  501    0  0.15088037351E+02  0.26061767844E+02 -0.46030669270E+02  0.55006246261E+02  0.00000000000E+00 0. -1.
          1    1    1    2  502    0 -0.31096099664E+02  0.19534256072E+02  0.34924001390E+02  0.50677810210E+02  0.00000000000E+00 0. -1.
         22    1    3    3    0    0  0.67079764198E+00 -0.49602694837E+02  0.10495345658E+03  0.11608662866E+03  0.00000000000E+00 0. -1.
         22    1    3    3    0    0  0.15337264672E+02  0.40066709210E+01 -0.32575202771E+02  0.36227461063E+02  0.00000000000E+00 0. -1.
</event>
<event>
 7    1  0.7527776E-006  0.1186637E+03  0.7818608E-02  0.1271568E+00
          2   -1    0    0  502    0  0.00000000000E+00  0.00000000000E+00  0.84448605716E+03  0.84448605716E+03  0.00000000000E+00 0. -1.
          1   -1    0    0  501    0 -0.00000000000E+00 -0.00000000000E+00 -0.52699510159E+03  0.52699510159E+03  0.00000000000E+00 0. -1.
         25    2    1    2    0    0  0.22127765860E+02 -0.69650905364E+02 -0.19971672015E+03  0.24668658323E+03  0.12500646142E+03 0.  0.
          2    1    1    2  501    0 -0.16378839339E+02  0.16108936933E+03 -0.27940415207E+03  0.32293146561E+03  0.00000000000E+00 0. -1.
          1    1    1    2  502    0 -0.57489265217E+01 -0.91438463963E+02  0.79661182780E+03  0.80186310991E+03  0.00000000000E+00 0. -1.
         22    1    3    3    0    0 -0.48458293919E+02 -0.53767545529E+02 -0.96084931039E+02  0.12029741965E+03  0.00000000000E+00 0.  1.
         22    1    3    3    0    0  0.70586059779E+02 -0.15883359835E+02 -0.10363178911E+03  0.12638916358E+03  0.00000000000E+00 0.  1.
</event>
<event>
 7    1  0.7527776E-006  0.8138898E+02  0.7818608E-02  0.1347541E+00
          2   -1    0    0  502    0  0.00000000000E+00  0.00000000000E+00  0.15317778829E+04  0.15317778829E+04  0.00000000000E+00 0. -1.
          1   -1    0    0  501    0 -0.00000000000E+00 -0.00000000000E+00 -0.87142298471E+02  0.87142298471E+02  0.00000000000E+00 0. -1.
         25    2    1    2    0    0 -0.47662397591E+02 -0.15501801485E+02  0.37111737384E+02  0.13969495457E+03  0.12500155713E+03 0.  0.
          2    1    1    2  501    0  0.10235124612E+03  0.54152346905E+02  0.60703264421E+02  0.13074073798E+03  0.00000000000E+00 0. -1.
          1    1    1    2  502    0 -0.54688848526E+02 -0.38650545420E+02  0.13468205826E+04  0.13484844888E+04  0.00000000000E+00 0. -1.
         22    1    3    3    0    0 -0.36570405918E+02  0.31307860172E+02 -0.30296923749E+02  0.56881282389E+02  0.00000000000E+00 0.  1.
         22    1    3    3    0    0 -0.11091991674E+02 -0.46809661657E+02  0.67408661133E+02  0.82813672177E+02  0.00000000000E+00 0.  1.
</event>
<event>
 7    1  0.7527776E-006  0.4611182E+02  0.7818608E-02  0.1548378E+00
          2   -1    0    0  502    0  0.00000000000E+00  0.00000000000E+00  0.11887917551E+04  0.11887917551E+04  0.00000000000E+00 0. -1.
          1   -1    0    0  501    0 -0.00000000000E+00 -0.00000000000E+00 -0.30366040148E+03  0.30366040148E+03  0.00000000000E+00 0. -1.
         25    2    1    2    0    0 -0.32724823325E+01  0.19439088675E+02  0.30108551988E+03  0.32659769524E+03  0.12499990776E+03 0.  0.
          2    1    1    2  501    0  0.10124483923E+02 -0.45145482898E+02 -0.28886074847E+03  0.29254256410E+03  0.00000000000E+00 0. -1.
          1    1    1    2  502    0 -0.68520015903E+01  0.25706394223E+02  0.87290658223E+03  0.87331189728E+03  0.00000000000E+00 0. -1.
         22    1    3    3    0    0  0.23440104868E+02  0.51485678397E+02  0.26640670116E+03  0.27234673491E+03  0.00000000000E+00 0. -1.
         22    1    3    3    0    0 -0.26712587200E+02 -0.32046589722E+02  0.34678818726E+02  0.54250960323E+02  0.00000000000E+00 0. -1.
</event>
<event>
 7    1  0.7527776E-006  0.1526209E+03  0.7818608E-02  0.1363144E+00
          2   -1    0    0  502    0  0.00000000000E+00  0.00000000000E+00  0.10136045589E+04  0.10136045589E+04  0.00000000000E+00 0. -1.
          1   -1    0    0  501    0 -0.00000000000E+00 -0.00000000000E+00 -0.60736757765E+02  0.60736757765E+02  0.00000000000E+00 0. -1.
         25    2    1    2    0    0 -0.13258890548E+03 -0.84415955977E+02  0.51049661494E+03  0.54857720534E+03  0.12499713945E+03 0.  0.
          2    1    1    2  501    0  0.23847017646E+02 -0.20265669555E+02 -0.21489713540E+02  0.37962947741E+02  0.00000000000E+00 0. -1.
          1    1    1    2  502    0  0.10874188784E+03  0.10468162553E+03  0.46386089972E+03  0.48780116358E+03  0.00000000000E+00 0. -1.
         22    1    3    3    0    0  0.73937791285E+01 -0.30026792358E+02  0.21393696502E+03  0.21616035999E+03  0.00000000000E+00 0.  1.
         22    1    3    3    0    0 -0.13998268461E+03 -0.54389163619E+02  0.29655964992E+03  0.33241684535E+03  0.00000000000E+00 0.  1.
</event>
<event>
 7    1  0.7527776E-006  0.5227655E+02  0.7818608E-02  0.1484879E+00
          2   -1    0    0  502    0  0.00000000000E+00  0.00000000000E+00  0.33781129955E+03  0.33781129955E+03  0.00000000000E+00 0. -1.
          1   -1    0    0  501    0 -0.00000000000E+00 -0.00000000000E+00 -0.31167076069E+03  0.31167076069E+03  0.00000000000E+00 0. -1.
         25    2    1    2    0    0 -0.13169890079E+02 -0.18206596486E+02 -0.62230933213E+02  0.14143020037E+03  0.12499954547E+03 0.  0.
          2    1    1    2  501    0  0.47938895983E+02  0.27370104300E+02 -0.20509338927E+03  0.21239246380E+03  0.00000000000E+00 0. -1.
          1    1    1    2  502    0 -0.34769005904E+02 -0.91635078135E+01  0.29346486134E+03  0.29565939607E+03  0.00000000000E+00 0. -1.
         22    1    3    3    0    0 -0.56017319217E+02  0.24971903687E+02 -0.50573054896E+02  0.79493206675E+02  0.00000000000E+00 0.  1.
         22    1    3    3    0    0  0.42847429137E+02 -0.43178500173E+02 -0.11657878317E+02  0.61936993693E+02  0.00000000000E+00 0.  1.
</event>
<event>
 7    1  0.7527776E-006  0.9134136E+02  0.7818608E-02  0.1388936E+00
          2   -1    0    0  502    0  0.00000000000E+00  0.00000000000E+00  0.47956587415E+03  0.47956587415E+03  0.00000000000E+00 0. -1.
          1   -1    0    0  501    0 -0.00000000000E+00 -0.00000000000E+00 -0.63230246655E+03  0.63230246655E+03  0.00000000000E+00 0. -1.
         25    2    1    2    0    0  0.13188095361E+03 -0.15397079843E+00  0.78021660267E+02  0.19774934450E+03  0.12499925658E+03 0.  0.
          2    1    1    2  501    0 -0.90073486092E+02 -0.63985288617E+01 -0.56754509023E+03  0.57468391618E+03  0.00000000000E+00 0. -1.
          1    1    1    2  502    0 -0.41807467521E+02  0.65524996602E+01  0.33678683757E+03  0.33943508002E+03  0.00000000000E+00 0. -1.
         22    1    3    3    0    0  0.17967226687E+01  0.23326432524E+02  0.59924908478E+02  0.64329972196E+02  0.00000000000E+00 0.  1.
         22    1    3    3    0    0  0.13008423094E+03 -0.23480403323E+02  0.18096751789E+02  0.13341937230E+03  0.00000000000E+00 0.  1.
</event>
<event>
 7    1  0.7527776E-006  0.8378504E+02  0.7818608E-02  0.1338811E+00
          2   -1    0    0  502    0  0.00000000000E+00  0.00000000000E+00  0.65407955655E+03  0.65407955655E+03  0.00000000000E+00 0. -1.
          1   -1    0    0  501    0 -0.00000000000E+00 -0.00000000000E+00 -0.32315001217E+03  0.32315001217E+03  0.00000000000E+00 0. -1.
         25    2    1    2    0    0  0.35749064846E+02  0.13731366008E+03  0.14935720865E+02  0.18968626888E+03  0.12499907185E+03 0.  0.
          2    1    1    2  501    0  0.48781999303E+01 -0.80140310612E+02 -0.22661633459E+03  0.24041886224E+03  0.00000000000E+00 0. -1.
          1    1    1    2  502    0 -0.40627264777E+02 -0.57173349467E+02  0.54261015810E+03  0.54712443759E+03  0.00000000000E+00 0. -1.
         22    1    3    3    0    0  0.18895889405E+02  0.11797824006E+03  0.63098271015E+02  0.13511961948E+03  0.00000000000E+00 0.  1.
         22    1    3    3    0    0  0.16853175441E+02  0.19335420023E+02 -0.48162550150E+02  0.54566649402E+02  0.00000000000E+00 0.  1.
</event>
<event>
 7    1  0.7527776E-006  0.7818620E+02  0.7818608E-02  0.1436163E+00
          2   -1    0    0  502    0  0.00000000000E+00  0.00000000000E+00  0.27001461706E+03  0.27001461706E+03  0.00000000000E+00 0. -1.
          1   -1    0    0  501    0 -0.00000000000E+00 -0.00000000000E+00 -0.47641849816E+03  0.47641849816E+03  0.00000000000E+00 0. -1.
         25    2    1    2    0    0  0.68590132924E+02  0.82115697498E+02 -0.36221213018E+03  0.39783047554E+03  0.12499546353E+03 0.  0.
          2    1    1    2  501    0 -0.80856060203E+01 -0.33274176352E+02 -0.87080313684E+02  0.93570983044E+02  0.00000000000E+00 0. -1.
          1    1    1    2  502    0 -0.60504526903E+02 -0.48841521146E+02  0.24288856277E+03  0.25503165664E+03  0.00000000000E+00 0. -1.
         22    1    3    3    0    0  0.97181303028E+02  0.25791445590E+02 -0.24139706763E+03  0.26149942368E+03  0.00000000000E+00 0. -1.
         22    1    3    3    0    0 -0.28591170104E+02  0.56324251908E+02 -0.12081506256E+03  0.13633105186E+03  0.00000000000E+00 0. -1.
</event>
<event>
 7    1  0.7527776E-006  0.1003118E+03  0.7818608E-02  0.1382301E+00
          2   -1    0    0  502    0  0.00000000000E+00  0.00000000000E+00  0.13801975689E+04  0.13801975689E+04  0.00000000000E+00 0. -1.
          1   -1    0    0  501    0 -0.00000000000E+00 -0.00000000000E+00 -0.65900468893E+03  0.65900468893E+03  0.00000000000E+00 0. -1.
         25    2    1    2    0    0 -0.33495319311E+02  0.60816461734E+02 -0.41896905443E+03  0.44269654617E+03  0.12499833991E+03 0.  0.
          2    1    1    2  501    0  0.14766966040E+02  0.37881205283E+02 -0.22449961655E+03  0.22815154357E+03  0.00000000000E+00 0. -1.
          1    1    1    2  502    0  0.18728353272E+02 -0.98697667017E+02  0.13646615510E+04  0.13683541681E+04  0.00000000000E+00 0. -1.
         22    1    3    3    0    0 -0.57296015273E+02  0.72145476386E+01 -0.33696950217E+03  0.34188203880E+03  0.00000000000E+00 0. -1.
         22    1    3    3    0    0  0.23800695961E+02  0.53601914095E+02 -0.81999552263E+02  0.10081450736E+03  0.00000000000E+00 0. -1.
</event>
<event>
 7    1  0.7527776E-006  0.9194398E+02  0.7818608E-02  0.1446789E+00
          2   -1    0    0  502    0  0.00000000000E+00  0.00000000000E+00  0.53594590880E+03  0.53594590880E+03  0.00000000000E+00 0. -1.
          1   -1    0    0  501    0 -0.00000000000E+00 -0.00000000000E+00 -0.12869271419E+03  0.12869271419E+03  0.00000000000E+00 0. -1.
         25    2    1    2    0    0 -0.79660181990E+02 -0.23038130270E+02  0.28596980768E+03  0.32292589537E+03  0.12500361178E+03 0.  0.
          2    1    1    2  501    0  0.92731893538E+02 -0.47291227988E+00 -0.89702267637E+02  0.12901908597E+03  0.00000000000E+00 0. -1.
          1    1    1    2  502    0 -0.13071711548E+02  0.23511042550E+02  0.21098565457E+03  0.21269364165E+03  0.00000000000E+00 0. -1.
         22    1    3    3    0    0 -0.87891926147E+02  0.26672768183E+02  0.22975228864E+03  0.24743189241E+03  0.00000000000E+00 0. -1.
         22    1    3    3    0    0  0.82317441571E+01 -0.49710898453E+02  0.56217519036E+02  0.75494002964E+02  0.00000000000E+00 0. -1.
</event>
<event>
 7    1  0.7527776E-006  0.4055792E+02  0.7818608E-02  0.1523151E+00
          2   -1    0    0  502    0  0.00000000000E+00  0.00000000000E+00  0.10836473924E+03  0.10836473924E+03  0.00000000000E+00 0. -1.
          1   -1    0    0  501    0 -0.00000000000E+00 -0.00000000000E+00 -0.95057933122E+03  0.95057933122E+03  0.00000000000E+00 0. -1.
         25    2    1    2    0    0  0.17152532595E+02  0.10302698061E+02 -0.14423325855E+03  0.19190285932E+03  0.12499247810E+03 0.  0.
          2    1    1    2  501    0 -0.36134628179E+02  0.19907138726E+02 -0.77817556524E+03  0.77926838500E+03  0.00000000000E+00 0. -1.
          1    1    1    2  502    0  0.18982095585E+02 -0.30209836787E+02  0.80194231818E+02  0.87772826138E+02  0.00000000000E+00 0. -1.
         22    1    3    3    0    0 -0.37591879003E+02  0.29314192610E+02 -0.11993853756E+03  0.12906480561E+03  0.00000000000E+00 0.  1.
         22    1    3    3    0    0  0.54744411598E+02 -0.19011494550E+02 -0.24294720996E+02  0.62838053713E+02  0.00000000000E+00 0.  1.
</event>
<event>
 7    1  0.7527776E-006  0.9054520E+02  0.7818608E-02  0.1454324E+00
          2   -1    0    0  502    0  0.00000000000E+00  0.00000000000E+00  0.39038883929E+03  0.39038883929E+03  0.00000000000E+00 0. -1.
          1   -1    0    0  501    0 -0.00000000000E+00 -0.00000000000E+00 -0.11594689481E+04  0.11594689481E+04  0.00000000000E+00 0. -1.
         25    2    1    2    0    0  0.41420834154E+02 -0.55610244970E+02 -0.64095469893E+02  0.15665422039E+03  0.12499652259E+03 0.  0.
          2    1    1    2  501    0  0.88188469470E+00 -0.25826976037E+02 -0.10428128226E+04  0.10431329702E+04  0.00000000000E+00 0. -1.
          1    1    1    2  502    0 -0.42302718849E+02  0.81437221006E+02  0.33782818376E+03  0.35007059678E+03  0.00000000000E+00 0. -1.
         22    1    3    3    0    0  0.13976921001E+02  0.15931009834E+02  0.29102241855E+02  0.36001276033E+02  0.00000000000E+00 0.  1.
         22    1    3    3    0    0  0.27443913153E+02 -0.71541254803E+02 -0.93197711747E+02  0.12065294436E+03  0.00000000000E+00 0.  1.
</event>
<event>
 7    1  0.7527776E-006  0.8178107E+02  0.7818608E-02  0.1365856E+00
          2   -1    0    0  502    0  0.00000000000E+00  0.00000000000E+00  0.10781353230E+03  0.10781353230E+03  0.00000000000E+00 0. -1.
          1   -1    0    0  501    0 -0.00000000000E+00 -0.00000000000E+00 -0.15460704108E+04  0.15460704108E+04  0.00000000000E+00 0. -1.
         25    2    1    2    0    0 -0.28891879441E+02 -0.67105899553E+01 -0.54416715445E+03  0.55912683186E+03  0.12500059763E+03 0.  0.
          2    1    1    2  501    0 -0.53600473450E+02  0.19671119058E+02 -0.97606904934E+03  0.97773756845E+03  0.00000000000E+00 0. -1.
          1    1    1    2  502    0  0.82492352891E+02 -0.12960529103E+02  0.81979325339E+02  0.11701954274E+03  0.00000000000E+00 0. -1.
         22    1    3    3    0    0 -0.30786693607E+02  0.30633295742E+01 -0.54769216412E+03  0.54856532075E+03  0.00000000000E+00 0. -1.
         22    1    3    3    0    0  0.18948141658E+01 -0.97739195296E+01  0.35250096723E+01  0.10561511108E+02  0.00000000000E+00 0. -1.
</event>
<event>
 7    1  0.7527776E-006  0.1763743E+03  0.7818608E-02  0.1245927E+00
          2   -1    0    0  502    0  0.00000000000E+00  0.00000000000E+00  0.12455228176E+03  0.12455228176E+03  0.00000000000E+00 0. -1.
          1   -1    0    0  501    0 -0.00000000000E+00 -0.00000000000E+00 -0.14548551904E+04  0.14548551904E+04  0.00000000000E+00 0. -1.
         25    2    1    2    0    0  0.21214632950E+00 -0.11536101460E+03 -0.66408333506E+03  0.68552120953E+03  0.12499777647E+03 0.  0.
          2    1    1    2  501    0  0.50560027739E+02 -0.61154220291E+02 -0.70224569942E+03  0.70671435348E+03  0.00000000000E+00 0. -1.
          1    1    1    2  502    0 -0.50772174068E+02  0.17651523489E+03  0.36026125890E+02  0.18717190910E+03  0.00000000000E+00 0. -1.
         22    1    3    3    0    0 -0.24243945364E+02 -0.12137463268E+03 -0.36571754961E+03  0.38609441389E+03  0.00000000000E+00 0. -1.
         22    1    3    3    0    0  0.24456091694E+02  0.60136180782E+01 -0.29836578544E+03  0.29942679564E+03  0.00000000000E+00 0. -1.
</event>
<event>
 7    1  0.7527776E-006  0.1941479E+03  0.7818608E-02  0.1363163E+00
          2   -1    0    0  502    0  0.00000000000E+00  0.00000000000E+00  0.12892786200E+04  0.12892786200E+04  0.00000000000E+00 0. -1.
          1   -1    0    0  501    0 -0.00000000000E+00 -0.00000000000E+00 -0.23547845395E+03  0.23547845395E+03  0.00000000000E+00 0. -1.
         25    2    1    2    0    0 -0.17471009087E+03  0.19316164542E+02 -0.40515715300E+02  0.21946193264E+03  0.12500114651E+03 0.  0.
          2    1    1    2  501    0 -0.17050445616E+02  0.17728655759E+02 -0.95980457462E+02  0.99082143423E+02  0.00000000000E+00 0. -1.
          1    1    1    2  502    0  0.19176053648E+03 -0.37044820301E+02  0.11902963388E+04  0.12062129979E+04  0.00000000000E+00 0. -1.
         22    1    3    3    0    0 -0.11933076028E+02 -0.33734858620E+02 -0.32067734335E+02  0.48049751040E+02  0.00000000000E+00 0. -1.
         22    1    3    3    0    0 -0.16277701484E+03  0.53051023162E+02 -0.84479809648E+01  0.17141218160E+03  0.00000000000E+00 0. -1.
</event>
<event>
 7    1  0.7527776E-006  0.4089040E+02  0.7818608E-02  0.1538867E+00
          2   -1    0    0  502    0  0.00000000000E+00  0.00000000000E+00  0.61726003100E+03  0.61726003100E+03  0.00000000000E+00 0. -1.
          1   -1    0    0  501    0 -0.00000000000E+00 -0.00000000000E+00 -0.36761660440E+02  0.36761660440E+02  0.00000000000E+00 0. -1.
         25    2    1    2    0    0 -0.10013808376E+02  0.18768034486E+01  0.43458350255E+03  0.45231452722E+03  0.12498724774E+03 0.  0.
          2    1    1    2  501    0  0.40626605834E+02 -0.10874050274E+02 -0.94452902281E+01  0.43104287240E+02  0.00000000000E+00 0. -1.
          1    1    1    2  502    0 -0.30612797459E+02  0.89972468250E+01  0.15536015824E+03  0.15860287698E+03  0.00000000000E+00 0. -1.
         22    1    3    3    0    0  0.96827161270E+01  0.53701324234E+02  0.32452433451E+03  0.32907997646E+03  0.00000000000E+00 0. -1.
         22    1    3    3    0    0 -0.19696524503E+02 -0.51824520786E+02  0.11005916804E+03  0.12323455076E+03  0.00000000000E+00 0. -1.
</event>
<event>
 7    1  0.7527776E-006  0.1095846E+03  0.7818608E-02  0.1405192E+00
          2   -1    0    0  502    0  0.00000000000E+00  0.00000000000E+00  0.11616945446E+04  0.11616945446E+04  0.00000000000E+00 0. -1.
          1   -1    0    0  501    0 -0.00000000000E+00 -0.00000000000E+00 -0.69501548945E+03  0.69501548945E+03  0.00000000000E+00 0. -1.
         25    2    1    2    0    0  0.73648461070E+02  0.67409303205E+02 -0.42340861228E+03  0.45262451761E+03  0.12500396399E+03 0.  0.
          2    1    1    2  501    0 -0.10385941280E+03 -0.60479219142E+02 -0.24272419983E+03  0.27084968296E+03  0.00000000000E+00 0. -1.
          1    1    1    2  502    0  0.30210951725E+02 -0.69300840627E+01  0.11328118673E+04  0.11332358335E+04  0.00000000000E+00 0. -1.
         22    1    3    3    0    0  0.40744616172E+02  0.55432091577E+02 -0.40902384462E+03  0.41476902728E+03  0.00000000000E+00 0. -1.
         22    1    3    3    0    0  0.32903844898E+02  0.11977211628E+02 -0.14384767656E+02  0.37855490328E+02  0.00000000000E+00 0. -1.
</event>
<event>
 7    1  0.7527776E-006  0.2021174E+03  0.7818608E-02  0.1195500E+00
          2   -1    0    0  502    0  0.00000000000E+00  0.00000000000E+00  0.10713823159E+04  0.10713823159E+04  0.00000000000E+00 0. -1.
          1   -1    0    0  501    0 -0.00000000000E+00 -0.00000000000E+00 -0.40750979844E+03  0.40750979844E+03  0.00000000000E+00 0. -1.
         25    2    1    2    0    0 -0.65956185453E+02  0.94318218579E+02  0.43185345611E+03  0.46407534126E+03  0.12498947977E+03 0.  0.
          2    1    1    2  501    0  0.29905899647E+02 -0.20617327705E+03 -0.35745932890E+03  0.41373778510E+03  0.00000000000E+00 0. -1.
          1    1    1    2  502    0  0.36050285806E+02  0.11185505847E+03  0.58947839022E+03  0.60107898795E+03  0.00000000000E+00 0. -1.
         22    1    3    3    0    0 -0.37742096757E+01  0.89480642178E+02  0.34936542656E+03  0.36066221213E+03  0.00000000000E+00 0.  1.
         22    1    3    3    0    0 -0.62181975777E+02  0.48375764014E+01  0.82488029550E+02  0.10341312913E+03  0.00000000000E+00 0.  1.
</event>
<event>
 7    1  0.7527776E-006  0.2227533E+03  0.7818608E-02  0.1223607E+00
          2   -1    0    0  502    0  0.00000000000E+00  0.00000000000E+00  0.12796186520E+04  0.12796186520E+04  0.00000000000E+00 0. -1.
          1   -1    0    0  501    0 -0.00000000000E+00 -0.00000000000E+00 -0.39981063795E+03  0.39981063795E+03  0.00000000000E+00 0. -1.
         25    2    1    2    0    0 -0.75275714940E+02  0.18995308195E+03  0.42958119482E+02  0.24335066349E+03  0.12500215514E+03 0.  0.
          2    1    1    2  501    0  0.15262042176E+03 -0.17402600030E+03 -0.25326617980E+03  0.34310610567E+03  0.00000000000E+00 0. -1.
          1    1    1    2  502    0 -0.77344706822E+02 -0.15927081645E+02  0.10901160744E+04  0.10929725208E+04  0.00000000000E+00 0. -1.
         22    1    3    3    0    0 -0.31996546913E+02  0.29191901720E+01 -0.23923600214E+02  0.40057949683E+02  0.00000000000E+00 0.  1.
         22    1    3    3    0    0 -0.43279168027E+02  0.18703389177E+03  0.66881719696E+02  0.20329271381E+03  0.00000000000E+00 0.  1.
</event>
<event>
 7    1  0.7527776E-006  0.1005073E+03  0.7818608E-02  0.1362117E+00
          2   -1    0    0  502    0  0.00000000000E+00  0.00000000000E+00  0.56909336079E+03  0.56909336079E+03  0.00000000000E+00 0. -1.
          1   -1    0    0  501    0 -0.00000000000E+00 -0.00000000000E+00 -0.40395220536E+03  0.40395220536E+03  0.00000000000E+00 0. -1.
         25    2    1    2    0    0  0.75675727547E+02  0.98912892505E+02  0.28131155623E+03  0.33207164815E+03  0.12499924717E+03 0.  0.
          2    1    1    2  501    0 -0.27819360466E+02 -0.96224286103E+02 -0.36966112052E+03  0.38299134987E+03  0.00000000000E+00 0. -1.
          1    1    1    2  502    0 -0.47856367081E+02 -0.26886064012E+01  0.25349071972E+03  0.25798256813E+03  0.00000000000E+00 0. -1.
         22    1    3    3    0    0  0.66502611587E+02  0.13669988204E+02  0.20952799265E+03  0.22025313988E+03  0.00000000000E+00 0.  1.
         22    1    3    3    0    0  0.91731159594E+01  0.85242904301E+02  0.71783563576E+02  0.11181850826E+03  0.00000000000E+00 0.  1.
</event>
<event>
 7    1  0.7527776E-006  0.1389310E+03  0.7818608E-02  0.1387304E+00
          2   -1    0    0  502    0  0.00000000000E+00  0.00000000000E+00  0.38258098444E+03  0.38258098444E+03  0.00000000000E+00 0. -1.
          1   -1    0    0  501    0 -0.00000000000E+00 -0.00000000000E+00 -0.36736980107E+03  0.36736980107E+03  0.00000000000E+00 0. -1.
         25    2    1    2    0    0  0.12252588323E+03  0.30983142836E+02  0.17575359566E+03  0.24997209124E+03  0.12499669119E+03 0.  0.
          2    1    1    2  501    0  0.18872234907E+02  0.20941326787E+02 -0.29603612219E+03  0.29737532860E+03  0.00000000000E+00 0. -1.
          1    1    1    2  502    0 -0.14139811813E+03 -0.51924469623E+02  0.13549370990E+03  0.20260336567E+03  0.00000000000E+00 0. -1.
         22    1    3    3    0    0 -0.57790287814E+01 -0.26557165028E+02  0.31812079117E+01  0.27364215168E+02  0.00000000000E+00 0.  1.
         22    1    3    3    0    0  0.12830491201E+03  0.57540307864E+02  0.17257238775E+03  0.22260787607E+03  0.00000000000E+00 0.  1.
</event>
<event>
 7    1  0.7527776E-006  0.5841466E+02  0.7818608E-02  0.1463064E+00
          2   -1    0    0  502    0  0.00000000000E+00  0.00000000000E+00  0.38834092323E+02  0.38834092323E+02  0.00000000000E+00 0. -1.
          1   -1    0    0  501    0 -0.00000000000E+00 -0.00000000000E+00 -0.86161267374E+03  0.86161267374E+03  0.00000000000E+00 0. -1.
         25    2    1    2    0    0 -0.50529638481E+01  0.54088248427E+02 -0.37796756657E+03  0.40179039445E+03  0.12499987452E+03 0.  0.
          2    1    1    2  501    0 -0.36021790248E+02 -0.10737554349E+02 -0.43678569395E+03  0.43840005347E+03  0.00000000000E+00 0. -1.
          1    1    1    2  502    0  0.41074754096E+02 -0.43350694078E+02 -0.80253209002E+01  0.60256318147E+02  0.00000000000E+00 0. -1.
         22    1    3    3    0    0  0.14673222986E+01 -0.33031635722E+02 -0.36173565810E+02  0.49007844848E+02  0.00000000000E+00 0. -1.
         22    1    3    3    0    0 -0.65202861467E+01  0.87119884149E+02 -0.34179400076E+03  0.35278254960E+03  0.00000000000E+00 0. -1.
</event>
<event>
 7    1  0.7527776E-006  0.1098182E+03  0.7818608E-02  0.1268370E+00
          2   -1    0    0  502    0  0.00000000000E+00  0.00000000000E+00  0.88775668776E+03  0.88775668776E+03  0.00000000000E+00 0. -1.
          1   -1    0    0  501    0 -0.00000000000E+00 -0.00000000000E+00 -0.41146987898E+03  0.41146987898E+03  0.00000000000E+00 0. -1.
         25    2    1    2    0    0  0.99975465422E+01  0.14826607325E+02  0.10562224055E+03  0.16463561398E+03  0.12501619283E+03 0.  0.
          2    1    1    2  501    0  0.34685542563E+01 -0.11604322844E+03 -0.36955522416E+03  0.38736175010E+03  0.00000000000E+00 0. -1.
          1    1    1    2  502    0 -0.13466100798E+02  0.10121662112E+03  0.74021979239E+03  0.74722920266E+03  0.00000000000E+00 0. -1.
         22    1    3    3    0    0  0.71855355293E+01 -0.41253039057E+02 -0.33910717871E+01  0.42011242783E+02  0.00000000000E+00 0. -1.
         22    1    3    3    0    0  0.28120110129E+01  0.56079646382E+02  0.10901331234E+03  0.12262437120E+03  0.00000000000E+00 0. -1.
</event>
<event>
 7    1  0.7527776E-006  0.6488356E+02  0.7818608E-02  0.1414555E+00
          2   -1    0    0  502    0  0.00000000000E+00  0.00000000000E+00  0.76863335343E+03  0.76863335343E+03  0.00000000000E+00 0. -1.
          1   -1    0    0  501    0 -0.00000000000E+00 -0.00000000000E+00 -0.36985707403E+03  0.36985707403E+03  0.00000000000E+00 0. -1.
         25    2    1    2    0    0  0.39959263304E+02  0.79523690103E+02  0.92160246836E+02  0.17899547723E+03  0.12500043904E+03 0.  0.
          2    1    1    2  501    0  0.15233311391E+02 -0.46215016669E+02 -0.32297099232E+03  0.32661620202E+03  0.00000000000E+00 0. -1.
          1    1    1    2  502    0 -0.55192574695E+02 -0.33308673433E+02  0.62958702489E+03  0.63287874821E+03  0.00000000000E+00 0. -1.
         22    1    3    3    0    0 -0.42986113493E+02  0.48010679543E+02  0.44080269449E+02  0.78076254124E+02  0.00000000000E+00 0.  1.
         22    1    3    3    0    0  0.82945376797E+02  0.31513010560E+02  0.48079977388E+02  0.10091922311E+03  0.00000000000E+00 0.  1.
</event>
<event>
 7    1  0.7527776E-006  0.3463088E+02  0.7818608E-02  0.1553659E+00
          2   -1    0    0  502    0  0.00000000000E+00  0.00000000000E+00  0.14314885600E+03  0.14314885600E+03  0.00000000000E+00 0. -1.
          1   -1    0    0  501    0 -0.00000000000E+00 -0.00000000000E+00 -0.13820561691E+04  0.13820561691E+04  0.00000000000E+00 0. -1.
         25    2    1    2    0    0 -0.41558300351E+01  0.23989345002E+02 -0.21273349818E+03  0.24794174603E+03  0.12500723412E+03 0.  0.
          2    1    1    2  501    0 -0.29951754086E+02 -0.16599290166E+02 -0.11490332175E+04  0.11495433784E+04  0.00000000000E+00 0. -1.
          1    1    1    2  502    0  0.34107584121E+02 -0.73900548355E+01  0.12285940259E+03  0.12771990061E+03  0.00000000000E+00 0. -1.
         22    1    3    3    0    0 -0.29014769394E+02 -0.34685326634E+02 -0.29622282048E+02  0.54059303736E+02  0.00000000000E+00 0.  1.
         22    1    3    3    0    0  0.24858939359E+02  0.58674671636E+02 -0.18311121613E+03  0.19388244230E+03  0.00000000000E+00 0.  1.
</event>
<event>
 7    1  0.7527776E-006  0.2184248E+03  0.7818608E-02  0.1273064E+00
          2   -1    0    0  502    0  0.00000000000E+00  0.00000000000E+00  0.57357673416E+03  0.57357673416E+03  0.00000000000E+00 0. -1.
          1   -1    0    0  501    0 -0.00000000000E+00 -0.00000000000E+00 -0.55297661766E+03  0.55297661766E+03  0.00000000000E+00 0. -1.
         25    2    1    2    0    0  0.10876273096E+02 -0.20799344660E+03 -0.32047810027E+03  0.40213269633E+03  0.12499970224E+03 0.  0.
          2    1    1    2  501    0 -0.52886968794E+02  0.23333459967E+03 -0.11517846955E+03  0.26553370166E+03  0.00000000000E+00 0. -1.
          1    1    1    2  502    0  0.42010695698E+02 -0.25341153064E+02  0.45625668632E+03  0.45888695384E+03  0.00000000000E+00 0. -1.
         22    1    3    3    0    0  0.58133950796E+02 -0.17718263765E+03 -0.24810124095E+03  0.31036666877E+03  0.00000000000E+00 0.  1.
         22    1    3    3    0    0 -0.47257677700E+02 -0.30810808948E+02 -0.72376859313E+02  0.91766027557E+02  0.00000000000E+00 0.  1.
</event>
<event>
 7    1  0.7527776E-006  0.1094342E+03  0.7818608E-02  0.1340971E+00
          2   -1    0    0  502    0  0.00000000000E+00  0.00000000000E+00  0.14666905246E+03  0.14666905246E+03  0.00000000000E+00 0. -1.
          1   -1    0    0  501    0 -0.00000000000E+00 -0.00000000000E+00 -0.24663966177E+04  0.24663966177E+04  0.00000000000E+00 0. -1.
         25    2    1    2    0    0 -0.12150285358E+03  0.78227396673E+02 -0.10012344713E+03  0.21571389381E+03  0.12500124119E+03 0.  0.
          2    1    1    2  501    0  0.22616238105E+02 -0.47604134385E+02 -0.22779245698E+04  0.22785341766E+04  0.00000000000E+00 0. -1.
          1    1    1    2  502    0  0.98886615479E+02 -0.30623262288E+02  0.58320451779E+02  0.11881759975E+03  0.00000000000E+00 0. -1.
         22    1    3    3    0    0 -0.14549595777E+03  0.75826714427E+02 -0.73459370311E+02  0.17976385464E+03  0.00000000000E+00 0. -1.
         22    1    3    3    0    0  0.23993104188E+02  0.24006822459E+01 -0.26664076815E+02  0.35950039169E+02  0.00000000000E+00 0. -1.
</event>
<event>
 7    1  0.7527776E-006  0.7430025E+02  0.7818608E-02  0.1369566E+00
          2   -1    0    0  502    0  0.00000000000E+00  0.00000000000E+00  0.16532742907E+04  0.16532742907E+04  0.00000000000E+00 0. -1.
          1   -1    0    0  501    0 -0.00000000000E+00 -0.00000000000E+00 -0.33578056208E+03  0.33578056208E+03  0.00000000000E+00 0. -1.
         25    2    1    2    0    0 -0.30901082282E+02  0.78614214359E+02  0.41321183683E+03  0.43988742173E+03  0.12498739983E+03 0.  0.
          2    1    1    2  501    0  0.60237006108E+02 -0.92125263027E+01 -0.31839357367E+03  0.32417253940E+03  0.00000000000E+00 0. -1.
          1    1    1    2  502    0 -0.29335923826E+02 -0.69401688056E+02  0.12226754655E+04  0.12249948917E+04  0.00000000000E+00 0. -1.
         22    1    3    3    0    0  0.32969942591E+02  0.15441890208E+02  0.32770151675E+02  0.48983180057E+02  0.00000000000E+00 0. -1.
         22    1    3    3    0    0 -0.63871024873E+02  0.63172324151E+02  0.38044168515E+03  0.39090424168E+03  0.00000000000E+00 0. -1.
</event>
<event>
 7    1  0.7527776E-006  0.9671655E+02  0.7818608E-02  0.1459722E+00
          2   -1    0    0  502    0  0.00000000000E+00  0.00000000000E+00  0.18732862943E+04  0.18732862943E+04  0.00000000000E+00 0. -1.
          1   -1    0    0  501    0 -0.00000000000E+00 -0.00000000000E+00 -0.16689410512E+02  0.16689410512E+02  0.00000000000E+00 0. -1.
         25    2    1    2    0    0  0.40879332776E+02 -0.87431408076E+02  0.11661259607E+04  0.11767712988E+04  0.12500225040E+03 0.  0.
          2    1    1    2  501    0 -0.18994399458E+02  0.95307601089E+02  0.20180923415E+03  0.22398949311E+03  0.00000000000E+00 0. -1.
          1    1    1    2  502    0 -0.21884933318E+02 -0.78761930127E+01  0.48866168894E+03  0.48921491285E+03  0.00000000000E+00 0. -1.
         22    1    3    3    0    0 -0.84756843170E+01 -0.10310900545E+03  0.66849992896E+03  0.67645802475E+03  0.00000000000E+00 0.  1.
         22    1    3    3    0    0  0.49355017093E+02  0.15677597375E+02  0.49762603171E+03  0.50031327407E+03  0.00000000000E+00 0.  1.
</event>
<event>
 7    1  0.7527776E-006  0.5371366E+02  0.7818608E-02  0.1551896E+00
          2   -1    0    0  502    0  0.00000000000E+00  0.00000000000E+00  0.95874432422E+02  0.95874432422E+02  0.00000000000E+00 0. -1.
          1   -1    0    0  501    0 -0.00000000000E+00 -0.00000000000E+00 -0.57637068954E+03  0.57637068954E+03  0.00000000000E+00 0. -1.
         25    2    1    2    0    0  0.44086100462E+02 -0.28056776349E+02 -0.14066431342E+03  0.19530053011E+03  0.12500032416E+03 0.  0.
          2    1    1    2  501    0 -0.53525362386E+02  0.78214602281E+01 -0.40472166375E+03  0.40832066415E+03  0.00000000000E+00 0. -1.
          1    1    1    2  502    0  0.94392619236E+01  0.20235316121E+02  0.64889720056E+02  0.68623927701E+02  0.00000000000E+00 0. -1.
         22    1    3    3    0    0  0.55951244754E+02  0.69416585617E+01 -0.14732985243E+03  0.15774921182E+03  0.00000000000E+00 0. -1.
         22    1    3    3    0    0 -0.11865144292E+02 -0.34998434911E+02  0.66655390084E+01  0.37551318293E+02  0.00000000000E+00 0. -1.
</event>
<event>
 7    1  0.7527776E-006  0.4558746E+02  0.7818608E-02  0.1573257E+00
          2   -1    0    0  502    0  0.00000000000E+00  0.00000000000E+00  0.62743223014E+02  0.62743223014E+02  0.00000000000E+00 0. -1.
          1   -1    0    0  501    0 -0.00000000000E+00 -0.00000000000E+00 -0.75956618935E+03  0.75956618935E+03  0.00000000000E+00 0. -1.
         25    2    1    2    0    0  0.56448350750E+02  0.24303990275E+02 -0.18496872138E+03  0.23154676743E+03  0.12499350932E+03 0.  0.
          2    1    1    2  501    0 -0.22470123896E+02  0.48505920652E+01 -0.53828216525E+03  0.53877279455E+03  0.00000000000E+00 0. -1.
          1    1    1    2  502    0 -0.33978226854E+02 -0.29154582340E+02  0.26427920302E+02  0.51989850385E+02  0.00000000000E+00 0. -1.
         22    1    3    3    0    0 -0.31478516766E+02  0.38811544241E+02 -0.60614142636E+02  0.78557668446E+02  0.00000000000E+00 0.  1.
         22    1    3    3    0    0  0.87926867516E+02 -0.14507553966E+02 -0.12435457874E+03  0.15298909898E+03  0.00000000000E+00 0.  1.
</event>
<event>
 7    1  0.7527776E-006  0.1049855E+03  0.7818608E-02  0.1298062E+00
          2   -1    0    0  502    0  0.00000000000E+00  0.00000000000E+00  0.13356460865E+03  0.13356460865E+03  0.00000000000E+00 0. -1.
          1   -1    0    0  501    0 -0.00000000000E+00 -0.00000000000E+00 -0.66463365890E+03  0.66463365890E+03  0.00000000000E+00 0. -1.
         25    2    1    2    0    0  0.10853747329E+02 -0.30362229107E+02 -0.16963656593E+02  0.13020604640E+03  0.12500472026E+03 0.  0.
          2    1    1    2  501    0 -0.18139393960E+02  0.11066635519E+03 -0.56275432572E+03  0.57381923191E+03  0.00000000000E+00 0. -1.
          1    1    1    2  502    0  0.72856466316E+01 -0.80304126080E+02  0.48648932070E+02  0.94172989248E+02  0.00000000000E+00 0. -1.
         22    1    3    3    0    0 -0.43212847152E+02 -0.30473252019E+02 -0.44881926797E+02  0.69356734356E+02  0.00000000000E+00 0.  1.
         22    1    3    3    0    0  0.54066594481E+02  0.11102291262E+00  0.27918270204E+02  0.60849312042E+02  0.00000000000E+00 0.  1.
</event>
<event>
 7    1  0.7527776E-006  0.4424638E+02  0.7818608E-02  0.1495824E+00
          2   -1    0    0  502    0  0.00000000000E+00  0.00000000000E+00  0.81705081293E+03  0.81705081293E+03  0.00000000000E+00 0. -1.
          1   -1    0    0  501    0 -0.00000000000E+00 -0.00000000000E+00 -0.16447789855E+03  0.16447789855E+03  0.00000000000E+00 0. -1.
         25    2    1    2    0    0  0.81899232885E+02  0.81805880513E+01  0.69929949002E+02  0.16518724192E+03  0.12498888254E+03 0.  0.
          2    1    1    2  501    0 -0.42830299669E+02 -0.33654875031E+01 -0.11232433842E+03  0.12026020987E+03  0.00000000000E+00 0. -1.
          1    1    1    2  502    0 -0.39068933217E+02 -0.48151005482E+01  0.69496730380E+03  0.69608125969E+03  0.00000000000E+00 0. -1.
         22    1    3    3    0    0 -0.23028157440E+02 -0.28594344981E+02  0.68285715989E+01  0.37343834699E+02  0.00000000000E+00 0. -1.
         22    1    3    3    0    0  0.10492739032E+03  0.36774933032E+02  0.63101377403E+02  0.12784340722E+03  0.00000000000E+00 0. -1.
</event>
<event>
 7    1  0.7527776E-006  0.6928912E+02  0.7818608E-02  0.1496039E+00
          2   -1    0    0  502    0  0.00000000000E+00  0.00000000000E+00  0.92302079553E+03  0.92302079553E+03  0.00000000000E+00 0. -1.
          1   -1    0    0  501    0 -0.00000000000E+00 -0.00000000000E+00 -0.22561655607E+04  0.22561655607E+04  0.00000000000E+00 0. -1.
         25    2    1    2    0    0 -0.15425469546E+02  0.58818940791E+02  0.44668387367E+03  0.46781382535E+03  0.12500271712E+03 0.  0.
          2    1    1    2  501    0 -0.75656626909E+01 -0.68889543809E+02 -0.22447272491E+04  0.22457968367E+04  0.00000000000E+00 0. -1.
          1    1    1    2  502    0  0.22991132237E+02  0.10070603018E+02  0.46489861029E+03  0.46557569423E+03  0.00000000000E+00 0. -1.
         22    1    3    3    0    0 -0.23933827203E+02 -0.31332048374E+02  0.69422784389E+02  0.79837637316E+02  0.00000000000E+00 0.  1.
         22    1    3    3    0    0  0.85083576563E+01  0.90150989165E+02  0.37726108928E+03  0.38797618803E+03  0.00000000000E+00 0.  1.
</event>
<event>
 7    1  0.7527776E-006  0.2266288E+03  0.7818608E-02  0.1153467E+00
          2   -1    0    0  502    0  0.00000000000E+00  0.00000000000E+00  0.10749900782E+03  0.10749900782E+03  0.00000000000E+00 0. -1.
          1   -1    0    0  501    0 -0.00000000000E+00 -0.00000000000E+00 -0.18625283526E+04  0.18625283526E+04  0.00000000000E+00 0. -1.
         25    2    1    2    0    0 -0.45531758125E+02  0.22770539972E+03 -0.91252883960E+03  0.94987066743E+03  0.12499004635E+03 0.  0.
          2    1    1    2  501    0 -0.12314244303E+03 -0.21905776375E+03 -0.81009924711E+03  0.84818108639E+03  0.00000000000E+00 0. -1.
          1    1    1    2  502    0  0.16867420115E+03 -0.86476359773E+01 -0.32401258077E+02  0.17197560660E+03  0.00000000000E+00 0. -1.
         22    1    3    3    0    0 -0.85088281245E+02  0.12155990573E+03 -0.57520796046E+03  0.59403789783E+03  0.00000000000E+00 0. -1.
         22    1    3    3    0    0  0.39556523120E+02  0.10614549400E+03 -0.33732087914E+03  0.35583276960E+03  0.00000000000E+00 0. -1.
</event>
<event>
 7    1  0.7527776E-006  0.7242937E+02  0.7818608E-02  0.1505158E+00
          2   -1    0    0  502    0  0.00000000000E+00  0.00000000000E+00  0.13899393303E+04  0.13899393303E+04  0.00000000000E+00 0. -1.
          1   -1    0    0  501    0 -0.00000000000E+00 -0.00000000000E+00 -0.33663537457E+02  0.33663537457E+02  0.00000000000E+00 0. -1.
         25    2    1    2    0    0  0.82507525686E+02  0.42321402789E+02  0.21515520298E+03  0.26555035182E+03  0.12500654003E+03 0.  0.
          2    1    1    2  501    0 -0.16050272553E+02 -0.15846133294E+02  0.10000049805E+02  0.24672093254E+02  0.00000000000E+00 0. -1.
          1    1    1    2  502    0 -0.66457253133E+02 -0.26475269495E+02  0.11311205400E+04  0.11333804227E+04  0.00000000000E+00 0. -1.
         22    1    3    3    0    0  0.65431069538E+02  0.21707565211E+02  0.24709319676E+02  0.73232463615E+02  0.00000000000E+00 0. -1.
         22    1    3    3    0    0  0.17076456148E+02  0.20613837578E+02  0.19044588330E+03  0.19231788820E+03  0.00000000000E+00 0. -1.
</event>
<event>
 7    1  0.7527776E-006  0.3769180E+02  0.7818608E-02  0.1572239E+00
          2   -1    0    0  502    0  0.00000000000E+00  0.00000000000E+00  0.32135282717E+03  0.32135282717E+03  0.00000000000E+00 0. -1.
          1   -1    0    0  501    0 -0.00000000000E+00 -0.00000000000E+00 -0.94568067681E+02  0.94568067681E+02  0.00000000000E+00 0. -1.
         25    2    1    2    0    0 -0.60404757821E+02 -0.18767872142E+02  0.79366171632E+02  0.16101252235E+03  0.12500030145E+03 0.  0.
          2    1    1    2  501    0  0.24002176917E+02  0.14380091254E+02 -0.48281436483E+02  0.55803123839E+02  0.00000000000E+00 0. -1.
          1    1    1    2  502    0  0.36402580904E+02  0.43877808884E+01  0.19570002434E+03  0.19910524866E+03  0.00000000000E+00 0. -1.
         22    1    3    3    0    0 -0.94681192703E+02 -0.30378721835E+02  0.39029426950E+02  0.10682083673E+03  0.00000000000E+00 0. -1.
         22    1    3    3    0    0  0.34276434882E+02  0.11610849692E+02  0.40336744682E+02  0.54191685620E+02  0.00000000000E+00 0. -1.
</event>
<event>
 7    1  0.7527776E-006  0.1591569E+03  0.7818608E-02  0.1265787E+00
          2   -1    0    0  502    0  0.00000000000E+00  0.00000000000E+00  0.17317799252E+03  0.17317799252E+03  0.00000000000E+00 0. -1.
          1   -1    0    0  501    0 -0.00000000000E+00 -0.00000000000E+00 -0.34746090104E+03  0.34746090104E+03  0.00000000000E+00 0. -1.
         25    2    1    2    0    0 -0.18419936999E+02  0.13576568537E+03 -0.49263511164E+01  0.18552503303E+03  0.12499461405E+03 0.  0.
          2    1    1    2  501    0  0.90126650591E+02 -0.14457079909E+03 -0.19455298473E+03  0.25860083712E+03  0.00000000000E+00 0. -1.
          1    1    1    2  502    0 -0.71706713592E+02  0.88051137155E+01  0.25196427321E+02  0.76513023411E+02  0.00000000000E+00 0. -1.
         22    1    3    3    0    0 -0.21890358562E+02  0.13443602803E+03  0.38812527913E+02  0.14162854851E+03  0.00000000000E+00 0.  1.
         22    1    3    3    0    0  0.34704215632E+01  0.13296573447E+01 -0.43738879029E+02  0.43896484520E+02  0.00000000000E+00 0.  1.
</event>
<event>
 7    1  0.7527776E-006  0.5286887E+02  0.7818608E-02  0.1511345E+00
          2   -1    0    0  502    0  0.00000000000E+00  0.00000000000E+00  0.46870408232E+03  0.46870408232E+03  0.00000000000E+00 0. -1.
          1   -1    0    0  501    0 -0.00000000000E+00 -0.00000000000E+00 -0.49981261574E+03  0.49981261574E+03  0.00000000000E+00 0. -1.
         25    2    1    2    0    0  0.24722560254E+02 -0.61676749256E+02  0.14940438330E+03  0.20582031920E+03  0.12500043065E+03 0.  0.
          2    1    1    2  501    0 -0.38933465427E+02  0.35679874672E+02 -0.46936614583E+03  0.47232769032E+03  0.00000000000E+00 0. -1.
          1    1    1    2  502    0  0.14210905174E+02  0.25996874584E+02  0.28885322911E+03  0.29036868854E+03  0.00000000000E+00 0. -1.
         22    1    3    3    0    0  0.23782603297E+02 -0.71666795990E+02  0.22882111925E+02  0.78900778914E+02  0.00000000000E+00 0.  1.
         22    1    3    3    0    0  0.93995695709E+00  0.99900467337E+01  0.12652227138E+03  0.12691954029E+03  0.00000000000E+00 0.  1.
</event>
<event>
 7    1  0.7527776E-006  0.2703529E+03  0.7818608E-02  0.1277254E+00
          2   -1    0    0  502    0  0.00000000000E+00  0.00000000000E+00  0.15296540850E+04  0.15296540850E+04  0.00000000000E+00 0. -1.
          1   -1    0    0  501    0 -0.00000000000E+00 -0.00000000000E+00 -0.10375808142E+04  0.10375808142E+04  0.00000000000E+00 0. -1.
         25    2    1    2    0    0  0.16474232690E+03  0.21999186195E+03  0.18633775815E+03  0.35480333757E+03  0.12500877825E+03 0.  0.
          2    1    1    2  501    0  0.25412384029E+02 -0.28356345550E+02 -0.93848608287E+03  0.93925821760E+03  0.00000000000E+00 0. -1.
          1    1    1    2  502    0 -0.19015471093E+03 -0.19163551640E+03  0.12442215955E+04  0.12731733440E+04  0.00000000000E+00 0. -1.
         22    1    3    3    0    0  0.12064847883E+03  0.14171881810E+03  0.52093716090E+02  0.19327191753E+03  0.00000000000E+00 0.  1.
         22    1    3    3    0    0  0.44093848071E+02  0.78273043842E+02  0.13424404206E+03  0.16153142004E+03  0.00000000000E+00 0.  1.
</event>
<event>
 7    1  0.7527776E-006  0.5566947E+02  0.7818608E-02  0.1427705E+00
          2   -1    0    0  502    0  0.00000000000E+00  0.00000000000E+00  0.20194376460E+04  0.20194376460E+04  0.00000000000E+00 0. -1.
          1   -1    0    0  501    0 -0.00000000000E+00 -0.00000000000E+00 -0.46119843323E+03  0.46119843323E+03  0.00000000000E+00 0. -1.
         25    2    1    2    0    0  0.39926767054E+02 -0.67528276670E+02  0.99844940427E+03  0.10092965576E+04  0.12499645340E+03 0.  0.
          2    1    1    2  501    0 -0.52712940329E+02  0.17880282693E+02 -0.45342481812E+03  0.45682865965E+03  0.00000000000E+00 0. -1.
          1    1    1    2  502    0  0.12786173275E+02  0.49647993977E+02  0.10132146266E+04  0.10145108620E+04  0.00000000000E+00 0. -1.
         22    1    3    3    0    0  0.83385339084E+02 -0.32347450357E+02  0.69588142400E+03  0.70160560758E+03  0.00000000000E+00 0. -1.
         22    1    3    3    0    0 -0.43458572030E+02 -0.35180826313E+02  0.30256798026E+03  0.30769094999E+03  0.00000000000E+00 0. -1.
</event>
<event>
 7    1  0.1382586E-005  0.4970045E+02  0.7818608E-02  0.1458423E+00
          2   -1    0    0  502    0  0.00000000000E+00  0.00000000000E+00  0.19801219020E+04  0.19801219020E+04  0.00000000000E+00 0. -1.
          1   -1    0    0  501    0 -0.00000000000E+00 -0.00000000000E+00 -0.21283419052E+04  0.21283419052E+04  0.00000000000E+00 0. -1.
         25    2    1    2    0    0 -0.92905578698E+02 -0.47794222133E+01 -0.38162528683E+03  0.41220971283E+03  0.12499879349E+03 0.  0.
          2    1    1    2  501    0  0.43879708442E+02  0.12739162644E+02 -0.17308089765E+04  0.17314119753E+04  0.00000000000E+00 0. -1.
          1    1    1    2  502    0  0.49025870256E+02 -0.79597404306E+01  0.19642142601E+04  0.19648421191E+04  0.00000000000E+00 0. -1.
         22    1    3    3    0    0 -0.37539471545E+02  0.39901421263E+02 -0.53912042050E+02  0.76862498143E+02  0.00000000000E+00 0. -1.
         22    1    3    3    0    0 -0.55366107153E+02 -0.44680843476E+02 -0.32771324478E+03  0.33534721469E+03  0.00000000000E+00 0. -1.
</event>
<event>
 7    1  0.7527776E-006  0.1233671E+03  0.7818608E-02  0.1337856E+00
          2   -1    0    0  502    0  0.00000000000E+00  0.00000000000E+00  0.14298769493E+04  0.14298769493E+04  0.00000000000E+00 0. -1.
          1   -1    0    0  501    0 -0.00000000000E+00 -0.00000000000E+00 -0.35874646468E+02  0.35874646468E+02  0.00000000000E+00 0. -1.
         25    2    1    2    0    0  0.79353986860E+02  0.66660052439E+02  0.20688017251E+03  0.26299291704E+03  0.12500100326E+03 0.  0.
          2    1    1    2  501    0 -0.18087710453E+02  0.44495218202E+02  0.14080675745E+03  0.14877342725E+03  0.00000000000E+00 0. -1.
          1    1    1    2  502    0 -0.61266276407E+02 -0.11115527064E+03  0.10463153729E+04  0.10539852515E+04  0.00000000000E+00 0. -1.
         22    1    3    3    0    0 -0.28618666986E+02  0.10410654100E+02  0.86819493728E+02  0.92005621078E+02  0.00000000000E+00 0.  1.
         22    1    3    3    0    0  0.10797265385E+03  0.56249398340E+02  0.12006067878E+03  0.17098729596E+03  0.00000000000E+00 0.  1.
</event>
<event>
 7    1  0.7527776E-006  0.5840499E+02  0.7818608E-02  0.1437940E+00
          2   -1    0    0  502    0  0.00000000000E+00  0.00000000000E+00  0.86694919233E+03  0.86694919233E+03  0.00000000000E+00 0. -1.
          1   -1    0    0  501    0 -0.00000000000E+00 -0.00000000000E+00 -0.29144848298E+03  0.29144848298E+03  0.00000000000E+00 0. -1.
         25    2    1    2    0    0  0.71208916515E+02 -0.37867828638E+02 -0.10325270795E+03  0.18108289831E+03  0.12500084849E+03 0.  0.
          2    1    1    2  501    0 -0.27552935940E+02  0.49706977164E+02 -0.14322705807E+03  0.15409068116E+03  0.00000000000E+00 0. -1.
          1    1    1    2  502    0 -0.43655980575E+02 -0.11839148526E+02  0.82198047537E+03  0.82322409584E+03  0.00000000000E+00 0. -1.
         22    1    3    3    0    0 -0.68623546618E+01  0.21524567444E+02  0.15242268548E+02  0.27252993701E+02  0.00000000000E+00 0. -1.
         22    1    3    3    0    0  0.78071271177E+02 -0.59392396082E+02 -0.11849497650E+03  0.15382990461E+03  0.00000000000E+00 0. -1.
</event>
<event>
 7    1  0.7527776E-006  0.4142039E+03  0.7818608E-02  0.1218107E+00
          2   -1    0    0  502    0  0.00000000000E+00  0.00000000000E+00  0.12781220953E+04  0.12781220953E+04  0.00000000000E+00 0. -1.
          1   -1    0    0  501    0 -0.00000000000E+00 -0.00000000000E+00 -0.38360612892E+03  0.38360612892E+03  0.00000000000E+00 0. -1.
         25    2    1    2    0    0 -0.67272159878E+02  0.38755883675E+03  0.73023105216E+02  0.41914787001E+03  0.12500067040E+03 0.  0.
          2    1    1    2  501    0  0.95226882797E+02 -0.42280766367E+03  0.13782266812E+02  0.43361783928E+03  0.00000000000E+00 0. -1.
          1    1    1    2  502    0 -0.27954722920E+02  0.35248826917E+02  0.80771059432E+03  0.80896251490E+03  0.00000000000E+00 0. -1.
         22    1    3    3    0    0 -0.68113975228E+02  0.39626625186E+03  0.77251375407E+02  0.40943159501E+03  0.00000000000E+00 0.  1.
         22    1    3    3    0    0  0.84181535054E+00 -0.87074151158E+01 -0.42282701913E+01  0.97162750010E+01  0.00000000000E+00 0.  1.
</event>
<event>
 7    1  0.7527776E-006  0.6336408E+02  0.7818608E-02  0.1387647E+00
          2   -1    0    0  502    0  0.00000000000E+00  0.00000000000E+00  0.20083037645E+04  0.20083037645E+04  0.00000000000E+00 0. -1.
          1   -1    0    0  501    0 -0.00000000000E+00 -0.00000000000E+00 -0.84619031525E+03  0.84619031525E+03  0.00000000000E+00 0. -1.
         25    2    1    2    0    0 -0.39144963780E+02 -0.55900929276E+02  0.18821097564E+04  0.18874907470E+04  0.12500777092E+03 0.  0.
          2    1    1    2  501    0  0.60973604153E+02 -0.90345569532E+01 -0.83277241250E+03  0.83505047431E+03  0.00000000000E+00 0. -1.
          1    1    1    2  502    0 -0.21828640373E+02  0.64935486229E+02  0.11277610531E+03  0.13195285840E+03  0.00000000000E+00 0. -1.
         22    1    3    3    0    0 -0.29494295475E+02  0.95057911086E+01  0.11374894112E+03  0.11789442368E+03  0.00000000000E+00 0. -1.
         22    1    3    3    0    0 -0.96506683055E+01 -0.65406720385E+02  0.17683608153E+04  0.17695963233E+04  0.00000000000E+00 0. -1.
</event>
<event>
 7    1  0.7527776E-006  0.9070242E+02  0.7818608E-02  0.1307746E+00
          2   -1    0    0  502    0  0.00000000000E+00  0.00000000000E+00  0.18689400589E+04  0.18689400589E+04  0.00000000000E+00 0. -1.
          1   -1    0    0  501    0 -0.00000000000E+00 -0.00000000000E+00 -0.68117142078E+03  0.68117142078E+03  0.00000000000E+00 0. -1.
         25    2    1    2    0    0  0.53039089935E+02  0.10023571599E+03  0.50095634544E+02  0.17604917696E+03  0.12499358498E+03 0.  0.
          2    1    1    2  501    0 -0.84113212923E+02 -0.14745127881E+02 -0.61405984709E+03  0.61996931149E+03  0.00000000000E+00 0. -1.
          1    1    1    2  502    0  0.31074122989E+02 -0.85490588106E+02  0.17517328507E+04  0.17540929912E+04  0.00000000000E+00 0. -1.
         22    1    3    3    0    0  0.61023806418E+02  0.10509452268E+03 -0.35664837706E+01  0.12157912425E+03  0.00000000000E+00 0. -1.
         22    1    3    3    0    0 -0.79847164838E+01 -0.48588066964E+01  0.53662118314E+02  0.54470052706E+02  0.00000000000E+00 0. -1.
</event>
<event>
 7    1  0.7527776E-006  0.1674841E+03  0.7818608E-02  0.1258810E+00
          2   -1    0    0  502    0  0.00000000000E+00  0.00000000000E+00  0.11621253524E+04  0.11621253524E+04  0.00000000000E+00 0. -1.
          1   -1    0    0  501    0 -0.00000000000E+00 -0.00000000000E+00 -0.21250171255E+04  0.21250171255E+04  0.00000000000E+00 0. -1.
         25    2    1    2    0    0  0.18227945484E+02  0.10153952646E+03 -0.10810930577E+03  0.19480900852E+03  0.12498157615E+03 0.  0.
          2    1    1    2  501    0 -0.20122328739E+01 -0.17323563035E+03 -0.19685420069E+04  0.19761508712E+04  0.00000000000E+00 0. -1.
          1    1    1    2  502    0 -0.16215712610E+02  0.71696103887E+02  0.11137595396E+04  0.11161825982E+04  0.00000000000E+00 0. -1.
         22    1    3    3    0    0 -0.26662670598E+02  0.11088597070E+03 -0.62123411287E+02  0.12986883664E+03  0.00000000000E+00 0.  1.
         22    1    3    3    0    0  0.44890616082E+02 -0.93464442368E+01 -0.45985894480E+02  0.64940171875E+02  0.00000000000E+00 0.  1.
</event>
<event>
 7    1  0.7527776E-006  0.3758726E+02  0.7818608E-02  0.1549755E+00
          2   -1    0    0  502    0  0.00000000000E+00  0.00000000000E+00  0.16184410573E+03  0.16184410573E+03  0.00000000000E+00 0. -1.
          1   -1    0    0  501    0 -0.00000000000E+00 -0.00000000000E+00 -0.17021900388E+03  0.17021900388E+03  0.00000000000E+00 0. -1.
         25    2    1    2    0    0 -0.19003764220E+02  0.51475821485E+02 -0.25991512730E+02  0.13896321754E+03  0.12499725534E+03 0.  0.
          2    1    1    2  501    0  0.28434154264E+02 -0.15427709665E+02 -0.81245428151E+02  0.87449042016E+02  0.00000000000E+00 0. -1.
          1    1    1    2  502    0 -0.94303900444E+01 -0.36048111820E+02  0.98862042735E+02  0.10565085005E+03  0.00000000000E+00 0. -1.
         22    1    3    3    0    0 -0.54212308152E+02  0.25993102725E+02  0.30717641983E+02  0.67514363460E+02  0.00000000000E+00 0. -1.
         22    1    3    3    0    0  0.35208543932E+02  0.25482718759E+02 -0.56709154713E+02  0.71448854080E+02  0.00000000000E+00 0. -1.
</event>
<event>
 7    1  0.7527776E-006  0.7974246E+02  0.7818608E-02  0.1367214E+00
          2   -1    0    0  502    0  0.00000000000E+00  0.00000000000E+00  0.10807407660E+03  0.10807407660E+03  0.00000000000E+00 0. -1.
          1   -1    0    0  501    0 -0.00000000000E+00 -0.00000000000E+00 -0.30465946033E+03  0.30465946033E+03  0.00000000000E+00 0. -1.
         25    2    1    2    0    0 -0.32358860487E+02  0.55012858252E+02 -0.16281529829E+03  0.21495877210E+03  0.12499976768E+03 0.  0.
          2    1    1    2  501    0 -0.48263121557E+02 -0.31981282788E+02 -0.82505136513E+02  0.10079300026E+03  0.00000000000E+00 0. -1.
          1    1    1    2  502    0  0.80621982044E+02 -0.23031575464E+02  0.48735051064E+02  0.96981764570E+02  0.00000000000E+00 0. -1.
         22    1    3    3    0    0 -0.70261857695E+02  0.62404884238E+01 -0.50409291692E+02  0.86699302370E+02  0.00000000000E+00 0.  1.
         22    1    3    3    0    0  0.37902997207E+02  0.48772369828E+02 -0.11240600660E+03  0.12825946973E+03  0.00000000000E+00 0.  1.
</event>
<event>
 7    1  0.7527776E-006  0.1121044E+03  0.7818608E-02  0.1310031E+00
          2   -1    0    0  502    0  0.00000000000E+00  0.00000000000E+00  0.54081436537E+03  0.54081436537E+03  0.00000000000E+00 0. -1.
          1   -1    0    0  501    0 -0.00000000000E+00 -0.00000000000E+00 -0.13246350334E+03  0.13246350334E+03  0.00000000000E+00 0. -1.
         25    2    1    2    0    0 -0.37178141212E+02 -0.74083524286E+02  0.32561594638E+03  0.35850095896E+03  0.12500644098E+03 0.  0.
          2    1    1    2  501    0  0.10211905176E+03  0.55051543208E+02 -0.78392397537E+02  0.14001550319E+03  0.00000000000E+00 0. -1.
          1    1    1    2  502    0 -0.64940910548E+02  0.19031981078E+02  0.16112731319E+03  0.17476140656E+03  0.00000000000E+00 0. -1.
         22    1    3    3    0    0 -0.57674804191E+02 -0.20201613015E+02  0.56324304323E+02  0.83107854409E+02  0.00000000000E+00 0.  1.
         22    1    3    3    0    0  0.20496662979E+02 -0.53881911271E+02  0.26929164205E+03  0.27539310455E+03  0.00000000000E+00 0.  1.
</event>
<event>
 7    1  0.7527776E-006  0.4745664E+02  0.7818608E-02  0.1500704E+00
          2   -1    0    0  502    0  0.00000000000E+00  0.00000000000E+00  0.32497110513E+02  0.32497110513E+02  0.00000000000E+00 0. -1.
          1   -1    0    0  501    0 -0.00000000000E+00 -0.00000000000E+00 -0.28609396134E+04  0.28609396134E+04  0.00000000000E+00 0. -1.
         25    2    1    2    0    0  0.17869318561E+02  0.15856575146E+02 -0.50084430247E+03  0.51675988134E+03  0.12500006451E+03 0.  0.
          2    1    1    2  501    0 -0.48354261283E+02  0.23124886331E+01 -0.23389238490E+04  0.23394247698E+04  0.00000000000E+00 0. -1.
          1    1    1    2  502    0  0.30484942722E+02 -0.18169063779E+02  0.11325648559E+02  0.37252072783E+02  0.00000000000E+00 0. -1.
         22    1    3    3    0    0  0.66628179852E+01 -0.41599414312E+02 -0.38163264253E+03  0.38395101023E+03  0.00000000000E+00 0.  1.
         22    1    3    3    0    0  0.11206500576E+02  0.57455989458E+02 -0.11921165994E+03  0.13280887111E+03  0.00000000000E+00 0.  1.
</event>
<event>
 7    1  0.7527776E-006  0.3920466E+02  0.7818608E-02  0.1570653E+00
          2   -1    0    0  502    0  0.00000000000E+00  0.00000000000E+00  0.16602933109E+04  0.16602933109E+04  0.00000000000E+00 0. -1.
          1   -1    0    0  501    0 -0.00000000000E+00 -0.00000000000E+00 -0.57688548023E+03  0.57688548023E+03  0.00000000000E+00 0. -1.
         25    2    1    2    0    0 -0.71435603191E+01  0.10110567022E+02  0.16892106092E+03  0.21050692219E+03  0.12500234178E+03 0.  0.
          2    1    1    2  501    0 -0.15646598498E+02  0.22210229121E+02 -0.55549461599E+03  0.55615859134E+03  0.00000000000E+00 0. -1.
          1    1    1    2  502    0  0.22790158817E+02 -0.32320796143E+02  0.14699813858E+04  0.14705132776E+04  0.00000000000E+00 0. -1.
         22    1    3    3    0    0  0.67356928016E+01 -0.56783276236E+02  0.81443537849E+02  0.99512611637E+02  0.00000000000E+00 0.  1.
         22    1    3    3    0    0 -0.13879253121E+02  0.66893843258E+02  0.87477523068E+02  0.11099431055E+03  0.00000000000E+00 0.  1.
</event>
<event>
 7    1  0.7527776E-006  0.1565487E+03  0.7818608E-02  0.1357783E+00
          2   -1    0    0  502    0  0.00000000000E+00  0.00000000000E+00  0.19340434790E+03  0.19340434790E+03  0.00000000000E+00 0. -1.
          1   -1    0    0  501    0 -0.00000000000E+00 -0.00000000000E+00 -0.21843954741E+04  0.21843954741E+04  0.00000000000E+00 0. -1.
         25    2    1    2    0    0  0.11477690572E+03 -0.14534567669E+03 -0.10929624861E+04  0.11155718340E+04  0.12503766240E+03 0.  0.
          2    1    1    2  501    0 -0.27285233846E+02  0.16554956377E+02 -0.10465595371E+04  0.10470460426E+04  0.00000000000E+00 0. -1.
          1    1    1    2  502    0 -0.87491671879E+02  0.12879072032E+03  0.14853089697E+03  0.21518194544E+03  0.00000000000E+00 0. -1.
         22    1    3    3    0    0  0.12887522942E+02  0.19951748679E+02 -0.21976594651E+03  0.22104576849E+03  0.00000000000E+00 0. -1.
         22    1    3    3    0    0  0.10188938278E+03 -0.16529742537E+03 -0.87319653955E+03  0.89452606549E+03  0.00000000000E+00 0. -1.
</event>
<event>
 7    1  0.7527776E-006  0.1906878E+03  0.7818608E-02  0.1192319E+00
          2   -1    0    0  502    0  0.00000000000E+00  0.00000000000E+00  0.11092139945E+04  0.11092139945E+04  0.00000000000E+00 0. -1.
          1   -1    0    0  501    0 -0.00000000000E+00 -0.00000000000E+00 -0.15569813618E+03  0.15569813618E+03  0.00000000000E+00 0. -1.
         25    2    1    2    0    0 -0.34595282491E+02 -0.26555848941E+03  0.92764174690E+02  0.30975499147E+03  0.12499927106E+03 0.  0.
          2    1    1    2  501    0  0.45570280690E+02  0.13703637130E+03  0.82561764402E+02  0.16634921846E+03  0.00000000000E+00 0. -1.
          1    1    1    2  502    0 -0.10974998199E+02  0.12852211811E+03  0.77818991925E+03  0.78880792076E+03  0.00000000000E+00 0. -1.
         22    1    3    3    0    0 -0.31051673957E+01 -0.23541677812E+03  0.35982998498E+02  0.23817111006E+03  0.00000000000E+00 0.  1.
         22    1    3    3    0    0 -0.31490115095E+02 -0.30141711289E+02  0.56781176193E+02  0.71583881412E+02  0.00000000000E+00 0.  1.
</event>
<event>
 7    1  0.7527776E-006  0.7267889E+02  0.7818608E-02  0.1426280E+00
          2   -1    0    0  502    0  0.00000000000E+00  0.00000000000E+00  0.98953095206E+03  0.98953095206E+03  0.00000000000E+00 0. -1.
          1   -1    0    0  501    0 -0.00000000000E+00 -0.00000000000E+00 -0.28663800776E+03  0.28663800776E+03  0.00000000000E+00 0. -1.
         25    2    1    2    0    0  0.57992456280E+01  0.35571552963E+02  0.19641253721E+02  0.13156800832E+03  0.12500158134E+03 0.  0.
          2    1    1    2  501    0 -0.11967381200E+02  0.37851117549E+02 -0.22746773345E+03  0.23090581429E+03  0.00000000000E+00 0. -1.
          1    1    1    2  502    0  0.61681355718E+01 -0.73422670512E+02  0.91071942403E+03  0.91369513720E+03  0.00000000000E+00 0. -1.
         22    1    3    3    0    0  0.24784710861E+02 -0.37313791855E+02  0.32257790469E+02  0.55201141302E+02  0.00000000000E+00 0.  1.
         22    1    3    3    0    0 -0.18985465233E+02  0.72885344818E+02 -0.12616536748E+02  0.76366867023E+02  0.00000000000E+00 0.  1.
</event>
<event>
 7    1  0.7527776E-006  0.4821805E+02  0.7818608E-02  0.1457722E+00
          2   -1    0    0  502    0  0.00000000000E+00  0.00000000000E+00  0.14425195147E+03  0.14425195147E+03  0.00000000000E+00 0. -1.
          1   -1    0    0  501    0 -0.00000000000E+00 -0.00000000000E+00 -0.40312948213E+03  0.40312948213E+03  0.00000000000E+00 0. -1.
         25    2    1    2    0    0 -0.40269251397E+02  0.61376503392E+02 -0.37802523485E+02  0.14980280692E+03  0.12499264939E+03 0.  0.
          2    1    1    2  501    0 -0.50385874249E+01 -0.47068488945E+02 -0.30094464710E+03  0.30464489267E+03  0.00000000000E+00 0. -1.
          1    1    1    2  502    0  0.45307838822E+02 -0.14308014447E+02  0.79869639915E+02  0.92933734006E+02  0.00000000000E+00 0. -1.
         22    1    3    3    0    0 -0.47171074587E+02  0.90204748618E+02 -0.38156872876E-01  0.10179395074E+03  0.00000000000E+00 0.  1.
         22    1    3    3    0    0  0.69018231906E+01 -0.28828245226E+02 -0.37764366612E+02  0.48008856181E+02  0.00000000000E+00 0.  1.
</event>
<event>
 7    1  0.7527776E-006  0.7241981E+02  0.7818608E-02  0.1367970E+00
          2   -1    0    0  502    0  0.00000000000E+00  0.00000000000E+00  0.16952862017E+04  0.16952862017E+04  0.00000000000E+00 0. -1.
          1   -1    0    0  501    0 -0.00000000000E+00 -0.00000000000E+00 -0.28576651015E+03  0.28576651015E+03  0.00000000000E+00 0. -1.
         25    2    1    2    0    0 -0.16774713993E+02  0.68671287978E+02 -0.98811933803E+02  0.17431503210E+03  0.12499918132E+03 0.  0.
          2    1    1    2  501    0 -0.46365014608E+02 -0.63480038163E+02 -0.13819734345E+03  0.15899036311E+03  0.00000000000E+00 0. -1.
          1    1    1    2  502    0  0.63139728601E+02 -0.51912498148E+01  0.16465289688E+04  0.16477473166E+04  0.00000000000E+00 0. -1.
         22    1    3    3    0    0 -0.64990575471E+02  0.34325630863E+02 -0.20799595494E+02  0.76384861110E+02  0.00000000000E+00 0. -1.
         22    1    3    3    0    0  0.48215861478E+02  0.34345657115E+02 -0.78012338310E+02  0.97930170986E+02  0.00000000000E+00 0. -1.
</event>
<event>
 7    1  0.7527776E-006  0.7015597E+02  0.7818608E-02  0.1410979E+00
          2   -1    0    0  502    0  0.00000000000E+00  0.00000000000E+00  0.17727989815E+02  0.17727989815E+02  0.00000000000E+00 0. -1.
          1   -1    0    0  501    0 -0.00000000000E+00 -0.00000000000E+00 -0.11287362962E+04  0.11287362962E+04  0.00000000000E+00 0. -1.
         25    2    1    2    0    0 -0.12495494998E+02 -0.90476690974E+02 -0.80842559846E+03  0.82311448770E+03  0.12499337031E+03 0.  0.
          2    1    1    2  501    0 -0.36666267314E+01  0.47119020525E+02 -0.59923467042E+02  0.76318203262E+02  0.00000000000E+00 0. -1.
          1    1    1    2  502    0  0.16162121729E+02  0.43357670449E+02 -0.24265924086E+03  0.24703159503E+03  0.00000000000E+00 0. -1.
         22    1    3    3    0    0 -0.13767708282E+01 -0.12822468027E+02 -0.22012391310E+01  0.13082684661E+02  0.00000000000E+00 0.  1.
         22    1    3    3    0    0 -0.11118724170E+02 -0.77654222947E+02 -0.80622435932E+03  0.81003180304E+03  0.00000000000E+00 0.  1.
</event>
<event>
 7    1  0.1382673E-005  0.6081761E+02  0.7818608E-02  0.1457419E+00
          2   -1    0    0  502    0  0.00000000000E+00  0.00000000000E+00  0.17454718608E+04  0.17454718608E+04  0.00000000000E+00 0. -1.
          1   -1    0    0  501    0 -0.00000000000E+00 -0.00000000000E+00 -0.16224890927E+04  0.16224890927E+04  0.00000000000E+00 0. -1.
         25    2    1    2    0    0  0.35620777146E+02  0.65233995640E+02 -0.19917012385E+03  0.24661292745E+03  0.12499953519E+03 0.  0.
          2    1    1    2  501    0 -0.37349508358E+02 -0.44491695822E+01 -0.13988077570E+04  0.13993133752E+04  0.00000000000E+00 0. -1.
          1    1    1    2  502    0  0.17287312124E+01 -0.60784826058E+02  0.17209606490E+04  0.17220346509E+04  0.00000000000E+00 0. -1.
         22    1    3    3    0    0  0.81553029635E+02  0.28763298351E+02 -0.12637531680E+03  0.15313048250E+03  0.00000000000E+00 0. -1.
         22    1    3    3    0    0 -0.45932252489E+02  0.36470697290E+02 -0.72794807054E+02  0.93482444949E+02  0.00000000000E+00 0. -1.
</event>
<event>
 7    1  0.7527776E-006  0.2045349E+03  0.7818608E-02  0.1227712E+00
          2   -1    0    0  502    0  0.00000000000E+00  0.00000000000E+00  0.11781625606E+04  0.11781625606E+04  0.00000000000E+00 0. -1.
          1   -1    0    0  501    0 -0.00000000000E+00 -0.00000000000E+00 -0.11546975469E+04  0.11546975469E+04  0.00000000000E+00 0. -1.
         25    2    1    2    0    0  0.93921105308E+02  0.15547642500E+03  0.14570759611E+02  0.22096356361E+03  0.12497398391E+03 0.  0.
          2    1    1    2  501    0 -0.65006153647E+02  0.50647893469E+02 -0.10396410034E+04  0.10429019250E+04  0.00000000000E+00 0. -1.
          1    1    1    2  502    0 -0.28914951661E+02 -0.20612431847E+03  0.10485352575E+04  0.10689946189E+04  0.00000000000E+00 0. -1.
         22    1    3    3    0    0  0.11230411191E+03  0.10373458101E+03  0.43429563195E+02  0.15893144374E+03  0.00000000000E+00 0.  1.
         22    1    3    3    0    0 -0.18383006605E+02  0.51741843988E+02 -0.28858803584E+02  0.62032119869E+02  0.00000000000E+00 0.  1.
</event>
<event>
 7    1  0.7527776E-006  0.4891020E+02  0.7818608E-02  0.1552008E+00
          2   -1    0    0  502    0  0.00000000000E+00  0.00000000000E+00  0.16487288222E+04  0.16487288222E+04  0.00000000000E+00 0. -1.
          1   -1    0    0  501    0 -0.00000000000E+00 -0.00000000000E+00 -0.56718634813E+03  0.56718634813E+03  0.00000000000E+00 0. -1.
         25    2    1    2    0    0 -0.21542281444E+02  0.21644242557E+02  0.24961247351E+03  0.28082834806E+03  0.12500252405E+03 0.  0.
          2    1    1    2  501    0  0.17412950684E+02 -0.45797812884E+02 -0.55038152837E+03  0.55255812118E+03  0.00000000000E+00 0. -1.
          1    1    1    2  502    0  0.41293307601E+01  0.24153570327E+02  0.13823115289E+04  0.13825287011E+04  0.00000000000E+00 0. -1.
         22    1    3    3    0    0  0.15013504540E+02 -0.14365777923E+02 -0.47719163930E+01  0.21320227015E+02  0.00000000000E+00 0. -1.
         22    1    3    3    0    0 -0.36555785984E+02  0.36010020480E+02  0.25438438990E+03  0.25950812105E+03  0.00000000000E+00 0. -1.
</event>
<event>
 7    1  0.7527776E-006  0.1280349E+03  0.7818608E-02  0.1362995E+00
          2   -1    0    0  502    0  0.00000000000E+00  0.00000000000E+00  0.16792539381E+04  0.16792539381E+04  0.00000000000E+00 0. -1.
          1   -1    0    0  501    0 -0.00000000000E+00 -0.00000000000E+00 -0.84658398553E+03  0.84658398553E+03  0.00000000000E+00 0. -1.
         25    2    1    2    0    0 -0.10142369613E+03  0.18213491986E+02  0.25260255047E+03  0.30008806192E+03  0.12500519580E+03 0.  0.
          2    1    1    2  501    0  0.12830916515E+03  0.77146557384E+01 -0.81757017393E+03  0.82761328353E+03  0.00000000000E+00 0. -1.
          1    1    1    2  502    0 -0.26885469019E+02 -0.25928147724E+02  0.13976375761E+04  0.13981365782E+04  0.00000000000E+00 0. -1.
         22    1    3    3    0    0 -0.68589593223E+01 -0.38803787214E+02  0.12638183699E+03  0.13238258173E+03  0.00000000000E+00 0. -1.
         22    1    3    3    0    0 -0.94564736808E+02  0.57017279200E+02  0.12622071348E+03  0.16770548019E+03  0.00000000000E+00 0. -1.
</event>
<event>
 7    1  0.7527776E-006  0.1969240E+03  0.7818608E-02  0.1286814E+00
          2   -1    0    0  502    0  0.00000000000E+00  0.00000000000E+00  0.20693587947E+04  0.20693587947E+04  0.00000000000E+00 0. -1.
          1   -1    0    0  501    0 -0.00000000000E+00 -0.00000000000E+00 -0.87221634593E+02  0.87221634593E+02  0.00000000000E+00 0. -1.
         25    2    1    2    0    0 -0.12399733807E+03 -0.17035406104E+03  0.49825512047E+03  0.55522885723E+03  0.12500029147E+03 0.  0.
          2    1    1    2  501    0  0.14576209119E+03  0.12785956436E+03  0.10282830535E+03  0.21947281337E+03  0.00000000000E+00 0. -1.
          1    1    1    2  502    0 -0.21764753121E+02  0.42494496677E+02  0.13810537343E+04  0.13818787587E+04  0.00000000000E+00 0. -1.
         22    1    3    3    0    0 -0.30725478456E+02 -0.14381608396E+03  0.32384981728E+03  0.35567657385E+03  0.00000000000E+00 0. -1.
         22    1    3    3    0    0 -0.93271859616E+02 -0.26537977083E+02  0.17440530319E+03  0.19955228338E+03  0.00000000000E+00 0. -1.
</event>
<event>
 7    1  0.7527776E-006  0.9646624E+02  0.7818608E-02  0.1459348E+00
          2   -1    0    0  502    0  0.00000000000E+00  0.00000000000E+00  0.79394490308E+03  0.79394490308E+03  0.00000000000E+00 0. -1.
          1   -1    0    0  501    0 -0.00000000000E+00 -0.00000000000E+00 -0.24530330103E+04  0.24530330103E+04  0.00000000000E+00 0. -1.
         25    2    1    2    0    0  0.29376118140E+02  0.81616749110E+02 -0.33778915614E+03  0.37047277932E+03  0.12499726461E+03 0.  0.
          2    1    1    2  501    0 -0.11431730893E+02 -0.96608643061E+02 -0.20975986639E+04  0.20998533447E+04  0.00000000000E+00 0. -1.
          1    1    1    2  502    0 -0.17944387247E+02  0.14991893950E+02  0.77629971279E+03  0.77665178941E+03  0.00000000000E+00 0. -1.
         22    1    3    3    0    0  0.30950657559E+02  0.67323334330E+02 -0.68841974641E+02  0.10114144562E+03  0.00000000000E+00 0. -1.
         22    1    3    3    0    0 -0.15745394198E+01  0.14293414780E+02 -0.26894718150E+03  0.26933133370E+03  0.00000000000E+00 0. -1.
</event>
<event>
 7    1  0.1272215E-005  0.8467459E+02  0.7818608E-02  0.1385557E+00
          2   -1    0    0  502    0  0.00000000000E+00  0.00000000000E+00  0.17215202245E+04  0.17215202245E+04  0.00000000000E+00 0. -1.
          1   -1    0    0  501    0 -0.00000000000E+00 -0.00000000000E+00 -0.14922392562E+04  0.14922392562E+04  0.00000000000E+00 0. -1.
         25    2    1    2    0    0 -0.65694144946E+02  0.51750851642E+02 -0.50891175380E+03  0.53066948678E+03  0.12500023886E+03 0.  0.
          2    1    1    2  501    0 -0.18563914141E+02 -0.43081794531E+02 -0.97083340461E+03  0.97196613081E+03  0.00000000000E+00 0. -1.
          1    1    1    2  502    0  0.84258059087E+02 -0.86690571108E+01  0.17090261268E+04  0.17111238631E+04  0.00000000000E+00 0. -1.
         22    1    3    3    0    0 -0.17336577803E+02  0.64028421116E+02 -0.44333967467E+03  0.44827476259E+03  0.00000000000E+00 0. -1.
         22    1    3    3    0    0 -0.48357567143E+02 -0.12277569474E+02 -0.65572079132E+02  0.82394724187E+02  0.00000000000E+00 0. -1.
</event>
<event>
 7    1  0.7527776E-006  0.7244307E+03  0.7818608E-02  0.1226406E+00
          2   -1    0    0  502    0  0.00000000000E+00  0.00000000000E+00  0.27727815986E+04  0.27727815986E+04  0.00000000000E+00 0. -1.
          1   -1    0    0  501    0 -0.00000000000E+00 -0.00000000000E+00 -0.62489933600E+03  0.62489933600E+03  0.00000000000E+00 0. -1.
         25    2    1    2    0    0 -0.69777136580E+03  0.20607857891E+03  0.55398610405E+03  0.92297302351E+03  0.12500135610E+03 0.  0.
          2    1    1    2  501    0  0.68675353183E+03 -0.22693101055E+03 -0.14331390989E+03  0.73733776100E+03  0.00000000000E+00 0. -1.
          1    1    1    2  502    0  0.11017833979E+02  0.20852431638E+02  0.17372100685E+04  0.17373701501E+04  0.00000000000E+00 0. -1.
         22    1    3    3    0    0 -0.63724151379E+03  0.22127208230E+03  0.49126566871E+03  0.83449388167E+03  0.00000000000E+00 0.  1.
         22    1    3    3    0    0 -0.60529852018E+02 -0.15193503394E+02  0.62720435346E+02  0.88479141840E+02  0.00000000000E+00 0.  1.
</event>
<event>
 7    1  0.7527776E-006  0.6963719E+02  0.7818608E-02  0.1373143E+00
          2   -1    0    0  502    0  0.00000000000E+00  0.00000000000E+00  0.28166316527E+03  0.28166316527E+03  0.00000000000E+00 0. -1.
          1   -1    0    0  501    0 -0.00000000000E+00 -0.00000000000E+00 -0.65920236987E+03  0.65920236987E+03  0.00000000000E+00 0. -1.
         25    2    1    2    0    0  0.74493326283E+02  0.64421576161E+02 -0.40477160711E+03  0.43493019401E+03  0.12499929842E+03 0.  0.
          2    1    1    2  501    0 -0.65593027545E+02 -0.19275687366E+01 -0.23097911937E+03  0.24011979170E+03  0.00000000000E+00 0. -1.
          1    1    1    2  502    0 -0.89002987384E+01 -0.62494007425E+02  0.25821152188E+03  0.26581554942E+03  0.00000000000E+00 0. -1.
         22    1    3    3    0    0  0.18086618885E+02  0.50127349696E+02 -0.35313447663E+03  0.35713279821E+03  0.00000000000E+00 0.  1.
         22    1    3    3    0    0  0.56406707398E+02  0.14294226465E+02 -0.51637130474E+02  0.77797395801E+02  0.00000000000E+00 0.  1.
</event>
<event>
 7    1  0.7527776E-006  0.1432314E+03  0.7818608E-02  0.1321733E+00
          2   -1    0    0  502    0  0.00000000000E+00  0.00000000000E+00  0.62709942972E+03  0.62709942972E+03  0.00000000000E+00 0. -1.
          1   -1    0    0  501    0 -0.00000000000E+00 -0.00000000000E+00 -0.42638503361E+03  0.42638503361E+03  0.00000000000E+00 0. -1.
         25    2    1    2    0    0 -0.17577899743E+03  0.13147418341E+01  0.22605494107E+02  0.21687325473E+03  0.12499206284E+03 0.  0.
          2    1    1    2  501    0  0.13662234183E+03 -0.28513634910E+02 -0.31325521876E+03  0.34293953366E+03  0.00000000000E+00 0. -1.
          1    1    1    2  502    0  0.39156655593E+02  0.27198893076E+02  0.49136412077E+03  0.49367167494E+03  0.00000000000E+00 0. -1.
         22    1    3    3    0    0 -0.37376281861E+02  0.30040971878E+02 -0.39838748202E+02  0.62342379610E+02  0.00000000000E+00 0.  1.
         22    1    3    3    0    0 -0.13840271556E+03 -0.28726230044E+02  0.62444242309E+02  0.15453087512E+03  0.00000000000E+00 0.  1.
</event>
<event>
 7    1  0.7527776E-006  0.1335266E+03  0.7818608E-02  0.1433774E+00
          2   -1    0    0  502    0  0.00000000000E+00  0.00000000000E+00  0.10214766203E+04  0.10214766203E+04  0.00000000000E+00 0. -1.
          1   -1    0    0  501    0 -0.00000000000E+00 -0.00000000000E+00 -0.13663528813E+04  0.13663528813E+04  0.00000000000E+00 0. -1.
         25    2    1    2    0    0 -0.10255806764E+03 -0.95016565720E+02  0.29385126985E+03  0.34859724435E+03  0.12500065990E+03 0.  0.
          2    1    1    2  501    0  0.10978006923E+03  0.75922280738E+02 -0.13355036411E+04  0.13421571561E+04  0.00000000000E+00 0. -1.
          1    1    1    2  502    0 -0.72220015876E+01  0.19094284982E+02  0.69677611019E+03  0.69707510123E+03  0.00000000000E+00 0. -1.
         22    1    3    3    0    0  0.25934018614E+02 -0.36018713248E+02  0.92075428519E+02  0.10221450759E+03  0.00000000000E+00 0.  1.
         22    1    3    3    0    0 -0.12849208626E+03 -0.58997852473E+02  0.20177584134E+03  0.24638273676E+03  0.00000000000E+00 0.  1.
</event>
<event>
 7    1  0.7527776E-006  0.5221382E+02  0.7818608E-02  0.1492538E+00
          2   -1    0    0  502    0  0.00000000000E+00  0.00000000000E+00  0.45761042733E+03  0.45761042733E+03  0.00000000000E+00 0. -1.
          1   -1    0    0  501    0 -0.00000000000E+00 -0.00000000000E+00 -0.98937584838E+03  0.98937584838E+03  0.00000000000E+00 0. -1.
         25    2    1    2    0    0 -0.32936676070E+02 -0.72307715587E+02 -0.77019970395E+02  0.16694515566E+03  0.12500151516E+03 0.  0.
          2    1    1    2  501    0 -0.21437673458E+01  0.34058453938E+02 -0.86542374135E+03  0.86609631457E+03  0.00000000000E+00 0. -1.
          1    1    1    2  502    0  0.35080443416E+02  0.38249261649E+02  0.41067829071E+03  0.41394480548E+03  0.00000000000E+00 0. -1.
         22    1    3    3    0    0  0.25850554392E+02  0.41147950543E+01  0.17847755296E+02  0.31681620379E+02  0.00000000000E+00 0. -1.
         22    1    3    3    0    0 -0.58787230462E+02 -0.76422510642E+02 -0.94867725691E+02  0.13526353528E+03  0.00000000000E+00 0. -1.
</event>
<event>
 7    1  0.7527776E-006  0.1387889E+03  0.7818608E-02  0.1249609E+00
          2   -1    0    0  502    0  0.00000000000E+00  0.00000000000E+00  0.26844080145E+04  0.26844080145E+04  0.00000000000E+00 0. -1.
          1   -1    0    0  501    0 -0.00000000000E+00 -0.00000000000E+00 -0.23899519974E+04  0.23899519974E+04  0.00000000000E+00 0. -1.
         25    2    1    2    0    0  0.22363830408E+03 -0.55540602020E+02  0.15370833791E+03  0.30389165052E+03  0.12500013036E+03 0.  0.
          2    1    1    2  501    0 -0.13760551048E+03  0.10343373102E+02 -0.23118406392E+04  0.23159553974E+04  0.00000000000E+00 0. -1.
          1    1    1    2  502    0 -0.86032793596E+02  0.45197228918E+02  0.24525883183E+04  0.24545129640E+04  0.00000000000E+00 0. -1.
         22    1    3    3    0    0  0.19505661128E+03 -0.16270487902E+02  0.16266468507E+03  0.25450267218E+03  0.00000000000E+00 0.  1.
         22    1    3    3    0    0  0.28581692802E+02 -0.39270114118E+02 -0.89563471685E+01  0.49388978334E+02  0.00000000000E+00 0.  1.
</event>
<event>
 7    1  0.7527776E-006  0.1270707E+03  0.7818608E-02  0.1352551E+00
          2   -1    0    0  502    0  0.00000000000E+00  0.00000000000E+00  0.99794203512E+03  0.99794203512E+03  0.00000000000E+00 0. -1.
          1   -1    0    0  501    0 -0.00000000000E+00 -0.00000000000E+00 -0.18332326112E+04  0.18332326112E+04  0.00000000000E+00 0. -1.
         25    2    1    2    0    0 -0.97653539520E+02  0.11952667038E+03  0.82166315035E+01  0.19878282733E+03  0.12499704275E+03 0.  0.
          2    1    1    2  501    0 -0.89732061009E+00 -0.41088797560E+02 -0.17332704477E+04  0.17337576357E+04  0.00000000000E+00 0. -1.
          1    1    1    2  502    0  0.98550860130E+02 -0.78437872817E+02  0.88976324012E+03  0.89863418330E+03  0.00000000000E+00 0. -1.
         22    1    3    3    0    0  0.19292895268E+02  0.67577250664E+02  0.87195319747E+01  0.70816176492E+02  0.00000000000E+00 0.  1.
         22    1    3    3    0    0 -0.11694643479E+03  0.51949419712E+02 -0.50290047122E+00  0.12796665084E+03  0.00000000000E+00 0.  1.
</event>
<event>
 7    1  0.7527776E-006  0.1227625E+03  0.7818608E-02  0.1323682E+00
          2   -1    0    0  502    0  0.00000000000E+00  0.00000000000E+00  0.14899958043E+04  0.14899958043E+04  0.00000000000E+00 0. -1.
          1   -1    0    0  501    0 -0.00000000000E+00 -0.00000000000E+00 -0.50427230064E+03  0.50427230064E+03  0.00000000000E+00 0. -1.
         25    2    1    2    0    0  0.45019775166E+02 -0.13387978587E+03  0.69953067251E+03  0.72451306648E+03  0.12500177794E+03 0.  0.
          2    1    1    2  501    0  0.84282466970E+01  0.12238828828E+03 -0.48314527454E+03  0.49847696513E+03  0.00000000000E+00 0. -1.
          1    1    1    2  502    0 -0.53448021863E+02  0.11491497585E+02  0.76933810571E+03  0.77127807336E+03  0.00000000000E+00 0. -1.
         22    1    3    3    0    0  0.79067228511E+01 -0.14849377329E+03  0.54668419071E+03  0.56654789855E+03  0.00000000000E+00 0.  1.
         22    1    3    3    0    0  0.37113052315E+02  0.14613987423E+02  0.15284648180E+03  0.15796516793E+03  0.00000000000E+00 0.  1.
</event>
<event>
 7    1  0.7527776E-006  0.4044914E+02  0.7818608E-02  0.1520605E+00
          2   -1    0    0  502    0  0.00000000000E+00  0.00000000000E+00  0.31412530709E+04  0.31412530709E+04  0.00000000000E+00 0. -1.
          1   -1    0    0  501    0 -0.00000000000E+00 -0.00000000000E+00 -0.42479190423E+02  0.42479190423E+02  0.00000000000E+00 0. -1.
         25    2    1    2    0    0 -0.35659474895E+02  0.54991009932E+02  0.17164050056E+04  0.17221981300E+04  0.12499858424E+03 0.  0.
          2    1    1    2  501    0  0.16622901872E+01 -0.36349068596E+02 -0.30897827553E+02  0.47735665324E+02  0.00000000000E+00 0. -1.
          1    1    1    2  502    0  0.33997184708E+02 -0.18641941336E+02  0.14132667024E+04  0.14137984660E+04  0.00000000000E+00 0. -1.
         22    1    3    3    0    0 -0.77504645173E+02  0.14910819589E+02  0.11897943306E+04  0.11924092635E+04  0.00000000000E+00 0.  1.
         22    1    3    3    0    0  0.41845170278E+02  0.40080190343E+02  0.52661067506E+03  0.52978886645E+03  0.00000000000E+00 0.  1.
</event>
<event>
 7    1  0.7527776E-006  0.5816092E+02  0.7818608E-02  0.1481617E+00
          2   -1    0    0  502    0  0.00000000000E+00  0.00000000000E+00  0.12642495804E+04  0.12642495804E+04  0.00000000000E+00 0. -1.
          1   -1    0    0  501    0 -0.00000000000E+00 -0.00000000000E+00 -0.44300212786E+02  0.44300212786E+02  0.00000000000E+00 0. -1.
         25    2    1    2    0    0  0.62683838649E+02 -0.36727384861E+02  0.39598145072E+03  0.42154943711E+03  0.12499781673E+03 0.  0.
          2    1    1    2  501    0 -0.52496733379E+01  0.32649092248E+02 -0.21584733175E+02  0.39489530271E+02  0.00000000000E+00 0. -1.
          1    1    1    2  502    0 -0.57434165311E+02  0.40782926125E+01  0.84555265008E+03  0.84751082582E+03  0.00000000000E+00 0. -1.
         22    1    3    3    0    0  0.76021361134E+02  0.16051063466E+02  0.14267378906E+03  0.16245828409E+03  0.00000000000E+00 0.  1.
         22    1    3    3    0    0 -0.13337522485E+02 -0.52778448327E+02  0.25330766166E+03  0.25909115301E+03  0.00000000000E+00 0.  1.
</event>
<event>
 7    1  0.7527776E-006  0.1743831E+03  0.7818608E-02  0.1231864E+00
          2   -1    0    0  502    0  0.00000000000E+00  0.00000000000E+00  0.28624249255E+03  0.28624249255E+03  0.00000000000E+00 0. -1.
          1   -1    0    0  501    0 -0.00000000000E+00 -0.00000000000E+00 -0.18545748877E+04  0.18545748877E+04  0.00000000000E+00 0. -1.
         25    2    1    2    0    0  0.10188188031E+03  0.41164288071E+02 -0.33641907431E+03  0.37533650935E+03  0.12500114217E+03 0.  0.
          2    1    1    2  501    0 -0.16174794554E+03 -0.11180821512E+03 -0.14839766831E+04  0.14969469833E+04  0.00000000000E+00 0. -1.
          1    1    1    2  502    0  0.59866065230E+02  0.70643927051E+02  0.25206336225E+03  0.26853388759E+03  0.00000000000E+00 0. -1.
         22    1    3    3    0    0  0.72273882471E+02 -0.34771852663E+02 -0.21132923696E+03  0.22603681607E+03  0.00000000000E+00 0.  1.
         22    1    3    3    0    0  0.29607997836E+02  0.75936140734E+02 -0.12508983736E+03  0.14929969329E+03  0.00000000000E+00 0.  1.
</event>
<event>
 7    1  0.7527776E-006  0.7700696E+02  0.7818608E-02  0.1376294E+00
          2   -1    0    0  502    0  0.00000000000E+00  0.00000000000E+00  0.24158984215E+04  0.24158984215E+04  0.00000000000E+00 0. -1.
          1   -1    0    0  501    0 -0.00000000000E+00 -0.00000000000E+00 -0.32781033753E+03  0.32781033753E+03  0.00000000000E+00 0. -1.
         25    2    1    2    0    0 -0.36360980470E+02 -0.17901634919E+02  0.26568048112E+02  0.13406563618E+03  0.12500057676E+03 0.  0.
          2    1    1    2  501    0  0.32685203509E+02  0.73404052813E+02 -0.26783275353E+03  0.27962628875E+03  0.00000000000E+00 0. -1.
          1    1    1    2  502    0  0.36757769610E+01 -0.55502417895E+02  0.23293527894E+04  0.23300168341E+04  0.00000000000E+00 0. -1.
         22    1    3    3    0    0 -0.40906352933E+02 -0.45525325255E+02 -0.32063232984E+02  0.69093674524E+02  0.00000000000E+00 0.  1.
         22    1    3    3    0    0  0.45453724631E+01  0.27623690337E+02  0.58631281096E+02  0.64971961658E+02  0.00000000000E+00 0.  1.
</event>
<event>
 7    1  0.7527776E-006  0.1121166E+03  0.7818608E-02  0.1296442E+00
          2   -1    0    0  502    0  0.00000000000E+00  0.00000000000E+00  0.11850050982E+03  0.11850050982E+03  0.00000000000E+00 0. -1.
          1   -1    0    0  501    0 -0.00000000000E+00 -0.00000000000E+00 -0.50665312865E+03  0.50665312865E+03  0.00000000000E+00 0. -1.
         25    2    1    2    0    0 -0.75697324018E+00 -0.17736622752E+03 -0.34763004041E+03  0.40979353659E+03  0.12499898385E+03 0.  0.
          2    1    1    2  501    0 -0.20423430214E+02  0.73874607907E+02 -0.71972704320E+02  0.10514106887E+03  0.00000000000E+00 0. -1.
          1    1    1    2  502    0  0.21180403454E+02  0.10349161961E+03  0.31450125892E+02  0.11021903302E+03  0.00000000000E+00 0. -1.
         22    1    3    3    0    0  0.13947813012E+02 -0.19203986360E+03 -0.33200949450E+03  0.38380223441E+03  0.00000000000E+00 0.  1.
         22    1    3    3    0    0 -0.14704786253E+02  0.14673636080E+02 -0.15620545902E+02  0.25991302176E+02  0.00000000000E+00 0.  1.
</event>
<event>
 7    1  0.7527776E-006  0.1096556E+03  0.7818608E-02  0.1273706E+00
          2   -1    0    0  502    0  0.00000000000E+00  0.00000000000E+00  0.43392989170E+03  0.43392989170E+03  0.00000000000E+00 0. -1.
          1   -1    0    0  501    0 -0.00000000000E+00 -0.00000000000E+00 -0.76982851371E+03  0.76982851371E+03  0.00000000000E+00 0. -1.
         25    2    1    2    0    0  0.10418408916E+03  0.12066107244E+03 -0.47621059723E+03  0.51750896958E+03  0.12500232736E+03 0.  0.
          2    1    1    2  501    0 -0.96434896448E+02 -0.11558510477E+02 -0.25669282864E+03  0.27445308651E+03  0.00000000000E+00 0. -1.
          1    1    1    2  502    0 -0.77491927151E+01 -0.10910256197E+03  0.39700480387E+03  0.41179634932E+03  0.00000000000E+00 0. -1.
         22    1    3    3    0    0  0.67520355711E+02  0.97820417559E+02 -0.16521872265E+03  0.20353146892E+03  0.00000000000E+00 0. -1.
         22    1    3    3    0    0  0.36663733451E+02  0.22840654884E+02 -0.31099187458E+03  0.31397750066E+03  0.00000000000E+00 0. -1.
</event>
<event>
 7    1  0.7527776E-006  0.8923943E+02  0.7818608E-02  0.1391640E+00
          2   -1    0    0  502    0  0.00000000000E+00  0.00000000000E+00  0.70251769925E+03  0.70251769925E+03  0.00000000000E+00 0. -1.
          1   -1    0    0  501    0 -0.00000000000E+00 -0.00000000000E+00 -0.45777051186E+02  0.45777051186E+02  0.00000000000E+00 0. -1.
         25    2    1    2    0    0 -0.46720512582E+02  0.39439246817E+02  0.55842487972E+03  0.57550100960E+03  0.12499922107E+03 0.  0.
          2    1    1    2  501    0  0.44896836001E+02 -0.81783934561E+02  0.42010894207E+02  0.10231936800E+03  0.00000000000E+00 0. -1.
          1    1    1    2  502    0  0.18236765812E+01  0.42344687744E+02  0.56304874138E+02  0.70474372846E+02  0.00000000000E+00 0. -1.
         22    1    3    3    0    0 -0.70016219715E+02 -0.21776117279E+02  0.31461251976E+03  0.32304412686E+03  0.00000000000E+00 0.  1.
         22    1    3    3    0    0  0.23295707133E+02  0.61215364096E+02  0.24381235996E+03  0.25245688274E+03  0.00000000000E+00 0.  1.
</event>
<event>
 7    1  0.7527776E-006  0.3438011E+02  0.7818608E-02  0.1574331E+00
          2   -1    0    0  502    0  0.00000000000E+00  0.00000000000E+00  0.83096340676E+02  0.83096340676E+02  0.00000000000E+00 0. -1.
          1   -1    0    0  501    0 -0.00000000000E+00 -0.00000000000E+00 -0.14552623039E+03  0.14552623039E+03  0.00000000000E+00 0. -1.
         25    2    1    2    0    0  0.39064837793E+02  0.18836566100E+02 -0.64166708674E+02  0.14704689360E+03  0.12499817855E+03 0.  0.
          2    1    1    2  501    0 -0.32820713803E+02  0.10790839847E+02 -0.23810718368E+02  0.41959406435E+02  0.00000000000E+00 0. -1.
          1    1    1    2  502    0 -0.62441239900E+01 -0.29627405947E+02  0.25547537325E+02  0.39616271038E+02  0.00000000000E+00 0. -1.
         22    1    3    3    0    0  0.80289277864E+02  0.33845143090E+02 -0.32734233993E+02  0.93077343784E+02  0.00000000000E+00 0.  1.
         22    1    3    3    0    0 -0.41224440071E+02 -0.15008576990E+02 -0.31432474681E+02  0.53969549813E+02  0.00000000000E+00 0.  1.
</event>
<event>
 7    1  0.7527776E-006  0.1130613E+03  0.7818608E-02  0.1277901E+00
          2   -1    0    0  502    0  0.00000000000E+00  0.00000000000E+00  0.28547050736E+04  0.28547050736E+04  0.00000000000E+00 0. -1.
          1   -1    0    0  501    0 -0.00000000000E+00 -0.00000000000E+00 -0.11874171309E+04  0.11874171309E+04  0.00000000000E+00 0. -1.
         25    2    1    2    0    0 -0.20192544096E+03  0.60671689550E+01  0.33948494891E+03  0.41434888333E+03  0.12499708932E+03 0.  0.
          2    1    1    2  501    0  0.11168687273E+03 -0.12796665865E+02 -0.11464087355E+04  0.11519074186E+04  0.00000000000E+00 0. -1.
          1    1    1    2  502    0  0.90238568231E+02  0.67294969105E+01  0.24742117294E+04  0.24758659025E+04  0.00000000000E+00 0. -1.
         22    1    3    3    0    0  0.77601235330E+01 -0.22702171432E+02  0.20626364973E+02  0.31639453803E+02  0.00000000000E+00 0.  1.
         22    1    3    3    0    0 -0.20968556449E+03  0.28769340387E+02  0.31885858393E+03  0.38270942953E+03  0.00000000000E+00 0.  1.
</event>
<event>
 7    1  0.7527776E-006  0.5688063E+02  0.7818608E-02  0.1416809E+00
          2   -1    0    0  502    0  0.00000000000E+00  0.00000000000E+00  0.74886746979E+03  0.74886746979E+03  0.00000000000E+00 0. -1.
          1   -1    0    0  501    0 -0.00000000000E+00 -0.00000000000E+00 -0.21734214353E+04  0.21734214353E+04  0.00000000000E+00 0. -1.
         25    2    1    2    0    0 -0.10033610714E+03 -0.22321171155E+02  0.12300018303E+03  0.20327197310E+03  0.12499952378E+03 0.  0.
          2    1    1    2  501    0  0.53919689294E+02 -0.82511535562E+01 -0.21316173479E+04  0.21323151579E+04  0.00000000000E+00 0. -1.
          1    1    1    2  502    0  0.46416417842E+02  0.30572324712E+02  0.58406319939E+03  0.58670177413E+03  0.00000000000E+00 0. -1.
         22    1    3    3    0    0 -0.11243624684E+03  0.22759434468E+02  0.94095053222E+02  0.14837041653E+03  0.00000000000E+00 0. -1.
         22    1    3    3    0    0  0.12100139705E+02 -0.45080605624E+02  0.28905129805E+02  0.54901556565E+02  0.00000000000E+00 0. -1.
</event>
<event>
 7    1  0.7527776E-006  0.1759194E+03  0.7818608E-02  0.1278239E+00
          2   -1    0    0  502    0  0.00000000000E+00  0.00000000000E+00  0.14481436476E+03  0.14481436476E+03  0.00000000000E+00 0. -1.
          1   -1    0    0  501    0 -0.00000000000E+00 -0.00000000000E+00 -0.56162529682E+03  0.56162529682E+03  0.00000000000E+00 0. -1.
         25    2    1    2    0    0 -0.69929074761E+02  0.12426078520E+03 -0.46805621274E+02  0.19531075671E+03  0.12499882907E+03 0.  0.
          2    1    1    2  501    0  0.12665804450E+03 -0.13618750248E+03 -0.40341467178E+03  0.44422144644E+03  0.00000000000E+00 0. -1.
          1    1    1    2  502    0 -0.56728969735E+02  0.11926717280E+02  0.33409360994E+02  0.66907458435E+02  0.00000000000E+00 0. -1.
         22    1    3    3    0    0 -0.53514998314E+02 -0.17147541864E+01 -0.42222900524E+02  0.68187746371E+02  0.00000000000E+00 0.  1.
         22    1    3    3    0    0 -0.16414076447E+02  0.12597553939E+03 -0.45827207498E+01  0.12712301034E+03  0.00000000000E+00 0.  1.
</event>
<event>
 7    1  0.7527776E-006  0.7614834E+02  0.7818608E-02  0.1383005E+00
          2   -1    0    0  502    0  0.00000000000E+00  0.00000000000E+00  0.55375318133E+03  0.55375318133E+03  0.00000000000E+00 0. -1.
          1   -1    0    0  501    0 -0.00000000000E+00 -0.00000000000E+00 -0.12974097714E+03  0.12974097714E+03  0.00000000000E+00 0. -1.
         25    2    1    2    0    0 -0.62223905802E+02 -0.39006586327E+02  0.15960189176E+03  0.21562036664E+03  0.12500420165E+03 0.  0.
          2    1    1    2  501    0 -0.15897489452E+02  0.50825894786E+02 -0.90102263772E+02  0.10466336364E+03  0.00000000000E+00 0. -1.
          1    1    1    2  502    0  0.78121395254E+02 -0.11819308458E+02  0.35451257621E+03  0.36321042818E+03  0.00000000000E+00 0. -1.
         22    1    3    3    0    0 -0.38340478727E+02 -0.52088620484E+02  0.17341650695E+03  0.18508511981E+03  0.00000000000E+00 0.  1.
         22    1    3    3    0    0 -0.23883427075E+02  0.13082034156E+02 -0.13814615189E+02  0.30535246836E+02  0.00000000000E+00 0.  1.
</event>
<event>
 7    1  0.7527776E-006  0.8568243E+02  0.7818608E-02  0.1334236E+00
          2   -1    0    0  502    0  0.00000000000E+00  0.00000000000E+00  0.41365259059E+03  0.41365259059E+03  0.00000000000E+00 0. -1.
          1   -1    0    0  501    0 -0.00000000000E+00 -0.00000000000E+00 -0.27718022743E+03  0.27718022743E+03  0.00000000000E+00 0. -1.
         25    2    1    2    0    0  0.60542193813E+02 -0.71588185530E+02  0.28020395267E+02  0.15874692749E+03  0.12500087558E+03 0.  0.
          2    1    1    2  501    0 -0.69704730475E+02 -0.15339059238E+02 -0.19954541746E+03  0.21192548176E+03  0.00000000000E+00 0. -1.
          1    1    1    2  502    0  0.91625366626E+01  0.86927244768E+02  0.30799738536E+03  0.32016040878E+03  0.00000000000E+00 0. -1.
         22    1    3    3    0    0  0.13765080107E+02 -0.92526451213E+02 -0.11198913166E+02  0.94212723454E+02  0.00000000000E+00 0. -1.
         22    1    3    3    0    0  0.46777113705E+02  0.20938265684E+02  0.39219308433E+02  0.64534204035E+02  0.00000000000E+00 0. -1.
</event>
<event>
 7    1  0.7527776E-006  0.9579022E+02  0.7818608E-02  0.1352953E+00
          2   -1    0    0  502    0  0.00000000000E+00  0.00000000000E+00  0.21161517464E+04  0.21161517464E+04  0.00000000000E+00 0. -1.
          1   -1    0    0  501    0 -0.00000000000E+00 -0.00000000000E+00 -0.35434778885E+03  0.35434778885E+03  0.00000000000E+00 0. -1.
         25    2    1    2    0    0 -0.52362013085E+02  0.74825754497E+02  0.14300746116E+04  0.14384291152E+04  0.12499700325E+03 0.  0.
          2    1    1    2  501    0  0.22624568493E+01 -0.95853903352E+02 -0.34249381776E+03  0.35566150298E+03  0.00000000000E+00 0. -1.
          1    1    1    2  502    0  0.50099556235E+02  0.21028148855E+02  0.67422316377E+03  0.67640891710E+03  0.00000000000E+00 0. -1.
         22    1    3    3    0    0  0.29641612439E+01  0.23211177508E+02  0.40333536245E+02  0.46629809770E+02  0.00000000000E+00 0.  1.
         22    1    3    3    0    0 -0.55326174328E+02  0.51614576990E+02  0.13897410753E+04  0.13917993054E+04  0.00000000000E+00 0.  1.
</event>
<event>
 7    1  0.7527776E-006  0.9323423E+02  0.7818608E-02  0.1391783E+00
          2   -1    0    0  502    0  0.00000000000E+00  0.00000000000E+00  0.27549261326E+04  0.27549261326E+04  0.00000000000E+00 0. -1.
          1   -1    0    0  501    0 -0.00000000000E+00 -0.00000000000E+00 -0.70749892466E+02  0.70749892466E+02  0.00000000000E+00 0. -1.
         25    2    1    2    0    0 -0.32611364945E+02  0.10955761928E+03  0.53781855631E+03  0.56386146551E+03  0.12499831884E+03 0.  0.
          2    1    1    2  501    0 -0.20985991305E+02 -0.34663998031E+02 -0.49531409523E+02  0.63995039806E+02  0.00000000000E+00 0. -1.
          1    1    1    2  502    0  0.53597356250E+02 -0.74893621252E+02  0.21958890933E+04  0.21978195197E+04  0.00000000000E+00 0. -1.
         22    1    3    3    0    0 -0.20720226821E+02  0.59796498396E+02  0.48922155131E+03  0.49329775521E+03  0.00000000000E+00 0.  1.
         22    1    3    3    0    0 -0.11891138124E+02  0.49761120886E+02  0.48597004993E+02  0.70563710305E+02  0.00000000000E+00 0.  1.
</event>
<event>
 7    1  0.7527776E-006  0.8881247E+02  0.7818608E-02  0.1328576E+00
          2   -1    0    0  502    0  0.00000000000E+00  0.00000000000E+00  0.14232167969E+04  0.14232167969E+04  0.00000000000E+00 0. -1.
          1   -1    0    0  501    0 -0.00000000000E+00 -0.00000000000E+00 -0.21254303005E+04  0.21254303005E+04  0.00000000000E+00 0. -1.
         25    2    1    2    0    0  0.11872810150E+03 -0.29011789543E+02 -0.34232757405E+02  0.17814289811E+03  0.12499985781E+03 0.  0.
          2    1    1    2  501    0 -0.36598730908E+02  0.62427281564E+02 -0.20171384304E+04  0.20184360481E+04  0.00000000000E+00 0. -1.
          1    1    1    2  502    0 -0.82129370588E+02 -0.33415492021E+02  0.13491576842E+04  0.13520681512E+04  0.00000000000E+00 0. -1.
         22    1    3    3    0    0  0.57673540963E+02 -0.22327647164E+02 -0.80308614424E+02  0.10136189968E+03  0.00000000000E+00 0.  1.
         22    1    3    3    0    0  0.61054560533E+02 -0.66841423794E+01  0.46075857019E+02  0.76780998439E+02  0.00000000000E+00 0.  1.
</event>
<event>
 7    1  0.7527776E-006  0.1463356E+03  0.7818608E-02  0.1253150E+00
          2   -1    0    0  502    0  0.00000000000E+00  0.00000000000E+00  0.18344447410E+03  0.18344447410E+03  0.00000000000E+00 0. -1.
          1   -1    0    0  501    0 -0.00000000000E+00 -0.00000000000E+00 -0.14341263324E+04  0.14341263324E+04  0.00000000000E+00 0. -1.
         25    2    1    2    0    0 -0.17782174128E+03 -0.10231984696E+03 -0.55181764323E+02  0.24649815338E+03  0.12500555887E+03 0.  0.
          2    1    1    2  501    0  0.52191000857E+02  0.72059916428E+02 -0.12332441519E+04  0.12364496230E+04  0.00000000000E+00 0. -1.
          1    1    1    2  502    0  0.12563074043E+03  0.30259930536E+02  0.37744057865E+02  0.13462303013E+03  0.00000000000E+00 0. -1.
         22    1    3    3    0    0 -0.46971073065E+02 -0.87070339190E+02 -0.58097834282E+02  0.11472961265E+03  0.00000000000E+00 0.  1.
         22    1    3    3    0    0 -0.13085066822E+03 -0.15249507774E+02  0.29160699592E+01  0.13176854073E+03  0.00000000000E+00 0.  1.
</event>
<event>
 7    1  0.7527776E-006  0.1329810E+03  0.7818608E-02  0.1310533E+00
          2   -1    0    0  502    0  0.00000000000E+00  0.00000000000E+00  0.62432708748E+03  0.62432708748E+03  0.00000000000E+00 0. -1.
          1   -1    0    0  501    0 -0.00000000000E+00 -0.00000000000E+00 -0.30919853383E+03  0.30919853383E+03  0.00000000000E+00 0. -1.
         25    2    1    2    0    0  0.12225778239E+03  0.11409108656E+02  0.20941686426E+03  0.27305012679E+03  0.12499526224E+03 0.  0.
          2    1    1    2  501    0  0.32365098199E+00  0.56788200677E+02 -0.26138905286E+03  0.26748689957E+03  0.00000000000E+00 0. -1.
          1    1    1    2  502    0 -0.12258143338E+03 -0.68197309332E+02  0.36710074224E+03  0.39298859495E+03  0.00000000000E+00 0. -1.
         22    1    3    3    0    0  0.13670269431E+03 -0.22291196330E+02  0.16309126848E+03  0.21397029214E+03  0.00000000000E+00 0. -1.
         22    1    3    3    0    0 -0.14444911919E+02  0.33700304985E+02  0.46325595789E+02  0.59079834645E+02  0.00000000000E+00 0. -1.
</event>
<event>
 7    1  0.7527776E-006  0.3561864E+02  0.7818608E-02  0.1570058E+00
          2   -1    0    0  502    0  0.00000000000E+00  0.00000000000E+00  0.82605451998E+02  0.82605451998E+02  0.00000000000E+00 0. -1.
          1   -1    0    0  501    0 -0.00000000000E+00 -0.00000000000E+00 -0.20458180001E+04  0.20458180001E+04  0.00000000000E+00 0. -1.
         25    2    1    2    0    0 -0.16871322775E+02  0.34962241209E+02 -0.27147034371E+03  0.30137764195E+03  0.12500134283E+03 0.  0.
          2    1    1    2  501    0  0.34171883025E+02 -0.10435084205E+02 -0.17558741502E+04  0.17562376376E+04  0.00000000000E+00 0. -1.
          1    1    1    2  502    0 -0.17300560251E+02 -0.24527157004E+02  0.64131945821E+02  0.70808172483E+02  0.00000000000E+00 0. -1.
         22    1    3    3    0    0 -0.35126640505E+02  0.34494011552E+02 -0.26850898174E+02  0.56077521690E+02  0.00000000000E+00 0.  1.
         22    1    3    3    0    0  0.18255317731E+02  0.46822965662E+00 -0.24461944554E+03  0.24530012026E+03  0.00000000000E+00 0.  1.
</event>
<event>
 7    1  0.7527776E-006  0.7773839E+02  0.7818608E-02  0.1412038E+00
          2   -1    0    0  502    0  0.00000000000E+00  0.00000000000E+00  0.62960385517E+03  0.62960385517E+03  0.00000000000E+00 0. -1.
          1   -1    0    0  501    0 -0.00000000000E+00 -0.00000000000E+00 -0.15176796773E+04  0.15176796773E+04  0.00000000000E+00 0. -1.
         25    2    1    2    0    0 -0.34201176688E+02 -0.19884305317E+02 -0.10307721126E+04  0.10390734596E+04  0.12496959703E+03 0.  0.
          2    1    1    2  501    0 -0.41393661725E+02  0.13591895266E+01 -0.47943932325E+03  0.48122484069E+03  0.00000000000E+00 0. -1.
          1    1    1    2  502    0  0.75594838413E+02  0.18525115790E+02  0.62213561374E+03  0.62698523219E+03  0.00000000000E+00 0. -1.
         22    1    3    3    0    0 -0.23377572930E+02  0.21631907178E+02 -0.91585266016E+03  0.91640632115E+03  0.00000000000E+00 0.  1.
         22    1    3    3    0    0 -0.10823603758E+02 -0.41516212495E+02 -0.11491945244E+03  0.12266713841E+03  0.00000000000E+00 0.  1.
</event>
<event>
 7    1  0.7527776E-006  0.7126765E+02  0.7818608E-02  0.1421583E+00
          2   -1    0    0  502    0  0.00000000000E+00  0.00000000000E+00  0.68085121601E+03  0.68085121601E+03  0.00000000000E+00 0. -1.
          1   -1    0    0  501    0 -0.00000000000E+00 -0.00000000000E+00 -0.15313047852E+04  0.15313047852E+04  0.00000000000E+00 0. -1.
         25    2    1    2    0    0  0.64174412855E+02 -0.18309789986E+02 -0.23277737128E+03  0.27251413282E+03  0.12500017731E+03 0.  0.
          2    1    1    2  501    0 -0.68163123714E+02 -0.23464633251E+02 -0.12769753540E+04  0.12790085439E+04  0.00000000000E+00 0. -1.
          1    1    1    2  502    0  0.39887108588E+01  0.41774423237E+02  0.65929915612E+03  0.66063332455E+03  0.00000000000E+00 0. -1.
         22    1    3    3    0    0 -0.16014311370E+02  0.39576662933E+02 -0.75092686631E+02  0.86381028027E+02  0.00000000000E+00 0. -1.
         22    1    3    3    0    0  0.80188724225E+02 -0.57886452919E+02 -0.15768468465E+03  0.18613310479E+03  0.00000000000E+00 0. -1.
</event>
<event>
 7    1  0.7527776E-006  0.5926825E+02  0.7818608E-02  0.1401070E+00
          2   -1    0    0  502    0  0.00000000000E+00  0.00000000000E+00  0.43772231370E+03  0.43772231370E+03  0.00000000000E+00 0. -1.
          1   -1    0    0  501    0 -0.00000000000E+00 -0.00000000000E+00 -0.16395009075E+03  0.16395009075E+03  0.00000000000E+00 0. -1.
         25    2    1    2    0    0  0.48934408313E+01 -0.40665509778E+02 -0.28918156461E+02  0.13467837554E+03  0.12499750244E+03 0.  0.
          2    1    1    2  501    0  0.54251854739E+02  0.43253821702E+02 -0.64696789522E+02  0.94867441248E+02  0.00000000000E+00 0. -1.
          1    1    1    2  502    0 -0.59145295570E+02 -0.25883119236E+01  0.36738716893E+03  0.37212658766E+03  0.00000000000E+00 0. -1.
         22    1    3    3    0    0 -0.50712584722E+02 -0.32845519967E+02  0.16302183373E+02  0.62580792690E+02  0.00000000000E+00 0.  1.
         22    1    3    3    0    0  0.55606025553E+02 -0.78199898112E+01 -0.45220339834E+02  0.72097582852E+02  0.00000000000E+00 0.  1.
</event>
<event>
 7    1  0.7527776E-006  0.1046628E+03  0.7818608E-02  0.1280101E+00
          2   -1    0    0  502    0  0.00000000000E+00  0.00000000000E+00  0.25994524479E+04  0.25994524479E+04  0.00000000000E+00 0. -1.
          1   -1    0    0  501    0 -0.00000000000E+00 -0.00000000000E+00 -0.66117428880E+02  0.66117428880E+02  0.00000000000E+00 0. -1.
         25    2    1    2    0    0 -0.77004263062E+02  0.28740687742E+02  0.11581686027E+04  0.11677922247E+04  0.12501393599E+03 0.  0.
          2    1    1    2  501    0  0.25939957898E+02  0.92140672871E+02 -0.18881724270E+02  0.97566923310E+02  0.00000000000E+00 0. -1.
          1    1    1    2  502    0  0.51064305164E+02 -0.12088136061E+03  0.13940481406E+04  0.14002107287E+04  0.00000000000E+00 0. -1.
         22    1    3    3    0    0  0.97266439099E+01 -0.38114583856E+01  0.71349416624E+03  0.71357064127E+03  0.00000000000E+00 0. -1.
         22    1    3    3    0    0 -0.86730906972E+02  0.32552146128E+02  0.44467443644E+03  0.45422158344E+03  0.00000000000E+00 0. -1.
</event>
<event>
 7    1  0.7527776E-006  0.4234321E+02  0.7818608E-02  0.1590205E+00
          2   -1    0    0  502    0  0.00000000000E+00  0.00000000000E+00  0.62940508954E+03  0.62940508954E+03  0.00000000000E+00 0. -1.
          1   -1    0    0  501    0 -0.00000000000E+00 -0.00000000000E+00 -0.64282102834E+02  0.64282102834E+02  0.00000000000E+00 0. -1.
         25    2    1    2    0    0  0.41408879593E+02  0.48029868031E+01  0.40141635966E+03  0.42248977831E+03  0.12499901993E+03 0.  0.
          2    1    1    2  501    0 -0.15815364611E+01 -0.22239145364E+02 -0.49137092051E+02  0.53958638412E+02  0.00000000000E+00 0. -1.
          1    1    1    2  502    0 -0.39827343131E+02  0.17436158560E+02  0.21284371910E+03  0.21723877565E+03  0.00000000000E+00 0. -1.
         22    1    3    3    0    0  0.26347440187E+02  0.45705436214E+02  0.35468166375E+03  0.35858368215E+03  0.00000000000E+00 0. -1.
         22    1    3    3    0    0  0.15061439405E+02 -0.40902449411E+02  0.46734695907E+02  0.63906096159E+02  0.00000000000E+00 0. -1.
</event>
<event>
 7    1  0.7527776E-006  0.8912321E+02  0.7818608E-02  0.1380944E+00
          2   -1    0    0  502    0  0.00000000000E+00  0.00000000000E+00  0.49931617532E+03  0.49931617532E+03  0.00000000000E+00 0. -1.
          1   -1    0    0  501    0 -0.00000000000E+00 -0.00000000000E+00 -0.15537524351E+04  0.15537524351E+04  0.00000000000E+00 0. -1.
         25    2    1    2    0    0  0.47207254558E+02 -0.92658137953E+01  0.41794536262E+02  0.14030611703E+03  0.12499857210E+03 0.  0.
          2    1    1    2  501    0  0.41764878433E+02 -0.19915226314E+02 -0.14987661272E+04  0.14994801851E+04  0.00000000000E+00 0. -1.
          1    1    1    2  502    0 -0.88972132991E+02  0.29181040110E+02  0.40253533116E+03  0.41328230834E+03  0.00000000000E+00 0. -1.
         22    1    3    3    0    0  0.98601641124E+01 -0.60195182079E+02  0.46901800971E+02  0.76944536623E+02  0.00000000000E+00 0.  1.
         22    1    3    3    0    0  0.37347090446E+02  0.50929368284E+02 -0.51072647091E+01  0.63361580404E+02  0.00000000000E+00 0.  1.
</event>
<event>
 7    1  0.7527776E-006  0.6408987E+02  0.7818608E-02  0.1397319E+00
          2   -1    0    0  502    0  0.00000000000E+00  0.00000000000E+00  0.11812469270E+03  0.11812469270E+03  0.00000000000E+00 0. -1.
          1   -1    0    0  501    0 -0.00000000000E+00 -0.00000000000E+00 -0.34787671662E+03  0.34787671662E+03  0.00000000000E+00 0. -1.
         25    2    1    2    0    0  0.12223429553E+02 -0.51324451822E+02 -0.13397618079E+03  0.19067878780E+03  0.12500068604E+03 0.  0.
          2    1    1    2  501    0  0.49738637518E+02  0.26590785123E+02 -0.16787232233E+03  0.17709353043E+03  0.00000000000E+00 0. -1.
          1    1    1    2  502    0 -0.61962067071E+02  0.24733666699E+02  0.72096479198E+02  0.98229091093E+02  0.00000000000E+00 0. -1.
         22    1    3    3    0    0 -0.35270505385E+02  0.48110283422E+01  0.24678236202E+01  0.35682554522E+02  0.00000000000E+00 0. -1.
         22    1    3    3    0    0  0.47493934938E+02 -0.56135480164E+02 -0.13644400441E+03  0.15499623328E+03  0.00000000000E+00 0. -1.
</event>
<event>
 7    1  0.7527776E-006  0.7318647E+02  0.7818608E-02  0.1378715E+00
          2   -1    0    0  502    0  0.00000000000E+00  0.00000000000E+00  0.95032437920E+03  0.95032437920E+03  0.00000000000E+00 0. -1.
          1   -1    0    0  501    0 -0.00000000000E+00 -0.00000000000E+00 -0.23347163766E+04  0.23347163766E+04  0.00000000000E+00 0. -1.
         25    2    1    2    0    0 -0.24339018026E+02  0.40413974967E+02 -0.14784380903E+03  0.19927012508E+03  0.12500045484E+03 0.  0.
          2    1    1    2  501    0 -0.24838585327E+02 -0.69976520498E+02 -0.21596305112E+04  0.21609066647E+04  0.00000000000E+00 0. -1.
          1    1    1    2  502    0  0.49177603352E+02  0.29562545531E+02  0.92308232286E+03  0.92486396596E+03  0.00000000000E+00 0. -1.
         22    1    3    3    0    0  0.16193310010E+02  0.70663534348E+02 -0.12334816714E+03  0.14307455648E+03  0.00000000000E+00 0.  1.
         22    1    3    3    0    0 -0.40532328035E+02 -0.30249559381E+02 -0.24495641895E+02  0.56195568602E+02  0.00000000000E+00 0.  1.
</event>
<event>
 7    1  0.7527776E-006  0.6584827E+02  0.7818608E-02  0.1505317E+00
          2   -1    0    0  502    0  0.00000000000E+00  0.00000000000E+00  0.12689285519E+02  0.12689285519E+02  0.00000000000E+00 0. -1.
          1   -1    0    0  501    0 -0.00000000000E+00 -0.00000000000E+00 -0.17185723203E+04  0.17185723203E+04  0.00000000000E+00 0. -1.
         25    2    1    2    0    0 -0.37585720565E+02  0.41075227316E+02 -0.99663998969E+03  0.10059903049E+04  0.12500145547E+03 0.  0.
          2    1    1    2  501    0 -0.22680662892E+02 -0.99863622398E+01 -0.56853573256E+03  0.56907558294E+03  0.00000000000E+00 0. -1.
          1    1    1    2  502    0  0.60266383457E+02 -0.31088865076E+02 -0.14070731253E+03  0.15619571795E+03  0.00000000000E+00 0. -1.
         22    1    3    3    0    0 -0.32598676912E+02  0.76487162333E+02 -0.88179814257E+03  0.88570927735E+03  0.00000000000E+00 0.  1.
         22    1    3    3    0    0 -0.49870436524E+01 -0.35411935017E+02 -0.11484184712E+03  0.12028102758E+03  0.00000000000E+00 0.  1.
</event>
<event>
 7    1  0.7527776E-006  0.1096335E+03  0.7818608E-02  0.1339854E+00
          2   -1    0    0  502    0  0.00000000000E+00  0.00000000000E+00  0.20011736978E+04  0.20011736978E+04  0.00000000000E+00 0. -1.
          1   -1    0    0  501    0 -0.00000000000E+00 -0.00000000000E+00 -0.10007687257E+03  0.10007687257E+03  0.00000000000E+00 0. -1.
         25    2    1    2    0    0 -0.14966580871E+03 -0.47003547552E+02  0.62145339293E+03  0.65302233357E+03  0.12499864314E+03 0.  0.
          2    1    1    2  501    0  0.10581238937E+03  0.17028844030E+02 -0.49479459596E+02  0.11804431454E+03  0.00000000000E+00 0. -1.
          1    1    1    2  502    0  0.43853419340E+02  0.29974703522E+02  0.13291228919E+04  0.13301839223E+04  0.00000000000E+00 0. -1.
         22    1    3    3    0    0 -0.39805289573E+02  0.23867437534E+02  0.33432305871E+03  0.33752929241E+03  0.00000000000E+00 0.  1.
         22    1    3    3    0    0 -0.10986051914E+03 -0.70870985086E+02  0.28713033422E+03  0.31549304116E+03  0.00000000000E+00 0.  1.
</event>
<event>
 7    1  0.7527776E-006  0.4042523E+02  0.7818608E-02  0.1515472E+00
          2   -1    0    0  502    0  0.00000000000E+00  0.00000000000E+00  0.78899199163E+02  0.78899199163E+02  0.00000000000E+00 0. -1.
          1   -1    0    0  501    0 -0.00000000000E+00 -0.00000000000E+00 -0.67327735277E+03  0.67327735277E+03  0.00000000000E+00 0. -1.
         25    2    1    2    0    0  0.40167111867E+01 -0.25496734636E+02 -0.26559029198E+03  0.29466849068E+03  0.12500039505E+03 0.  0.
          2    1    1    2  501    0  0.33660512103E+02  0.26177877524E+02 -0.38635656337E+03  0.38870259249E+03  0.00000000000E+00 0. -1.
          1    1    1    2  502    0 -0.37677223289E+02 -0.68114288743E+00  0.57568701745E+02  0.68805468758E+02  0.00000000000E+00 0. -1.
         22    1    3    3    0    0  0.51682448252E+02 -0.48660658068E+02 -0.18563582381E+03  0.19874504820E+03  0.00000000000E+00 0.  1.
         22    1    3    3    0    0 -0.47665737065E+02  0.23163923432E+02 -0.79954468162E+02  0.95923442483E+02  0.00000000000E+00 0.  1.
</event>
<event>
 7    1  0.7527776E-006  0.8343640E+02  0.7818608E-02  0.1446807E+00
          2   -1    0    0  502    0  0.00000000000E+00  0.00000000000E+00  0.39769999201E+03  0.39769999201E+03  0.00000000000E+00 0. -1.
          1   -1    0    0  501    0 -0.00000000000E+00 -0.00000000000E+00 -0.50401535875E+03  0.50401535875E+03  0.00000000000E+00 0. -1.
         25    2    1    2    0    0 -0.36683621204E+02 -0.76874286871E+02 -0.71982739401E+02  0.16751287972E+03  0.12499482411E+03 0.  0.
          2    1    1    2  501    0 -0.23142282455E+02  0.18518192762E+02 -0.37869030367E+03  0.37984843661E+03  0.00000000000E+00 0. -1.
          1    1    1    2  502    0  0.59825903660E+02  0.58356094109E+02  0.34435767633E+03  0.35435403443E+03  0.00000000000E+00 0. -1.
         22    1    3    3    0    0  0.16809034794E+02 -0.14302024700E+01  0.27133346557E+02  0.31950080206E+02  0.00000000000E+00 0. -1.
         22    1    3    3    0    0 -0.53492655998E+02 -0.75444084401E+02 -0.99116085958E+02  0.13556279952E+03  0.00000000000E+00 0. -1.
</event>
<event>
 7    1  0.7527776E-006  0.6193375E+02  0.7818608E-02  0.1450318E+00
          2   -1    0    0  502    0  0.00000000000E+00  0.00000000000E+00  0.36601796611E+03  0.36601796611E+03  0.00000000000E+00 0. -1.
          1   -1    0    0  501    0 -0.00000000000E+00 -0.00000000000E+00 -0.13109763228E+03  0.13109763228E+03  0.00000000000E+00 0. -1.
         25    2    1    2    0    0  0.37484848172E+01 -0.29401339053E+02  0.37217442721E+02  0.13374512557E+03  0.12499652273E+03 0.  0.
          2    1    1    2  501    0 -0.20617749913E+02 -0.32996438609E+02 -0.74257967936E+02  0.83833778242E+02  0.00000000000E+00 0. -1.
          1    1    1    2  502    0  0.16869265096E+02  0.62397777662E+02  0.27196085905E+03  0.27953669458E+03  0.00000000000E+00 0. -1.
         22    1    3    3    0    0 -0.56928133205E+02 -0.50440718901E+01 -0.25679472930E+01  0.57208822438E+02  0.00000000000E+00 0. -1.
         22    1    3    3    0    0  0.60676618022E+02 -0.24357267163E+02  0.39785390014E+02  0.76536303130E+02  0.00000000000E+00 0. -1.
</event>
<event>
 7    1  0.7527776E-006  0.1115678E+03  0.7818608E-02  0.1433350E+00
          2   -1    0    0  502    0  0.00000000000E+00  0.00000000000E+00  0.12022736821E+04  0.12022736821E+04  0.00000000000E+00 0. -1.
          1   -1    0    0  501    0 -0.00000000000E+00 -0.00000000000E+00 -0.20449408528E+03  0.20449408528E+03  0.00000000000E+00 0. -1.
         25    2    1    2    0    0  0.10323309900E+03  0.65864306016E+01  0.95274058691E+02  0.18813840378E+03  0.12497383294E+03 0.  0.
          2    1    1    2  501    0 -0.10883248813E+03 -0.30449013653E+02 -0.13769868054E+03  0.17813640708E+03  0.00000000000E+00 0. -1.
          1    1    1    2  502    0  0.55993891343E+01  0.23862583052E+02  0.10402042187E+04  0.10404929565E+04  0.00000000000E+00 0. -1.
         22    1    3    3    0    0  0.19655806421E+01 -0.26809988980E+02 -0.18169808341E+02  0.32446586130E+02  0.00000000000E+00 0. -1.
         22    1    3    3    0    0  0.10126751836E+03  0.33396419582E+02  0.11344386703E+03  0.15569181765E+03  0.00000000000E+00 0. -1.
</event>
<event>
 7    1  0.7527776E-006  0.1924708E+03  0.7818608E-02  0.1371253E+00
          2   -1    0    0  502    0  0.00000000000E+00  0.00000000000E+00  0.16025880523E+04  0.16025880523E+04  0.00000000000E+00 0. -1.
          1   -1    0    0  501    0 -0.00000000000E+00 -0.00000000000E+00 -0.10398220879E+04  0.10398220879E+04  0.00000000000E+00 0. -1.
         25    2    1    2    0    0  0.13680717750E+03  0.12842790112E+03  0.47151168373E+03  0.52264565768E+03  0.12500114397E+03 0.  0.
          2    1    1    2  501    0 -0.15509922357E+03 -0.11416088346E+03 -0.10049894815E+04  0.10232752975E+04  0.00000000000E+00 0. -1.
          1    1    1    2  502    0  0.18292046075E+02 -0.14267017655E+02  0.10962437622E+04  0.10964891851E+04  0.00000000000E+00 0. -1.
         22    1    3    3    0    0  0.53692481121E+02 -0.51596864005E+01  0.21554416494E+03  0.22219089075E+03  0.00000000000E+00 0. -1.
         22    1    3    3    0    0  0.83114696376E+02  0.13358758752E+03  0.25596751879E+03  0.30045476692E+03  0.00000000000E+00 0. -1.
</event>
<event>
 7    1  0.7527776E-006  0.9734619E+02  0.7818608E-02  0.1366114E+00
          2   -1    0    0  502    0  0.00000000000E+00  0.00000000000E+00  0.21950246555E+04  0.21950246555E+04  0.00000000000E+00 0. -1.
          1   -1    0    0  501    0 -0.00000000000E+00 -0.00000000000E+00 -0.15194086558E+04  0.15194086558E+04  0.00000000000E+00 0. -1.
         25    2    1    2    0    0 -0.63683335083E+02  0.40949386016E+02 -0.74951191868E+03  0.76362695116E+03  0.12500233966E+03 0.  0.
          2    1    1    2  501    0  0.68102464763E+02 -0.88608648290E+02 -0.75848248049E+03  0.76667144949E+03  0.00000000000E+00 0. -1.
          1    1    1    2  502    0 -0.44191296803E+01  0.47659262275E+02  0.21836103988E+04  0.21841349106E+04  0.00000000000E+00 0. -1.
         22    1    3    3    0    0  0.90884702790E+01  0.67860487058E+02 -0.36468367253E+03  0.37105501884E+03  0.00000000000E+00 0. -1.
         22    1    3    3    0    0 -0.72771805362E+02 -0.26911101043E+02 -0.38482824615E+03  0.39257193232E+03  0.00000000000E+00 0. -1.
</event>
<event>
 7    1  0.7527776E-006  0.9874761E+02  0.7818608E-02  0.1296877E+00
          2   -1    0    0  502    0  0.00000000000E+00  0.00000000000E+00  0.90562271895E+03  0.90562271895E+03  0.00000000000E+00 0. -1.
          1   -1    0    0  501    0 -0.00000000000E+00 -0.00000000000E+00 -0.83032387677E+03  0.83032387677E+03  0.00000000000E+00 0. -1.
         25    2    1    2    0    0  0.22107240775E+02 -0.15405773726E+03 -0.29790826241E+03  0.35860317982E+03  0.12499756501E+03 0.  0.
          2    1    1    2  501    0  0.39406726727E+02  0.77196518560E+02 -0.49552659394E+03  0.50304949845E+03  0.00000000000E+00 0. -1.
          1    1    1    2  502    0 -0.61513967502E+02  0.76861218703E+02  0.86873369853E+03  0.87429391746E+03  0.00000000000E+00 0. -1.
         22    1    3    3    0    0  0.36311231261E+02 -0.17062871221E+03 -0.23987814495E+03  0.29660442912E+03  0.00000000000E+00 0. -1.
         22    1    3    3    0    0 -0.14203990486E+02  0.16570974948E+02 -0.58030117457E+02  0.61998750701E+02  0.00000000000E+00 0. -1.
</event>
<event>
 7    1  0.7527776E-006  0.6077652E+02  0.7818608E-02  0.1459743E+00
          2   -1    0    0  502    0  0.00000000000E+00  0.00000000000E+00  0.86092279101E+02  0.86092279101E+02  0.00000000000E+00 0. -1.
          1   -1    0    0  501    0 -0.00000000000E+00 -0.00000000000E+00 -0.87730992703E+03  0.87730992703E+03  0.00000000000E+00 0. -1.
         25    2    1    2    0    0 -0.87835938828E+01 -0.41334121953E+02 -0.24839266728E+03  0.28126456482E+03  0.12500070841E+03 0.  0.
          2    1    1    2  501    0 -0.37001029776E+02 -0.70103362869E+00 -0.59792924728E+03  0.59907341153E+03  0.00000000000E+00 0. -1.
          1    1    1    2  502    0  0.45784623658E+02  0.42035155582E+02  0.55104266630E+02  0.83064229781E+02  0.00000000000E+00 0. -1.
         22    1    3    3    0    0 -0.53872350084E+02 -0.38209499217E+02 -0.21542289841E+03  0.22532026339E+03  0.00000000000E+00 0. -1.
         22    1    3    3    0    0  0.45088756201E+02 -0.31246227360E+01 -0.32969768872E+02  0.55944301430E+02  0.00000000000E+00 0. -1.
</event>
<event>
 7    1  0.7527776E-006  0.2350099E+03  0.7818608E-02  0.1323975E+00
          2   -1    0    0  502    0  0.00000000000E+00  0.00000000000E+00  0.59963380445E+03  0.59963380445E+03  0.00000000000E+00 0. -1.
          1   -1    0    0  501    0 -0.00000000000E+00 -0.00000000000E+00 -0.65980595136E+03  0.65980595136E+03  0.00000000000E+00 0. -1.
         25    2    1    2    0    0  0.18010643729E+03 -0.16466157265E+03 -0.67763804557E+02  0.28243326660E+03  0.12499941844E+03 0.  0.
          2    1    1    2  501    0 -0.18816625263E+03  0.13734226738E+03 -0.45625448367E+03  0.51228662964E+03  0.00000000000E+00 0. -1.
          1    1    1    2  502    0  0.80598153363E+01  0.27319305273E+02  0.46384614132E+03  0.46471985957E+03  0.00000000000E+00 0. -1.
         22    1    3    3    0    0  0.19632256278E+03 -0.13154646015E+03 -0.66672255122E+02  0.24554471983E+03  0.00000000000E+00 0. -1.
         22    1    3    3    0    0 -0.16216125492E+02 -0.33115112508E+02 -0.10915494344E+01  0.36888546766E+02  0.00000000000E+00 0. -1.
</event>
<event>
 7    1  0.9339191E-006  0.8907836E+02  0.7818608E-02  0.1455133E+00
          2   -1    0    0  502    0  0.00000000000E+00  0.00000000000E+00  0.10360740177E+04  0.10360740177E+04  0.00000000000E+00 0. -1.
          1   -1    0    0  501    0 -0.00000000000E+00 -0.00000000000E+00 -0.25441389141E+04  0.25441389141E+04  0.00000000000E+00 0. -1.
         25    2    1    2    0    0 -0.28500828468E+02 -0.89221304629E+02 -0.14686262509E+04  0.14769094307E+04  0.12500265293E+03 0.  0.
          2    1    1    2  501    0  0.26112049609E+02  0.17612868311E+00 -0.10692890751E+04  0.10696078703E+04  0.00000000000E+00 0. -1.
          1    1    1    2  502    0  0.23887788594E+01  0.89045175946E+02  0.10298504296E+04  0.10336956307E+04  0.00000000000E+00 0. -1.
         22    1    3    3    0    0 -0.57459575146E+02 -0.24296087086E+02 -0.31636961027E+03  0.32246183174E+03  0.00000000000E+00 0. -1.
         22    1    3    3    0    0  0.28958746678E+02 -0.64925217542E+02 -0.11522566407E+04  0.11544475990E+04  0.00000000000E+00 0. -1.
</event>
<event>
 7    1  0.7527776E-006  0.6248367E+02  0.7818608E-02  0.1457343E+00
          2   -1    0    0  502    0  0.00000000000E+00  0.00000000000E+00  0.14052898073E+04  0.14052898073E+04  0.00000000000E+00 0. -1.
          1   -1    0    0  501    0 -0.00000000000E+00 -0.00000000000E+00 -0.63735410717E+03  0.63735410717E+03  0.00000000000E+00 0. -1.
         25    2    1    2    0    0  0.89228169723E+02 -0.21787953917E+02  0.11709067178E+01  0.15512115133E+03  0.12499927744E+03 0.  0.
          2    1    1    2  501    0 -0.61863953798E+02 -0.25639250217E+01 -0.55841479642E+03  0.56183699357E+03  0.00000000000E+00 0. -1.
          1    1    1    2  502    0 -0.27364215925E+02  0.24351878939E+02  0.13251795898E+04  0.13256857695E+04  0.00000000000E+00 0. -1.
         22    1    3    3    0    0 -0.31553570413E+02 -0.35682323857E+01 -0.76227850784E+01  0.32656805425E+02  0.00000000000E+00 0. -1.
         22    1    3    3    0    0  0.12078174014E+03 -0.18219721532E+02  0.87936917962E+01  0.12246434591E+03  0.00000000000E+00 0. -1.
</event>
<event>
 7    1  0.7527776E-006  0.1569489E+03  0.7818608E-02  0.1213539E+00
          2   -1    0    0  502    0  0.00000000000E+00  0.00000000000E+00  0.10465904045E+04  0.10465904045E+04  0.00000000000E+00 0. -1.
          1   -1    0    0  501    0 -0.00000000000E+00 -0.00000000000E+00 -0.42286276190E+03  0.42286276190E+03  0.00000000000E+00 0. -1.
         25    2    1    2    0    0 -0.14808198935E+03 -0.16155564726E+03  0.38796265745E+03  0.46278353245E+03  0.12500028640E+03 0.  0.
          2    1    1    2  501    0  0.12367104989E+03  0.15211492861E+02 -0.36613328809E+03  0.38675509401E+03  0.00000000000E+00 0. -1.
          1    1    1    2  502    0  0.24410939462E+02  0.14634415440E+03  0.60189827325E+03  0.61991453995E+03  0.00000000000E+00 0. -1.
         22    1    3    3    0    0 -0.99695593069E+01  0.10497685496E+02 -0.21179711184E+01  0.14631449525E+02  0.00000000000E+00 0.  1.
         22    1    3    3    0    0 -0.13811243005E+03 -0.17205333276E+03  0.39008062857E+03  0.44815208293E+03  0.00000000000E+00 0.  1.
</event>
<event>
 7    1  0.7527776E-006  0.5778991E+02  0.7818608E-02  0.1457418E+00
          2   -1    0    0  502    0  0.00000000000E+00  0.00000000000E+00  0.55433586208E+02  0.55433586208E+02  0.00000000000E+00 0. -1.
          1   -1    0    0  501    0 -0.00000000000E+00 -0.00000000000E+00 -0.12485468117E+04  0.12485468117E+04  0.00000000000E+00 0. -1.
         25    2    1    2    0    0  0.45264401988E+02 -0.60005993281E+02 -0.67129534881E+02  0.16056409348E+03  0.12499947338E+03 0.  0.
          2    1    1    2  501    0 -0.38044624601E+02  0.10933030299E+02 -0.10606441158E+04  0.10613825253E+04  0.00000000000E+00 0. -1.
          1    1    1    2  502    0 -0.72197773875E+01  0.49072962982E+02 -0.65339574791E+02  0.82033779111E+02  0.00000000000E+00 0. -1.
         22    1    3    3    0    0  0.53952254703E+02 -0.68225392313E+02  0.53117241607E+01  0.87142207669E+02  0.00000000000E+00 0. -1.
         22    1    3    3    0    0 -0.86878527147E+01  0.82193990321E+01 -0.72441259042E+02  0.73421885816E+02  0.00000000000E+00 0. -1.
</event>
<event>
 7    1  0.7527776E-006  0.1582887E+03  0.7818608E-02  0.1273818E+00
          2   -1    0    0  502    0  0.00000000000E+00  0.00000000000E+00  0.75273696779E+03  0.75273696779E+03  0.00000000000E+00 0. -1.
          1   -1    0    0  501    0 -0.00000000000E+00 -0.00000000000E+00 -0.76804942903E+03  0.76804942903E+03  0.00000000000E+00 0. -1.
         25    2    1    2    0    0 -0.33034035793E+02  0.22107884712E+03  0.47527936691E+03  0.53989108808E+03  0.12499922486E+03 0.  0.
          2    1    1    2  501    0  0.32218179531E+02 -0.15387157713E+03 -0.72251963091E+03  0.73942483755E+03  0.00000000000E+00 0. -1.
          1    1    1    2  502    0  0.81585626185E+00 -0.67207269989E+02  0.23192780275E+03  0.24147047118E+03  0.00000000000E+00 0. -1.
         22    1    3    3    0    0 -0.39772618294E+02  0.80060284345E+02  0.30945358190E+03  0.32210717105E+03  0.00000000000E+00 0.  1.
         22    1    3    3    0    0  0.67385825013E+01  0.14101856277E+03  0.16582578502E+03  0.21778391703E+03  0.00000000000E+00 0.  1.
</event>
<event>
 7    1  0.7527776E-006  0.4267207E+02  0.7818608E-02  0.1531734E+00
          2   -1    0    0  502    0  0.00000000000E+00  0.00000000000E+00  0.20631976626E+03  0.20631976626E+03  0.00000000000E+00 0. -1.
          1   -1    0    0  501    0 -0.00000000000E+00 -0.00000000000E+00 -0.71903455655E+03  0.71903455655E+03  0.00000000000E+00 0. -1.
         25    2    1    2    0    0 -0.44114195609E+01 -0.14020926438E+02 -0.20095116595E+03  0.23711208953E+03  0.12499889962E+03 0.  0.
          2    1    1    2  501    0  0.17135270528E+02 -0.27070239405E+02 -0.49702294672E+03  0.49805443972E+03  0.00000000000E+00 0. -1.
          1    1    1    2  502    0 -0.12723850967E+02  0.41091165843E+02  0.18525932237E+03  0.19018779356E+03  0.00000000000E+00 0. -1.
         22    1    3    3    0    0 -0.13882012484E+02  0.19287366021E+02  0.81809241564E+01  0.25132454689E+02  0.00000000000E+00 0.  1.
         22    1    3    3    0    0  0.94705929231E+01 -0.33308292460E+02 -0.20913209010E+03  0.21197963484E+03  0.00000000000E+00 0.  1.
</event>
<event>
 7    1  0.7527776E-006  0.8622503E+02  0.7818608E-02  0.1442292E+00
          2   -1    0    0  502    0  0.00000000000E+00  0.00000000000E+00  0.55807408829E+03  0.55807408829E+03  0.00000000000E+00 0. -1.
          1   -1    0    0  501    0 -0.00000000000E+00 -0.00000000000E+00 -0.39625893013E+03  0.39625893013E+03  0.00000000000E+00 0. -1.
         25    2    1    2    0    0 -0.22108534180E+02  0.68655866163E+02 -0.84597860325E+02  0.16728461303E+03  0.12499971418E+03 0.  0.
          2    1    1    2  501    0  0.23514751005E+02  0.18074497311E+02 -0.26584697757E+03  0.26749625502E+03  0.00000000000E+00 0. -1.
          1    1    1    2  502    0 -0.14062168251E+01 -0.86730363474E+02  0.51225999605E+03  0.51955215037E+03  0.00000000000E+00 0. -1.
         22    1    3    3    0    0  0.77504931178E+01 -0.19480662531E+02  0.18812299366E+02  0.28168581144E+02  0.00000000000E+00 0.  1.
         22    1    3    3    0    0 -0.29859027298E+02  0.88136528694E+02 -0.10341015969E+03  0.13911603189E+03  0.00000000000E+00 0.  1.
</event>
<event>
 7    1  0.7527776E-006  0.1508252E+03  0.7818608E-02  0.1386187E+00
          2   -1    0    0  502    0  0.00000000000E+00  0.00000000000E+00  0.31833305446E+04  0.31833305446E+04  0.00000000000E+00 0. -1.
          1   -1    0    0  501    0 -0.00000000000E+00 -0.00000000000E+00 -0.11927748254E+04  0.11927748254E+04  0.00000000000E+00 0. -1.
         25    2    1    2    0    0  0.11918322586E+02 -0.12490093431E+03 -0.45714662027E+03  0.49025630336E+03  0.12500368299E+03 0.  0.
          2    1    1    2  501    0  0.91926206689E+01 -0.24537236010E+02 -0.71703576915E+03  0.71751437231E+03  0.00000000000E+00 0. -1.
          1    1    1    2  502    0 -0.21110943255E+02  0.14943817032E+03  0.31647381086E+04  0.31683346943E+04  0.00000000000E+00 0. -1.
         22    1    3    3    0    0  0.49841852992E+02 -0.31130556771E+02 -0.76879739060E+02  0.96766813281E+02  0.00000000000E+00 0. -1.
         22    1    3    3    0    0 -0.37923530406E+02 -0.93770377541E+02 -0.38026688121E+03  0.39348949008E+03  0.00000000000E+00 0. -1.
</event>
<event>
 7    1  0.7527776E-006  0.7164105E+02  0.7818608E-02  0.1370496E+00
          2   -1    0    0  502    0  0.00000000000E+00  0.00000000000E+00  0.17895978258E+04  0.17895978258E+04  0.00000000000E+00 0. -1.
          1   -1    0    0  501    0 -0.00000000000E+00 -0.00000000000E+00 -0.58901064647E+02  0.58901064647E+02  0.00000000000E+00 0. -1.
         25    2    1    2    0    0 -0.37965143093E+02 -0.71465327550E+02  0.47537456284E+03  0.49815105614E+03  0.12499941843E+03 0.  0.
          2    1    1    2  501    0 -0.32800823410E+02  0.53453369023E+02 -0.25314310352E+02  0.67631139166E+02  0.00000000000E+00 0. -1.
          1    1    1    2  502    0  0.70765966503E+02  0.18011958527E+02  0.12806365086E+04  0.12827166951E+04  0.00000000000E+00 0. -1.
         22    1    3    3    0    0 -0.80117754311E+02 -0.59441991134E+02  0.38488611320E+03  0.39760473463E+03  0.00000000000E+00 0.  1.
         22    1    3    3    0    0  0.42152611218E+02 -0.12023336416E+02  0.90488449637E+02  0.10054632151E+03  0.00000000000E+00 0.  1.
</event>
<event>
 7    1  0.7527776E-006  0.5383885E+02  0.7818608E-02  0.1432750E+00
          2   -1    0    0  502    0  0.00000000000E+00  0.00000000000E+00  0.23148692257E+04  0.23148692257E+04  0.00000000000E+00 0. -1.
          1   -1    0    0  501    0 -0.00000000000E+00 -0.00000000000E+00 -0.23756532299E+02  0.23756532299E+02  0.00000000000E+00 0. -1.
         25    2    1    2    0    0 -0.15958993588E+02  0.55924912590E+01  0.30044493839E+03  0.32585112528E+03  0.12500331758E+03 0.  0.
          2    1    1    2  501    0  0.66245283994E+02  0.30459752929E+01  0.91936722721E+02  0.11335817836E+03  0.00000000000E+00 0. -1.
          1    1    1    2  502    0 -0.50286290407E+02 -0.86384665519E+01  0.18987310323E+04  0.18994164544E+04  0.00000000000E+00 0. -1.
         22    1    3    3    0    0 -0.69215633661E+02 -0.10438787755E+02  0.18204952921E+03  0.19504308067E+03  0.00000000000E+00 0.  1.
         22    1    3    3    0    0  0.53256640073E+02  0.16031279014E+02  0.11839540919E+03  0.13080804461E+03  0.00000000000E+00 0.  1.
</event>
<event>
 7    1  0.7527776E-006  0.3123605E+03  0.7818608E-02  0.1212010E+00
          2   -1    0    0  502    0  0.00000000000E+00  0.00000000000E+00  0.19580381168E+04  0.19580381168E+04  0.00000000000E+00 0. -1.
          1   -1    0    0  501    0 -0.00000000000E+00 -0.00000000000E+00 -0.37033978723E+03  0.37033978723E+03  0.00000000000E+00 0. -1.
         25    2    1    2    0    0  0.10724481150E+03  0.26746610217E+03  0.57109699881E+02  0.31926170042E+03  0.12500780029E+03 0.  0.
          2    1    1    2  501    0 -0.47533114474E+02  0.42306480389E+02 -0.22067391470E+03  0.22966543467E+03  0.00000000000E+00 0. -1.
          1    1    1    2  502    0 -0.59711697024E+02 -0.30977258255E+03  0.17512625444E+04  0.17794507689E+04  0.00000000000E+00 0. -1.
         22    1    3    3    0    0  0.11517188220E+03  0.26853907115E+03  0.73260061972E+02  0.30123882861E+03  0.00000000000E+00 0. -1.
         22    1    3    3    0    0 -0.79270707029E+01 -0.10729689869E+01 -0.16150362091E+02  0.18022871804E+02  0.00000000000E+00 0. -1.
</event>
<event>
 7    1  0.7527776E-006  0.5680922E+02  0.7818608E-02  0.1559219E+00
          2   -1    0    0  502    0  0.00000000000E+00  0.00000000000E+00  0.10938070375E+04  0.10938070375E+04  0.00000000000E+00 0. -1.
          1   -1    0    0  501    0 -0.00000000000E+00 -0.00000000000E+00 -0.56672342485E+02  0.56672342485E+02  0.00000000000E+00 0. -1.
         25    2    1    2    0    0  0.51462817907E+02 -0.32484564345E+02  0.24712776875E+03  0.28356910625E+03  0.12504253430E+03 0.  0.
          2    1    1    2  501    0  0.38624583192E+01  0.19775219009E+02 -0.34767824865E+02  0.40184319293E+02  0.00000000000E+00 0. -1.
          1    1    1    2  502    0 -0.55325276227E+02  0.12709345335E+02  0.82477475115E+03  0.82672595446E+03  0.00000000000E+00 0. -1.
         22    1    3    3    0    0  0.71273440506E+02 -0.51810844904E+02  0.23899751716E+03  0.25472353676E+03  0.00000000000E+00 0. -1.
         22    1    3    3    0    0 -0.19810622599E+02  0.19326280559E+02  0.81302515850E+01  0.28845569484E+02  0.00000000000E+00 0. -1.
</event>
<event>
 7    1  0.7527776E-006  0.6165188E+02  0.7818608E-02  0.1402846E+00
          2   -1    0    0  502    0  0.00000000000E+00  0.00000000000E+00  0.87730952403E+03  0.87730952403E+03  0.00000000000E+00 0. -1.
          1   -1    0    0  501    0 -0.00000000000E+00 -0.00000000000E+00 -0.28306384998E+03  0.28306384998E+03  0.00000000000E+00 0. -1.
         25    2    1    2    0    0  0.11219676612E+03  0.26821778411E+02  0.70884146483E+02  0.18426559239E+03  0.12498689609E+03 0.  0.
          2    1    1    2  501    0 -0.55937205733E+02 -0.45326643376E+01 -0.22164913701E+03  0.22864351285E+03  0.00000000000E+00 0. -1.
          1    1    1    2  502    0 -0.56259560385E+02 -0.22289114074E+02  0.74501066457E+03  0.74746426876E+03  0.00000000000E+00 0. -1.
         22    1    3    3    0    0 -0.20925546968E+02 -0.95946736640E+01 -0.90959164173E+01  0.24752211499E+02  0.00000000000E+00 0. -1.
         22    1    3    3    0    0  0.13312231309E+03  0.36416452075E+02  0.79980062900E+02  0.15951338090E+03  0.00000000000E+00 0. -1.
</event>
<event>
 7    1  0.7527776E-006  0.1297540E+03  0.7818608E-02  0.1325896E+00
          2   -1    0    0  502    0  0.00000000000E+00  0.00000000000E+00  0.93600065948E+02  0.93600065948E+02  0.00000000000E+00 0. -1.
          1   -1    0    0  501    0 -0.00000000000E+00 -0.00000000000E+00 -0.12426297503E+04  0.12426297503E+04  0.00000000000E+00 0. -1.
         25    2    1    2    0    0  0.53336419626E+02  0.11808830899E+03 -0.20073659109E+03  0.26964710825E+03  0.12499904643E+03 0.  0.
          2    1    1    2  501    0 -0.42380640655E+01 -0.13080278926E+03 -0.99141218477E+03  0.10000127254E+04  0.00000000000E+00 0. -1.
          1    1    1    2  502    0 -0.49098355561E+02  0.12714480271E+02  0.43119091516E+02  0.66569982578E+02  0.00000000000E+00 0. -1.
         22    1    3    3    0    0  0.38030965546E+02  0.12417303614E+03 -0.90746152626E+02  0.15843030475E+03  0.00000000000E+00 0. -1.
         22    1    3    3    0    0  0.15305454081E+02 -0.60847271542E+01 -0.10999043846E+03  0.11121680351E+03  0.00000000000E+00 0. -1.
</event>
<event>
 7    1  0.7527776E-006  0.5600840E+02  0.7818608E-02  0.1520691E+00
          2   -1    0    0  502    0  0.00000000000E+00  0.00000000000E+00  0.83613902026E+03  0.83613902026E+03  0.00000000000E+00 0. -1.
          1   -1    0    0  501    0 -0.00000000000E+00 -0.00000000000E+00 -0.24636143707E+03  0.24636143707E+03  0.00000000000E+00 0. -1.
         25    2    1    2    0    0 -0.78081463383E+02 -0.15519430223E+02  0.84277154240E+02  0.17048398876E+03  0.12499833623E+03 0.  0.
          2    1    1    2  501    0  0.55279675672E+02  0.24868407590E+01 -0.19924269639E+03  0.20678413620E+03  0.00000000000E+00 0. -1.
          1    1    1    2  502    0  0.22801787711E+02  0.13032589464E+02  0.70474312533E+03  0.70523233237E+03  0.00000000000E+00 0. -1.
         22    1    3    3    0    0 -0.71052908070E+02  0.45569416320E+02  0.33793029475E+02  0.90923353931E+02  0.00000000000E+00 0.  1.
         22    1    3    3    0    0 -0.70285553125E+01 -0.61088846543E+02  0.50484124765E+02  0.79560634833E+02  0.00000000000E+00 0.  1.
</event>
<event>
 7    1  0.7527776E-006  0.1846157E+03  0.7818608E-02  0.1213053E+00
          2   -1    0    0  502    0  0.00000000000E+00  0.00000000000E+00  0.23913903440E+03  0.23913903440E+03  0.00000000000E+00 0. -1.
          1   -1    0    0  501    0 -0.00000000000E+00 -0.00000000000E+00 -0.21654789036E+04  0.21654789036E+04  0.00000000000E+00 0. -1.
         25    2    1    2    0    0  0.27209604259E+03 -0.32337036359E+02 -0.78850864649E+03  0.84406933233E+03  0.12500084752E+03 0.  0.
          2    1    1    2  501    0 -0.16592210714E+03  0.24287901656E+02 -0.13301726823E+04  0.13407010899E+04  0.00000000000E+00 0. -1.
          1    1    1    2  502    0 -0.10617393545E+03  0.80491347035E+01  0.19234145954E+03  0.21984751578E+03  0.00000000000E+00 0. -1.
         22    1    3    3    0    0  0.26430746651E+03 -0.48009704942E+02 -0.63387117811E+03  0.68844465214E+03  0.00000000000E+00 0.  1.
         22    1    3    3    0    0  0.77885760797E+01  0.15672668583E+02 -0.15463746838E+03  0.15562468019E+03  0.00000000000E+00 0.  1.
</event>
<event>
 7    1  0.7527776E-006  0.2609124E+03  0.7818608E-02  0.1122433E+00
          2   -1    0    0  502    0  0.00000000000E+00  0.00000000000E+00  0.52972966558E+03  0.52972966558E+03  0.00000000000E+00 0. -1.
          1   -1    0    0  501    0 -0.00000000000E+00 -0.00000000000E+00 -0.11004453000E+04  0.11004453000E+04  0.00000000000E+00 0. -1.
         25    2    1    2    0    0  0.22095055305E+03  0.91056661999E+02  0.20603011273E+03  0.33938754400E+03  0.12500014033E+03 0.  0.
          2    1    1    2  501    0 -0.19813002012E+03  0.16976388239E+03 -0.94447512847E+03  0.97985128920E+03  0.00000000000E+00 0. -1.
          1    1    1    2  502    0 -0.22820532933E+02 -0.26082054439E+03  0.16772938129E+03  0.31093613243E+03  0.00000000000E+00 0. -1.
         22    1    3    3    0    0  0.12007116422E+03  0.17275801732E+02  0.17087519778E+03  0.20955636717E+03  0.00000000000E+00 0. -1.
         22    1    3    3    0    0  0.10087938883E+03  0.73780860267E+02  0.35154914946E+02  0.12983117683E+03  0.00000000000E+00 0. -1.
</event>
<event>
 7    1  0.7527776E-006  0.7170117E+02  0.7818608E-02  0.1361333E+00
          2   -1    0    0  502    0  0.00000000000E+00  0.00000000000E+00  0.21439892365E+04  0.21439892365E+04  0.00000000000E+00 0. -1.
          1   -1    0    0  501    0 -0.00000000000E+00 -0.00000000000E+00 -0.90710234371E+02  0.90710234371E+02  0.00000000000E+00 0. -1.
         25    2    1    2    0    0 -0.86196108154E+01 -0.32056889554E+02  0.21649104139E+03  0.25218071685E+03  0.12499920436E+03 0.  0.
          2    1    1    2  501    0  0.72162564959E+02 -0.11598433306E+01 -0.54146485027E+02  0.90225400297E+02  0.00000000000E+00 0. -1.
          1    1    1    2  502    0 -0.63542954144E+02  0.33216732884E+02  0.18909344457E+04  0.18922933537E+04  0.00000000000E+00 0. -1.
         22    1    3    3    0    0 -0.13042628108E+01 -0.21479920917E+02  0.23145307861E+03  0.23245131899E+03  0.00000000000E+00 0. -1.
         22    1    3    3    0    0 -0.73153480046E+01 -0.10576968637E+02 -0.14962037220E+02  0.19729397856E+02  0.00000000000E+00 0. -1.
</event>
<event>
 7    1  0.7527776E-006  0.4479452E+03  0.7818608E-02  0.1146354E+00
          2   -1    0    0  502    0  0.00000000000E+00  0.00000000000E+00  0.85301694024E+03  0.85301694024E+03  0.00000000000E+00 0. -1.
          1   -1    0    0  501    0 -0.00000000000E+00 -0.00000000000E+00 -0.92775709284E+03  0.92775709284E+03  0.00000000000E+00 0. -1.
         25    2    1    2    0    0 -0.28389250812E+03  0.41587333699E+03  0.64182951677E+02  0.52277202309E+03  0.12500219297E+03 0.  0.
          2    1    1    2  501    0  0.19460686473E+03 -0.38998196640E+03 -0.62564090183E+03  0.76248560902E+03  0.00000000000E+00 0. -1.
          1    1    1    2  502    0  0.89285643388E+02 -0.25891370598E+02  0.48671779755E+03  0.49551640098E+03  0.00000000000E+00 0. -1.
         22    1    3    3    0    0 -0.18242399781E+03  0.22588013603E+03 -0.21102034474E+02  0.29111105560E+03  0.00000000000E+00 0.  1.
         22    1    3    3    0    0 -0.10146851031E+03  0.18999320096E+03  0.85284986151E+02  0.23166096749E+03  0.00000000000E+00 0.  1.
</event>
<event>
 7    1  0.7527776E-006  0.9967549E+02  0.7818608E-02  0.1376579E+00
          2   -1    0    0  502    0  0.00000000000E+00  0.00000000000E+00  0.31182301630E+03  0.31182301630E+03  0.00000000000E+00 0. -1.
          1   -1    0    0  501    0 -0.00000000000E+00 -0.00000000000E+00 -0.12352771344E+04  0.12352771344E+04  0.00000000000E+00 0. -1.
         25    2    1    2    0    0  0.84790764911E+02  0.12859975507E+02 -0.50908301529E+03  0.53117372741E+03  0.12500063782E+03 0.  0.
          2    1    1    2  501    0 -0.10337483605E+03  0.25776398556E+02 -0.70962388486E+03  0.71757706026E+03  0.00000000000E+00 0. -1.
          1    1    1    2  502    0  0.18584071142E+02 -0.38636374063E+02  0.29525278206E+03  0.29834936302E+03  0.00000000000E+00 0. -1.
         22    1    3    3    0    0  0.15135018352E+02  0.62032820282E+02 -0.26649768290E+03  0.27404042505E+03  0.00000000000E+00 0.  1.
         22    1    3    3    0    0  0.69655746559E+02 -0.49172844775E+02 -0.24258533239E+03  0.25713330236E+03  0.00000000000E+00 0.  1.
</event>
<event>
 7    1  0.7527776E-006  0.3967295E+02  0.7818608E-02  0.1581274E+00
          2   -1    0    0  502    0  0.00000000000E+00  0.00000000000E+00  0.33501891238E+03  0.33501891238E+03  0.00000000000E+00 0. -1.
          1   -1    0    0  501    0 -0.00000000000E+00 -0.00000000000E+00 -0.21098456073E+03  0.21098456073E+03  0.00000000000E+00 0. -1.
         25    2    1    2    0    0  0.35126418906E+01  0.37610965306E+02  0.60637534595E+02  0.14397543119E+03  0.12500036329E+03 0.  0.
          2    1    1    2  501    0 -0.24860017877E+02 -0.37059970506E+01 -0.16664164794E+03  0.16852653718E+03  0.00000000000E+00 0. -1.
          1    1    1    2  502    0  0.21347375986E+02 -0.33904968255E+02  0.23003846500E+03  0.23350150474E+03  0.00000000000E+00 0. -1.
         22    1    3    3    0    0 -0.35806478643E+02 -0.18331525527E+02 -0.14148429934E+02  0.42641843423E+02  0.00000000000E+00 0. -1.
         22    1    3    3    0    0  0.39319120534E+02  0.55942490832E+02  0.74785964529E+02  0.10133358777E+03  0.00000000000E+00 0. -1.
</event>
<event>
 7    1  0.7527776E-006  0.9633537E+02  0.7818608E-02  0.1374386E+00
          2   -1    0    0  502    0  0.00000000000E+00  0.00000000000E+00  0.22581707420E+03  0.22581707420E+03  0.00000000000E+00 0. -1.
          1   -1    0    0  501    0 -0.00000000000E+00 -0.00000000000E+00 -0.28153637962E+03  0.28153637962E+03  0.00000000000E+00 0. -1.
         25    2    1    2    0    0  0.75843449540E+01  0.10880668709E+03  0.25868907475E+02  0.16790474606E+03  0.12500554361E+03 0.  0.
          2    1    1    2  501    0 -0.45555521675E+02 -0.84349048752E+02 -0.19504586653E+03  0.21733144648E+03  0.00000000000E+00 0. -1.
          1    1    1    2  502    0  0.37971176721E+02 -0.24457638338E+02  0.11345765363E+03  0.12211726128E+03  0.00000000000E+00 0. -1.
         22    1    3    3    0    0  0.58621446200E+02  0.80400571238E+02  0.40918479249E+02  0.10758739589E+03  0.00000000000E+00 0.  1.
         22    1    3    3    0    0 -0.51037101246E+02  0.28406115852E+02 -0.15049571774E+02  0.60317350174E+02  0.00000000000E+00 0.  1.
</event>
<event>
 7    1  0.7527776E-006  0.1067108E+03  0.7818608E-02  0.1299824E+00
          2   -1    0    0  502    0  0.00000000000E+00  0.00000000000E+00  0.82892838869E+03  0.82892838869E+03  0.00000000000E+00 0. -1.
          1   -1    0    0  501    0 -0.00000000000E+00 -0.00000000000E+00 -0.47060360234E+02  0.47060360234E+02  0.00000000000E+00 0. -1.
         25    2    1    2    0    0  0.60644549646E+02 -0.73193035174E+01  0.28982922793E+03  0.32149427411E+03  0.12500501317E+03 0.  0.
          2    1    1    2  501    0  0.70840733030E+02 -0.32762829213E+02  0.52756044880E+02  0.94207285842E+02  0.00000000000E+00 0. -1.
          1    1    1    2  502    0 -0.13148528268E+03  0.40082132730E+02  0.43928275565E+03  0.46028718897E+03  0.00000000000E+00 0. -1.
         22    1    3    3    0    0 -0.10948688379E+02 -0.33199398960E+02  0.18226391488E+02  0.39424297269E+02  0.00000000000E+00 0.  1.
         22    1    3    3    0    0  0.71593238025E+02  0.25880095442E+02  0.27160283644E+03  0.28206997684E+03  0.00000000000E+00 0.  1.
</event>
<event>
 7    1  0.7527776E-006  0.8456476E+02  0.7818608E-02  0.1476665E+00
          2   -1    0    0  502    0  0.00000000000E+00  0.00000000000E+00  0.29632486055E+04  0.29632486055E+04  0.00000000000E+00 0. -1.
          1   -1    0    0  501    0 -0.00000000000E+00 -0.00000000000E+00 -0.77561996090E+03  0.77561996090E+03  0.00000000000E+00 0. -1.
         25    2    1    2    0    0 -0.86043802003E+02 -0.51003857376E+02 -0.13040244533E+03  0.20648173590E+03  0.12499992073E+03 0.  0.
          2    1    1    2  501    0  0.22963104601E+02 -0.52427767848E+01 -0.60633870543E+03  0.60679602551E+03  0.00000000000E+00 0. -1.
          1    1    1    2  502    0  0.63080697403E+02  0.56246634160E+02  0.29243697954E+04  0.29255908050E+04  0.00000000000E+00 0. -1.
         22    1    3    3    0    0 -0.10678579649E+03 -0.73286732460E+02 -0.10885451595E+03  0.16918468350E+03  0.00000000000E+00 0.  1.
         22    1    3    3    0    0  0.20741994490E+02  0.22282875085E+02 -0.21547929379E+02  0.37297052404E+02  0.00000000000E+00 0.  1.
</event>
<event>
 7    1  0.7527776E-006  0.4560999E+02  0.7818608E-02  0.1564453E+00
          2   -1    0    0  502    0  0.00000000000E+00  0.00000000000E+00  0.11030624930E+03  0.11030624930E+03  0.00000000000E+00 0. -1.
          1   -1    0    0  501    0 -0.00000000000E+00 -0.00000000000E+00 -0.93246395898E+03  0.93246395898E+03  0.00000000000E+00 0. -1.
         25    2    1    2    0    0  0.22203311148E+02  0.53540122250E+02 -0.72541616491E+03  0.73838542763E+03  0.12499958282E+03 0.  0.
          2    1    1    2  501    0 -0.29441690415E+02 -0.30364837367E+02 -0.19686628810E+03  0.20135831712E+03  0.00000000000E+00 0. -1.
          1    1    1    2  502    0  0.72383792671E+01 -0.23175284883E+02  0.10012474333E+03  0.10302646354E+03  0.00000000000E+00 0. -1.
         22    1    3    3    0    0  0.55938636227E+02  0.74207209661E+02 -0.40436821951E+03  0.41490902369E+03  0.00000000000E+00 0.  1.
         22    1    3    3    0    0 -0.33735325078E+02 -0.20667087411E+02 -0.32104794539E+03  0.32347640393E+03  0.00000000000E+00 0.  1.
</event>
<event>
 7    1  0.7527776E-006  0.2519601E+03  0.7818608E-02  0.1194198E+00
          2   -1    0    0  502    0  0.00000000000E+00  0.00000000000E+00  0.64845425201E+03  0.64845425201E+03  0.00000000000E+00 0. -1.
          1   -1    0    0  501    0 -0.00000000000E+00 -0.00000000000E+00 -0.13487400037E+04  0.13487400037E+04  0.00000000000E+00 0. -1.
         25    2    1    2    0    0 -0.46736481619E+02 -0.23224003984E+03 -0.78258001749E+01  0.26796550426E+03  0.12499813402E+03 0.  0.
          2    1    1    2  501    0  0.92978523880E+02 -0.22351414443E+02 -0.11764927727E+04  0.11803727529E+04  0.00000000000E+00 0. -1.
          1    1    1    2  502    0 -0.46242042261E+02  0.25459145428E+03  0.48403282121E+03  0.54885599849E+03  0.00000000000E+00 0. -1.
         22    1    3    3    0    0 -0.20791767860E+02 -0.16787344758E+03  0.51333188897E+02  0.17677355089E+03  0.00000000000E+00 0. -1.
         22    1    3    3    0    0 -0.25944713759E+02 -0.64366592259E+02 -0.59158989072E+02  0.91191953368E+02  0.00000000000E+00 0. -1.
</event>
<event>
 7    1  0.7527776E-006  0.2351282E+02  0.7818608E-02  0.1705945E+00
          2   -1    0    0  502    0  0.00000000000E+00  0.00000000000E+00  0.10705278372E+03  0.10705278372E+03  0.00000000000E+00 0. -1.
          1   -1    0    0  501    0 -0.00000000000E+00 -0.00000000000E+00 -0.37286520440E+03  0.37286520440E+03  0.00000000000E+00 0. -1.
         25    2    1    2    0    0 -0.46743125735E+01 -0.18926942692E+02  0.39292634972E+02  0.13246773327E+03  0.12499484325E+03 0.  0.
          2    1    1    2  501    0  0.20826643578E+02 -0.62519985430E+00 -0.31821820668E+03  0.31889961903E+03  0.00000000000E+00 0. -1.
          1    1    1    2  502    0 -0.16152331004E+02  0.19552142547E+02  0.13113151033E+02  0.28550635808E+02  0.00000000000E+00 0. -1.
         22    1    3    3    0    0 -0.23114161934E+02  0.32149510336E+02  0.62034815521E+02  0.73594659001E+02  0.00000000000E+00 0.  1.
         22    1    3    3    0    0  0.18439849360E+02 -0.51076453029E+02 -0.22742180549E+02  0.58873074274E+02  0.00000000000E+00 0.  1.
</event>
<event>
 7    1  0.7527776E-006  0.7337545E+02  0.7818608E-02  0.1416241E+00
          2   -1    0    0  502    0  0.00000000000E+00  0.00000000000E+00  0.24725343549E+03  0.24725343549E+03  0.00000000000E+00 0. -1.
          1   -1    0    0  501    0 -0.00000000000E+00 -0.00000000000E+00 -0.69966658315E+03  0.69966658315E+03  0.00000000000E+00 0. -1.
         25    2    1    2    0    0  0.18235061284E+02  0.39285375716E+02 -0.19845602225E+03  0.23850636700E+03  0.12499854449E+03 0.  0.
          2    1    1    2  501    0 -0.58539995616E+02 -0.52676099944E+02 -0.47593651963E+03  0.48240778736E+03  0.00000000000E+00 0. -1.
          1    1    1    2  502    0  0.40304934332E+02  0.13390724227E+02  0.22197939423E+03  0.22600586428E+03  0.00000000000E+00 0. -1.
         22    1    3    3    0    0  0.52482823619E+02 -0.39745196098E+00 -0.26612047990E+02  0.58845610212E+02  0.00000000000E+00 0. -1.
         22    1    3    3    0    0 -0.34247762334E+02  0.39682827677E+02 -0.17184397427E+03  0.17966075679E+03  0.00000000000E+00 0. -1.
</event>
<event>
 7    1  0.7527776E-006  0.8360824E+02  0.7818608E-02  0.1390733E+00
          2   -1    0    0  502    0  0.00000000000E+00  0.00000000000E+00  0.61049970490E+03  0.61049970490E+03  0.00000000000E+00 0. -1.
          1   -1    0    0  501    0 -0.00000000000E+00 -0.00000000000E+00 -0.27932037872E+04  0.27932037872E+04  0.00000000000E+00 0. -1.
         25    2    1    2    0    0  0.83742066389E+02  0.97988869975E+02  0.73699152909E+02  0.19409076818E+03  0.12500043533E+03 0.  0.
          2    1    1    2  501    0 -0.55649382520E+02 -0.62109285072E+02 -0.27312808810E+04  0.27325536899E+04  0.00000000000E+00 0. -1.
          1    1    1    2  502    0 -0.28092683869E+02 -0.35879584903E+02  0.47487764580E+03  0.47705903406E+03  0.00000000000E+00 0. -1.
         22    1    3    3    0    0 -0.80333207382E+00  0.57804141172E+02 -0.20454423442E+02  0.61321672493E+02  0.00000000000E+00 0.  1.
         22    1    3    3    0    0  0.84545398463E+02  0.40184728803E+02  0.94153576351E+02  0.13276909569E+03  0.00000000000E+00 0.  1.
</event>
<event>
 7    1  0.7527776E-006  0.1841355E+03  0.7818608E-02  0.1202519E+00
          2   -1    0    0  502    0  0.00000000000E+00  0.00000000000E+00  0.79938516228E+03  0.79938516228E+03  0.00000000000E+00 0. -1.
          1   -1    0    0  501    0 -0.00000000000E+00 -0.00000000000E+00 -0.11017942998E+04  0.11017942998E+04  0.00000000000E+00 0. -1.
         25    2    1    2    0    0  0.68241825223E+02 -0.95146141060E+01  0.25508113895E+03  0.29230093427E+03  0.12500389648E+03 0.  0.
          2    1    1    2  501    0 -0.18119808614E+03  0.48561466465E+02 -0.10681101153E+04  0.10844584735E+04  0.00000000000E+00 0. -1.
          1    1    1    2  502    0  0.11295626092E+03 -0.39046852359E+02  0.51061983881E+03  0.52442005429E+03  0.00000000000E+00 0. -1.
         22    1    3    3    0    0  0.48941628994E+01  0.41698800178E+02  0.26525083960E+02  0.49662086604E+02  0.00000000000E+00 0. -1.
         22    1    3    3    0    0  0.63347662324E+02 -0.51213414284E+02  0.22855605499E+03  0.24263884767E+03  0.00000000000E+00 0. -1.
</event>
<event>
 7    1  0.7527776E-006  0.5022315E+02  0.7818608E-02  0.1559416E+00
          2   -1    0    0  502    0  0.00000000000E+00  0.00000000000E+00  0.60929649914E+03  0.60929649914E+03  0.00000000000E+00 0. -1.
          1   -1    0    0  501    0 -0.00000000000E+00 -0.00000000000E+00 -0.17149123295E+04  0.17149123295E+04  0.00000000000E+00 0. -1.
         25    2    1    2    0    0  0.37273389537E+02 -0.59453434234E+02 -0.72462523610E+02  0.16060900770E+03  0.12498167712E+03 0.  0.
          2    1    1    2  501    0 -0.18566032138E+02  0.46485226426E+02 -0.15977552802E+04  0.15985391798E+04  0.00000000000E+00 0. -1.
          1    1    1    2  502    0 -0.18707357398E+02  0.12968207808E+02  0.56460197352E+03  0.56506064111E+03  0.00000000000E+00 0. -1.
         22    1    3    3    0    0 -0.39848500294E+02 -0.50449037030E+01  0.22572370671E+01  0.40229953371E+02  0.00000000000E+00 0. -1.
         22    1    3    3    0    0  0.77121889831E+02 -0.54408530531E+02 -0.74719760677E+02  0.12037905433E+03  0.00000000000E+00 0. -1.
</event>
<event>
 7    1  0.7527776E-006  0.9667942E+02  0.7818608E-02  0.1358741E+00
          2   -1    0    0  502    0  0.00000000000E+00  0.00000000000E+00  0.52694083523E+03  0.52694083523E+03  0.00000000000E+00 0. -1.
          1   -1    0    0  501    0 -0.00000000000E+00 -0.00000000000E+00 -0.13514158719E+03  0.13514158719E+03  0.00000000000E+00 0. -1.
         25    2    1    2    0    0  0.59386235701E+02 -0.32214839531E+01  0.97675306032E+02  0.16941988098E+03  0.12500211083E+03 0.  0.
          2    1    1    2  501    0 -0.10196522500E+03 -0.25324488029E+02 -0.69157869837E+02  0.12578174655E+03  0.00000000000E+00 0. -1.
          1    1    1    2  502    0  0.42578989300E+02  0.28545971982E+02  0.36328181184E+03  0.36688079489E+03  0.00000000000E+00 0. -1.
         22    1    3    3    0    0  0.11555778527E+02  0.20046237320E+02 -0.25992076835E+02  0.34799076226E+02  0.00000000000E+00 0.  1.
         22    1    3    3    0    0  0.47830457175E+02 -0.23267721273E+02  0.12366738287E+03  0.13462080475E+03  0.00000000000E+00 0.  1.
</event>
<event>
 7    1  0.7527776E-006  0.9526393E+02  0.7818608E-02  0.1472207E+00
          2   -1    0    0  502    0  0.00000000000E+00  0.00000000000E+00  0.29265321613E+03  0.29265321613E+03  0.00000000000E+00 0. -1.
          1   -1    0    0  501    0 -0.00000000000E+00 -0.00000000000E+00 -0.19932601392E+03  0.19932601392E+03  0.00000000000E+00 0. -1.
         25    2    1    2    0    0 -0.92595371793E+02 -0.17696108075E+02  0.44032959053E+02  0.16263680325E+03  0.12499909267E+03 0.  0.
          2    1    1    2  501    0  0.87590930065E+02  0.38690669804E+02 -0.12290065009E+03  0.15580022064E+03  0.00000000000E+00 0. -1.
          1    1    1    2  502    0  0.50044417281E+01 -0.20994561729E+02  0.17219489324E+03  0.17354220616E+03  0.00000000000E+00 0. -1.
         22    1    3    3    0    0 -0.59957790152E+02 -0.70217952366E+02  0.40129850886E+02  0.10067721871E+03  0.00000000000E+00 0. -1.
         22    1    3    3    0    0 -0.32637581642E+02  0.52521844291E+02  0.39031081677E+01  0.61959584541E+02  0.00000000000E+00 0. -1.
</event>
<event>
 7    1  0.7527776E-006  0.8994771E+02  0.7818608E-02  0.1320345E+00
          2   -1    0    0  502    0  0.00000000000E+00  0.00000000000E+00  0.66506350422E+03  0.66506350422E+03  0.00000000000E+00 0. -1.
          1   -1    0    0  501    0 -0.00000000000E+00 -0.00000000000E+00 -0.12020929938E+03  0.12020929938E+03  0.00000000000E+00 0. -1.
         25    2    1    2    0    0  0.39563512889E+02  0.15509838229E+03  0.59973273172E+02  0.21176021263E+03  0.12499925766E+03 0.  0.
          2    1    1    2  501    0 -0.34520122590E+02 -0.68676403956E+02 -0.40560106297E+01  0.76971024069E+02  0.00000000000E+00 0. -1.
          1    1    1    2  502    0 -0.50433902981E+01 -0.86421978336E+02  0.48893694230E+03  0.49654156691E+03  0.00000000000E+00 0. -1.
         22    1    3    3    0    0 -0.75100257236E+01 -0.20207876924E+02  0.71750466722E+01  0.22720917035E+02  0.00000000000E+00 0. -1.
         22    1    3    3    0    0  0.47073538612E+02  0.17530625922E+03  0.52798226500E+02  0.18903929560E+03  0.00000000000E+00 0. -1.
</event>
<event>
 7    1  0.7527776E-006  0.4593227E+02  0.7818608E-02  0.1519954E+00
          2   -1    0    0  502    0  0.00000000000E+00  0.00000000000E+00  0.98318878162E+03  0.98318878162E+03  0.00000000000E+00 0. -1.
          1   -1    0    0  501    0 -0.00000000000E+00 -0.00000000000E+00 -0.70153850701E+03  0.70153850701E+03  0.00000000000E+00 0. -1.
         25    2    1    2    0    0  0.66964432072E+02 -0.96189559562E+01  0.29394140552E+03  0.32650098794E+03  0.12499834308E+03 0.  0.
          2    1    1    2  501    0 -0.28746370192E+02 -0.14470694236E+02 -0.68412181717E+03  0.68487839469E+03  0.00000000000E+00 0. -1.
          1    1    1    2  502    0 -0.38218061880E+02  0.24089650192E+02  0.67183068626E+03  0.67334790599E+03  0.00000000000E+00 0. -1.
         22    1    3    3    0    0 -0.11094036264E+01 -0.32405437878E+02  0.22379851420E+03  0.22613517669E+03  0.00000000000E+00 0.  1.
         22    1    3    3    0    0  0.68073835698E+02  0.22786481922E+02  0.70142891323E+02  0.10036581125E+03  0.00000000000E+00 0.  1.
</event>
<event>
 7    1  0.7527776E-006  0.1098573E+03  0.7818608E-02  0.1386769E+00
          2   -1    0    0  502    0  0.00000000000E+00  0.00000000000E+00  0.43126095907E+03  0.43126095907E+03  0.00000000000E+00 0. -1.
          1   -1    0    0  501    0 -0.00000000000E+00 -0.00000000000E+00 -0.14056646904E+03  0.14056646904E+03  0.00000000000E+00 0. -1.
         25    2    1    2    0    0 -0.83463534507E+02  0.55436713100E+02  0.46602187048E+02  0.16684991166E+03  0.12501095325E+03 0.  0.
          2    1    1    2  501    0  0.11046340379E+03 -0.31919972788E+02 -0.37634025731E+02  0.12098499135E+03  0.00000000000E+00 0. -1.
          1    1    1    2  502    0 -0.26999869286E+02 -0.23516740312E+02  0.28172632872E+03  0.28399252509E+03  0.00000000000E+00 0. -1.
         22    1    3    3    0    0 -0.67617160361E+02  0.93608272257E+02  0.49019512936E+02  0.12544919951E+03  0.00000000000E+00 0.  1.
         22    1    3    3    0    0 -0.15846374145E+02 -0.38171559158E+02 -0.24173258877E+01  0.41400712150E+02  0.00000000000E+00 0.  1.
</event>
<event>
 7    1  0.7527776E-006  0.1408747E+03  0.7818608E-02  0.1346943E+00
          2   -1    0    0  502    0  0.00000000000E+00  0.00000000000E+00  0.53942746325E+03  0.53942746325E+03  0.00000000000E+00 0. -1.
          1   -1    0    0  501    0 -0.00000000000E+00 -0.00000000000E+00 -0.17869210517E+03  0.17869210517E+03  0.00000000000E+00 0. -1.
         25    2    1    2    0    0 -0.21730514187E+02 -0.11366509339E+03 -0.10645976590E+03  0.20087441111E+03  0.12499951432E+03 0.  0.
          2    1    1    2  501    0 -0.34692753282E+02 -0.17572305005E+02  0.12827300999E+02  0.40950124351E+02  0.00000000000E+00 0. -1.
          1    1    1    2  502    0  0.56423267469E+02  0.13123739840E+03  0.45436782299E+03  0.47629503295E+03  0.00000000000E+00 0. -1.
         22    1    3    3    0    0 -0.73121868181E+02 -0.75102345223E+02 -0.77715186284E+02  0.13048685774E+03  0.00000000000E+00 0. -1.
         22    1    3    3    0    0  0.51391353994E+02 -0.38562748171E+02 -0.28744579619E+02  0.70387553369E+02  0.00000000000E+00 0. -1.
</event>
<event>
 7    1  0.7527776E-006  0.9494957E+02  0.7818608E-02  0.1373068E+00
          2   -1    0    0  502    0  0.00000000000E+00  0.00000000000E+00  0.30645042498E+04  0.30645042498E+04  0.00000000000E+00 0. -1.
          1   -1    0    0  501    0 -0.00000000000E+00 -0.00000000000E+00 -0.46218995520E+03  0.46218995520E+03  0.00000000000E+00 0. -1.
         25    2    1    2    0    0 -0.34693411751E+02  0.37223480526E+02 -0.48537409648E+01  0.13504808492E+03  0.12500082447E+03 0.  0.
          2    1    1    2  501    0 -0.41959290155E+02  0.19632567458E+02 -0.39010906996E+03  0.39284997925E+03  0.00000000000E+00 0. -1.
          1    1    1    2  502    0  0.76652701906E+02 -0.56856047984E+02  0.29972771055E+04  0.29987961408E+04  0.00000000000E+00 0. -1.
         22    1    3    3    0    0 -0.82379114896E+01 -0.44602903821E+02  0.13070919996E+02  0.47203084269E+02  0.00000000000E+00 0. -1.
         22    1    3    3    0    0 -0.26455500261E+02  0.81826384347E+02 -0.17924660961E+02  0.87845000654E+02  0.00000000000E+00 0. -1.
</event>
<event>
 7    1  0.7527776E-006  0.4724829E+02  0.7818608E-02  0.1506277E+00
          2   -1    0    0  502    0  0.00000000000E+00  0.00000000000E+00  0.99613730408E+03  0.99613730408E+03  0.00000000000E+00 0. -1.
          1   -1    0    0  501    0 -0.00000000000E+00 -0.00000000000E+00 -0.75350490005E+03  0.75350490005E+03  0.00000000000E+00 0. -1.
         25    2    1    2    0    0 -0.18005315613E+02 -0.11687154867E+02 -0.28239854485E+03  0.30957061062E+03  0.12499697535E+03 0.  0.
          2    1    1    2  501    0  0.50204778697E+02 -0.16713814425E+00 -0.45584215124E+03  0.45859853313E+03  0.00000000000E+00 0. -1.
          1    1    1    2  502    0 -0.32199463084E+02  0.11854293011E+02  0.98087310013E+03  0.98147306038E+03  0.00000000000E+00 0. -1.
         22    1    3    3    0    0 -0.11547397112E+02  0.40275087467E+02 -0.23574683722E+03  0.23944100799E+03  0.00000000000E+00 0.  1.
         22    1    3    3    0    0 -0.64579185006E+01 -0.51962242334E+02 -0.46651707632E+02  0.70129602628E+02  0.00000000000E+00 0.  1.
</event>
<event>
 7    1  0.7527776E-006  0.1970167E+03  0.7818608E-02  0.1321444E+00
          2   -1    0    0  502    0  0.00000000000E+00  0.00000000000E+00  0.13061192814E+03  0.13061192814E+03  0.00000000000E+00 0. -1.
          1   -1    0    0  501    0 -0.00000000000E+00 -0.00000000000E+00 -0.21418016219E+04  0.21418016219E+04  0.00000000000E+00 0. -1.
         25    2    1    2    0    0 -0.16429612631E+02 -0.21148600039E+03 -0.14877699843E+04  0.15080027248E+04  0.12496572054E+03 0.  0.
          2    1    1    2  501    0  0.22063889323E+02  0.17719571997E+03 -0.62868823627E+03  0.65355492257E+03  0.00000000000E+00 0. -1.
          1    1    1    2  502    0 -0.56342766920E+01  0.34290280414E+02  0.10526852684E+03  0.11085590263E+03  0.00000000000E+00 0. -1.
         22    1    3    3    0    0  0.20886416102E+02 -0.99104538141E+01 -0.43549465129E+02  0.49305328165E+02  0.00000000000E+00 0.  1.
         22    1    3    3    0    0 -0.37316028734E+02 -0.20157554657E+03 -0.14442205192E+04  0.14586973966E+04  0.00000000000E+00 0.  1.
</event>
<event>
 7    1  0.7527776E-006  0.7818821E+02  0.7818608E-02  0.1415405E+00
          2   -1    0    0  502    0  0.00000000000E+00  0.00000000000E+00  0.20220873814E+03  0.20220873814E+03  0.00000000000E+00 0. -1.
          1   -1    0    0  501    0 -0.00000000000E+00 -0.00000000000E+00 -0.63995098233E+03  0.63995098233E+03  0.00000000000E+00 0. -1.
         25    2    1    2    0    0 -0.92022229924E+02 -0.28653875892E+01 -0.16492884665E+03  0.22650034982E+03  0.12499833105E+03 0.  0.
          2    1    1    2  501    0  0.20716666430E+02  0.34352152408E+02 -0.43440321764E+03  0.43625153999E+03  0.00000000000E+00 0. -1.
          1    1    1    2  502    0  0.71305563494E+02 -0.31486764819E+02  0.16158982010E+03  0.17940783067E+03  0.00000000000E+00 0. -1.
         22    1    3    3    0    0 -0.12087502029E+03 -0.78128868421E+01 -0.10710605489E+03  0.16168957519E+03  0.00000000000E+00 0. -1.
         22    1    3    3    0    0  0.28852790368E+02  0.49474992528E+01 -0.57822791761E+02  0.64810774628E+02  0.00000000000E+00 0. -1.
</event>
<event>
 7    1  0.7527776E-006  0.8598534E+02  0.7818608E-02  0.1414023E+00
          2   -1    0    0  502    0  0.00000000000E+00  0.00000000000E+00  0.83986695077E+03  0.83986695077E+03  0.00000000000E+00 0. -1.
          1   -1    0    0  501    0 -0.00000000000E+00 -0.00000000000E+00 -0.12634048336E+04  0.12634048336E+04  0.00000000000E+00 0. -1.
         25    2    1    2    0    0 -0.10890036508E+03 -0.37890238376E+02  0.41282160426E+02  0.17499786078E+03  0.12500029932E+03 0.  0.
          2    1    1    2  501    0  0.72747505468E+02  0.45129480245E+02 -0.11945496977E+04  0.11976133974E+04  0.00000000000E+00 0. -1.
          1    1    1    2  502    0  0.36152859608E+02 -0.72392418687E+01  0.72972965443E+03  0.73066052612E+03  0.00000000000E+00 0. -1.
         22    1    3    3    0    0 -0.98191650499E+02 -0.98578290664E+01 -0.25376789394E+02  0.10189582161E+03  0.00000000000E+00 0. -1.
         22    1    3    3    0    0 -0.10708714577E+02 -0.28032409310E+02  0.66658949820E+02  0.73102039169E+02  0.00000000000E+00 0. -1.
</event>
<event>
 7    1  0.7527776E-006  0.1216146E+03  0.7818608E-02  0.1295681E+00
          2   -1    0    0  502    0  0.00000000000E+00  0.00000000000E+00  0.56906493132E+02  0.56906493132E+02  0.00000000000E+00 0. -1.
          1   -1    0    0  501    0 -0.00000000000E+00 -0.00000000000E+00 -0.13305101526E+04  0.13305101526E+04  0.00000000000E+00 0. -1.
         25    2    1    2    0    0  0.40960330468E+02 -0.72237843289E+02 -0.36535000259E+03  0.39497118123E+03  0.12500221972E+03 0.  0.
          2    1    1    2  501    0  0.71074724323E+02 -0.34908453385E+01 -0.83619311066E+03  0.83921553891E+03  0.00000000000E+00 0. -1.
          1    1    1    2  502    0 -0.11203505479E+03  0.75728688628E+02 -0.72060546273E+02  0.15322992564E+03  0.00000000000E+00 0. -1.
         22    1    3    3    0    0  0.23097195914E+02 -0.10599433810E+03 -0.30322203363E+03  0.32204329188E+03  0.00000000000E+00 0.  1.
         22    1    3    3    0    0  0.17863134554E+02  0.33756494808E+02 -0.62127968961E+02  0.72927889350E+02  0.00000000000E+00 0.  1.
</event>
<event>
 7    1  0.7527776E-006  0.1533148E+03  0.7818608E-02  0.1397898E+00
          2   -1    0    0  502    0  0.00000000000E+00  0.00000000000E+00  0.20407439044E+04  0.20407439044E+04  0.00000000000E+00 0. -1.
          1   -1    0    0  501    0 -0.00000000000E+00 -0.00000000000E+00 -0.41343224823E+02  0.41343224823E+02  0.00000000000E+00 0. -1.
         25    2    1    2    0    0 -0.29526764342E+02  0.14214955862E+03  0.28510896767E+03  0.34349705579E+03  0.12499910827E+03 0.  0.
          2    1    1    2  501    0  0.35858538385E+02 -0.16474799165E+03  0.57884158757E+03  0.60289743658E+03  0.00000000000E+00 0. -1.
          1    1    1    2  502    0 -0.63317740423E+01  0.22598433039E+02  0.11354501244E+04  0.11356926369E+04  0.00000000000E+00 0. -1.
         22    1    3    3    0    0  0.35053572971E+02  0.10305902437E+03  0.21247996557E+03  0.23874180877E+03  0.00000000000E+00 0.  1.
         22    1    3    3    0    0 -0.64580337313E+02  0.39090534243E+02  0.72629002095E+02  0.10475524703E+03  0.00000000000E+00 0.  1.
</event>
<event>
 7    1  0.7527776E-006  0.1236645E+03  0.7818608E-02  0.1293784E+00
          2   -1    0    0  502    0  0.00000000000E+00  0.00000000000E+00  0.17877209462E+04  0.17877209462E+04  0.00000000000E+00 0. -1.
          1   -1    0    0  501    0 -0.00000000000E+00 -0.00000000000E+00 -0.12249001399E+03  0.12249001399E+03  0.00000000000E+00 0. -1.
         25    2    1    2    0    0 -0.16193579351E+03 -0.42369961742E+02  0.11930219754E+03  0.24057696742E+03  0.12500339210E+03 0.  0.
          2    1    1    2  501    0  0.11252858879E+03 -0.89336336876E+01 -0.88459230990E+01  0.11322872189E+03  0.00000000000E+00 0. -1.
          1    1    1    2  502    0  0.49407204716E+02  0.51303595429E+02  0.15547746578E+04  0.15564052709E+04  0.00000000000E+00 0. -1.
         22    1    3    3    0    0 -0.11698335062E+03 -0.49712123350E+02  0.14124643228E+03  0.19001829955E+03  0.00000000000E+00 0.  1.
         22    1    3    3    0    0 -0.44952442885E+02  0.73421616081E+01 -0.21944234742E+02  0.50558667870E+02  0.00000000000E+00 0.  1.
</event>
<event>
 7    1  0.7527776E-006  0.5139810E+02  0.7818608E-02  0.1459734E+00
          2   -1    0    0  502    0  0.00000000000E+00  0.00000000000E+00  0.15863473309E+03  0.15863473309E+03  0.00000000000E+00 0. -1.
          1   -1    0    0  501    0 -0.00000000000E+00 -0.00000000000E+00 -0.68899809473E+03  0.68899809473E+03  0.00000000000E+00 0. -1.
         25    2    1    2    0    0 -0.59755358500E+02  0.22036741632E+02 -0.21532131119E+02  0.14193095050E+03  0.12499776473E+03 0.  0.
          2    1    1    2  501    0  0.36511978193E+02  0.24126346164E+02 -0.59962934233E+03  0.60122421219E+03  0.00000000000E+00 0. -1.
          1    1    1    2  502    0  0.23243380308E+02 -0.46163087796E+02  0.90798111812E+02  0.10447766513E+03  0.00000000000E+00 0. -1.
         22    1    3    3    0    0  0.21265447750E+01 -0.37351492679E+02  0.24372002853E+02  0.44650316025E+02  0.00000000000E+00 0. -1.
         22    1    3    3    0    0 -0.61881903275E+02  0.59388234311E+02 -0.45904133972E+02  0.97280634472E+02  0.00000000000E+00 0. -1.
</event>
<event>
 7    1  0.7527776E-006  0.1332610E+03  0.7818608E-02  0.1420995E+00
          2   -1    0    0  502    0  0.00000000000E+00  0.00000000000E+00  0.59171392859E+02  0.59171392859E+02  0.00000000000E+00 0. -1.
          1   -1    0    0  501    0 -0.00000000000E+00 -0.00000000000E+00 -0.15627957521E+04  0.15627957521E+04  0.00000000000E+00 0. -1.
         25    2    1    2    0    0 -0.68014835686E+02 -0.10120473378E+03 -0.37660807894E+03  0.41512297046E+03  0.12500007784E+03 0.  0.
          2    1    1    2  501    0  0.59483564005E+02  0.12207211605E+03 -0.11594335682E+04  0.11673585974E+04  0.00000000000E+00 0. -1.
          1    1    1    2  502    0  0.85312716815E+01 -0.20867382270E+02  0.32417287925E+02  0.39485577060E+02  0.00000000000E+00 0. -1.
         22    1    3    3    0    0 -0.83911210181E+02 -0.95740933250E+02 -0.19588652090E+03  0.23362137437E+03  0.00000000000E+00 0. -1.
         22    1    3    3    0    0  0.15896374495E+02 -0.54638005289E+01 -0.18072155805E+03  0.18150159609E+03  0.00000000000E+00 0. -1.
</event>
<event>
 7    1  0.7527776E-006  0.2117968E+03  0.7818608E-02  0.1201381E+00
          2   -1    0    0  502    0  0.00000000000E+00  0.00000000000E+00  0.59639343363E+03  0.59639343363E+03  0.00000000000E+00 0. -1.
          1   -1    0    0  501    0 -0.00000000000E+00 -0.00000000000E+00 -0.16011545466E+04  0.16011545466E+04  0.00000000000E+00 0. -1.
         25    2    1    2    0    0 -0.24961500022E+03  0.84955159590E+02 -0.60738335156E+03  0.67384379482E+03  0.12500358629E+03 0.  0.
          2    1    1    2  501    0  0.90620345930E+02  0.53418929613E+02 -0.93777475807E+03  0.94365625416E+03  0.00000000000E+00 0. -1.
          1    1    1    2  502    0  0.15899465429E+03 -0.13837408920E+03  0.54039699662E+03  0.58004793130E+03  0.00000000000E+00 0. -1.
         22    1    3    3    0    0 -0.15828418664E+03  0.53067801067E+02 -0.22963524777E+03  0.28390565734E+03  0.00000000000E+00 0. -1.
         22    1    3    3    0    0 -0.91330813577E+02  0.31887358523E+02 -0.37774810379E+03  0.38993813748E+03  0.00000000000E+00 0. -1.
</event>
<event>
 7    1  0.7527776E-006  0.1108930E+03  0.7818608E-02  0.1313842E+00
          2   -1    0    0  502    0  0.00000000000E+00  0.00000000000E+00  0.48375983588E+03  0.48375983588E+03  0.00000000000E+00 0. -1.
          1   -1    0    0  501    0 -0.00000000000E+00 -0.00000000000E+00 -0.40470636568E+03  0.40470636568E+03  0.00000000000E+00 0. -1.
         25    2    1    2    0    0  0.15203220469E+03  0.65701316125E+02  0.31684512209E+02  0.20990329667E+03  0.12500012575E+03 0.  0.
          2    1    1    2  501    0 -0.85967287630E+02 -0.63770700138E+02 -0.30334491654E+03  0.32167563652E+03  0.00000000000E+00 0. -1.
          1    1    1    2  502    0 -0.66064917057E+02 -0.19306159869E+01  0.35071387453E+03  0.35688726838E+03  0.00000000000E+00 0. -1.
         22    1    3    3    0    0 -0.12835886744E+02  0.34452675733E+02  0.19602891932E+02  0.41665576028E+02  0.00000000000E+00 0.  1.
         22    1    3    3    0    0  0.16486809143E+03  0.31248640392E+02  0.12081620277E+02  0.16823772064E+03  0.00000000000E+00 0.  1.
</event>
<event>
 7    1  0.7527776E-006  0.4087781E+02  0.7818608E-02  0.1556378E+00
          2   -1    0    0  502    0  0.00000000000E+00  0.00000000000E+00  0.15822228323E+04  0.15822228323E+04  0.00000000000E+00 0. -1.
          1   -1    0    0  501    0 -0.00000000000E+00 -0.00000000000E+00 -0.22787784222E+02  0.22787784222E+02  0.00000000000E+00 0. -1.
         25    2    1    2    0    0  0.92230722817E+01  0.50715269588E+02  0.99300391694E+03  0.10021669881E+04  0.12499915714E+03 0.  0.
          2    1    1    2  501    0 -0.28243813903E+02 -0.29475314145E+02  0.55038930596E+01  0.41192232357E+02  0.00000000000E+00 0. -1.
          1    1    1    2  502    0  0.19020741621E+02 -0.21239955443E+02  0.56092723808E+03  0.56165139609E+03  0.00000000000E+00 0. -1.
         22    1    3    3    0    0 -0.33720256452E+02 -0.12420671608E+02  0.63958685705E+03  0.64059556390E+03  0.00000000000E+00 0. -1.
         22    1    3    3    0    0  0.42943328733E+02  0.63135941196E+02  0.35341705988E+03  0.36157142416E+03  0.00000000000E+00 0. -1.
</event>
<event>
 7    1  0.7527776E-006  0.1007077E+03  0.7818608E-02  0.1399728E+00
          2   -1    0    0  502    0  0.00000000000E+00  0.00000000000E+00  0.30712108865E+03  0.30712108865E+03  0.00000000000E+00 0. -1.
          1   -1    0    0  501    0 -0.00000000000E+00 -0.00000000000E+00 -0.10460755612E+04  0.10460755612E+04  0.00000000000E+00 0. -1.
         25    2    1    2    0    0  0.61781754858E+02  0.39911462517E+02  0.10564201073E+03  0.17943192659E+03  0.12500268707E+03 0.  0.
          2    1    1    2  501    0 -0.68583375940E+02 -0.74461720751E+02 -0.10047239576E+04  0.10098111003E+04  0.00000000000E+00 0. -1.
          1    1    1    2  502    0  0.68016210821E+01  0.34550258234E+02  0.16012747441E+03  0.16395362288E+03  0.00000000000E+00 0. -1.
         22    1    3    3    0    0 -0.25558974939E+02  0.22573031642E+02  0.79694389091E+02  0.86683323714E+02  0.00000000000E+00 0. -1.
         22    1    3    3    0    0  0.87340729796E+02  0.17338430875E+02  0.25947621641E+02  0.92748602876E+02  0.00000000000E+00 0. -1.
</event>
<event>
 7    1  0.7527776E-006  0.3406455E+02  0.7818608E-02  0.1629495E+00
          2   -1    0    0  502    0  0.00000000000E+00  0.00000000000E+00  0.18230644828E+04  0.18230644828E+04  0.00000000000E+00 0. -1.
          1   -1    0    0  501    0 -0.00000000000E+00 -0.00000000000E+00 -0.13245653156E+03  0.13245653156E+03  0.00000000000E+00 0. -1.
         25    2    1    2    0    0  0.20549166339E+02 -0.51012641109E+02  0.65676524423E+03  0.67081310014E+03  0.12500028602E+03 0.  0.
          2    1    1    2  501    0 -0.79393190768E+01  0.33053801404E+02 -0.12302343991E+03  0.12763366853E+03  0.00000000000E+00 0. -1.
          1    1    1    2  502    0 -0.12609847262E+02  0.17958839705E+02  0.11568661469E+04  0.11570742457E+04  0.00000000000E+00 0. -1.
         22    1    3    3    0    0 -0.11236905690E+02  0.17896067478E+02  0.18598806756E+02  0.28150539843E+02  0.00000000000E+00 0.  1.
         22    1    3    3    0    0  0.31786072029E+02 -0.68908708588E+02  0.63816643747E+03  0.64266256030E+03  0.00000000000E+00 0.  1.
</event>
<event>
 7    1  0.7527776E-006  0.1543679E+03  0.7818608E-02  0.1249112E+00
          2   -1    0    0  502    0  0.00000000000E+00  0.00000000000E+00  0.44591684322E+03  0.44591684322E+03  0.00000000000E+00 0. -1.
          1   -1    0    0  501    0 -0.00000000000E+00 -0.00000000000E+00 -0.60459939602E+03  0.60459939602E+03  0.00000000000E+00 0. -1.
         25    2    1    2    0    0  0.69546990007E+02 -0.68209022811E+02  0.15611585868E+01  0.15848252243E+03  0.12500007235E+03 0.  0.
          2    1    1    2  501    0 -0.15614194208E+03  0.53651054545E+02 -0.50758676877E+03  0.53376312120E+03  0.00000000000E+00 0. -1.
          1    1    1    2  502    0  0.86594952072E+02  0.14557968265E+02  0.34734305738E+03  0.35827059560E+03  0.00000000000E+00 0. -1.
         22    1    3    3    0    0  0.15482850004E+02 -0.46446494191E+02 -0.57492015429E+02  0.75513755734E+02  0.00000000000E+00 0. -1.
         22    1    3    3    0    0  0.54064140002E+02 -0.21762528620E+02  0.59053174016E+02  0.82968766699E+02  0.00000000000E+00 0. -1.
</event>
<event>
 7    1  0.7527776E-006  0.6302926E+02  0.7818608E-02  0.1389410E+00
          2   -1    0    0  502    0  0.00000000000E+00  0.00000000000E+00  0.60357823595E+03  0.60357823595E+03  0.00000000000E+00 0. -1.
          1   -1    0    0  501    0 -0.00000000000E+00 -0.00000000000E+00 -0.29889205335E+03  0.29889205335E+03  0.00000000000E+00 0. -1.
         25    2    1    2    0    0  0.32833581599E+02  0.99435510996E+02  0.12870234065E+03  0.20773784058E+03  0.12500101197E+03 0.  0.
          2    1    1    2  501    0 -0.47767385544E+02 -0.40195682808E+02 -0.25342407892E+03  0.26100034448E+03  0.00000000000E+00 0. -1.
          1    1    1    2  502    0  0.14933803945E+02 -0.59239828188E+02  0.42940792087E+03  0.43373210424E+03  0.00000000000E+00 0. -1.
         22    1    3    3    0    0  0.63202484520E+02  0.10784121763E+03  0.12365365024E+03  0.17582521858E+03  0.00000000000E+00 0.  1.
         22    1    3    3    0    0 -0.30368902920E+02 -0.84057066307E+01  0.50486904056E+01  0.31912622007E+02  0.00000000000E+00 0.  1.
</event>
<event>
 7    1  0.7527776E-006  0.1435922E+03  0.7818608E-02  0.1302754E+00
          2   -1    0    0  502    0  0.00000000000E+00  0.00000000000E+00  0.30490993238E+04  0.30490993238E+04  0.00000000000E+00 0. -1.
          1   -1    0    0  501    0 -0.00000000000E+00 -0.00000000000E+00 -0.14641642394E+02  0.14641642394E+02  0.00000000000E+00 0. -1.
         25    2    1    2    0    0 -0.76668564983E+02  0.96779481815E+02  0.11972323040E+04  0.12100545209E+04  0.12498966738E+03 0.  0.
          2    1    1    2  501    0  0.22843424291E+02  0.51632753217E+02  0.17278300021E+03  0.18177383860E+03  0.00000000000E+00 0. -1.
          1    1    1    2  502    0  0.53825140692E+02 -0.14841223503E+03  0.16644423772E+04  0.16719126066E+04  0.00000000000E+00 0. -1.
         22    1    3    3    0    0 -0.46714007307E+02  0.12561124949E+03  0.89629540599E+03  0.90625925610E+03  0.00000000000E+00 0. -1.
         22    1    3    3    0    0 -0.29954557676E+02 -0.28831767675E+02  0.30093689800E+03  0.30379526483E+03  0.00000000000E+00 0. -1.
</event>
<event>
 7    1  0.7527776E-006  0.3802313E+02  0.7818608E-02  0.1573159E+00
          2   -1    0    0  502    0  0.00000000000E+00  0.00000000000E+00  0.53566997558E+03  0.53566997558E+03  0.00000000000E+00 0. -1.
          1   -1    0    0  501    0 -0.00000000000E+00 -0.00000000000E+00 -0.81555844665E+03  0.81555844665E+03  0.00000000000E+00 0. -1.
         25    2    1    2    0    0  0.94892590089E+01  0.17302994672E+02  0.26386213951E+03  0.29263983974E+03  0.12500162990E+03 0.  0.
          2    1    1    2  501    0 -0.36380479248E+02 -0.11187997283E+02 -0.79997720501E+03  0.80088216305E+03  0.00000000000E+00 0. -1.
          1    1    1    2  502    0  0.26891220239E+02 -0.61149973887E+01  0.25622659444E+03  0.25770641943E+03  0.00000000000E+00 0. -1.
         22    1    3    3    0    0  0.23618164810E+02 -0.48431099139E+02  0.76438994852E+02  0.93521703400E+02  0.00000000000E+00 0.  1.
         22    1    3    3    0    0 -0.14128905801E+02  0.65734093811E+02  0.18742314466E+03  0.19911813635E+03  0.00000000000E+00 0.  1.
</event>
<event>
 7    1  0.7527776E-006  0.3381664E+03  0.7818608E-02  0.1123973E+00
          2   -1    0    0  502    0  0.00000000000E+00  0.00000000000E+00  0.89356896698E+03  0.89356896698E+03  0.00000000000E+00 0. -1.
          1   -1    0    0  501    0 -0.00000000000E+00 -0.00000000000E+00 -0.22451960584E+04  0.22451960584E+04  0.00000000000E+00 0. -1.
         25    2    1    2    0    0 -0.28801038041E+03 -0.82215995925E+02 -0.12126589169E+04  0.12553388722E+04  0.12499834409E+03 0.  0.
          2    1    1    2  501    0  0.43086550712E+03  0.64922996436E+01 -0.95701481751E+03  0.10495544751E+04  0.00000000000E+00 0. -1.
          1    1    1    2  502    0 -0.14285512671E+03  0.75723696281E+02  0.81804664303E+03  0.83387167812E+03  0.00000000000E+00 0. -1.
         22    1    3    3    0    0 -0.18966553191E+03 -0.11365272595E+03 -0.80616530139E+03  0.83593806545E+03  0.00000000000E+00 0. -1.
         22    1    3    3    0    0 -0.98344848501E+02  0.31436730021E+02 -0.40649361552E+03  0.41940080672E+03  0.00000000000E+00 0. -1.
</event>
<event>
 7    1  0.7527776E-006  0.1475645E+03  0.7818608E-02  0.1293193E+00
          2   -1    0    0  502    0  0.00000000000E+00  0.00000000000E+00  0.10923710385E+03  0.10923710385E+03  0.00000000000E+00 0. -1.
          1   -1    0    0  501    0 -0.00000000000E+00 -0.00000000000E+00 -0.14420847520E+04  0.14420847520E+04  0.00000000000E+00 0. -1.
         25    2    1    2    0    0  0.66685858990E+02 -0.13064060288E+03 -0.67625001342E+03  0.70317431043E+03  0.12500423705E+03 0.  0.
          2    1    1    2  501    0 -0.11695430090E+03  0.97847157686E+02 -0.73429899283E+03  0.74996492294E+03  0.00000000000E+00 0. -1.
          1    1    1    2  502    0  0.50268441910E+02  0.32793445197E+02  0.77701358125E+02  0.98182622466E+02  0.00000000000E+00 0. -1.
         22    1    3    3    0    0  0.67235280143E+02 -0.65478102593E+02 -0.57607091261E+03  0.58366571012E+03  0.00000000000E+00 0. -1.
         22    1    3    3    0    0 -0.54942115280E+00 -0.65162500289E+02 -0.10017910081E+03  0.11950860031E+03  0.00000000000E+00 0. -1.
</event>
<event>
 7    1  0.7527776E-006  0.5533511E+02  0.7818608E-02  0.1448159E+00
          2   -1    0    0  502    0  0.00000000000E+00  0.00000000000E+00  0.24883945465E+04  0.24883945465E+04  0.00000000000E+00 0. -1.
          1   -1    0    0  501    0 -0.00000000000E+00 -0.00000000000E+00 -0.77862147077E+03  0.77862147077E+03  0.00000000000E+00 0. -1.
         25    2    1    2    0    0  0.10014020798E+02 -0.58448295208E+02  0.41397048336E+03  0.43647936850E+03  0.12500477675E+03 0.  0.
          2    1    1    2  501    0  0.35569234746E+02  0.26317761075E+02 -0.76635189722E+03  0.76762818173E+03  0.00000000000E+00 0. -1.
          1    1    1    2  502    0 -0.45583255545E+02  0.32130534133E+02  0.20621544896E+04  0.20629084670E+04  0.00000000000E+00 0. -1.
         22    1    3    3    0    0  0.58805771094E+01  0.37436971246E+02  0.17295123624E+03  0.17705433663E+03  0.00000000000E+00 0. -1.
         22    1    3    3    0    0  0.41334436889E+01 -0.95885266454E+02  0.24101924712E+03  0.25942503187E+03  0.00000000000E+00 0. -1.
</event>
<event>
 7    1  0.7527776E-006  0.2123530E+03  0.7818608E-02  0.1352978E+00
          2   -1    0    0  502    0  0.00000000000E+00  0.00000000000E+00  0.11917968910E+04  0.11917968910E+04  0.00000000000E+00 0. -1.
          1   -1    0    0  501    0 -0.00000000000E+00 -0.00000000000E+00 -0.77726028696E+02  0.77726028696E+02  0.00000000000E+00 0. -1.
         25    2    1    2    0    0  0.14048275520E+02  0.20201226363E+03  0.71432275130E+03  0.75291958704E+03  0.12499841128E+03 0.  0.
          2    1    1    2  501    0 -0.11326743239E+01  0.24477961280E+02 -0.25038979948E+02  0.35034326830E+02  0.00000000000E+00 0. -1.
          1    1    1    2  502    0 -0.12915601196E+02 -0.22649022491E+03  0.42478709098E+03  0.48156900586E+03  0.00000000000E+00 0. -1.
         22    1    3    3    0    0  0.50745064654E+02  0.18630677334E+03  0.64079192869E+03  0.66925299495E+03  0.00000000000E+00 0. -1.
         22    1    3    3    0    0 -0.36696789133E+02  0.15705490296E+02  0.73530822613E+02  0.83666592092E+02  0.00000000000E+00 0. -1.
</event>
<event>
 7    1  0.7527776E-006  0.1846373E+03  0.7818608E-02  0.1229018E+00
          2   -1    0    0  502    0  0.00000000000E+00  0.00000000000E+00  0.18352450834E+04  0.18352450834E+04  0.00000000000E+00 0. -1.
          1   -1    0    0  501    0 -0.00000000000E+00 -0.00000000000E+00 -0.45276950436E+03  0.45276950436E+03  0.00000000000E+00 0. -1.
         25    2    1    2    0    0  0.52034733747E+02  0.12244457062E+03  0.15864339267E+03  0.24185362498E+03  0.12500065394E+03 0.  0.
          2    1    1    2  501    0 -0.55761990474E+02  0.70722735286E+02 -0.40043786447E+03  0.41044072430E+03  0.00000000000E+00 0. -1.
          1    1    1    2  502    0  0.37272567265E+01 -0.19316730591E+03  0.16242700509E+04  0.16357202385E+04  0.00000000000E+00 0. -1.
         22    1    3    3    0    0  0.49269271422E+02  0.13843344471E+03  0.92230018040E+02  0.17348676015E+03  0.00000000000E+00 0. -1.
         22    1    3    3    0    0  0.27654623249E+01 -0.15988874087E+02  0.66413374630E+02  0.68366864826E+02  0.00000000000E+00 0. -1.
</event>
<event>
 7    1  0.7527776E-006  0.9509680E+02  0.7818608E-02  0.1388090E+00
          2   -1    0    0  502    0  0.00000000000E+00  0.00000000000E+00  0.32153821875E+03  0.32153821875E+03  0.00000000000E+00 0. -1.
          1   -1    0    0  501    0 -0.00000000000E+00 -0.00000000000E+00 -0.42373119755E+03  0.42373119755E+03  0.00000000000E+00 0. -1.
         25    2    1    2    0    0  0.58904216110E+02  0.48434262317E+02 -0.25728982140E+02  0.14867308526E+03  0.12500448519E+03 0.  0.
          2    1    1    2  501    0  0.34948284246E+02 -0.21294117908E+02 -0.32603013971E+03  0.32858860910E+03  0.00000000000E+00 0. -1.
          1    1    1    2  502    0 -0.93852500355E+02 -0.27140144409E+02  0.24956614305E+03  0.26800772194E+03  0.00000000000E+00 0. -1.
         22    1    3    3    0    0  0.45527762066E+02  0.84357686114E+02 -0.44853758357E+02  0.10583409642E+03  0.00000000000E+00 0.  1.
         22    1    3    3    0    0  0.13376454044E+02 -0.35923423797E+02  0.19124776216E+02  0.42838988847E+02  0.00000000000E+00 0.  1.
</event>
<event>
 7    1  0.7527776E-006  0.1183829E+03  0.7818608E-02  0.1288105E+00
          2   -1    0    0  502    0  0.00000000000E+00  0.00000000000E+00  0.39372467220E+03  0.39372467220E+03  0.00000000000E+00 0. -1.
          1   -1    0    0  501    0 -0.00000000000E+00 -0.00000000000E+00 -0.13129419247E+04  0.13129419247E+04  0.00000000000E+00 0. -1.
         25    2    1    2    0    0 -0.35286314245E+02  0.17154173155E+03 -0.35856018601E+03  0.41816551905E+03  0.12500121878E+03 0.  0.
          2    1    1    2  501    0 -0.28476489035E+02 -0.73111303878E+02 -0.91340472668E+03  0.91676843745E+03  0.00000000000E+00 0. -1.
          1    1    1    2  502    0  0.63762803280E+02 -0.98430427670E+02  0.35274766019E+03  0.37173264040E+03  0.00000000000E+00 0. -1.
         22    1    3    3    0    0 -0.33446500377E+02  0.18350304203E+03 -0.36051162729E+03  0.40590721629E+03  0.00000000000E+00 0. -1.
         22    1    3    3    0    0 -0.18398138683E+01 -0.11961310483E+02  0.19514412814E+01  0.12258302763E+02  0.00000000000E+00 0. -1.
</event>
<event>
 7    1  0.7527776E-006  0.7315378E+02  0.7818608E-02  0.1495131E+00
          2   -1    0    0  502    0  0.00000000000E+00  0.00000000000E+00  0.88654804168E+03  0.88654804168E+03  0.00000000000E+00 0. -1.
          1   -1    0    0  501    0 -0.00000000000E+00 -0.00000000000E+00 -0.14843453713E+04  0.14843453713E+04  0.00000000000E+00 0. -1.
         25    2    1    2    0    0 -0.10117898469E+02  0.81061927716E+02  0.21719063846E+02  0.15089710152E+03  0.12499923807E+03 0.  0.
          2    1    1    2  501    0 -0.19247656274E+02 -0.14208091511E+02 -0.14179895634E+04  0.14181913637E+04  0.00000000000E+00 0. -1.
          1    1    1    2  502    0  0.29365554743E+02 -0.66853836205E+02  0.79847316992E+03  0.80180494779E+03  0.00000000000E+00 0. -1.
         22    1    3    3    0    0 -0.22793935178E+02 -0.22458284346E+02  0.33034697173E+02  0.45991621346E+02  0.00000000000E+00 0.  1.
         22    1    3    3    0    0  0.12676036709E+02  0.10352021206E+03 -0.11315633327E+02  0.10490548017E+03  0.00000000000E+00 0.  1.
</event>
<event>
 7    1  0.7527776E-006  0.4588061E+02  0.7818608E-02  0.1518631E+00
          2   -1    0    0  502    0  0.00000000000E+00  0.00000000000E+00  0.13709225293E+04  0.13709225293E+04  0.00000000000E+00 0. -1.
          1   -1    0    0  501    0 -0.00000000000E+00 -0.00000000000E+00 -0.37252840476E+02  0.37252840476E+02  0.00000000000E+00 0. -1.
         25    2    1    2    0    0  0.16779591306E+02 -0.74967805047E+02  0.46518585794E+03  0.48777521594E+03  0.12500020953E+03 0.  0.
          2    1    1    2  501    0 -0.58866795266E+01  0.31968447683E+02 -0.15002505608E+02  0.35800975093E+02  0.00000000000E+00 0. -1.
          1    1    1    2  502    0 -0.10892911779E+02  0.42999357363E+02  0.88348633647E+03  0.88459917871E+03  0.00000000000E+00 0. -1.
         22    1    3    3    0    0  0.13227575964E+02 -0.10437951130E+03  0.42511824150E+03  0.43794471159E+03  0.00000000000E+00 0. -1.
         22    1    3    3    0    0  0.35520153418E+01  0.29411706254E+02  0.40067616435E+02  0.49830504358E+02  0.00000000000E+00 0. -1.
</event>
<event>
 7    1  0.7527776E-006  0.1403782E+03  0.7818608E-02  0.1310965E+00
          2   -1    0    0  502    0  0.00000000000E+00  0.00000000000E+00  0.11169588638E+04  0.11169588638E+04  0.00000000000E+00 0. -1.
          1   -1    0    0  501    0 -0.00000000000E+00 -0.00000000000E+00 -0.20154618610E+03  0.20154618610E+03  0.00000000000E+00 0. -1.
         25    2    1    2    0    0 -0.91508566246E+02 -0.87385853014E+02  0.17640926197E+03  0.25051304292E+03  0.12500580770E+03 0.  0.
          2    1    1    2  501    0  0.31590928795E+02 -0.43284421606E+02 -0.15422535787E+03  0.16326968165E+03  0.00000000000E+00 0. -1.
          1    1    1    2  502    0  0.59917637451E+02  0.13067027462E+03  0.89322877358E+03  0.90472232530E+03  0.00000000000E+00 0. -1.
         22    1    3    3    0    0 -0.11113867531E+03 -0.10373383006E+03  0.15587438654E+03  0.21773685271E+03  0.00000000000E+00 0.  1.
         22    1    3    3    0    0  0.19630109066E+02  0.16347977047E+02  0.20534875431E+02  0.32776190206E+02  0.00000000000E+00 0.  1.
</event>
<event>
 7    1  0.7527776E-006  0.1397138E+03  0.7818608E-02  0.1355470E+00
          2   -1    0    0  502    0  0.00000000000E+00  0.00000000000E+00  0.32194313456E+03  0.32194313456E+03  0.00000000000E+00 0. -1.
          1   -1    0    0  501    0 -0.00000000000E+00 -0.00000000000E+00 -0.67724019385E+03  0.67724019385E+03  0.00000000000E+00 0. -1.
         25    2    1    2    0    0  0.81621880080E+02 -0.14978233907E+03 -0.13791564669E+02  0.21192425475E+03  0.12499920836E+03 0.  0.
          2    1    1    2  501    0 -0.15714833315E+02  0.32905951281E+02 -0.54352099740E+03  0.54474290471E+03  0.00000000000E+00 0. -1.
          1    1    1    2  502    0 -0.65907046765E+02  0.11687638779E+03  0.20201550278E+03  0.24251616895E+03  0.00000000000E+00 0. -1.
         22    1    3    3    0    0  0.78276247502E+02 -0.13678151964E+03 -0.56297187479E+02  0.16734912117E+03  0.00000000000E+00 0.  1.
         22    1    3    3    0    0  0.33456325774E+01 -0.13000819427E+02  0.42505622810E+02  0.44575133579E+02  0.00000000000E+00 0.  1.
</event>
<event>
 7    1  0.1004622E-005  0.8226955E+02  0.7818608E-02  0.1382501E+00
          2   -1    0    0  502    0  0.00000000000E+00  0.00000000000E+00  0.16223779521E+04  0.16223779521E+04  0.00000000000E+00 0. -1.
          1   -1    0    0  501    0 -0.00000000000E+00 -0.00000000000E+00 -0.12481571602E+04  0.12481571602E+04  0.00000000000E+00 0. -1.
         25    2    1    2    0    0 -0.34189572902E+02  0.58692173457E+02 -0.85326531806E+03  0.86504389399E+03  0.12500214959E+03 0.  0.
          2    1    1    2  501    0 -0.41654730883E+02 -0.26730697173E+02 -0.38637533719E+03  0.38953247357E+03  0.00000000000E+00 0. -1.
          1    1    1    2  502    0  0.75844303784E+02 -0.31961476284E+02  0.16138614471E+04  0.16159587448E+04  0.00000000000E+00 0. -1.
         22    1    3    3    0    0  0.14744259284E+02  0.82404630930E+02 -0.41025060648E+03  0.41870452171E+03  0.00000000000E+00 0.  1.
         22    1    3    3    0    0 -0.48933832186E+02 -0.23712457473E+02 -0.44301471158E+03  0.44633937229E+03  0.00000000000E+00 0.  1.
</event>
<event>
 7    1  0.7527776E-006  0.4538896E+02  0.7818608E-02  0.1534873E+00
          2   -1    0    0  502    0  0.00000000000E+00  0.00000000000E+00  0.68919316690E+03  0.68919316690E+03  0.00000000000E+00 0. -1.
          1   -1    0    0  501    0 -0.00000000000E+00 -0.00000000000E+00 -0.23774032011E+04  0.23774032011E+04  0.00000000000E+00 0. -1.
         25    2    1    2    0    0  0.51848615843E+02  0.24946545707E+02 -0.48998066681E+03  0.50893618956E+03  0.12499752834E+03 0.  0.
          2    1    1    2  501    0 -0.66258515333E+01 -0.28751950077E+02 -0.18770711866E+04  0.18773030699E+04  0.00000000000E+00 0. -1.
          1    1    1    2  502    0 -0.45222764310E+02  0.38054043707E+01  0.67884181928E+03  0.68035710852E+03  0.00000000000E+00 0. -1.
         22    1    3    3    0    0  0.74252524242E+02 -0.24876560276E+02 -0.35045167521E+03  0.35909421781E+03  0.00000000000E+00 0.  1.
         22    1    3    3    0    0 -0.22403908398E+02  0.49823105982E+02 -0.13952899159E+03  0.14984197174E+03  0.00000000000E+00 0.  1.
</event>
<event>
 7    1  0.7527776E-006  0.4067304E+03  0.7818608E-02  0.1144495E+00
          2   -1    0    0  502    0  0.00000000000E+00  0.00000000000E+00  0.14144370318E+04  0.14144370318E+04  0.00000000000E+00 0. -1.
          1   -1    0    0  501    0 -0.00000000000E+00 -0.00000000000E+00 -0.18343289411E+04  0.18343289411E+04  0.00000000000E+00 0. -1.
         25    2    1    2    0    0  0.45761750448E+03  0.15295299968E+03  0.12455119985E+03  0.51375692766E+03  0.12499911524E+03 0.  0.
          2    1    1    2  501    0 -0.71625648701E+02 -0.76342871977E+02 -0.16026164751E+04  0.16060317662E+04  0.00000000000E+00 0. -1.
          1    1    1    2  502    0 -0.38599185578E+03 -0.76610127699E+02  0.10581733659E+04  0.11289772791E+04  0.00000000000E+00 0. -1.
         22    1    3    3    0    0  0.11834300198E+03 -0.89074164025E+01  0.57665443734E+02  0.13194586611E+03  0.00000000000E+00 0.  1.
         22    1    3    3    0    0  0.33927450251E+03  0.16186041608E+03  0.66885756115E+02  0.38181106154E+03  0.00000000000E+00 0.  1.
</event>
<event>
 7    1  0.7527776E-006  0.1371516E+03  0.7818608E-02  0.1286213E+00
          2   -1    0    0  502    0  0.00000000000E+00  0.00000000000E+00  0.68149475725E+03  0.68149475725E+03  0.00000000000E+00 0. -1.
          1   -1    0    0  501    0 -0.00000000000E+00 -0.00000000000E+00 -0.56095181557E+03  0.56095181557E+03  0.00000000000E+00 0. -1.
         25    2    1    2    0    0  0.70415181219E+02  0.12507265683E+03  0.28081415896E+03  0.33923885990E+03  0.12499977986E+03 0.  0.
          2    1    1    2  501    0 -0.25903127628E+01 -0.13742418598E+03 -0.51952465896E+03  0.53739928162E+03  0.00000000000E+00 0. -1.
          1    1    1    2  502    0 -0.67824868457E+02  0.12351529154E+02  0.35925344168E+03  0.36580843130E+03  0.00000000000E+00 0. -1.
         22    1    3    3    0    0 -0.29559125020E+02  0.60429170707E+02  0.13633193909E+03  0.15202573519E+03  0.00000000000E+00 0. -1.
         22    1    3    3    0    0  0.99974306239E+02  0.64643486120E+02  0.14448221986E+03  0.18721312471E+03  0.00000000000E+00 0. -1.
</event>
<event>
 7    1  0.7527776E-006  0.8508565E+02  0.7818608E-02  0.1357144E+00
          2   -1    0    0  502    0  0.00000000000E+00  0.00000000000E+00  0.28014256281E+03  0.28014256281E+03  0.00000000000E+00 0. -1.
          1   -1    0    0  501    0 -0.00000000000E+00 -0.00000000000E+00 -0.14749027007E+03  0.14749027007E+03  0.00000000000E+00 0. -1.
         25    2    1    2    0    0 -0.76292046127E+02 -0.18195823305E+02  0.18825653776E+02  0.14876600539E+03  0.12500141932E+03 0.  0.
          2    1    1    2  501    0  0.55353203093E+02  0.73395000569E+02 -0.50057288039E+02  0.10467346983E+03  0.00000000000E+00 0. -1.
          1    1    1    2  502    0  0.20938843034E+02 -0.55199177265E+02  0.16388392701E+03  0.17419335765E+03  0.00000000000E+00 0. -1.
         22    1    3    3    0    0 -0.66663406682E+02 -0.45275667147E+02 -0.34914437211E+02  0.87823195978E+02  0.00000000000E+00 0. -1.
         22    1    3    3    0    0 -0.96286394449E+01  0.27079843842E+02  0.53740090987E+02  0.60942809415E+02  0.00000000000E+00 0. -1.
</event>
<event>
 7    1  0.7527776E-006  0.2327806E+02  0.7818608E-02  0.1687976E+00
          2   -1    0    0  502    0  0.00000000000E+00  0.00000000000E+00  0.22268798648E+02  0.22268798648E+02  0.00000000000E+00 0. -1.
          1   -1    0    0  501    0 -0.00000000000E+00 -0.00000000000E+00 -0.15151855168E+04  0.15151855168E+04  0.00000000000E+00 0. -1.
         25    2    1    2    0    0 -0.12159263019E+01 -0.19514784936E+02 -0.54697735413E+03  0.56141923188E+03  0.12500009073E+03 0.  0.
          2    1    1    2  501    0 -0.20560195204E+02  0.11288680924E+02 -0.95175304142E+03  0.95204201997E+03  0.00000000000E+00 0. -1.
          1    1    1    2  502    0  0.21776121506E+02  0.82261040116E+01  0.58136774117E+01  0.23993063583E+02  0.00000000000E+00 0. -1.
         22    1    3    3    0    0 -0.13065799563E+02 -0.31387189269E+01  0.61724416916E+00  0.13451678895E+02  0.00000000000E+00 0.  1.
         22    1    3    3    0    0  0.11849873261E+02 -0.16376066009E+02 -0.54759459830E+03  0.54796755298E+03  0.00000000000E+00 0.  1.
</event>
<event>
 7    1  0.7527776E-006  0.1694526E+03  0.7818608E-02  0.1291269E+00
          2   -1    0    0  502    0  0.00000000000E+00  0.00000000000E+00  0.91147065842E+03  0.91147065842E+03  0.00000000000E+00 0. -1.
          1   -1    0    0  501    0 -0.00000000000E+00 -0.00000000000E+00 -0.12596015129E+03  0.12596015129E+03  0.00000000000E+00 0. -1.
         25    2    1    2    0    0 -0.44582893694E+02  0.11855377303E+03  0.51490843329E+02  0.18525381931E+03  0.12500015645E+03 0.  0.
          2    1    1    2  501    0 -0.38828733629E+02  0.36386779124E+02 -0.34730774566E+02  0.63544432897E+02  0.00000000000E+00 0. -1.
          1    1    1    2  502    0  0.83411627324E+02 -0.15494055216E+03  0.76875043837E+03  0.78863255751E+03  0.00000000000E+00 0. -1.
         22    1    3    3    0    0  0.27229598699E+01  0.12200155649E+03  0.10356979741E+02  0.12247065496E+03  0.00000000000E+00 0.  1.
         22    1    3    3    0    0 -0.47305853564E+02 -0.34477834593E+01  0.41133863588E+02  0.62783164351E+02  0.00000000000E+00 0.  1.
</event>
<event>
 7    1  0.7527776E-006  0.6826106E+02  0.7818608E-02  0.1410532E+00
          2   -1    0    0  502    0  0.00000000000E+00  0.00000000000E+00  0.27919737293E+03  0.27919737293E+03  0.00000000000E+00 0. -1.
          1   -1    0    0  501    0 -0.00000000000E+00 -0.00000000000E+00 -0.19219662285E+04  0.19219662285E+04  0.00000000000E+00 0. -1.
         25    2    1    2    0    0 -0.39699883676E+02  0.88329018885E+01 -0.10460100665E+03  0.16798951852E+03  0.12500002729E+03 0.  0.
          2    1    1    2  501    0  0.59881982505E+02  0.34412007713E+02 -0.17826956339E+04  0.17840330045E+04  0.00000000000E+00 0. -1.
          1    1    1    2  502    0 -0.20182098829E+02 -0.43244909601E+02  0.24452778498E+03  0.24914107840E+03  0.00000000000E+00 0. -1.
         22    1    3    3    0    0  0.32764440316E+02  0.35479183511E+01  0.80640612960E+01  0.33928238364E+02  0.00000000000E+00 0.  1.
         22    1    3    3    0    0 -0.72464323992E+02  0.52849835374E+01 -0.11266506794E+03  0.13406128016E+03  0.00000000000E+00 0.  1.
</event>
<event>
 7    1  0.7527776E-006  0.1776378E+03  0.7818608E-02  0.1184700E+00
          2   -1    0    0  502    0  0.00000000000E+00  0.00000000000E+00  0.25795571262E+04  0.25795571262E+04  0.00000000000E+00 0. -1.
          1   -1    0    0  501    0 -0.00000000000E+00 -0.00000000000E+00 -0.65411549195E+02  0.65411549195E+02  0.00000000000E+00 0. -1.
         25    2    1    2    0    0  0.16155694963E+03 -0.94757598169E+02  0.54991124267E+03  0.59422778232E+03  0.12499852829E+03 0.  0.
          2    1    1    2  501    0 -0.42186756763E+02  0.18667325566E+03  0.18849018672E+03  0.26861715752E+03  0.00000000000E+00 0. -1.
          1    1    1    2  502    0 -0.11937019287E+03 -0.91915657495E+02  0.17757441476E+04  0.17821237356E+04  0.00000000000E+00 0. -1.
         22    1    3    3    0    0  0.11595012141E+03  0.28662849744E+01  0.31845901250E+03  0.33892298371E+03  0.00000000000E+00 0.  1.
         22    1    3    3    0    0  0.45606828225E+02 -0.97623883143E+02  0.23145223017E+03  0.25530479861E+03  0.00000000000E+00 0.  1.
</event>
<event>
 7    1  0.7527776E-006  0.4733987E+02  0.7818608E-02  0.1518431E+00
          2   -1    0    0  502    0  0.00000000000E+00  0.00000000000E+00  0.19568517372E+04  0.19568517372E+04  0.00000000000E+00 0. -1.
          1   -1    0    0  501    0 -0.00000000000E+00 -0.00000000000E+00 -0.92552233555E+03  0.92552233555E+03  0.00000000000E+00 0. -1.
         25    2    1    2    0    0  0.56472600015E+02 -0.46188287143E+02 -0.21444294570E+02  0.14631284931E+03  0.12500031873E+03 0.  0.
          2    1    1    2  501    0 -0.43816774951E+02  0.17292075766E+02 -0.84085318214E+03  0.84217159746E+03  0.00000000000E+00 0. -1.
          1    1    1    2  502    0 -0.12655825064E+02  0.28896211377E+02  0.18936268784E+04  0.18938896260E+04  0.00000000000E+00 0. -1.
         22    1    3    3    0    0  0.28121613211E+02  0.70024269030E+01  0.46934562875E+02  0.55160785930E+02  0.00000000000E+00 0.  1.
         22    1    3    3    0    0  0.28350986805E+02 -0.53190714046E+02 -0.68378857446E+02  0.91152063384E+02  0.00000000000E+00 0.  1.
</event>
<event>
 7    1  0.7527776E-006  0.1192572E+03  0.7818608E-02  0.1351909E+00
          2   -1    0    0  502    0  0.00000000000E+00  0.00000000000E+00  0.16217503705E+04  0.16217503705E+04  0.00000000000E+00 0. -1.
          1   -1    0    0  501    0 -0.00000000000E+00 -0.00000000000E+00 -0.70948439270E+02  0.70948439270E+02  0.00000000000E+00 0. -1.
         25    2    1    2    0    0 -0.86478309005E+01  0.15281800837E+03  0.77869302024E+03  0.80337749222E+03  0.12499778625E+03 0.  0.
          2    1    1    2  501    0 -0.18025834252E+01 -0.43994358998E+02 -0.46153578621E+02  0.63787974965E+02  0.00000000000E+00 0. -1.
          1    1    1    2  502    0  0.10450414326E+02 -0.10882364937E+03  0.81826248957E+03  0.82553334255E+03  0.00000000000E+00 0. -1.
         22    1    3    3    0    0  0.91341217448E+01  0.10378281598E+03  0.23341931125E+03  0.25561470994E+03  0.00000000000E+00 0.  1.
         22    1    3    3    0    0 -0.17781952645E+02  0.49035192392E+02  0.54527370899E+03  0.54776278228E+03  0.00000000000E+00 0.  1.
</event>
<event>
 7    1  0.7527776E-006  0.7209643E+02  0.7818608E-02  0.1388006E+00
          2   -1    0    0  502    0  0.00000000000E+00  0.00000000000E+00  0.40628632382E+04  0.40628632382E+04  0.00000000000E+00 0. -1.
          1   -1    0    0  501    0 -0.00000000000E+00 -0.00000000000E+00 -0.14716417857E+03  0.14716417857E+03  0.00000000000E+00 0. -1.
         25    2    1    2    0    0 -0.11940363467E+02 -0.69800828456E+02 -0.11282089825E+02  0.14410923127E+03  0.12500182821E+03 0.  0.
          2    1    1    2  501    0 -0.41859455696E+02  0.64960977250E+02 -0.47735811262E+02  0.90834191103E+02  0.00000000000E+00 0. -1.
          1    1    1    2  502    0  0.53799819163E+02  0.48398512062E+01  0.39747169607E+04  0.39750839944E+04  0.00000000000E+00 0. -1.
         22    1    3    3    0    0  0.16710862973E+02  0.13174688999E+02  0.37916380791E+02  0.43479619407E+02  0.00000000000E+00 0. -1.
         22    1    3    3    0    0 -0.28651226440E+02 -0.82975517456E+02 -0.49198470615E+02  0.10062961187E+03  0.00000000000E+00 0. -1.
</event>
<event>
 7    1  0.7527776E-006  0.9144687E+02  0.7818608E-02  0.1381964E+00
          2   -1    0    0  502    0  0.00000000000E+00  0.00000000000E+00  0.33766760965E+04  0.33766760965E+04  0.00000000000E+00 0. -1.
          1   -1    0    0  501    0 -0.00000000000E+00 -0.00000000000E+00 -0.55059345725E+03  0.55059345725E+03  0.00000000000E+00 0. -1.
         25    2    1    2    0    0 -0.31984398514E+02 -0.84869851764E+02  0.21135268675E+03  0.26176706391E+03  0.12500457618E+03 0.  0.
          2    1    1    2  501    0  0.69203069667E+02  0.60075027522E+02 -0.52122947928E+03  0.52922419054E+03  0.00000000000E+00 0. -1.
          1    1    1    2  502    0 -0.37218671153E+02  0.24794824242E+02  0.31359594318E+04  0.31362782993E+04  0.00000000000E+00 0. -1.
         22    1    3    3    0    0 -0.16844748411E+02 -0.64353042796E+02  0.22373990272E+03  0.23341937309E+03  0.00000000000E+00 0. -1.
         22    1    3    3    0    0 -0.15139650103E+02 -0.20516808967E+02 -0.12387215968E+02  0.28347690821E+02  0.00000000000E+00 0. -1.
</event>
<event>
 7    1  0.7527776E-006  0.9746712E+02  0.7818608E-02  0.1314547E+00
          2   -1    0    0  502    0  0.00000000000E+00  0.00000000000E+00  0.16960839538E+04  0.16960839538E+04  0.00000000000E+00 0. -1.
          1   -1    0    0  501    0 -0.00000000000E+00 -0.00000000000E+00 -0.51285869758E+03  0.51285869758E+03  0.00000000000E+00 0. -1.
         25    2    1    2    0    0 -0.47376378915E+02 -0.14008680174E+03 -0.12230987986E+03  0.22902715758E+03  0.12499959558E+03 0.  0.
          2    1    1    2  501    0  0.60535321763E+02  0.43802586858E+02 -0.33159205371E+03  0.33990657817E+03  0.00000000000E+00 0. -1.
          1    1    1    2  502    0 -0.13158942848E+02  0.96284214880E+02  0.16371271898E+04  0.16400089156E+04  0.00000000000E+00 0. -1.
         22    1    3    3    0    0 -0.59296057407E+02 -0.75589418845E+02 -0.69474058228E+01  0.96322630327E+02  0.00000000000E+00 0.  1.
         22    1    3    3    0    0  0.11919678492E+02 -0.64497382892E+02 -0.11536247404E+03  0.13270452725E+03  0.00000000000E+00 0.  1.
</event>
<event>
 7    1  0.7527776E-006  0.8537010E+02  0.7818608E-02  0.1315120E+00
          2   -1    0    0  502    0  0.00000000000E+00  0.00000000000E+00  0.10274394052E+03  0.10274394052E+03  0.00000000000E+00 0. -1.
          1   -1    0    0  501    0 -0.00000000000E+00 -0.00000000000E+00 -0.59955214524E+03  0.59955214524E+03  0.00000000000E+00 0. -1.
         25    2    1    2    0    0  0.48060021101E+02 -0.33934300088E+02 -0.98692608571E+02  0.16978345015E+03  0.12499954643E+03 0.  0.
          2    1    1    2  501    0 -0.81330399787E+02 -0.44685903330E+02 -0.43111294489E+03  0.44098734125E+03  0.00000000000E+00 0. -1.
          1    1    1    2  502    0  0.33270378685E+02  0.78620203418E+02  0.32997348756E+02  0.91525294363E+02  0.00000000000E+00 0. -1.
         22    1    3    3    0    0  0.53860683369E+02 -0.74124973592E+02 -0.89633301032E+02  0.12817805419E+03  0.00000000000E+00 0. -1.
         22    1    3    3    0    0 -0.58006622680E+01  0.40190673504E+02 -0.90593075396E+01  0.41605395955E+02  0.00000000000E+00 0. -1.
</event>
<event>
 7    1  0.7527776E-006  0.2025643E+03  0.7818608E-02  0.1237139E+00
          2   -1    0    0  502    0  0.00000000000E+00  0.00000000000E+00  0.17576206265E+04  0.17576206265E+04  0.00000000000E+00 0. -1.
          1   -1    0    0  501    0 -0.00000000000E+00 -0.00000000000E+00 -0.43678548136E+03  0.43678548136E+03  0.00000000000E+00 0. -1.
         25    2    1    2    0    0 -0.24137379738E+02 -0.13561159374E+03  0.14978538887E+03  0.23881765143E+03  0.12500036183E+03 0.  0.
          2    1    1    2  501    0 -0.87366888943E+01 -0.75014501969E+02 -0.38128113218E+03  0.38868857327E+03  0.00000000000E+00 0. -1.
          1    1    1    2  502    0  0.32874068633E+02  0.21062609571E+03  0.15523308885E+04  0.15668998832E+04  0.00000000000E+00 0. -1.
         22    1    3    3    0    0 -0.33565286060E+01  0.18482073942E+02 -0.49810881420E+01  0.19433594124E+02  0.00000000000E+00 0.  1.
         22    1    3    3    0    0 -0.20780851132E+02 -0.15409366768E+03  0.15476647701E+03  0.21938405731E+03  0.00000000000E+00 0.  1.
</event>
<event>
 7    1  0.7527776E-006  0.7535472E+02  0.7818608E-02  0.1385842E+00
          2   -1    0    0  502    0  0.00000000000E+00  0.00000000000E+00  0.45655015018E+03  0.45655015018E+03  0.00000000000E+00 0. -1.
          1   -1    0    0  501    0 -0.00000000000E+00 -0.00000000000E+00 -0.95905659337E+03  0.95905659337E+03  0.00000000000E+00 0. -1.
         25    2    1    2    0    0  0.12273009063E+03  0.72688941883E+01  0.16045626797E+03  0.23766954438E+03  0.12500034570E+03 0.  0.
          2    1    1    2  501    0 -0.71986396320E+02 -0.21089358046E+02 -0.91621559969E+03  0.91928114709E+03  0.00000000000E+00 0. -1.
          1    1    1    2  502    0 -0.50743694312E+02  0.13820463858E+02  0.25325288852E+03  0.25865605208E+03  0.00000000000E+00 0. -1.
         22    1    3    3    0    0  0.10688162513E+02 -0.46517184968E+02  0.66559351166E+02  0.81903800540E+02  0.00000000000E+00 0. -1.
         22    1    3    3    0    0  0.11204192812E+03  0.53786079157E+02  0.93896916807E+02  0.15576574384E+03  0.00000000000E+00 0. -1.
</event>
<event>
 7    1  0.7527776E-006  0.5583237E+02  0.7818608E-02  0.1465608E+00
          2   -1    0    0  502    0  0.00000000000E+00  0.00000000000E+00  0.16336832338E+03  0.16336832338E+03  0.00000000000E+00 0. -1.
          1   -1    0    0  501    0 -0.00000000000E+00 -0.00000000000E+00 -0.11569979594E+04  0.11569979594E+04  0.00000000000E+00 0. -1.
         25    2    1    2    0    0 -0.60366719406E+02  0.46923112582E+01  0.10079643417E+03  0.17160739824E+03  0.12499207731E+03 0.  0.
          2    1    1    2  501    0  0.17776471943E+02  0.34275075222E+02 -0.10901935965E+04  0.10908771066E+04  0.00000000000E+00 0. -1.
          1    1    1    2  502    0  0.42590247463E+02 -0.38967386480E+02 -0.42324736750E+01  0.57881777975E+02  0.00000000000E+00 0. -1.
         22    1    3    3    0    0  0.90989236764E+01 -0.31259469322E+02  0.86061730689E+02  0.92013946353E+02  0.00000000000E+00 0.  1.
         22    1    3    3    0    0 -0.69465643082E+02  0.35951780581E+02  0.14734703482E+02  0.79593451882E+02  0.00000000000E+00 0.  1.
</event>
<event>
 7    1  0.7527776E-006  0.7882522E+02  0.7818608E-02  0.1453092E+00
          2   -1    0    0  502    0  0.00000000000E+00  0.00000000000E+00  0.54519067151E+03  0.54519067151E+03  0.00000000000E+00 0. -1.
          1   -1    0    0  501    0 -0.00000000000E+00 -0.00000000000E+00 -0.45663220515E+03  0.45663220515E+03  0.00000000000E+00 0. -1.
         25    2    1    2    0    0 -0.17431379576E+01  0.72304620274E+02  0.14885395902E+03  0.20739918924E+03  0.12500370369E+03 0.  0.
          2    1    1    2  501    0 -0.28169080231E+02 -0.73879584522E+02 -0.42307990199E+03  0.43040480197E+03  0.00000000000E+00 0. -1.
          1    1    1    2  502    0  0.29912218189E+02  0.15749642476E+01  0.36278440933E+03  0.36401888545E+03  0.00000000000E+00 0. -1.
         22    1    3    3    0    0 -0.78331905644E+00  0.50284342926E+02 -0.63035431618E+01  0.50683955929E+02  0.00000000000E+00 0.  1.
         22    1    3    3    0    0 -0.95981890115E+00  0.22020277348E+02  0.15515750218E+03  0.15671523331E+03  0.00000000000E+00 0.  1.
</event>
<event>
 7    1  0.7527776E-006  0.3876461E+02  0.7818608E-02  0.1558625E+00
          2   -1    0    0  502    0  0.00000000000E+00  0.00000000000E+00  0.18004858633E+04  0.18004858633E+04  0.00000000000E+00 0. -1.
          1   -1    0    0  501    0 -0.00000000000E+00 -0.00000000000E+00 -0.38745900926E+03  0.38745900926E+03  0.00000000000E+00 0. -1.
         25    2    1    2    0    0  0.23761306685E+02  0.62262837631E+02  0.76388883996E+02  0.16094006445E+03  0.12500072840E+03 0.  0.
          2    1    1    2  501    0 -0.68752721491E+01 -0.37903678158E+02 -0.34397757926E+03  0.34612791453E+03  0.00000000000E+00 0. -1.
          1    1    1    2  502    0 -0.16886034536E+02 -0.24359159473E+02  0.16806155493E+04  0.16808768936E+04  0.00000000000E+00 0. -1.
         22    1    3    3    0    0  0.33419078399E+02 -0.32111524125E+02  0.19181834862E+02  0.50159022831E+02  0.00000000000E+00 0.  1.
         22    1    3    3    0    0 -0.96577717133E+01  0.94374361756E+02  0.57207049134E+02  0.11078104162E+03  0.00000000000E+00 0.  1.
</event>
<event>
 7    1  0.7527776E-006  0.1574704E+03  0.7818608E-02  0.1326462E+00
          2   -1    0    0  502    0  0.00000000000E+00  0.00000000000E+00  0.18391407374E+04  0.18391407374E+04  0.00000000000E+00 0. -1.
          1   -1    0    0  501    0 -0.00000000000E+00 -0.00000000000E+00 -0.18304058708E+03  0.18304058708E+03  0.00000000000E+00 0. -1.
         25    2    1    2    0    0 -0.30576615365E+02 -0.12420414069E+03  0.15343752565E+03  0.23564742770E+03  0.12500015173E+03 0.  0.
          2    1    1    2  501    0  0.59820682909E+02  0.15376558546E+03 -0.93624802256E+02  0.18970496296E+03  0.00000000000E+00 0. -1.
          1    1    1    2  502    0 -0.29244067544E+02 -0.29561444762E+02  0.15962874269E+04  0.15968289338E+04  0.00000000000E+00 0. -1.
         22    1    3    3    0    0  0.17915857658E+02 -0.10714056878E+03  0.14851935028E+03  0.18400564350E+03  0.00000000000E+00 0.  1.
         22    1    3    3    0    0 -0.48492473023E+02 -0.17063571918E+02  0.49181753724E+01  0.51641784201E+02  0.00000000000E+00 0.  1.
</event>
<event>
 7    1  0.7527776E-006  0.5279468E+02  0.7818608E-02  0.1485268E+00
          2   -1    0    0  502    0  0.00000000000E+00  0.00000000000E+00  0.20005601809E+03  0.20005601809E+03  0.00000000000E+00 0. -1.
          1   -1    0    0  501    0 -0.00000000000E+00 -0.00000000000E+00 -0.47036237581E+03  0.47036237581E+03  0.00000000000E+00 0. -1.
         25    2    1    2    0    0 -0.23377782005E+01 -0.69849132465E+02 -0.42329824602E+03  0.44686725964E+03  0.12499830456E+03 0.  0.
          2    1    1    2  501    0  0.12867465753E+02  0.35939844524E+02 -0.22628942878E+02  0.44376943959E+02  0.00000000000E+00 0. -1.
          1    1    1    2  502    0 -0.10529687553E+02  0.33909287941E+02  0.17562083117E+03  0.17917419030E+03  0.00000000000E+00 0. -1.
         22    1    3    3    0    0 -0.56196104027E+01 -0.10421386778E+03 -0.35932104153E+03  0.37417071124E+03  0.00000000000E+00 0. -1.
         22    1    3    3    0    0  0.32818322021E+01  0.34364735318E+02 -0.63977204487E+02  0.72696548406E+02  0.00000000000E+00 0. -1.
</event>
<event>
 7    1  0.7527776E-006  0.6378004E+02  0.7818608E-02  0.1393628E+00
          2   -1    0    0  502    0  0.00000000000E+00  0.00000000000E+00  0.19911326553E+03  0.19911326553E+03  0.00000000000E+00 0. -1.
          1   -1    0    0  501    0 -0.00000000000E+00 -0.00000000000E+00 -0.11764000509E+03  0.11764000509E+03  0.00000000000E+00 0. -1.
         25    2    1    2    0    0  0.20037306918E+02 -0.32669281874E+02  0.65253016804E+02  0.14612445387E+03  0.12500249666E+03 0.  0.
          2    1    1    2  501    0 -0.34303827633E+02 -0.47221725565E+02 -0.41001944042E+02  0.71328839685E+02  0.00000000000E+00 0. -1.
          1    1    1    2  502    0  0.14266520715E+02  0.79891007439E+02  0.57222187680E+02  0.99299977069E+02  0.00000000000E+00 0. -1.
         22    1    3    3    0    0  0.32457241562E+02 -0.71272999033E+02  0.12063278431E+02  0.79239104030E+02  0.00000000000E+00 0.  1.
         22    1    3    3    0    0 -0.12419934644E+02  0.38603717159E+02  0.53189738373E+02  0.66885349840E+02  0.00000000000E+00 0.  1.
</event>
<event>
 7    1  0.7527776E-006  0.1079181E+03  0.7818608E-02  0.1283414E+00
          2   -1    0    0  502    0  0.00000000000E+00  0.00000000000E+00  0.84367108958E+03  0.84367108958E+03  0.00000000000E+00 0. -1.
          1   -1    0    0  501    0 -0.00000000000E+00 -0.00000000000E+00 -0.69492920493E+03  0.69492920493E+03  0.00000000000E+00 0. -1.
         25    2    1    2    0    0  0.38917280409E+02  0.27454508161E+02 -0.12845049101E+02  0.13438766628E+03  0.12500697912E+03 0.  0.
          2    1    1    2  501    0  0.69127353531E+02 -0.57572017259E+02 -0.61400086915E+03  0.62055635965E+03  0.00000000000E+00 0. -1.
          1    1    1    2  502    0 -0.10804463394E+03  0.30117509098E+02  0.77558780290E+03  0.78365626858E+03  0.00000000000E+00 0. -1.
         22    1    3    3    0    0  0.74346504373E+02 -0.76785589406E+01 -0.31513773453E+02  0.81113999390E+02  0.00000000000E+00 0.  1.
         22    1    3    3    0    0 -0.35429223964E+02  0.35133067102E+02  0.18668724352E+02  0.53273666887E+02  0.00000000000E+00 0.  1.
</event>
<event>
 7    1  0.7527776E-006  0.5278148E+02  0.7818608E-02  0.1475535E+00
          2   -1    0    0  502    0  0.00000000000E+00  0.00000000000E+00  0.51871991378E+03  0.51871991378E+03  0.00000000000E+00 0. -1.
          1   -1    0    0  501    0 -0.00000000000E+00 -0.00000000000E+00 -0.37230541751E+03  0.37230541751E+03  0.00000000000E+00 0. -1.
         25    2    1    2    0    0  0.39521104752E+02  0.53062531336E+02 -0.35804053121E+02  0.14589239234E+03  0.12500043987E+03 0.  0.
          2    1    1    2  501    0 -0.50041851945E+02 -0.16504803615E+02 -0.27819958815E+03  0.28314590997E+03  0.00000000000E+00 0. -1.
          1    1    1    2  502    0  0.10520747193E+02 -0.36557727720E+02  0.46041813754E+03  0.46198702899E+03  0.00000000000E+00 0. -1.
         22    1    3    3    0    0  0.48446780969E+02 -0.98981887660E+01 -0.60092557011E+02  0.77821463204E+02  0.00000000000E+00 0.  1.
         22    1    3    3    0    0 -0.89256762173E+01  0.62960720102E+02  0.24288503889E+02  0.68070929132E+02  0.00000000000E+00 0.  1.
</event>
<event>
 7    1  0.7527776E-006  0.5266413E+02  0.7818608E-02  0.1472540E+00
          2   -1    0    0  502    0  0.00000000000E+00  0.00000000000E+00  0.16962383220E+04  0.16962383220E+04  0.00000000000E+00 0. -1.
          1   -1    0    0  501    0 -0.00000000000E+00 -0.00000000000E+00 -0.31028048022E+02  0.31028048022E+02  0.00000000000E+00 0. -1.
         25    2    1    2    0    0 -0.73179805073E+01 -0.42703715161E+02  0.33744159854E+03  0.36244841313E+03  0.12499943852E+03 0.  0.
          2    1    1    2  501    0  0.38943453733E+02 -0.60107060984E+00  0.31074990430E+01  0.39071862315E+02  0.00000000000E+00 0. -1.
          1    1    1    2  502    0 -0.31625473225E+02  0.43304785771E+02  0.13246611764E+04  0.13257460946E+04  0.00000000000E+00 0. -1.
         22    1    3    3    0    0 -0.59787547478E+02  0.15112416457E+01  0.11438039780E+03  0.12907249934E+03  0.00000000000E+00 0. -1.
         22    1    3    3    0    0  0.52469566971E+02 -0.44214956806E+02  0.22306120075E+03  0.23337591380E+03  0.00000000000E+00 0. -1.
</event>
<event>
 7    1  0.7527776E-006  0.5711599E+02  0.7818608E-02  0.1421911E+00
          2   -1    0    0  502    0  0.00000000000E+00  0.00000000000E+00  0.19009039676E+04  0.19009039676E+04  0.00000000000E+00 0. -1.
          1   -1    0    0  501    0 -0.00000000000E+00 -0.00000000000E+00 -0.18860669768E+03  0.18860669768E+03  0.00000000000E+00 0. -1.
         25    2    1    2    0    0  0.20172385414E+02  0.93451112448E+02  0.50159381787E+03  0.52570014501E+03  0.12499699513E+03 0.  0.
          2    1    1    2  501    0  0.14867200236E+02 -0.50069789521E+02 -0.17211634699E+03  0.17986676838E+03  0.00000000000E+00 0. -1.
          1    1    1    2  502    0 -0.35039585650E+02 -0.43381322927E+02  0.13828197991E+04  0.13839437519E+04  0.00000000000E+00 0. -1.
         22    1    3    3    0    0  0.10885821853E+02  0.12583825807E+02 -0.89317635732E+00  0.16662879504E+02  0.00000000000E+00 0.  1.
         22    1    3    3    0    0  0.92865635609E+01  0.80867286641E+02  0.50248699422E+03  0.50903726551E+03  0.00000000000E+00 0.  1.
</event>
<event>
 7    1  0.7527776E-006  0.1020117E+03  0.7818608E-02  0.1329468E+00
          2   -1    0    0  502    0  0.00000000000E+00  0.00000000000E+00  0.37555472234E+04  0.37555472234E+04  0.00000000000E+00 0. -1.
          1   -1    0    0  501    0 -0.00000000000E+00 -0.00000000000E+00 -0.17220191659E+03  0.17220191659E+03  0.00000000000E+00 0. -1.
         25    2    1    2    0    0  0.10197255912E+03  0.78452842620E+02  0.50491720466E+03  0.53583549799E+03  0.12500018403E+03 0.  0.
          2    1    1    2  501    0 -0.41165369416E+02 -0.92935074003E+02 -0.13992886203E+03  0.17294970959E+03  0.00000000000E+00 0. -1.
          1    1    1    2  502    0 -0.60807189705E+02  0.14482231383E+02  0.32183569642E+04  0.32189639324E+04  0.00000000000E+00 0. -1.
         22    1    3    3    0    0 -0.12508212304E+02  0.60783874416E+02  0.21026787727E+03  0.21923438365E+03  0.00000000000E+00 0. -1.
         22    1    3    3    0    0  0.11448077143E+03  0.17668968205E+02  0.29464932739E+03  0.31660111433E+03  0.00000000000E+00 0. -1.
</event>
<event>
 7    1  0.7527776E-006  0.7278764E+02  0.7818608E-02  0.1441217E+00
          2   -1    0    0  502    0  0.00000000000E+00  0.00000000000E+00  0.95800959207E+03  0.95800959207E+03  0.00000000000E+00 0. -1.
          1   -1    0    0  501    0 -0.00000000000E+00 -0.00000000000E+00 -0.29844349207E+03  0.29844349207E+03  0.00000000000E+00 0. -1.
         25    2    1    2    0    0  0.10279143361E+03  0.68680134214E+01  0.26288526574E+02  0.16409927797E+03  0.12499695184E+03 0.  0.
          2    1    1    2  501    0 -0.31282320018E+02 -0.16605356742E+02 -0.22665139530E+03  0.22940177944E+03  0.00000000000E+00 0. -1.
          1    1    1    2  502    0 -0.71509113593E+02  0.97373433207E+01  0.85992896873E+03  0.86295202673E+03  0.00000000000E+00 0. -1.
         22    1    3    3    0    0  0.69163184136E+01 -0.21390732547E+02  0.55570311523E+02  0.59945462063E+02  0.00000000000E+00 0.  1.
         22    1    3    3    0    0  0.95875115197E+02  0.28258745968E+02 -0.29281784948E+02  0.10415381590E+03  0.00000000000E+00 0.  1.
</event>
<event>
 7    1  0.7527776E-006  0.2920130E+02  0.7818608E-02  0.1646591E+00
          2   -1    0    0  502    0  0.00000000000E+00  0.00000000000E+00  0.63133346988E+03  0.63133346988E+03  0.00000000000E+00 0. -1.
          1   -1    0    0  501    0 -0.00000000000E+00 -0.00000000000E+00 -0.10986948303E+04  0.10986948303E+04  0.00000000000E+00 0. -1.
         25    2    1    2    0    0  0.51147601599E+02 -0.40080233011E+00 -0.28359864833E+03  0.31411615465E+03  0.12499810994E+03 0.  0.
          2    1    1    2  501    0 -0.22473549009E+02  0.57950440466E+01 -0.79932344859E+03  0.79966031439E+03  0.00000000000E+00 0. -1.
          1    1    1    2  502    0 -0.28674052590E+02 -0.53942417165E+01  0.61556073647E+03  0.61625183117E+03  0.00000000000E+00 0. -1.
         22    1    3    3    0    0  0.78699340380E+02 -0.69980665587E+01 -0.95733267196E+02  0.12412661906E+03  0.00000000000E+00 0. -1.
         22    1    3    3    0    0 -0.27551738781E+02  0.65972642286E+01 -0.18786538114E+03  0.18998953559E+03  0.00000000000E+00 0. -1.
</event>
<event>
 7    1  0.7527776E-006  0.1817992E+03  0.7818608E-02  0.1344743E+00
          2   -1    0    0  502    0  0.00000000000E+00  0.00000000000E+00  0.92383904906E+03  0.92383904906E+03  0.00000000000E+00 0. -1.
          1   -1    0    0  501    0 -0.00000000000E+00 -0.00000000000E+00 -0.15760513576E+04  0.15760513576E+04  0.00000000000E+00 0. -1.
         25    2    1    2    0    0 -0.14576422840E+03  0.59090949737E+02 -0.77985851634E+03  0.80532180323E+03  0.12499980249E+03 0.  0.
          2    1    1    2  501    0 -0.14713745355E+02  0.26955172568E+02 -0.77405566119E+03  0.77466459984E+03  0.00000000000E+00 0. -1.
          1    1    1    2  502    0  0.16047797375E+03 -0.86046122305E+02  0.90170186900E+03  0.91990400357E+03  0.00000000000E+00 0. -1.
         22    1    3    3    0    0 -0.13288607180E+03  0.49013609991E+02 -0.38668881117E+03  0.41181218866E+03  0.00000000000E+00 0. -1.
         22    1    3    3    0    0 -0.12878156594E+02  0.10077339746E+02 -0.39316970517E+03  0.39350961457E+03  0.00000000000E+00 0. -1.
</event>
<event>
 7    1  0.7527776E-006  0.6917795E+02  0.7818608E-02  0.1460394E+00
          2   -1    0    0  502    0  0.00000000000E+00  0.00000000000E+00  0.23902452344E+03  0.23902452344E+03  0.00000000000E+00 0. -1.
          1   -1    0    0  501    0 -0.00000000000E+00 -0.00000000000E+00 -0.31990917526E+03  0.31990917526E+03  0.00000000000E+00 0. -1.
         25    2    1    2    0    0 -0.35535082776E+02 -0.22915554588E+02 -0.19975109208E+03  0.23940219699E+03  0.12500019356E+03 0.  0.
          2    1    1    2  501    0 -0.32000629655E+02  0.48083903636E+01 -0.91920540035E+02  0.97450226251E+02  0.00000000000E+00 0. -1.
          1    1    1    2  502    0  0.67535712431E+02  0.18107164224E+02  0.21078698029E+03  0.22208127546E+03  0.00000000000E+00 0. -1.
         22    1    3    3    0    0 -0.60161545158E+02  0.40852704168E+01 -0.19304991261E+03  0.20224828729E+03  0.00000000000E+00 0. -1.
         22    1    3    3    0    0  0.24626462381E+02 -0.27000825005E+02 -0.67011794622E+01  0.37153909707E+02  0.00000000000E+00 0. -1.
</event>
<event>
 7    1  0.7527776E-006  0.1815584E+03  0.7818608E-02  0.1182404E+00
          2   -1    0    0  502    0  0.00000000000E+00  0.00000000000E+00  0.11486789583E+04  0.11486789583E+04  0.00000000000E+00 0. -1.
          1   -1    0    0  501    0 -0.00000000000E+00 -0.00000000000E+00 -0.14973094278E+04  0.14973094278E+04  0.00000000000E+00 0. -1.
         25    2    1    2    0    0 -0.51699107085E+02  0.16875287306E+02  0.24345678533E+02  0.13847403388E+03  0.12499909200E+03 0.  0.
          2    1    1    2  501    0 -0.12127935486E+03  0.90347970226E+02 -0.14265097396E+04  0.14345039125E+04  0.00000000000E+00 0. -1.
          1    1    1    2  502    0  0.17297846194E+03 -0.10722325753E+03  0.10535335916E+04  0.10730104397E+04  0.00000000000E+00 0. -1.
         22    1    3    3    0    0 -0.91349902200E+02  0.73601358531E+01  0.31830496147E+02  0.97016270371E+02  0.00000000000E+00 0.  1.
         22    1    3    3    0    0  0.39650795115E+02  0.95151514529E+01 -0.74848176147E+01  0.41457763509E+02  0.00000000000E+00 0.  1.
</event>
<event>
 7    1  0.7527776E-006  0.6713504E+02  0.7818608E-02  0.1445234E+00
          2   -1    0    0  502    0  0.00000000000E+00  0.00000000000E+00  0.16947612298E+04  0.16947612298E+04  0.00000000000E+00 0. -1.
          1   -1    0    0  501    0 -0.00000000000E+00 -0.00000000000E+00 -0.76892454320E+03  0.76892454320E+03  0.00000000000E+00 0. -1.
         25    2    1    2    0    0  0.47354192934E+02  0.39168252990E+02 -0.39555034901E+02  0.14479435813E+03  0.12499693488E+03 0.  0.
          2    1    1    2  501    0 -0.67198895585E+02 -0.76230493679E+01 -0.67484803113E+03  0.67822832996E+03  0.00000000000E+00 0. -1.
          1    1    1    2  502    0  0.19844702651E+02 -0.31545203622E+02  0.16402397526E+04  0.16406630849E+04  0.00000000000E+00 0. -1.
         22    1    3    3    0    0  0.62874406186E+02  0.24820299246E+01  0.26001845950E+02  0.68084120165E+02  0.00000000000E+00 0.  1.
         22    1    3    3    0    0 -0.15520213252E+02  0.36686223066E+02 -0.65556880851E+02  0.76710237968E+02  0.00000000000E+00 0.  1.
</event>
<event>
 7    1  0.7527776E-006  0.1458526E+03  0.7818608E-02  0.1284467E+00
          2   -1    0    0  502    0  0.00000000000E+00  0.00000000000E+00  0.56288070250E+03  0.56288070250E+03  0.00000000000E+00 0. -1.
          1   -1    0    0  501    0 -0.00000000000E+00 -0.00000000000E+00 -0.10162588440E+04  0.10162588440E+04  0.00000000000E+00 0. -1.
         25    2    1    2    0    0  0.19097397542E+03 -0.71061087470E+02 -0.16380806870E+02  0.23962169987E+03  0.12501796182E+03 0.  0.
          2    1    1    2  501    0 -0.12509527018E+03  0.69218243178E+02 -0.88005150808E+03  0.89158883387E+03  0.00000000000E+00 0. -1.
          1    1    1    2  502    0 -0.65878705238E+02  0.18428442916E+01  0.44305417344E+03  0.44792901277E+03  0.00000000000E+00 0. -1.
         22    1    3    3    0    0  0.10489327162E+03 -0.68660943860E+02  0.45728084945E+02  0.13344654883E+03  0.00000000000E+00 0. -1.
         22    1    3    3    0    0  0.86080703798E+02 -0.24001436098E+01 -0.62108891815E+02  0.10617515104E+03  0.00000000000E+00 0. -1.
</event>
<event>
 7    1  0.7527776E-006  0.6551687E+02  0.7818608E-02  0.1426816E+00
          2   -1    0    0  502    0  0.00000000000E+00  0.00000000000E+00  0.11368042040E+04  0.11368042040E+04  0.00000000000E+00 0. -1.
          1   -1    0    0  501    0 -0.00000000000E+00 -0.00000000000E+00 -0.72132477627E+03  0.72132477627E+03  0.00000000000E+00 0. -1.
         25    2    1    2    0    0  0.84349824757E+02 -0.64992256174E+02  0.82729783895E+02  0.18387336159E+03  0.12500523852E+03 0.  0.
          2    1    1    2  501    0 -0.57593415040E+02  0.30241313681E+02 -0.66869473855E+03  0.67185131679E+03  0.00000000000E+00 0. -1.
          1    1    1    2  502    0 -0.26756409717E+02  0.34750942493E+02  0.10014443824E+04  0.10024043019E+04  0.00000000000E+00 0. -1.
         22    1    3    3    0    0 -0.88540276740E+01 -0.59898447970E+01  0.72283958588E+02  0.73070121910E+02  0.00000000000E+00 0.  1.
         22    1    3    3    0    0  0.93203852431E+02 -0.59002411377E+02  0.10445825307E+02  0.11080323968E+03  0.00000000000E+00 0.  1.
</event>
<event>
 7    1  0.7527776E-006  0.2620095E+02  0.7818608E-02  0.1669427E+00
          2   -1    0    0  502    0  0.00000000000E+00  0.00000000000E+00  0.10310791269E+04  0.10310791269E+04  0.00000000000E+00 0. -1.
          1   -1    0    0  501    0 -0.00000000000E+00 -0.00000000000E+00 -0.13140631708E+03  0.13140631708E+03  0.00000000000E+00 0. -1.
         25    2    1    2    0    0 -0.79433676938E+01  0.41899159046E+02  0.21888694328E+03  0.25564585690E+03  0.12499869436E+03 0.  0.
          2    1    1    2  501    0 -0.80281233619E+01 -0.21303620426E+02 -0.11166405063E+03  0.11396120046E+03  0.00000000000E+00 0. -1.
          1    1    1    2  502    0  0.15971491056E+02 -0.20595538620E+02  0.79244991719E+03  0.79287838663E+03  0.00000000000E+00 0. -1.
         22    1    3    3    0    0  0.53514968353E+02 -0.63673534976E+01  0.86467754174E+02  0.10188752397E+03  0.00000000000E+00 0. -1.
         22    1    3    3    0    0 -0.61458336047E+02  0.48266512543E+02  0.13241918911E+03  0.15375833294E+03  0.00000000000E+00 0. -1.
</event>
<event>
 7    1  0.7527776E-006  0.3876022E+03  0.7818608E-02  0.1236787E+00
          2   -1    0    0  502    0  0.00000000000E+00  0.00000000000E+00  0.70344489266E+03  0.70344489266E+03  0.00000000000E+00 0. -1.
          1   -1    0    0  501    0 -0.00000000000E+00 -0.00000000000E+00 -0.16105098557E+04  0.16105098557E+04  0.00000000000E+00 0. -1.
         25    2    1    2    0    0 -0.36557984615E+03  0.98226613319E+02  0.24364814327E+03  0.46721104319E+03  0.12499859872E+03 0.  0.
          2    1    1    2  501    0 -0.26083267103E+02 -0.29809793124E+02 -0.13847938937E+04  0.13853602739E+04  0.00000000000E+00 0. -1.
          1    1    1    2  502    0  0.39166311326E+03 -0.68416820195E+02  0.23408078741E+03  0.46138343122E+03  0.00000000000E+00 0. -1.
         22    1    3    3    0    0 -0.34096483284E+03  0.65534420785E+02  0.24707802388E+03  0.42614472592E+03  0.00000000000E+00 0.  1.
         22    1    3    3    0    0 -0.24615013308E+02  0.32692192534E+02 -0.34298806149E+01  0.41066317266E+02  0.00000000000E+00 0.  1.
</event>
<event>
 7    1  0.7527776E-006  0.7160715E+02  0.7818608E-02  0.1436337E+00
          2   -1    0    0  502    0  0.00000000000E+00  0.00000000000E+00  0.50228889775E+03  0.50228889775E+03  0.00000000000E+00 0. -1.
          1   -1    0    0  501    0 -0.00000000000E+00 -0.00000000000E+00 -0.87214274144E+02  0.87214274144E+02  0.00000000000E+00 0. -1.
         25    2    1    2    0    0  0.49965317351E+02  0.16256698219E+02  0.13081146230E+03  0.18840998741E+03  0.12500348599E+03 0.  0.
          2    1    1    2  501    0 -0.53145419147E+02 -0.53460934141E+02 -0.32533744234E+02  0.82103298164E+02  0.00000000000E+00 0. -1.
          1    1    1    2  502    0  0.31801017952E+01  0.37204235923E+02  0.31679690553E+03  0.31898988632E+03  0.00000000000E+00 0. -1.
         22    1    3    3    0    0  0.86050492064E+02 -0.13018253867E+02  0.68905236939E+02  0.11100492690E+03  0.00000000000E+00 0. -1.
         22    1    3    3    0    0 -0.36085174712E+02  0.29274952086E+02  0.61906225365E+02  0.77405060510E+02  0.00000000000E+00 0. -1.
</event>
<event>
 7    1  0.7527776E-006  0.6419256E+02  0.7818608E-02  0.1387918E+00
          2   -1    0    0  502    0  0.00000000000E+00  0.00000000000E+00  0.17825222849E+04  0.17825222849E+04  0.00000000000E+00 0. -1.
          1   -1    0    0  501    0 -0.00000000000E+00 -0.00000000000E+00 -0.10133751264E+03  0.10133751264E+03  0.00000000000E+00 0. -1.
         25    2    1    2    0    0  0.59234634560E+02 -0.61109993943E+02  0.46140468045E+02  0.15810835152E+03  0.12500453887E+03 0.  0.
          2    1    1    2  501    0 -0.60631300004E+02 -0.31125760744E+01 -0.24132467129E+02  0.65331605213E+02  0.00000000000E+00 0. -1.
          1    1    1    2  502    0  0.13966654435E+01  0.64222570017E+02  0.16591767714E+04  0.16604198408E+04  0.00000000000E+00 0. -1.
         22    1    3    3    0    0  0.41259575385E+02 -0.74370197048E+02  0.80514228002E+02  0.11711455794E+03  0.00000000000E+00 0. -1.
         22    1    3    3    0    0  0.17975059175E+02  0.13260203105E+02 -0.34373759956E+02  0.40993793582E+02  0.00000000000E+00 0. -1.
</event>
<event>
 7    1  0.7527776E-006  0.3634110E+03  0.7818608E-02  0.1207905E+00
          2   -1    0    0  502    0  0.00000000000E+00  0.00000000000E+00  0.15583233266E+04  0.15583233266E+04  0.00000000000E+00 0. -1.
          1   -1    0    0  501    0 -0.00000000000E+00 -0.00000000000E+00 -0.17929236964E+04  0.17929236964E+04  0.00000000000E+00 0. -1.
         25    2    1    2    0    0 -0.11034019458E+03  0.39306353029E+03 -0.74636021544E+02  0.43343881210E+03  0.12499908295E+03 0.  0.
          2    1    1    2  501    0  0.12160382164E+03 -0.33703939518E+03 -0.15174204947E+04  0.15591497687E+04  0.00000000000E+00 0. -1.
          1    1    1    2  502    0 -0.11263627053E+02 -0.56024135108E+02  0.13574561465E+04  0.13586584422E+04  0.00000000000E+00 0. -1.
         22    1    3    3    0    0  0.25273789085E+01  0.17491376796E+03  0.56745436575E+01  0.17502403924E+03  0.00000000000E+00 0.  1.
         22    1    3    3    0    0 -0.11286757349E+03  0.21814976233E+03 -0.80310565201E+02  0.25841477286E+03  0.00000000000E+00 0.  1.
</event>
<event>
 7    1  0.7527776E-006  0.6801189E+02  0.7818608E-02  0.1473078E+00
          2   -1    0    0  502    0  0.00000000000E+00  0.00000000000E+00  0.27221558815E+02  0.27221558815E+02  0.00000000000E+00 0. -1.
          1   -1    0    0  501    0 -0.00000000000E+00 -0.00000000000E+00 -0.99039018479E+03  0.99039018479E+03  0.00000000000E+00 0. -1.
         25    2    1    2    0    0 -0.50709992984E+02  0.15888530235E+02 -0.24810200838E+03  0.28285061601E+03  0.12500366250E+03 0.  0.
          2    1    1    2  501    0  0.52793554037E+02 -0.45859601416E+02 -0.69527862350E+03  0.69878653871E+03  0.00000000000E+00 0. -1.
          1    1    1    2  502    0 -0.20835610530E+01  0.29971071181E+02 -0.19787994094E+02  0.35974588874E+02  0.00000000000E+00 0. -1.
         22    1    3    3    0    0 -0.88261857395E+02 -0.65265384033E+01 -0.19436993891E+03  0.21357065418E+03  0.00000000000E+00 0.  1.
         22    1    3    3    0    0  0.37551864411E+02  0.22415068638E+02 -0.53732069466E+02  0.69279961835E+02  0.00000000000E+00 0.  1.
</event>
<event>
 7    1  0.7527776E-006  0.6833081E+02  0.7818608E-02  0.1417908E+00
          2   -1    0    0  502    0  0.00000000000E+00  0.00000000000E+00  0.19575047129E+04  0.19575047129E+04  0.00000000000E+00 0. -1.
          1   -1    0    0  501    0 -0.00000000000E+00 -0.00000000000E+00 -0.73181451758E+02  0.73181451758E+02  0.00000000000E+00 0. -1.
         25    2    1    2    0    0 -0.23042784709E+02  0.10749036132E+03  0.41091665630E+03  0.44335325285E+03  0.12499784270E+03 0.  0.
          2    1    1    2  501    0  0.20746943123E+00 -0.45022692616E+02 -0.47224750109E+02  0.65247704303E+02  0.00000000000E+00 0. -1.
          1    1    1    2  502    0  0.22835315278E+02 -0.62467668708E+02  0.15206313549E+04  0.15220852075E+04  0.00000000000E+00 0. -1.
         22    1    3    3    0    0  0.78690053587E+01  0.11509866825E+03  0.20710006474E+03  0.23706552152E+03  0.00000000000E+00 0.  1.
         22    1    3    3    0    0 -0.30911790068E+02 -0.76083069287E+01  0.20381659156E+03  0.20628773133E+03  0.00000000000E+00 0.  1.
</event>
<event>
 7    1  0.7527776E-006  0.9848641E+02  0.7818608E-02  0.1354783E+00
          2   -1    0    0  502    0  0.00000000000E+00  0.00000000000E+00  0.44429169405E+03  0.44429169405E+03  0.00000000000E+00 0. -1.
          1   -1    0    0  501    0 -0.00000000000E+00 -0.00000000000E+00 -0.58466201843E+03  0.58466201843E+03  0.00000000000E+00 0. -1.
         25    2    1    2    0    0  0.76233727678E+01  0.99736798667E+02  0.23506089785E+03  0.28440182003E+03  0.12500089888E+03 0.  0.
          2    1    1    2  501    0 -0.51549975963E+02 -0.70682386791E+01 -0.54440870074E+03  0.54688956240E+03  0.00000000000E+00 0. -1.
          1    1    1    2  502    0  0.43926603196E+02 -0.92668559988E+02  0.16897747851E+03  0.19766233005E+03  0.00000000000E+00 0. -1.
         22    1    3    3    0    0 -0.48410995213E+02  0.56637492776E+02  0.17995244168E+03  0.19476732609E+03  0.00000000000E+00 0. -1.
         22    1    3    3    0    0  0.56034367981E+02  0.43099305891E+02  0.55108456173E+02  0.89634493947E+02  0.00000000000E+00 0. -1.
</event>
<event>
 7    1  0.7527776E-006  0.7482189E+02  0.7818608E-02  0.1424703E+00
          2   -1    0    0  502    0  0.00000000000E+00  0.00000000000E+00  0.20030794942E+03  0.20030794942E+03  0.00000000000E+00 0. -1.
          1   -1    0    0  501    0 -0.00000000000E+00 -0.00000000000E+00 -0.46724993866E+03  0.46724993866E+03  0.00000000000E+00 0. -1.
         25    2    1    2    0    0  0.16755011033E+02 -0.10958988840E+03 -0.19376962601E+03  0.25585207110E+03  0.12499176088E+03 0.  0.
          2    1    1    2  501    0  0.34885422817E+01  0.38871552878E+02 -0.23274523608E+03  0.23599472974E+03  0.00000000000E+00 0. -1.
          1    1    1    2  502    0 -0.20243553314E+02  0.70718335526E+02  0.15957287284E+03  0.17571108724E+03  0.00000000000E+00 0. -1.
         22    1    3    3    0    0  0.10476160588E+02  0.10717983422E+02  0.10780352355E+02  0.18461882520E+02  0.00000000000E+00 0. -1.
         22    1    3    3    0    0  0.62788504451E+01 -0.12030787183E+03 -0.20454997836E+03  0.23739018858E+03  0.00000000000E+00 0. -1.
</event>
<event>
 7    1  0.7527776E-006  0.4327919E+02  0.7818608E-02  0.1523701E+00
          2   -1    0    0  502    0  0.00000000000E+00  0.00000000000E+00  0.46038623102E+03  0.46038623102E+03  0.00000000000E+00 0. -1.
          1   -1    0    0  501    0 -0.00000000000E+00 -0.00000000000E+00 -0.65707381886E+02  0.65707381886E+02  0.00000000000E+00 0. -1.
         25    2    1    2    0    0  0.20694463727E+02  0.79417280304E+01  0.48626226870E+02  0.13594390379E+03  0.12499961266E+03 0.  0.
          2    1    1    2  501    0  0.18954764810E+02 -0.27394678299E+02 -0.72539078886E+01  0.34093557863E+02  0.00000000000E+00 0. -1.
          1    1    1    2  502    0 -0.39649228537E+02  0.19452950269E+02  0.35330653015E+03  0.35605615126E+03  0.00000000000E+00 0. -1.
         22    1    3    3    0    0  0.49472753860E+02 -0.44285856457E+02  0.33754549175E+02  0.74485972147E+02  0.00000000000E+00 0. -1.
         22    1    3    3    0    0 -0.28778290133E+02  0.52227584487E+02  0.14871677695E+02  0.61457931643E+02  0.00000000000E+00 0. -1.
</event>
<event>
 7    1  0.7527776E-006  0.1013794E+03  0.7818608E-02  0.1307801E+00
          2   -1    0    0  502    0  0.00000000000E+00  0.00000000000E+00  0.18816412881E+03  0.18816412881E+03  0.00000000000E+00 0. -1.
          1   -1    0    0  501    0 -0.00000000000E+00 -0.00000000000E+00 -0.21725127548E+03  0.21725127548E+03  0.00000000000E+00 0. -1.
         25    2    1    2    0    0 -0.14049893200E+01 -0.57228538093E+02 -0.96248741759E+02  0.16782686787E+03  0.12499983088E+03 0.  0.
          2    1    1    2  501    0  0.69752119463E+02 -0.31081515176E+02 -0.37022875683E+02  0.84865258375E+02  0.00000000000E+00 0. -1.
          1    1    1    2  502    0 -0.68347130143E+02  0.88310053270E+02  0.10418447077E+03  0.15272327805E+03  0.00000000000E+00 0. -1.
         22    1    3    3    0    0  0.50983375086E+02  0.29619322130E+01 -0.13397447973E+02  0.52797435447E+02  0.00000000000E+00 0. -1.
         22    1    3    3    0    0 -0.52388364406E+02 -0.60190470307E+02 -0.82851293786E+02  0.11502943242E+03  0.00000000000E+00 0. -1.
</event>
<event>
 7    1  0.7527776E-006  0.1090884E+03  0.7818608E-02  0.1355091E+00
          2   -1    0    0  502    0  0.00000000000E+00  0.00000000000E+00  0.15371166631E+04  0.15371166631E+04  0.00000000000E+00 0. -1.
          1   -1    0    0  501    0 -0.00000000000E+00 -0.00000000000E+00 -0.31358515784E+03  0.31358515784E+03  0.00000000000E+00 0. -1.
         25    2    1    2    0    0 -0.13563948524E+02 -0.15039141749E+03  0.14285040586E+03  0.24255475211E+03  0.12500004064E+03 0.  0.
          2    1    1    2  501    0 -0.10229448280E+02  0.45722809960E+02 -0.25948915468E+03  0.26368511213E+03  0.00000000000E+00 0. -1.
          1    1    1    2  502    0  0.23793396805E+02  0.10466860753E+03  0.13401702541E+04  0.13444619567E+04  0.00000000000E+00 0. -1.
         22    1    3    3    0    0 -0.38872517473E+02 -0.13115905754E+03  0.52074954604E+02  0.14637476519E+03  0.00000000000E+00 0. -1.
         22    1    3    3    0    0  0.25308568948E+02 -0.19232359955E+02  0.90775451257E+02  0.96179986913E+02  0.00000000000E+00 0. -1.
</event>
<event>
 7    1  0.7527776E-006  0.1356362E+03  0.7818608E-02  0.1389582E+00
          2   -1    0    0  502    0  0.00000000000E+00  0.00000000000E+00  0.45167653537E+03  0.45167653537E+03  0.00000000000E+00 0. -1.
          1   -1    0    0  501    0 -0.00000000000E+00 -0.00000000000E+00 -0.53320749822E+03  0.53320749822E+03  0.00000000000E+00 0. -1.
         25    2    1    2    0    0  0.69661344045E+02 -0.11170983663E+03  0.58896394953E+02  0.19085300214E+03  0.12499717050E+03 0.  0.
          2    1    1    2  501    0 -0.94497210679E+02  0.98038026099E+02 -0.45666076853E+03  0.47652936415E+03  0.00000000000E+00 0. -1.
          1    1    1    2  502    0  0.24835866634E+02  0.13671810534E+02  0.31623341072E+03  0.31750166729E+03  0.00000000000E+00 0. -1.
         22    1    3    3    0    0  0.71276449568E+02 -0.17344413432E+02 -0.99546356086E+01  0.74028749216E+02  0.00000000000E+00 0. -1.
         22    1    3    3    0    0 -0.16151055232E+01 -0.94365423201E+02  0.68851030561E+02  0.11682425292E+03  0.00000000000E+00 0. -1.
</event>
<event>
 7    1  0.7527776E-006  0.9100560E+02  0.7818608E-02  0.1314142E+00
          2   -1    0    0  502    0  0.00000000000E+00  0.00000000000E+00  0.11542669458E+04  0.11542669458E+04  0.00000000000E+00 0. -1.
          1   -1    0    0  501    0 -0.00000000000E+00 -0.00000000000E+00 -0.10332011990E+04  0.10332011990E+04  0.00000000000E+00 0. -1.
         25    2    1    2    0    0  0.13570145802E+03 -0.60651709411E+02  0.11872095681E+02  0.19457352768E+03  0.12499758180E+03 0.  0.
          2    1    1    2  501    0 -0.45732860142E+02  0.66027450135E+02 -0.93819926043E+03  0.94163101634E+03  0.00000000000E+00 0. -1.
          1    1    1    2  502    0 -0.89968597879E+02 -0.53757407239E+01  0.10473929115E+04  0.10512636008E+04  0.00000000000E+00 0. -1.
         22    1    3    3    0    0  0.95256542889E+02  0.40877742918E+00 -0.41544895483E+02  0.10392282907E+03  0.00000000000E+00 0.  1.
         22    1    3    3    0    0  0.40444915131E+02 -0.61060486840E+02  0.53416991163E+02  0.90650698608E+02  0.00000000000E+00 0.  1.
</event>
<event>
 7    1  0.7527776E-006  0.3189778E+02  0.7818608E-02  0.1623296E+00
          2   -1    0    0  502    0  0.00000000000E+00  0.00000000000E+00  0.97656539164E+03  0.97656539164E+03  0.00000000000E+00 0. -1.
          1   -1    0    0  501    0 -0.00000000000E+00 -0.00000000000E+00 -0.13363023508E+04  0.13363023508E+04  0.00000000000E+00 0. -1.
         25    2    1    2    0    0  0.21169578196E+02  0.30548239421E+02 -0.14639513289E+03  0.19606066197E+03  0.12500760884E+03 0.  0.
          2    1    1    2  501    0  0.96481751770E+01 -0.22296784786E+02 -0.11646803773E+04  0.11649337385E+04  0.00000000000E+00 0. -1.
          1    1    1    2  502    0 -0.30817753373E+02 -0.82514546344E+01  0.95133855103E+03  0.95187334194E+03  0.00000000000E+00 0. -1.
         22    1    3    3    0    0 -0.78772532008E+01 -0.32871876650E+02 -0.11445166458E+03  0.11933899161E+03  0.00000000000E+00 0. -1.
         22    1    3    3    0    0  0.29046831397E+02  0.63420116070E+02 -0.31943468306E+02  0.76721670367E+02  0.00000000000E+00 0. -1.
</event>
<event>
 7    1  0.7527776E-006  0.6158939E+02  0.7818608E-02  0.1427838E+00
          2   -1    0    0  502    0  0.00000000000E+00  0.00000000000E+00  0.37495687072E+03  0.37495687072E+03  0.00000000000E+00 0. -1.
          1   -1    0    0  501    0 -0.00000000000E+00 -0.00000000000E+00 -0.40406974882E+03  0.40406974882E+03  0.00000000000E+00 0. -1.
         25    2    1    2    0    0  0.48892255104E+02 -0.53023571422E+02  0.25180483972E+03  0.29022833999E+03  0.12499944117E+03 0.  0.
          2    1    1    2  501    0 -0.33908349419E+01  0.61549616521E+02 -0.37707355256E+03  0.38207894092E+03  0.00000000000E+00 0. -1.
          1    1    1    2  502    0 -0.45501420162E+02 -0.85260450998E+01  0.96155834743E+02  0.10671933863E+03  0.00000000000E+00 0. -1.
         22    1    3    3    0    0 -0.70918939530E+01  0.20919137948E+02  0.15348842534E+03  0.15506966824E+03  0.00000000000E+00 0.  1.
         22    1    3    3    0    0  0.55984149057E+02 -0.73942709370E+02  0.98316414376E+02  0.13515867175E+03  0.00000000000E+00 0.  1.
</event>
<event>
 7    1  0.7527776E-006  0.3721776E+02  0.7818608E-02  0.1591963E+00
          2   -1    0    0  502    0  0.00000000000E+00  0.00000000000E+00  0.35450212918E+03  0.35450212918E+03  0.00000000000E+00 0. -1.
          1   -1    0    0  501    0 -0.00000000000E+00 -0.00000000000E+00 -0.33315291095E+03  0.33315291095E+03  0.00000000000E+00 0. -1.
         25    2    1    2    0    0 -0.18464211022E+01  0.19644674658E+02 -0.13545060434E+03  0.18536529450E+03  0.12499641465E+03 0.  0.
          2    1    1    2  501    0 -0.18438399558E+02 -0.34420554396E+02 -0.17005114157E+03  0.17447676032E+03  0.00000000000E+00 0. -1.
          1    1    1    2  502    0  0.20284820660E+02  0.14775879737E+02  0.32685096414E+03  0.32781298530E+03  0.00000000000E+00 0. -1.
         22    1    3    3    0    0 -0.35092714968E+02  0.17831033526E+02 -0.14538466218E+03  0.15061920328E+03  0.00000000000E+00 0.  1.
         22    1    3    3    0    0  0.33246293865E+02  0.18136411325E+01  0.99340578377E+01  0.34746091220E+02  0.00000000000E+00 0.  1.
</event>
<event>
 7    1  0.7527776E-006  0.1468868E+03  0.7818608E-02  0.1244930E+00
          2   -1    0    0  502    0  0.00000000000E+00  0.00000000000E+00  0.65874025670E+03  0.65874025670E+03  0.00000000000E+00 0. -1.
          1   -1    0    0  501    0 -0.00000000000E+00 -0.00000000000E+00 -0.14624707943E+04  0.14624707943E+04  0.00000000000E+00 0. -1.
         25    2    1    2    0    0  0.10938387893E+03 -0.16035084863E+03  0.22446122503E+03  0.32200123657E+03  0.12499890874E+03 0.  0.
          2    1    1    2  501    0  0.13451270311E+02  0.95293835275E+02 -0.13994647975E+04  0.14027699637E+04  0.00000000000E+00 0. -1.
          1    1    1    2  502    0 -0.12283514924E+03  0.65057013357E+02  0.37127303482E+03  0.39643985075E+03  0.00000000000E+00 0. -1.
         22    1    3    3    0    0 -0.26458650449E+02 -0.31744196140E+02  0.23881192630E+02  0.47729084776E+02  0.00000000000E+00 0.  1.
         22    1    3    3    0    0  0.13584252938E+03 -0.12860665249E+03  0.20058003240E+03  0.27427215180E+03  0.00000000000E+00 0.  1.
</event>
<event>
 7    1  0.7527776E-006  0.4984162E+02  0.7818608E-02  0.1447471E+00
          2   -1    0    0  502    0  0.00000000000E+00  0.00000000000E+00  0.88293029567E+03  0.88293029567E+03  0.00000000000E+00 0. -1.
          1   -1    0    0  501    0 -0.00000000000E+00 -0.00000000000E+00 -0.34597869479E+03  0.34597869479E+03  0.00000000000E+00 0. -1.
         25    2    1    2    0    0 -0.37994385663E+02  0.37121532534E+02  0.10077758674E+03  0.16912188142E+03  0.12499802905E+03 0.  0.
          2    1    1    2  501    0  0.48462541422E+02  0.11643432685E+02 -0.30897577208E+03  0.31296999086E+03  0.00000000000E+00 0. -1.
          1    1    1    2  502    0 -0.10468155759E+02 -0.48764965219E+02  0.74514978622E+03  0.74681711819E+03  0.00000000000E+00 0. -1.
         22    1    3    3    0    0  0.18771645113E+02  0.52252874443E+02  0.95072042405E+02  0.11009736961E+03  0.00000000000E+00 0.  1.
         22    1    3    3    0    0 -0.56766030776E+02 -0.15131341909E+02  0.57055443315E+01  0.59024511808E+02  0.00000000000E+00 0.  1.
</event>
<event>
 7    1  0.7527776E-006  0.8641081E+02  0.7818608E-02  0.1475514E+00
          2   -1    0    0  502    0  0.00000000000E+00  0.00000000000E+00  0.23219676903E+04  0.23219676903E+04  0.00000000000E+00 0. -1.
          1   -1    0    0  501    0 -0.00000000000E+00 -0.00000000000E+00 -0.28993945510E+03  0.28993945510E+03  0.00000000000E+00 0. -1.
         25    2    1    2    0    0 -0.49659090171E+02 -0.53681953250E+02  0.43133449765E+02  0.15108355479E+03  0.12497187163E+03 0.  0.
          2    1    1    2  501    0  0.74729964498E+01 -0.22005611213E+02 -0.23454623297E+03  0.23569477721E+03  0.00000000000E+00 0. -1.
          1    1    1    2  502    0  0.42186093721E+02  0.75687564463E+02  0.22234410184E+04  0.22251288134E+04  0.00000000000E+00 0. -1.
         22    1    3    3    0    0 -0.29454751981E+02 -0.91325908026E+02  0.49359329171E+02  0.10790897677E+03  0.00000000000E+00 0.  1.
         22    1    3    3    0    0 -0.20204338190E+02  0.37643954776E+02 -0.62258794058E+01  0.43174578020E+02  0.00000000000E+00 0.  1.
</event>
<event>
 7    1  0.7527776E-006  0.4792989E+02  0.7818608E-02  0.1476033E+00
          2   -1    0    0  502    0  0.00000000000E+00  0.00000000000E+00  0.39576171083E+03  0.39576171083E+03  0.00000000000E+00 0. -1.
          1   -1    0    0  501    0 -0.00000000000E+00 -0.00000000000E+00 -0.54571858933E+02  0.54571858933E+02  0.00000000000E+00 0. -1.
         25    2    1    2    0    0  0.17503194191E+02  0.36694509246E+02  0.14064962461E+03  0.19251105041E+03  0.12500135523E+03 0.  0.
          2    1    1    2  501    0  0.23289744677E+02 -0.45554968980E+02 -0.18259354371E+01  0.51195717068E+02  0.00000000000E+00 0. -1.
          1    1    1    2  502    0 -0.40792938868E+02  0.88604597335E+01  0.20236616272E+03  0.20662680229E+03  0.00000000000E+00 0. -1.
         22    1    3    3    0    0 -0.36614200774E+02  0.61706961930E+02  0.80081081055E+02  0.10752361783E+03  0.00000000000E+00 0.  1.
         22    1    3    3    0    0  0.54117394965E+02 -0.25012452684E+02  0.60568543553E+02  0.84987432572E+02  0.00000000000E+00 0.  1.
</event>
<event>
 7    1  0.7527776E-006  0.5241706E+02  0.7818608E-02  0.1461210E+00
          2   -1    0    0  502    0  0.00000000000E+00  0.00000000000E+00  0.68532457353E+03  0.68532457353E+03  0.00000000000E+00 0. -1.
          1   -1    0    0  501    0 -0.00000000000E+00 -0.00000000000E+00 -0.84351579339E+03  0.84351579339E+03  0.00000000000E+00 0. -1.
         25    2    1    2    0    0 -0.68141247694E+02  0.55322473901E+02 -0.25373826899E+03  0.29616162387E+03  0.12499917019E+03 0.  0.
          2    1    1    2  501    0  0.27657658484E+02 -0.42535013623E+02 -0.56675294699E+03  0.56901939895E+03  0.00000000000E+00 0. -1.
          1    1    1    2  502    0  0.40483589211E+02 -0.12787460278E+02  0.66229999613E+03  0.66365934409E+03  0.00000000000E+00 0. -1.
         22    1    3    3    0    0 -0.83617852977E+02 -0.11122322828E+02 -0.14697710679E+03  0.16946362832E+03  0.00000000000E+00 0. -1.
         22    1    3    3    0    0  0.15476605282E+02  0.66444796729E+02 -0.10676116220E+03  0.12669799555E+03  0.00000000000E+00 0. -1.
</event>
<event>
 7    1  0.7527776E-006  0.8174665E+02  0.7818608E-02  0.1360130E+00
          2   -1    0    0  502    0  0.00000000000E+00  0.00000000000E+00  0.23517016029E+04  0.23517016029E+04  0.00000000000E+00 0. -1.
          1   -1    0    0  501    0 -0.00000000000E+00 -0.00000000000E+00 -0.21585140161E+02  0.21585140161E+02  0.00000000000E+00 0. -1.
         25    2    1    2    0    0  0.49833589641E+02 -0.52687980732E+02  0.76763652114E+03  0.78112098553E+03  0.12499902192E+03 0.  0.
          2    1    1    2  501    0 -0.86120849797E+02  0.50019732156E+01  0.11658998315E+03  0.14503463268E+03  0.00000000000E+00 0. -1.
          1    1    1    2  502    0  0.36287260156E+02  0.47686007516E+02  0.14458899585E+04  0.14471311249E+04  0.00000000000E+00 0. -1.
         22    1    3    3    0    0 -0.18781925976E+02  0.22192620778E+02  0.65310951756E+02  0.71489814516E+02  0.00000000000E+00 0. -1.
         22    1    3    3    0    0  0.68615515617E+02 -0.74880601509E+02  0.70232556938E+03  0.70963117101E+03  0.00000000000E+00 0. -1.
</event>
<event>
 7    1  0.7527776E-006  0.2180417E+03  0.7818608E-02  0.1194764E+00
          2   -1    0    0  502    0  0.00000000000E+00  0.00000000000E+00  0.53167864062E+03  0.53167864062E+03  0.00000000000E+00 0. -1.
          1   -1    0    0  501    0 -0.00000000000E+00 -0.00000000000E+00 -0.43466216564E+03  0.43466216564E+03  0.00000000000E+00 0. -1.
         25    2    1    2    0    0  0.98075440246E+02  0.98652960129E+02  0.48962067272E+02  0.19332262102E+03  0.12500061297E+03 0.  0.
          2    1    1    2  501    0 -0.19477040947E+03 -0.15071340523E+03 -0.31148524992E+03  0.39708072711E+03  0.00000000000E+00 0. -1.
          1    1    1    2  502    0  0.96694969225E+02  0.52060445102E+02  0.35953965763E+03  0.37593745814E+03  0.00000000000E+00 0. -1.
         22    1    3    3    0    0  0.15341228338E+02  0.10293081717E+03  0.30507634766E+02  0.10844732449E+03  0.00000000000E+00 0. -1.
         22    1    3    3    0    0  0.82734211908E+02 -0.42778570436E+01  0.18454432506E+02  0.84875296524E+02  0.00000000000E+00 0. -1.
</event>
<event>
 7    1  0.7527776E-006  0.1009758E+03  0.7818608E-02  0.1287580E+00
          2   -1    0    0  502    0  0.00000000000E+00  0.00000000000E+00  0.12780565715E+04  0.12780565715E+04  0.00000000000E+00 0. -1.
          1   -1    0    0  501    0 -0.00000000000E+00 -0.00000000000E+00 -0.17700721596E+04  0.17700721596E+04  0.00000000000E+00 0. -1.
         25    2    1    2    0    0  0.33636931572E+02 -0.81946690279E+02  0.55021643710E+03  0.57114797984E+03  0.12500073601E+03 0.  0.
          2    1    1    2  501    0  0.79523036847E+02  0.47134631193E+02 -0.17534957169E+04  0.17559307549E+04  0.00000000000E+00 0. -1.
          1    1    1    2  502    0 -0.11315996842E+03  0.34812059086E+02  0.71126369175E+03  0.72104999626E+03  0.00000000000E+00 0. -1.
         22    1    3    3    0    0 -0.49089874960E+01 -0.69009951846E+02  0.11623868056E+03  0.13526973967E+03  0.00000000000E+00 0.  1.
         22    1    3    3    0    0  0.38545919068E+02 -0.12936738433E+02  0.43397775655E+03  0.43587824017E+03  0.00000000000E+00 0.  1.
</event>
<event>
 7    1  0.7527776E-006  0.4765063E+02  0.7818608E-02  0.1498516E+00
          2   -1    0    0  502    0  0.00000000000E+00  0.00000000000E+00  0.23295439807E+03  0.23295439807E+03  0.00000000000E+00 0. -1.
          1   -1    0    0  501    0 -0.00000000000E+00 -0.00000000000E+00 -0.21406138815E+03  0.21406138815E+03  0.00000000000E+00 0. -1.
         25    2    1    2    0    0  0.58199179121E+02 -0.53071675411E+02  0.10120408600E+03  0.17908370901E+03  0.12499984250E+03 0.  0.
          2    1    1    2  501    0 -0.29667969090E+02  0.20178520061E+02 -0.16801381558E+03  0.17180222143E+03  0.00000000000E+00 0. -1.
          1    1    1    2  502    0 -0.28531210031E+02  0.32893155350E+02  0.85702739497E+02  0.96129855778E+02  0.00000000000E+00 0. -1.
         22    1    3    3    0    0  0.19405956370E+01 -0.77590537029E+02  0.86027886863E+02  0.11586567510E+03  0.00000000000E+00 0. -1.
         22    1    3    3    0    0  0.56258583484E+02  0.24518861618E+02  0.15176199139E+02  0.63218033906E+02  0.00000000000E+00 0. -1.
</event>
<event>
 7    1  0.7527776E-006  0.4645690E+02  0.7818608E-02  0.1533641E+00
          2   -1    0    0  502    0  0.00000000000E+00  0.00000000000E+00  0.81225124623E+03  0.81225124623E+03  0.00000000000E+00 0. -1.
          1   -1    0    0  501    0 -0.00000000000E+00 -0.00000000000E+00 -0.43077934133E+02  0.43077934133E+02  0.00000000000E+00 0. -1.
         25    2    1    2    0    0 -0.13514227842E+02 -0.68951535290E+02  0.20801907037E+03  0.25265930403E+03  0.12501136629E+03 0.  0.
          2    1    1    2  501    0  0.18123942427E+02  0.40258362659E+02  0.35320823593E+01  0.44290954595E+02  0.00000000000E+00 0. -1.
          1    1    1    2  502    0 -0.46097145852E+01  0.28693172631E+02  0.55762215936E+03  0.55837892173E+03  0.00000000000E+00 0. -1.
         22    1    3    3    0    0 -0.38198780887E+02 -0.62466402560E+01  0.53424150335E+01  0.39073120865E+02  0.00000000000E+00 0.  1.
         22    1    3    3    0    0  0.24684553044E+02 -0.62704895034E+02  0.20267665534E+03  0.21358618317E+03  0.00000000000E+00 0.  1.
</event>
<event>
 7    1  0.7527776E-006  0.1186718E+03  0.7818608E-02  0.1284153E+00
          2   -1    0    0  502    0  0.00000000000E+00  0.00000000000E+00  0.10351367414E+04  0.10351367414E+04  0.00000000000E+00 0. -1.
          1   -1    0    0  501    0 -0.00000000000E+00 -0.00000000000E+00 -0.59583654548E+02  0.59583654548E+02  0.00000000000E+00 0. -1.
         25    2    1    2    0    0  0.37747023869E+02  0.34956780028E+02  0.47365635510E+03  0.49256708025E+03  0.12500068613E+03 0.  0.
          2    1    1    2  501    0 -0.82262830678E+02 -0.10291475236E+03  0.46730656431E+02  0.13979404070E+03  0.00000000000E+00 0. -1.
          1    1    1    2  502    0  0.44515806810E+02  0.67957972333E+02  0.45516607537E+03  0.46235927505E+03  0.00000000000E+00 0. -1.
         22    1    3    3    0    0  0.19989460865E+02  0.24991598149E+02  0.18519059426E+02  0.36974505889E+02  0.00000000000E+00 0.  1.
         22    1    3    3    0    0  0.17757563004E+02  0.99651818789E+01  0.45513729568E+03  0.45559257436E+03  0.00000000000E+00 0.  1.
</event>
<event>
 7    1  0.7527776E-006  0.4917757E+02  0.7818608E-02  0.1456172E+00
          2   -1    0    0  502    0  0.00000000000E+00  0.00000000000E+00  0.11314797839E+04  0.11314797839E+04  0.00000000000E+00 0. -1.
          1   -1    0    0  501    0 -0.00000000000E+00 -0.00000000000E+00 -0.61290755114E+02  0.61290755114E+02  0.00000000000E+00 0. -1.
         25    2    1    2    0    0 -0.30782631958E+02  0.85134900377E+02  0.20377802341E+03  0.25562807808E+03  0.12499883915E+03 0.  0.
          2    1    1    2  501    0  0.28971736217E+02 -0.36934530958E+02 -0.18837867543E+02  0.50580493573E+02  0.00000000000E+00 0. -1.
          1    1    1    2  502    0  0.18108957413E+01 -0.48200369419E+02  0.88524887294E+03  0.88656196738E+03  0.00000000000E+00 0. -1.
         22    1    3    3    0    0  0.30361350858E+02  0.29496305295E+02  0.15268472225E+03  0.15844389562E+03  0.00000000000E+00 0.  1.
         22    1    3    3    0    0 -0.61143982817E+02  0.55638595081E+02  0.51093301158E+02  0.97184182460E+02  0.00000000000E+00 0.  1.
</event>
<event>
 7    1  0.7527776E-006  0.1126322E+03  0.7818608E-02  0.1438255E+00
          2   -1    0    0  502    0  0.00000000000E+00  0.00000000000E+00  0.32931541536E+04  0.32931541536E+04  0.00000000000E+00 0. -1.
          1   -1    0    0  501    0 -0.00000000000E+00 -0.00000000000E+00 -0.33204166950E+02  0.33204166950E+02  0.00000000000E+00 0. -1.
         25    2    1    2    0    0  0.92849182094E+02  0.20603379854E+01  0.23584072693E+04  0.23635429974E+04  0.12500174815E+03 0.  0.
          2    1    1    2  501    0 -0.11259571652E+03 -0.14615611932E+02  0.75298400078E+02  0.13623971721E+03  0.00000000000E+00 0. -1.
          1    1    1    2  502    0  0.19746534423E+02  0.12555273947E+02  0.82624431733E+03  0.82657560601E+03  0.00000000000E+00 0. -1.
         22    1    3    3    0    0  0.22042287692E+02 -0.21538705317E+02  0.12007956973E+03  0.12397129240E+03  0.00000000000E+00 0.  1.
         22    1    3    3    0    0  0.70806894402E+02  0.23599043303E+02  0.22383276996E+04  0.22395717050E+04  0.00000000000E+00 0.  1.
</event>
<event>
 7    1  0.7527776E-006  0.5060062E+02  0.7818608E-02  0.1467966E+00
          2   -1    0    0  502    0  0.00000000000E+00  0.00000000000E+00  0.21332224710E+04  0.21332224710E+04  0.00000000000E+00 0. -1.
          1   -1    0    0  501    0 -0.00000000000E+00 -0.00000000000E+00 -0.16575296348E+03  0.16575296348E+03  0.00000000000E+00 0. -1.
         25    2    1    2    0    0  0.43877198538E+01 -0.18472271473E+02  0.29033287942E+03  0.31666668080E+03  0.12499651578E+03 0.  0.
          2    1    1    2  501    0  0.31239978979E+02  0.40497823046E+02 -0.14805290055E+03  0.15663866483E+03  0.00000000000E+00 0. -1.
          1    1    1    2  502    0 -0.35627698832E+02 -0.22025551573E+02  0.18251895286E+04  0.18256700888E+04  0.00000000000E+00 0. -1.
         22    1    3    3    0    0 -0.34632610471E+02 -0.27165396384E+02  0.26652997155E+03  0.27013996780E+03  0.00000000000E+00 0. -1.
         22    1    3    3    0    0  0.39020330325E+02  0.86931249110E+01  0.23802907869E+02  0.46526712998E+02  0.00000000000E+00 0. -1.
</event>
<event>
 7    1  0.7527776E-006  0.1664530E+03  0.7818608E-02  0.1365725E+00
          2   -1    0    0  502    0  0.00000000000E+00  0.00000000000E+00  0.13835277458E+04  0.13835277458E+04  0.00000000000E+00 0. -1.
          1   -1    0    0  501    0 -0.00000000000E+00 -0.00000000000E+00 -0.22676746467E+04  0.22676746467E+04  0.00000000000E+00 0. -1.
         25    2    1    2    0    0  0.16808899619E+03 -0.94770687405E+02  0.12519574970E+03  0.26179044513E+03  0.12499947036E+03 0.  0.
          2    1    1    2  501    0 -0.14809622359E+03  0.75049140161E+02 -0.21960776890E+04  0.22023446780E+04  0.00000000000E+00 0. -1.
          1    1    1    2  502    0 -0.19992772592E+02  0.19721547244E+02  0.11867350384E+04  0.11870672693E+04  0.00000000000E+00 0. -1.
         22    1    3    3    0    0  0.31293806069E+02  0.31018982580E+02  0.22910596802E+02  0.49662611936E+02  0.00000000000E+00 0. -1.
         22    1    3    3    0    0  0.13679519012E+03 -0.12578966998E+03  0.10228515290E+03  0.21212783320E+03  0.00000000000E+00 0. -1.
</event>
<event>
 7    1  0.7527776E-006  0.4167587E+02  0.7818608E-02  0.1514392E+00
          2   -1    0    0  502    0  0.00000000000E+00  0.00000000000E+00  0.30260704342E+03  0.30260704342E+03  0.00000000000E+00 0. -1.
          1   -1    0    0  501    0 -0.00000000000E+00 -0.00000000000E+00 -0.60034851808E+03  0.60034851808E+03  0.00000000000E+00 0. -1.
         25    2    1    2    0    0  0.10318136685E+02  0.33334936179E+01 -0.86594805033E+02  0.15244945608E+03  0.12499840109E+03 0.  0.
          2    1    1    2  501    0 -0.35788070690E+02  0.23254938326E+02 -0.47861561428E+03  0.48051481184E+03  0.00000000000E+00 0. -1.
          1    1    1    2  502    0  0.25469934005E+02 -0.26588431944E+02  0.26746894465E+03  0.26999129358E+03  0.00000000000E+00 0. -1.
         22    1    3    3    0    0  0.66126369782E+02  0.27921554406E+01 -0.64524394039E+02  0.92433166876E+02  0.00000000000E+00 0.  1.
         22    1    3    3    0    0 -0.55808233098E+02  0.54133817733E+00 -0.22070410994E+02  0.60016289205E+02  0.00000000000E+00 0.  1.
</event>
<event>
 7    1  0.7527776E-006  0.1334625E+03  0.7818608E-02  0.1340480E+00
          2   -1    0    0  502    0  0.00000000000E+00  0.00000000000E+00  0.35984446431E+04  0.35984446431E+04  0.00000000000E+00 0. -1.
          1   -1    0    0  501    0 -0.00000000000E+00 -0.00000000000E+00 -0.62437614668E+03  0.62437614668E+03  0.00000000000E+00 0. -1.
         25    2    1    2    0    0  0.91039704008E+02 -0.99525529097E+01 -0.89730639061E+02  0.17906600535E+03  0.12500306265E+03 0.  0.
          2    1    1    2  501    0  0.42791483470E+02  0.72351124684E+01 -0.48775351002E+03  0.48968045136E+03  0.00000000000E+00 0. -1.
          1    1    1    2  502    0 -0.13383118748E+03  0.27174404412E+01  0.35515526455E+04  0.35540743330E+04  0.00000000000E+00 0. -1.
         22    1    3    3    0    0  0.85907101590E+02  0.45584510311E+02 -0.43132265446E+02  0.10638782828E+03  0.00000000000E+00 0.  1.
         22    1    3    3    0    0  0.51326024180E+01 -0.55537063221E+02 -0.46598373615E+02  0.72678177071E+02  0.00000000000E+00 0.  1.
</event>
<event>
 7    1  0.7527776E-006  0.7633944E+02  0.7818608E-02  0.1427789E+00
          2   -1    0    0  502    0  0.00000000000E+00  0.00000000000E+00  0.14643336507E+04  0.14643336507E+04  0.00000000000E+00 0. -1.
          1   -1    0    0  501    0 -0.00000000000E+00 -0.00000000000E+00 -0.24846234873E+03  0.24846234873E+03  0.00000000000E+00 0. -1.
         25    2    1    2    0    0 -0.19532673447E+02 -0.87607699596E+02  0.14637093400E+03  0.21238425835E+03  0.12500395400E+03 0.  0.
          2    1    1    2  501    0  0.35007758122E+02  0.13054696403E+02 -0.21269795207E+03  0.21595459486E+03  0.00000000000E+00 0. -1.
          1    1    1    2  502    0 -0.15475084676E+02  0.74553003193E+02  0.12821983200E+04  0.12844571462E+04  0.00000000000E+00 0. -1.
         22    1    3    3    0    0  0.45116504154E+02 -0.61990372532E+02  0.43311066389E+02  0.88057672610E+02  0.00000000000E+00 0.  1.
         22    1    3    3    0    0 -0.64649177601E+02 -0.25617327064E+02  0.10305986761E+03  0.12432658574E+03  0.00000000000E+00 0.  1.
</event>
<event>
 7    1  0.7527776E-006  0.1373374E+03  0.7818608E-02  0.1318490E+00
          2   -1    0    0  502    0  0.00000000000E+00  0.00000000000E+00  0.17652875616E+04  0.17652875616E+04  0.00000000000E+00 0. -1.
          1   -1    0    0  501    0 -0.00000000000E+00 -0.00000000000E+00 -0.14871552039E+03  0.14871552039E+03  0.00000000000E+00 0. -1.
         25    2    1    2    0    0  0.16070914495E+03  0.78076213999E+02  0.11790479023E+03  0.24789016177E+03  0.12499867311E+03 0.  0.
          2    1    1    2  501    0 -0.51150777286E+02  0.18257313429E+01 -0.72697552820E+02  0.88908208271E+02  0.00000000000E+00 0. -1.
          1    1    1    2  502    0 -0.10955836766E+03 -0.79901945342E+02  0.15713648038E+04  0.15772047120E+04  0.00000000000E+00 0. -1.
         22    1    3    3    0    0  0.17587129181E+03  0.82879185211E+02  0.86722658213E+02  0.21288609647E+03  0.00000000000E+00 0. -1.
         22    1    3    3    0    0 -0.15162146862E+02 -0.48029712123E+01  0.31182132014E+02  0.35004065291E+02  0.00000000000E+00 0. -1.
</event>
<event>
 7    1  0.7527776E-006  0.7358689E+02  0.7818608E-02  0.1364458E+00
          2   -1    0    0  502    0  0.00000000000E+00  0.00000000000E+00  0.22359635406E+03  0.22359635406E+03  0.00000000000E+00 0. -1.
          1   -1    0    0  501    0 -0.00000000000E+00 -0.00000000000E+00 -0.14809203677E+04  0.14809203677E+04  0.00000000000E+00 0. -1.
         25    2    1    2    0    0  0.83364940471E+01  0.12066341743E+02  0.34731581557E+02  0.13055618429E+03  0.12499416292E+03 0.  0.
          2    1    1    2  501    0  0.96541951959E+01 -0.73692048662E+02 -0.14246789531E+04  0.14266162206E+04  0.00000000000E+00 0. -1.
          1    1    1    2  502    0 -0.17990689243E+02  0.61625706919E+02  0.13262335790E+03  0.14734431686E+03  0.00000000000E+00 0. -1.
         22    1    3    3    0    0  0.40510802010E+02 -0.20925976607E+01 -0.34278839589E+02  0.53108783530E+02  0.00000000000E+00 0.  1.
         22    1    3    3    0    0 -0.32174307963E+02  0.14158939404E+02  0.69010421146E+02  0.77447400761E+02  0.00000000000E+00 0.  1.
</event>
<event>
 7    1  0.7527776E-006  0.7189087E+02  0.7818608E-02  0.1405599E+00
          2   -1    0    0  502    0  0.00000000000E+00  0.00000000000E+00  0.23685492722E+03  0.23685492722E+03  0.00000000000E+00 0. -1.
          1   -1    0    0  501    0 -0.00000000000E+00 -0.00000000000E+00 -0.54385319375E+03  0.54385319375E+03  0.00000000000E+00 0. -1.
         25    2    1    2    0    0 -0.47170808823E+02 -0.31381305243E+02 -0.79148529746E+02  0.15843070571E+03  0.12500370886E+03 0.  0.
          2    1    1    2  501    0  0.26263996406E+02 -0.39092834664E+02 -0.41684110122E+03  0.41949320721E+03  0.00000000000E+00 0. -1.
          1    1    1    2  502    0  0.20906812418E+02  0.70474139906E+02  0.18899136444E+03  0.20278420805E+03  0.00000000000E+00 0. -1.
         22    1    3    3    0    0  0.67655702018E+01  0.27047884221E+02 -0.73617800842E+02  0.78720655370E+02  0.00000000000E+00 0. -1.
         22    1    3    3    0    0 -0.53936379025E+02 -0.58429189463E+02 -0.55307289031E+01  0.79710050344E+02  0.00000000000E+00 0. -1.
</event>
<event>
 7    1  0.1058015E-005  0.6342419E+02  0.7818608E-02  0.1413953E+00
          2   -1    0    0  502    0  0.00000000000E+00  0.00000000000E+00  0.10969509340E+04  0.10969509340E+04  0.00000000000E+00 0. -1.
          1   -1    0    0  501    0 -0.00000000000E+00 -0.00000000000E+00 -0.13271741631E+04  0.13271741631E+04  0.00000000000E+00 0. -1.
         25    2    1    2    0    0  0.38520239725E+02 -0.54320211030E+02 -0.23386776549E+03  0.27340945616E+03  0.12499641910E+03 0.  0.
          2    1    1    2  501    0 -0.49330515472E+02 -0.82372930806E+01 -0.10720166511E+04  0.10731826746E+04  0.00000000000E+00 0. -1.
          1    1    1    2  502    0  0.10810275747E+02  0.62557504110E+02  0.10756611874E+04  0.10775329663E+04  0.00000000000E+00 0. -1.
         22    1    3    3    0    0  0.76344665940E+02 -0.40981121108E+02 -0.20892004258E+03  0.22617591493E+03  0.00000000000E+00 0. -1.
         22    1    3    3    0    0 -0.37824426215E+02 -0.13339089922E+02 -0.24947722911E+02  0.47233541228E+02  0.00000000000E+00 0. -1.
</event>
<event>
 7    1  0.1376635E-005  0.5237450E+02  0.7818608E-02  0.1450860E+00
          2   -1    0    0  502    0  0.00000000000E+00  0.00000000000E+00  0.22189585906E+04  0.22189585906E+04  0.00000000000E+00 0. -1.
          1   -1    0    0  501    0 -0.00000000000E+00 -0.00000000000E+00 -0.21743246948E+04  0.21743246948E+04  0.00000000000E+00 0. -1.
         25    2    1    2    0    0 -0.41228730465E+01  0.50775671355E+02 -0.23417584276E+03  0.27030604869E+03  0.12502746795E+03 0.  0.
          2    1    1    2  501    0  0.44296190951E+02 -0.28726742327E+02 -0.19214825731E+04  0.19222077559E+04  0.00000000000E+00 0. -1.
          1    1    1    2  502    0 -0.40173317905E+02 -0.22048929028E+02  0.22002923117E+04  0.22007694808E+04  0.00000000000E+00 0. -1.
         22    1    3    3    0    0  0.35139520043E+02  0.38299015998E+02 -0.22103479921E+03  0.22706383013E+03  0.00000000000E+00 0. -1.
         22    1    3    3    0    0 -0.39262393089E+02  0.12476655357E+02 -0.13141043554E+02  0.43242218556E+02  0.00000000000E+00 0. -1.
</event>
<event>
 7    1  0.7527776E-006  0.1461573E+03  0.7818608E-02  0.1409505E+00
          2   -1    0    0  502    0  0.00000000000E+00  0.00000000000E+00  0.19417664974E+04  0.19417664974E+04  0.00000000000E+00 0. -1.
          1   -1    0    0  501    0 -0.00000000000E+00 -0.00000000000E+00 -0.16126358903E+04  0.16126358903E+04  0.00000000000E+00 0. -1.
         25    2    1    2    0    0 -0.66345655722E+02 -0.10628679212E+03  0.94826564961E+03  0.96464094812E+03  0.12500315330E+03 0.  0.
          2    1    1    2  501    0  0.69824406111E+02  0.12848342626E+03 -0.16009875613E+04  0.16076518933E+04  0.00000000000E+00 0. -1.
          1    1    1    2  502    0 -0.34787503892E+01 -0.22196634139E+02  0.98185251877E+03  0.98210954628E+03  0.00000000000E+00 0. -1.
         22    1    3    3    0    0 -0.22437822819E+02  0.27074435355E+02  0.14544200322E+03  0.14963240706E+03  0.00000000000E+00 0.  1.
         22    1    3    3    0    0 -0.43907832903E+02 -0.13336122748E+03  0.80282364640E+03  0.81500854106E+03  0.00000000000E+00 0.  1.
</event>
<event>
 7    1  0.7527776E-006  0.8216035E+02  0.7818608E-02  0.1498204E+00
          2   -1    0    0  502    0  0.00000000000E+00  0.00000000000E+00  0.68364716645E+03  0.68364716645E+03  0.00000000000E+00 0. -1.
          1   -1    0    0  501    0 -0.00000000000E+00 -0.00000000000E+00 -0.11714583820E+03  0.11714583820E+03  0.00000000000E+00 0. -1.
         25    2    1    2    0    0 -0.58032551768E+02 -0.38840352366E+02  0.66226162620E+02  0.15775514674E+03  0.12499772667E+03 0.  0.
          2    1    1    2  501    0  0.25716254079E+00 -0.20852468480E+02 -0.66764275610E+02  0.69945407798E+02  0.00000000000E+00 0. -1.
          1    1    1    2  502    0  0.57775389228E+02  0.59692820846E+02  0.56703944124E+03  0.57309245011E+03  0.00000000000E+00 0. -1.
         22    1    3    3    0    0 -0.26361245282E+02  0.24202034170E+02 -0.24097824606E+02  0.43143468353E+02  0.00000000000E+00 0.  1.
         22    1    3    3    0    0 -0.31671306487E+02 -0.63042386536E+02  0.90323987226E+02  0.11461167839E+03  0.00000000000E+00 0.  1.
</event>
<event>
 7    1  0.7527776E-006  0.5717052E+02  0.7818608E-02  0.1468969E+00
          2   -1    0    0  502    0  0.00000000000E+00  0.00000000000E+00  0.27668289045E+02  0.27668289045E+02  0.00000000000E+00 0. -1.
          1   -1    0    0  501    0 -0.00000000000E+00 -0.00000000000E+00 -0.27032128234E+04  0.27032128234E+04  0.00000000000E+00 0. -1.
         25    2    1    2    0    0 -0.30281197765E+02  0.43190106775E+01 -0.48712744331E+03  0.50383911714E+03  0.12500042057E+03 0.  0.
          2    1    1    2  501    0  0.44397378555E+02 -0.38311159980E+02 -0.21894360079E+04  0.21902212000E+04  0.00000000000E+00 0. -1.
          1    1    1    2  502    0 -0.14116180790E+02  0.33992149303E+02  0.10189168770E+01  0.36820795292E+02  0.00000000000E+00 0. -1.
         22    1    3    3    0    0  0.19822917623E+02  0.29458139299E+02 -0.39063410445E+03  0.39224448191E+03  0.00000000000E+00 0.  1.
         22    1    3    3    0    0 -0.50104115388E+02 -0.25139128621E+02 -0.96493338866E+02  0.11159463523E+03  0.00000000000E+00 0.  1.
</event>
<event>
 7    1  0.7527776E-006  0.1083749E+03  0.7818608E-02  0.1401433E+00
          2   -1    0    0  502    0  0.00000000000E+00  0.00000000000E+00  0.11250245195E+04  0.11250245195E+04  0.00000000000E+00 0. -1.
          1   -1    0    0  501    0 -0.00000000000E+00 -0.00000000000E+00 -0.18282235524E+04  0.18282235524E+04  0.00000000000E+00 0. -1.
         25    2    1    2    0    0 -0.45233817075E+02 -0.10106499048E+03 -0.92122944397E+01  0.16724492159E+03  0.12500306764E+03 0.  0.
          2    1    1    2  501    0 -0.25930027108E+02  0.19232285597E+02 -0.17370336535E+04  0.17373336354E+04  0.00000000000E+00 0. -1.
          1    1    1    2  502    0  0.71163844184E+02  0.81832704888E+02  0.10430469152E+04  0.10486695149E+04  0.00000000000E+00 0. -1.
         22    1    3    3    0    0  0.17524118888E+02 -0.42273089022E+02 -0.53594202002E+02  0.70473025240E+02  0.00000000000E+00 0.  1.
         22    1    3    3    0    0 -0.62757935964E+02 -0.58791901462E+02  0.44381907562E+02  0.96771896348E+02  0.00000000000E+00 0.  1.
</event>
<event>
 7    1  0.7527776E-006  0.3709894E+02  0.7818608E-02  0.1556526E+00
          2   -1    0    0  502    0  0.00000000000E+00  0.00000000000E+00  0.20683338495E+04  0.20683338495E+04  0.00000000000E+00 0. -1.
          1   -1    0    0  501    0 -0.00000000000E+00 -0.00000000000E+00 -0.14202628243E+03  0.14202628243E+03  0.00000000000E+00 0. -1.
         25    2    1    2    0    0  0.31959091352E+01 -0.19551161562E+02 -0.25213199047E+02  0.12904482563E+03  0.12499759943E+03 0.  0.
          2    1    1    2  501    0  0.26393328534E+02  0.30019692486E+02 -0.58608044604E+02  0.70941473204E+02  0.00000000000E+00 0. -1.
          1    1    1    2  502    0 -0.29589237670E+02 -0.10468530924E+02  0.20101288107E+04  0.20103738331E+04  0.00000000000E+00 0. -1.
         22    1    3    3    0    0  0.59552204045E+02 -0.25566906351E+02 -0.31431496871E+02  0.72028263220E+02  0.00000000000E+00 0.  1.
         22    1    3    3    0    0 -0.56356294909E+02  0.60157447891E+01  0.62182978246E+01  0.57016562411E+02  0.00000000000E+00 0.  1.
</event>
<event>
 7    1  0.7749562E-006  0.6185661E+02  0.7818608E-02  0.1429841E+00
          2   -1    0    0  502    0  0.00000000000E+00  0.00000000000E+00  0.34710254730E+04  0.34710254730E+04  0.00000000000E+00 0. -1.
          1   -1    0    0  501    0 -0.00000000000E+00 -0.00000000000E+00 -0.45945438475E+03  0.45945438475E+03  0.00000000000E+00 0. -1.
         25    2    1    2    0    0  0.40714529262E+02  0.52407695736E+02 -0.14078761802E+03  0.19962028979E+03  0.12499146868E+03 0.  0.
          2    1    1    2  501    0  0.20049777757E+02 -0.40730431682E+02 -0.28718916069E+03  0.29075518167E+03  0.00000000000E+00 0. -1.
          1    1    1    2  502    0 -0.60764307019E+02 -0.11677264055E+02  0.34395478669E+04  0.34401043863E+04  0.00000000000E+00 0. -1.
         22    1    3    3    0    0 -0.37355236552E+02 -0.10774873279E+02 -0.24447425777E+02  0.45925899220E+02  0.00000000000E+00 0.  1.
         22    1    3    3    0    0  0.78069765814E+02  0.63182569015E+02 -0.11634019224E+03  0.15369439057E+03  0.00000000000E+00 0.  1.
</event>
<event>
 7    1  0.7527776E-006  0.1143968E+03  0.7818608E-02  0.1396051E+00
          2   -1    0    0  502    0  0.00000000000E+00  0.00000000000E+00  0.23267305655E+04  0.23267305655E+04  0.00000000000E+00 0. -1.
          1   -1    0    0  501    0 -0.00000000000E+00 -0.00000000000E+00 -0.78441900260E+02  0.78441900260E+02  0.00000000000E+00 0. -1.
         25    2    1    2    0    0 -0.10591411974E+03 -0.21076605140E+02  0.32006544813E+03  0.36017874662E+03  0.12499925753E+03 0.  0.
          2    1    1    2  501    0 -0.89455178191E+01  0.30639066845E+02 -0.52218567754E+02  0.61200927480E+02  0.00000000000E+00 0. -1.
          1    1    1    2  502    0  0.11485963756E+03 -0.95624617054E+01  0.19804417849E+04  0.19837927917E+04  0.00000000000E+00 0. -1.
         22    1    3    3    0    0 -0.53572497825E+02  0.31925100503E+02  0.25088114363E+03  0.25851609775E+03  0.00000000000E+00 0. -1.
         22    1    3    3    0    0 -0.52341621919E+02 -0.53001705643E+02  0.69184304501E+02  0.10166264887E+03  0.00000000000E+00 0. -1.
</event>
<event>
 7    1  0.7527776E-006  0.5107220E+02  0.7818608E-02  0.1509338E+00
          2   -1    0    0  502    0  0.00000000000E+00  0.00000000000E+00  0.35765493669E+02  0.35765493669E+02  0.00000000000E+00 0. -1.
          1   -1    0    0  501    0 -0.00000000000E+00 -0.00000000000E+00 -0.90716142486E+03  0.90716142486E+03  0.00000000000E+00 0. -1.
         25    2    1    2    0    0  0.12672736193E+02 -0.21929191383E+02 -0.39979880340E+03  0.41964850887E+03  0.12499720044E+03 0.  0.
          2    1    1    2  501    0 -0.16089960813E+02  0.52830325868E+02 -0.48592002713E+03  0.48904826238E+03  0.00000000000E+00 0. -1.
          1    1    1    2  502    0  0.34172246200E+01 -0.30901134485E+02  0.14322899347E+02  0.34230147273E+02  0.00000000000E+00 0. -1.
         22    1    3    3    0    0  0.22920646730E+02 -0.60576129349E+02 -0.11439214931E+03  0.13145488700E+03  0.00000000000E+00 0.  1.
         22    1    3    3    0    0 -0.10247910537E+02  0.38646937966E+02 -0.28540665410E+03  0.28819362187E+03  0.00000000000E+00 0.  1.
</event>
<event>
 7    1  0.7527776E-006  0.1086521E+03  0.7818608E-02  0.1358641E+00
          2   -1    0    0  502    0  0.00000000000E+00  0.00000000000E+00  0.72691371030E+03  0.72691371030E+03  0.00000000000E+00 0. -1.
          1   -1    0    0  501    0 -0.00000000000E+00 -0.00000000000E+00 -0.12352352359E+04  0.12352352359E+04  0.00000000000E+00 0. -1.
         25    2    1    2    0    0  0.12753912519E+03  0.27838546842E+02 -0.17005154086E+03  0.24816155580E+03  0.12500167232E+03 0.  0.
          2    1    1    2  501    0 -0.35277765062E+02  0.28976165409E+02 -0.10213487429E+04  0.10223685214E+04  0.00000000000E+00 0. -1.
          1    1    1    2  502    0 -0.92261360130E+02 -0.56814712252E+02  0.68307875818E+03  0.69161886901E+03  0.00000000000E+00 0. -1.
         22    1    3    3    0    0  0.10791699702E+03  0.21478854092E+02 -0.40925074975E+02  0.11739796072E+03  0.00000000000E+00 0.  1.
         22    1    3    3    0    0  0.19622128167E+02  0.63596927499E+01 -0.12912646588E+03  0.13076359507E+03  0.00000000000E+00 0.  1.
</event>
<event>
 7    1  0.7527776E-006  0.1082891E+03  0.7818608E-02  0.1422980E+00
          2   -1    0    0  502    0  0.00000000000E+00  0.00000000000E+00  0.22453164333E+04  0.22453164333E+04  0.00000000000E+00 0. -1.
          1   -1    0    0  501    0 -0.00000000000E+00 -0.00000000000E+00 -0.13594711506E+03  0.13594711506E+03  0.00000000000E+00 0. -1.
         25    2    1    2    0    0 -0.13721903793E+02  0.13176679408E+03  0.30568353245E+03  0.35583441511E+03  0.12499972120E+03 0.  0.
          2    1    1    2  501    0  0.18379357980E+02 -0.10484294292E+03 -0.85202877957E+02  0.13634285420E+03  0.00000000000E+00 0. -1.
          1    1    1    2  502    0 -0.46574541874E+01 -0.26923851169E+02  0.18888886637E+04  0.18890862790E+04  0.00000000000E+00 0. -1.
         22    1    3    3    0    0 -0.20106453114E+02  0.48289839947E+01 -0.40201061040E+01  0.21065369598E+02  0.00000000000E+00 0.  1.
         22    1    3    3    0    0  0.63845493211E+01  0.12693781009E+03  0.30970363855E+03  0.33476904551E+03  0.00000000000E+00 0.  1.
</event>
<event>
 7    1  0.7527776E-006  0.8033203E+02  0.7818608E-02  0.1358579E+00
          2   -1    0    0  502    0  0.00000000000E+00  0.00000000000E+00  0.19491526758E+04  0.19491526758E+04  0.00000000000E+00 0. -1.
          1   -1    0    0  501    0 -0.00000000000E+00 -0.00000000000E+00 -0.17001898489E+03  0.17001898489E+03  0.00000000000E+00 0. -1.
         25    2    1    2    0    0  0.55035019330E+01 -0.13541130641E+03  0.14332340140E+03  0.23353356328E+03  0.12501926792E+03 0.  0.
          2    1    1    2  501    0  0.11735763850E+02  0.76086877595E+02 -0.11245421670E+03  0.13628239779E+03  0.00000000000E+00 0. -1.
          1    1    1    2  502    0 -0.17239265784E+02  0.59324428817E+02  0.17482645062E+04  0.17493556996E+04  0.00000000000E+00 0. -1.
         22    1    3    3    0    0 -0.30877456486E+01  0.16509438993E+02 -0.82902943008E+01  0.18730315765E+02  0.00000000000E+00 0.  1.
         22    1    3    3    0    0  0.85912475816E+01 -0.15192074540E+03  0.15161369570E+03  0.21480324752E+03  0.00000000000E+00 0.  1.
</event>
<event>
 7    1  0.7527776E-006  0.1210669E+03  0.7818608E-02  0.1373497E+00
          2   -1    0    0  502    0  0.00000000000E+00  0.00000000000E+00  0.13316237607E+03  0.13316237607E+03  0.00000000000E+00 0. -1.
          1   -1    0    0  501    0 -0.00000000000E+00 -0.00000000000E+00 -0.57477947094E+03  0.57477947094E+03  0.00000000000E+00 0. -1.
         25    2    1    2    0    0 -0.11607792006E+03 -0.27606221435E+02 -0.20529292182E+02  0.17400921121E+03  0.12498626628E+03 0.  0.
          2    1    1    2  501    0  0.12147092422E+03 -0.81933561093E+01 -0.46288969053E+03  0.47863261705E+03  0.00000000000E+00 0. -1.
          1    1    1    2  502    0 -0.53930041523E+01  0.35799577544E+02  0.41801887843E+02  0.55300018747E+02  0.00000000000E+00 0. -1.
         22    1    3    3    0    0 -0.30040065563E+02  0.48521538681E+02  0.12455430420E+01  0.57081491155E+02  0.00000000000E+00 0. -1.
         22    1    3    3    0    0 -0.86037854502E+02 -0.76127760116E+02 -0.21774835224E+02  0.11692772005E+03  0.00000000000E+00 0. -1.
</event>
<event>
 7    1  0.7527776E-006  0.6592690E+02  0.7818608E-02  0.1500058E+00
          2   -1    0    0  502    0  0.00000000000E+00  0.00000000000E+00  0.86661006505E+03  0.86661006505E+03  0.00000000000E+00 0. -1.
          1   -1    0    0  501    0 -0.00000000000E+00 -0.00000000000E+00 -0.13530388586E+04  0.13530388586E+04  0.00000000000E+00 0. -1.
         25    2    1    2    0    0  0.50958102456E+02 -0.30424974592E+02 -0.99365870391E+02  0.17035690261E+03  0.12500196311E+03 0.  0.
          2    1    1    2  501    0  0.14432364066E+02  0.21216159174E+02 -0.12167302821E+04  0.12170008208E+04  0.00000000000E+00 0. -1.
          1    1    1    2  502    0 -0.65390466522E+02  0.92088154178E+01  0.82966735896E+03  0.83229120019E+03  0.00000000000E+00 0. -1.
         22    1    3    3    0    0 -0.14233890253E+02 -0.57359709666E+02 -0.16146351298E+02  0.61265362032E+02  0.00000000000E+00 0.  1.
         22    1    3    3    0    0  0.65191992709E+02  0.26934735075E+02 -0.83219519093E+02  0.10909154057E+03  0.00000000000E+00 0.  1.
</event>
<event>
 7    1  0.7527776E-006  0.9468304E+02  0.7818608E-02  0.1333545E+00
          2   -1    0    0  502    0  0.00000000000E+00  0.00000000000E+00  0.44155617674E+03  0.44155617674E+03  0.00000000000E+00 0. -1.
          1   -1    0    0  501    0 -0.00000000000E+00 -0.00000000000E+00 -0.10201689465E+03  0.10201689465E+03  0.00000000000E+00 0. -1.
         25    2    1    2    0    0 -0.65397946431E+02 -0.17794147405E+02  0.37905494319E+02  0.14715912833E+03  0.12500183787E+03 0.  0.
          2    1    1    2  501    0  0.98523600614E+02  0.73696053860E+02  0.43929728054E+02  0.13064390242E+03  0.00000000000E+00 0. -1.
          1    1    1    2  502    0 -0.33125654183E+02 -0.55901906454E+02  0.25770405972E+03  0.26577004065E+03  0.00000000000E+00 0. -1.
         22    1    3    3    0    0 -0.10240608891E+03 -0.21581473871E+02  0.32376336342E+02  0.10954904936E+03  0.00000000000E+00 0. -1.
         22    1    3    3    0    0  0.37008142484E+02  0.37873264651E+01  0.55291579767E+01  0.37610078966E+02  0.00000000000E+00 0. -1.
</event>
<event>
 7    1  0.7527776E-006  0.5304325E+02  0.7818608E-02  0.1473975E+00
          2   -1    0    0  502    0  0.00000000000E+00  0.00000000000E+00  0.26117691876E+04  0.26117691876E+04  0.00000000000E+00 0. -1.
          1   -1    0    0  501    0 -0.00000000000E+00 -0.00000000000E+00 -0.92587068939E+03  0.92587068939E+03  0.00000000000E+00 0. -1.
         25    2    1    2    0    0  0.11471760379E+02 -0.11110771833E+02  0.27917898301E+03  0.30630195857E+03  0.12499973892E+03 0.  0.
          2    1    1    2  501    0  0.33157304994E+02 -0.19122067753E+02 -0.91159428531E+03  0.91239750183E+03  0.00000000000E+00 0. -1.
          1    1    1    2  502    0 -0.44629065373E+02  0.30232839586E+02  0.23183138005E+04  0.23189404166E+04  0.00000000000E+00 0. -1.
         22    1    3    3    0    0 -0.45053589742E+02 -0.41975186298E+02  0.14011163401E+03  0.15304578465E+03  0.00000000000E+00 0. -1.
         22    1    3    3    0    0  0.56525350121E+02  0.30864414465E+02  0.13906734900E+03  0.15325617392E+03  0.00000000000E+00 0. -1.
</event>
<event>
 7    1  0.7527776E-006  0.2824659E+02  0.7818608E-02  0.1671633E+00
          2   -1    0    0  502    0  0.00000000000E+00  0.00000000000E+00  0.21526135862E+02  0.21526135862E+02  0.00000000000E+00 0. -1.
          1   -1    0    0  501    0 -0.00000000000E+00 -0.00000000000E+00 -0.65028908500E+03  0.65028908500E+03  0.00000000000E+00 0. -1.
         25    2    1    2    0    0  0.16412488648E+02 -0.16056314001E+01 -0.44854722197E+03  0.46593058654E+03  0.12499901319E+03 0.  0.
          2    1    1    2  501    0 -0.25051439422E+02 -0.17384185313E+02 -0.18237880211E+03  0.18491028088E+03  0.00000000000E+00 0. -1.
          1    1    1    2  502    0  0.86389507737E+01  0.18989816713E+02  0.21630749403E+01  0.20974353446E+02  0.00000000000E+00 0. -1.
         22    1    3    3    0    0  0.54747111776E+02  0.16934367834E+02 -0.38620426732E+03  0.39043277931E+03  0.00000000000E+00 0.  1.
         22    1    3    3    0    0 -0.38334623127E+02 -0.18539999235E+02 -0.62342954650E+02  0.75497807230E+02  0.00000000000E+00 0.  1.
</event>
<event>
 7    1  0.7527776E-006  0.1555898E+03  0.7818608E-02  0.1324992E+00
          2   -1    0    0  502    0  0.00000000000E+00  0.00000000000E+00  0.19798045974E+04  0.19798045974E+04  0.00000000000E+00 0. -1.
          1   -1    0    0  501    0 -0.00000000000E+00 -0.00000000000E+00 -0.60499719453E+03  0.60499719453E+03  0.00000000000E+00 0. -1.
         25    2    1    2    0    0 -0.75321987875E+02 -0.16168310234E+03  0.10526829279E+04  0.10749794712E+04  0.12499875737E+03 0.  0.
          2    1    1    2  501    0  0.94322625778E+02  0.12351472149E+03 -0.58317075820E+03  0.60352363448E+03  0.00000000000E+00 0. -1.
          1    1    1    2  502    0 -0.19000637903E+02  0.38168380851E+02  0.90529523313E+03  0.90629868623E+03  0.00000000000E+00 0. -1.
         22    1    3    3    0    0  0.26250912273E+02 -0.37802146209E+01  0.20787343960E+03  0.20955850569E+03  0.00000000000E+00 0. -1.
         22    1    3    3    0    0 -0.10157290015E+03 -0.15790288772E+03  0.84480948833E+03  0.86542096552E+03  0.00000000000E+00 0. -1.
</event>
<event>
 7    1  0.7527776E-006  0.3178126E+03  0.7818608E-02  0.1254895E+00
          2   -1    0    0  502    0  0.00000000000E+00  0.00000000000E+00  0.15982617149E+04  0.15982617149E+04  0.00000000000E+00 0. -1.
          1   -1    0    0  501    0 -0.00000000000E+00 -0.00000000000E+00 -0.98047245637E+03  0.98047245637E+03  0.00000000000E+00 0. -1.
         25    2    1    2    0    0 -0.27231267212E+03  0.78684888019E+02  0.50059366079E+03  0.58869745681E+03  0.12500071773E+03 0.  0.
          2    1    1    2  501    0  0.31171107601E+03 -0.70377217628E+02 -0.90875162325E+03  0.96329967322E+03  0.00000000000E+00 0. -1.
          1    1    1    2  502    0 -0.39398403890E+02 -0.83076703905E+01  0.10259472210E+04  0.10267370413E+04  0.00000000000E+00 0. -1.
         22    1    3    3    0    0  0.13134339424E+02  0.61754048899E+01  0.15782898986E+02  0.21441697649E+02  0.00000000000E+00 0. -1.
         22    1    3    3    0    0 -0.28544701154E+03  0.72509483129E+02  0.48481076180E+03  0.56725575916E+03  0.00000000000E+00 0. -1.
</event>
<event>
 7    1  0.7527776E-006  0.2120119E+03  0.7818608E-02  0.1324702E+00
          2   -1    0    0  502    0  0.00000000000E+00  0.00000000000E+00  0.15897174672E+04  0.15897174672E+04  0.00000000000E+00 0. -1.
          1   -1    0    0  501    0 -0.00000000000E+00 -0.00000000000E+00 -0.38615015090E+03  0.38615015090E+03  0.00000000000E+00 0. -1.
         25    2    1    2    0    0  0.13858746024E+03 -0.16666605693E+03  0.45235624724E+03  0.51694754255E+03  0.12499811464E+03 0.  0.
          2    1    1    2  501    0 -0.15751637193E+03  0.14165057056E+03 -0.32189941593E+03  0.38535117172E+03  0.00000000000E+00 0. -1.
          1    1    1    2  502    0  0.18928911696E+02  0.25015486371E+02  0.10731104850E+04  0.10735689038E+04  0.00000000000E+00 0. -1.
         22    1    3    3    0    0  0.35681545500E+02 -0.13031532578E+03  0.30490725464E+03  0.33350216005E+03  0.00000000000E+00 0. -1.
         22    1    3    3    0    0  0.10290591474E+03 -0.36350731152E+02  0.14744899260E+03  0.18344538250E+03  0.00000000000E+00 0. -1.
</event>
<event>
 7    1  0.7527776E-006  0.9514038E+02  0.7818608E-02  0.1388142E+00
          2   -1    0    0  502    0  0.00000000000E+00  0.00000000000E+00  0.77376820729E+03  0.77376820729E+03  0.00000000000E+00 0. -1.
          1   -1    0    0  501    0 -0.00000000000E+00 -0.00000000000E+00 -0.82049130157E+03  0.82049130157E+03  0.00000000000E+00 0. -1.
         25    2    1    2    0    0  0.26667028736E+02 -0.10880564586E+03  0.29563032805E+02  0.17043777561E+03  0.12500105381E+03 0.  0.
          2    1    1    2  501    0 -0.38103726135E+02  0.14832009682E+02 -0.74616615663E+03  0.74728563198E+03  0.00000000000E+00 0. -1.
          1    1    1    2  502    0  0.11436697400E+02  0.93973636181E+02  0.66988002954E+03  0.67653610127E+03  0.00000000000E+00 0. -1.
         22    1    3    3    0    0  0.23831269427E+02  0.22752638176E+02  0.19906244700E+02  0.38495071432E+02  0.00000000000E+00 0. -1.
         22    1    3    3    0    0  0.28357593087E+01 -0.13155828404E+03  0.96567881046E+01  0.13194270418E+03  0.00000000000E+00 0. -1.
</event>
<event>
 7    1  0.7527776E-006  0.6444579E+02  0.7818608E-02  0.1424688E+00
          2   -1    0    0  502    0  0.00000000000E+00  0.00000000000E+00  0.24231917674E+04  0.24231917674E+04  0.00000000000E+00 0. -1.
          1   -1    0    0  501    0 -0.00000000000E+00 -0.00000000000E+00 -0.36392767278E+03  0.36392767278E+03  0.00000000000E+00 0. -1.
         25    2    1    2    0    0  0.43327243629E+02 -0.68835713377E+02  0.22569100035E+03  0.27051235403E+03  0.12499960227E+03 0.  0.
          2    1    1    2  501    0 -0.58813493950E+02  0.26247340286E+02 -0.33824211186E+03  0.34431914873E+03  0.00000000000E+00 0. -1.
          1    1    1    2  502    0  0.15486250320E+02  0.42588373091E+02  0.21718152061E+04  0.21722879374E+04  0.00000000000E+00 0. -1.
         22    1    3    3    0    0 -0.29445024160E+02 -0.66810009205E+02  0.84615395240E+02  0.11176024288E+03  0.00000000000E+00 0.  1.
         22    1    3    3    0    0  0.72772267789E+02 -0.20257041720E+01  0.14107560511E+03  0.15875211115E+03  0.00000000000E+00 0.  1.
</event>
<event>
 7    1  0.7527776E-006  0.8869237E+02  0.7818608E-02  0.1392567E+00
          2   -1    0    0  502    0  0.00000000000E+00  0.00000000000E+00  0.23011523916E+03  0.23011523916E+03  0.00000000000E+00 0. -1.
          1   -1    0    0  501    0 -0.00000000000E+00 -0.00000000000E+00 -0.54219695834E+03  0.54219695834E+03  0.00000000000E+00 0. -1.
         25    2    1    2    0    0 -0.57253343876E+02  0.41796659979E+02 -0.24095495506E+03  0.28055323100E+03  0.12500367549E+03 0.  0.
          2    1    1    2  501    0  0.17498550041E+02  0.38543799845E+02 -0.27016828402E+03  0.27346430380E+03  0.00000000000E+00 0. -1.
          1    1    1    2  502    0  0.39754793835E+02 -0.80340459824E+02  0.19904151991E+03  0.21829466270E+03  0.00000000000E+00 0. -1.
         22    1    3    3    0    0 -0.22812172750E+02  0.58453408332E+02 -0.36586004624E+02  0.72634233702E+02  0.00000000000E+00 0. -1.
         22    1    3    3    0    0 -0.34441171127E+02 -0.16656748353E+02 -0.20436895044E+03  0.20791899730E+03  0.00000000000E+00 0. -1.
</event>
<event>
 7    1  0.7527776E-006  0.4459784E+02  0.7818608E-02  0.1524572E+00
          2   -1    0    0  502    0  0.00000000000E+00  0.00000000000E+00  0.68270519067E+02  0.68270519067E+02  0.00000000000E+00 0. -1.
          1   -1    0    0  501    0 -0.00000000000E+00 -0.00000000000E+00 -0.59470443252E+03  0.59470443252E+03  0.00000000000E+00 0. -1.
         25    2    1    2    0    0 -0.56037776400E+01  0.14383604498E+02 -0.11529482996E+03  0.17075348985E+03  0.12500226429E+03 0.  0.
          2    1    1    2  501    0 -0.15639015691E+02  0.28079753331E+02 -0.43698280861E+03  0.43816324170E+03  0.00000000000E+00 0. -1.
          1    1    1    2  502    0  0.21242793331E+02 -0.42463357829E+02  0.25843725111E+02  0.54058220043E+02  0.00000000000E+00 0. -1.
         22    1    3    3    0    0 -0.25059693509E+02  0.72625238800E+01 -0.13775087682E+03  0.14019998772E+03  0.00000000000E+00 0.  1.
         22    1    3    3    0    0  0.19455915869E+02  0.71210806178E+01  0.22456046863E+02  0.30553502126E+02  0.00000000000E+00 0.  1.
</event>
<event>
 7    1  0.7527776E-006  0.3539466E+03  0.7818608E-02  0.1251322E+00
          2   -1    0    0  502    0  0.00000000000E+00  0.00000000000E+00  0.44253558239E+03  0.44253558239E+03  0.00000000000E+00 0. -1.
          1   -1    0    0  501    0 -0.00000000000E+00 -0.00000000000E+00 -0.12558670881E+04  0.12558670881E+04  0.00000000000E+00 0. -1.
         25    2    1    2    0    0  0.17341572740E+03  0.28122711611E+03 -0.76998875230E+03  0.84715337949E+03  0.12499785741E+03 0.  0.
          2    1    1    2  501    0  0.36907904088E+02  0.64127749232E+01 -0.36757709744E+03  0.36948104096E+03  0.00000000000E+00 0. -1.
          1    1    1    2  502    0 -0.21032363149E+03 -0.28763989103E+03  0.32423434405E+03  0.48176825003E+03  0.00000000000E+00 0. -1.
         22    1    3    3    0    0  0.86614245438E+02  0.23537904839E+03 -0.60859356860E+03  0.65824877947E+03  0.00000000000E+00 0.  1.
         22    1    3    3    0    0  0.86801481965E+02  0.45848067723E+02 -0.16139518370E+03  0.18890460002E+03  0.00000000000E+00 0.  1.
</event>
<event>
 7    1  0.7527776E-006  0.4474103E+02  0.7818608E-02  0.1507955E+00
          2   -1    0    0  502    0  0.00000000000E+00  0.00000000000E+00  0.33826855810E+03  0.33826855810E+03  0.00000000000E+00 0. -1.
          1   -1    0    0  501    0 -0.00000000000E+00 -0.00000000000E+00 -0.77853539842E+02  0.77853539842E+02  0.00000000000E+00 0. -1.
         25    2    1    2    0    0  0.28019936168E+02  0.49922540806E+00  0.16463031942E+03  0.20859796922E+03  0.12499841855E+03 0.  0.
          2    1    1    2  501    0 -0.28501434285E+02 -0.36319766432E+02 -0.43665316079E+02  0.63546180202E+02  0.00000000000E+00 0. -1.
          1    1    1    2  502    0  0.48149811679E+00  0.35820541024E+02  0.13945001491E+03  0.14397794851E+03  0.00000000000E+00 0. -1.
         22    1    3    3    0    0  0.36834537532E+02  0.58486492110E+02  0.81578813489E+02  0.10692312998E+03  0.00000000000E+00 0. -1.
         22    1    3    3    0    0 -0.88146013642E+01 -0.57987266702E+02  0.83051505935E+02  0.10167483924E+03  0.00000000000E+00 0. -1.
</event>
<event>
 7    1  0.7527776E-006  0.7527170E+02  0.7818608E-02  0.1396096E+00
          2   -1    0    0  502    0  0.00000000000E+00  0.00000000000E+00  0.35655133696E+03  0.35655133696E+03  0.00000000000E+00 0. -1.
          1   -1    0    0  501    0 -0.00000000000E+00 -0.00000000000E+00 -0.10866564517E+04  0.10866564517E+04  0.00000000000E+00 0. -1.
         25    2    1    2    0    0 -0.10590816540E+02 -0.38034133849E+02 -0.46457277004E+03  0.48271298205E+03  0.12500081459E+03 0.  0.
          2    1    1    2  501    0  0.30370176671E+02  0.82308195841E+02 -0.60815859136E+03  0.61445411463E+03  0.00000000000E+00 0. -1.
          1    1    1    2  502    0 -0.19779360132E+02 -0.44274061992E+02  0.34262624662E+03  0.34604069201E+03  0.00000000000E+00 0. -1.
         22    1    3    3    0    0  0.30898533472E+02 -0.68094507209E+02 -0.33781992592E+03  0.34599694165E+03  0.00000000000E+00 0.  1.
         22    1    3    3    0    0 -0.41489350011E+02  0.30060373359E+02 -0.12675284411E+03  0.13671604040E+03  0.00000000000E+00 0.  1.
</event>
<event>
 7    1  0.7527776E-006  0.8300393E+02  0.7818608E-02  0.1343826E+00
          2   -1    0    0  502    0  0.00000000000E+00  0.00000000000E+00  0.10034793930E+04  0.10034793930E+04  0.00000000000E+00 0. -1.
          1   -1    0    0  501    0 -0.00000000000E+00 -0.00000000000E+00 -0.63909270995E+03  0.63909270995E+03  0.00000000000E+00 0. -1.
         25    2    1    2    0    0 -0.25466763237E+02  0.59098018986E+02  0.51492235220E+02  0.14972759621E+03  0.12500308357E+03 0.  0.
          2    1    1    2  501    0  0.66047554947E+02  0.15289639689E+02 -0.58602835922E+03  0.58993668339E+03  0.00000000000E+00 0. -1.
          1    1    1    2  502    0 -0.40580791710E+02 -0.74387658676E+02  0.89892280705E+03  0.90290782335E+03  0.00000000000E+00 0. -1.
         22    1    3    3    0    0  0.27216861022E+02  0.73861696467E+02  0.53165532553E+02  0.94988849770E+02  0.00000000000E+00 0.  1.
         22    1    3    3    0    0 -0.52683624259E+02 -0.14763677481E+02 -0.16732973332E+01  0.54738746440E+02  0.00000000000E+00 0.  1.
</event>
<event>
 7    1  0.7527776E-006  0.9439199E+02  0.7818608E-02  0.1392313E+00
          2   -1    0    0  502    0  0.00000000000E+00  0.00000000000E+00  0.47737030016E+03  0.47737030016E+03  0.00000000000E+00 0. -1.
          1   -1    0    0  501    0 -0.00000000000E+00 -0.00000000000E+00 -0.16392659345E+04  0.16392659345E+04  0.00000000000E+00 0. -1.
         25    2    1    2    0    0  0.16538417319E+02 -0.13002723436E+03  0.12674335082E+02  0.18156488301E+03  0.12499826818E+03 0.  0.
          2    1    1    2  501    0  0.15293037462E+01  0.39825561548E+02 -0.15489966374E+04  0.15495092761E+04  0.00000000000E+00 0. -1.
          1    1    1    2  502    0 -0.18067721065E+02  0.90201672815E+02  0.37442666802E+03  0.38556207548E+03  0.00000000000E+00 0. -1.
         22    1    3    3    0    0  0.48343560884E+02 -0.12744990600E+02 -0.22836922092E+02  0.54964167190E+02  0.00000000000E+00 0. -1.
         22    1    3    3    0    0 -0.31805143565E+02 -0.11728224376E+03  0.35511257174E+02  0.12660071582E+03  0.00000000000E+00 0. -1.
</event>
<event>
 7    1  0.7527776E-006  0.2163339E+03  0.7818608E-02  0.1238961E+00
          2   -1    0    0  502    0  0.00000000000E+00  0.00000000000E+00  0.74099449689E+03  0.74099449689E+03  0.00000000000E+00 0. -1.
          1   -1    0    0  501    0 -0.00000000000E+00 -0.00000000000E+00 -0.39253637419E+03  0.39253637419E+03  0.00000000000E+00 0. -1.
         25    2    1    2    0    0 -0.17288484304E+03 -0.17909886560E+02  0.28410040409E+02  0.21596571487E+03  0.12499650641E+03 0.  0.
          2    1    1    2  501    0  0.23240799690E+03 -0.17801506459E+02 -0.25087077774E+03  0.34244199184E+03  0.00000000000E+00 0. -1.
          1    1    1    2  502    0 -0.59523153862E+02  0.35711393020E+02  0.57091886004E+03  0.57512316436E+03  0.00000000000E+00 0. -1.
         22    1    3    3    0    0 -0.19013360347E+03 -0.81492351587E+01  0.12801177294E+02  0.19073821678E+03  0.00000000000E+00 0. -1.
         22    1    3    3    0    0  0.17248760430E+02 -0.97606514016E+01  0.15608863115E+02  0.25227498091E+02  0.00000000000E+00 0. -1.
</event>
<event>
 7    1  0.7527776E-006  0.1712152E+03  0.7818608E-02  0.1223029E+00
          2   -1    0    0  502    0  0.00000000000E+00  0.00000000000E+00  0.66523520248E+03  0.66523520248E+03  0.00000000000E+00 0. -1.
          1   -1    0    0  501    0 -0.00000000000E+00 -0.00000000000E+00 -0.41287018706E+03  0.41287018706E+03  0.00000000000E+00 0. -1.
         25    2    1    2    0    0  0.33016252468E+02 -0.26278610443E+03 -0.46052969619E+02  0.29646914477E+03  0.12500587258E+03 0.  0.
          2    1    1    2  501    0  0.61532197878E+01  0.10317645663E+03 -0.21715751387E+03  0.24050078825E+03  0.00000000000E+00 0. -1.
          1    1    1    2  502    0 -0.39169472256E+02  0.15960964780E+03  0.51557549891E+03  0.54113545652E+03  0.00000000000E+00 0. -1.
         22    1    3    3    0    0  0.55352245390E+02 -0.23373921201E+03 -0.33858862100E+01  0.24022771390E+03  0.00000000000E+00 0.  1.
         22    1    3    3    0    0 -0.22335992922E+02 -0.29046892420E+02 -0.42667083409E+02  0.56241430864E+02  0.00000000000E+00 0.  1.
</event>
<event>
 7    1  0.7527776E-006  0.9203487E+02  0.7818608E-02  0.1453297E+00
          2   -1    0    0  502    0  0.00000000000E+00  0.00000000000E+00  0.63656583155E+03  0.63656583155E+03  0.00000000000E+00 0. -1.
          1   -1    0    0  501    0 -0.00000000000E+00 -0.00000000000E+00 -0.20770364586E+03  0.20770364586E+03  0.00000000000E+00 0. -1.
         25    2    1    2    0    0 -0.63101973380E+02  0.97830045048E+02 -0.37485641376E+01  0.17085541637E+03  0.12499977924E+03 0.  0.
          2    1    1    2  501    0  0.16114810109E+02 -0.19911932976E+02 -0.11524312828E+03  0.11805571056E+03  0.00000000000E+00 0. -1.
          1    1    1    2  502    0  0.46987163271E+02 -0.77918112072E+02  0.54785387810E+03  0.55535835048E+03  0.00000000000E+00 0. -1.
         22    1    3    3    0    0 -0.25520194076E+02  0.47601803486E+02  0.60471840415E+02  0.81080549356E+02  0.00000000000E+00 0. -1.
         22    1    3    3    0    0 -0.37581779304E+02  0.50228241562E+02 -0.64220404552E+02  0.89774867012E+02  0.00000000000E+00 0. -1.
</event>
<event>
 7    1  0.7527776E-006  0.1044595E+03  0.7818608E-02  0.1452209E+00
          2   -1    0    0  502    0  0.00000000000E+00  0.00000000000E+00  0.43628185084E+03  0.43628185084E+03  0.00000000000E+00 0. -1.
          1   -1    0    0  501    0 -0.00000000000E+00 -0.00000000000E+00 -0.17934709942E+04  0.17934709942E+04  0.00000000000E+00 0. -1.
         25    2    1    2    0    0  0.15162025314E+02 -0.10991326351E+03 -0.58713083212E+03  0.61045722989E+03  0.12499841195E+03 0.  0.
          2    1    1    2  501    0  0.19645807285E+02  0.11471996763E+02 -0.11881475666E+04  0.11883653497E+04  0.00000000000E+00 0. -1.
          1    1    1    2  502    0 -0.34807832599E+02  0.98441266749E+02  0.41808925535E+03  0.43093026541E+03  0.00000000000E+00 0. -1.
         22    1    3    3    0    0 -0.45125249761E+02 -0.57143360471E+02 -0.40484762204E+03  0.41134322516E+03  0.00000000000E+00 0. -1.
         22    1    3    3    0    0  0.60287275075E+02 -0.52769903041E+02 -0.18228321008E+03  0.19911400473E+03  0.00000000000E+00 0. -1.
</event>
<event>
 7    1  0.7527776E-006  0.9817275E+02  0.7818608E-02  0.1330227E+00
          2   -1    0    0  502    0  0.00000000000E+00  0.00000000000E+00  0.23337401396E+03  0.23337401396E+03  0.00000000000E+00 0. -1.
          1   -1    0    0  501    0 -0.00000000000E+00 -0.00000000000E+00 -0.32826966120E+03  0.32826966120E+03  0.00000000000E+00 0. -1.
         25    2    1    2    0    0  0.14570322662E+03  0.54988394193E+02 -0.45228022293E+01  0.19974701463E+03  0.12500104148E+03 0.  0.
          2    1    1    2  501    0 -0.89458207543E+02 -0.23376351483E+02 -0.20806211914E+03  0.22768194949E+03  0.00000000000E+00 0. -1.
          1    1    1    2  502    0 -0.56245019077E+02 -0.31612042709E+02  0.11768927412E+03  0.13421471104E+03  0.00000000000E+00 0. -1.
         22    1    3    3    0    0  0.35458743121E+02 -0.36112392405E+02 -0.22911355111E+02  0.55554995652E+02  0.00000000000E+00 0. -1.
         22    1    3    3    0    0  0.11024448350E+03  0.91100786598E+02  0.18388552882E+02  0.14419201898E+03  0.00000000000E+00 0. -1.
</event>
<event>
 7    1  0.7527776E-006  0.1486529E+03  0.7818608E-02  0.1206445E+00
          2   -1    0    0  502    0  0.00000000000E+00  0.00000000000E+00  0.89990170240E+03  0.89990170240E+03  0.00000000000E+00 0. -1.
          1   -1    0    0  501    0 -0.00000000000E+00 -0.00000000000E+00 -0.24382225298E+03  0.24382225298E+03  0.00000000000E+00 0. -1.
         25    2    1    2    0    0  0.11992155327E+03  0.80609994362E+02  0.14177482027E+03  0.23791688297E+03  0.12500077363E+03 0.  0.
          2    1    1    2  501    0 -0.13012860252E+03  0.71862623918E+02 -0.15765761350E+03  0.21668782385E+03  0.00000000000E+00 0. -1.
          1    1    1    2  502    0  0.10207049247E+02 -0.15247261828E+03  0.67196224266E+03  0.68911924856E+03  0.00000000000E+00 0. -1.
         22    1    3    3    0    0  0.35072637774E+01  0.26061029159E+02  0.98990787953E+02  0.10242389487E+03  0.00000000000E+00 0. -1.
         22    1    3    3    0    0  0.11641428950E+03  0.54548965203E+02  0.42784032319E+02  0.13549298810E+03  0.00000000000E+00 0. -1.
</event>
<event>
 7    1  0.7527776E-006  0.7483345E+02  0.7818608E-02  0.1350343E+00
          2   -1    0    0  502    0  0.00000000000E+00  0.00000000000E+00  0.17892007209E+03  0.17892007209E+03  0.00000000000E+00 0. -1.
          1   -1    0    0  501    0 -0.00000000000E+00 -0.00000000000E+00 -0.58400972570E+03  0.58400972570E+03  0.00000000000E+00 0. -1.
         25    2    1    2    0    0  0.39240563731E+02  0.27692790127E+02 -0.17135269215E+03  0.21747632593E+03  0.12500997866E+03 0.  0.
          2    1    1    2  501    0  0.38258291905E+01 -0.84280321129E+02 -0.37656586554E+03  0.38590110208E+03  0.00000000000E+00 0. -1.
          1    1    1    2  502    0 -0.43066392922E+02  0.56587531002E+02  0.14282890407E+03  0.15955236978E+03  0.00000000000E+00 0. -1.
         22    1    3    3    0    0  0.88918023114E+01  0.38422425964E+02  0.35861587702E+01  0.39600599743E+02  0.00000000000E+00 0.  1.
         22    1    3    3    0    0  0.30348761420E+02 -0.10729635837E+02 -0.17493885092E+03  0.17787572618E+03  0.00000000000E+00 0.  1.
</event>
<event>
 7    1  0.7527776E-006  0.7420614E+02  0.7818608E-02  0.1454864E+00
          2   -1    0    0  502    0  0.00000000000E+00  0.00000000000E+00  0.69890598231E+02  0.69890598231E+02  0.00000000000E+00 0. -1.
          1   -1    0    0  501    0 -0.00000000000E+00 -0.00000000000E+00 -0.12788858811E+04  0.12788858811E+04  0.00000000000E+00 0. -1.
         25    2    1    2    0    0  0.58198235593E+02  0.58892814383E+02 -0.91773857797E+02  0.17579108394E+03  0.12499866402E+03 0.  0.
          2    1    1    2  501    0 -0.28301011047E+02 -0.68515505272E+02 -0.11346480378E+04  0.11370670567E+04  0.00000000000E+00 0. -1.
          1    1    1    2  502    0 -0.29897224545E+02  0.96226908881E+01  0.17426612817E+02  0.35918338626E+02  0.00000000000E+00 0. -1.
         22    1    3    3    0    0  0.53077981879E+01  0.42313279699E+02 -0.10956990638E+03  0.11757614871E+03  0.00000000000E+00 0.  1.
         22    1    3    3    0    0  0.52890437405E+02  0.16579534684E+02  0.17796048584E+02  0.58214935235E+02  0.00000000000E+00 0.  1.
</event>
<event>
 7    1  0.7527776E-006  0.6111808E+02  0.7818608E-02  0.1540085E+00
          2   -1    0    0  502    0  0.00000000000E+00  0.00000000000E+00  0.13709069357E+04  0.13709069357E+04  0.00000000000E+00 0. -1.
          1   -1    0    0  501    0 -0.00000000000E+00 -0.00000000000E+00 -0.80576454429E+03  0.80576454429E+03  0.00000000000E+00 0. -1.
         25    2    1    2    0    0 -0.74051778440E+02 -0.17804736249E+02  0.22792765553E+02  0.14813992013E+03  0.12500100500E+03 0.  0.
          2    1    1    2  501    0  0.13098015603E+02  0.16642655098E+02 -0.74221698518E+03  0.74251908331E+03  0.00000000000E+00 0. -1.
          1    1    1    2  502    0  0.60953762837E+02  0.11620811512E+01  0.12845666111E+04  0.12860124766E+04  0.00000000000E+00 0. -1.
         22    1    3    3    0    0  0.38774412981E+01  0.45635565501E+02  0.47457820990E+01  0.46045215140E+02  0.00000000000E+00 0. -1.
         22    1    3    3    0    0 -0.77929219738E+02 -0.63440301750E+02  0.18046983454E+02  0.10209470499E+03  0.00000000000E+00 0. -1.
</event>
<event>
 7    1  0.7527776E-006  0.5196260E+02  0.7818608E-02  0.1562170E+00
          2   -1    0    0  502    0  0.00000000000E+00  0.00000000000E+00  0.36134430768E+03  0.36134430768E+03  0.00000000000E+00 0. -1.
          1   -1    0    0  501    0 -0.00000000000E+00 -0.00000000000E+00 -0.58994833392E+03  0.58994833392E+03  0.00000000000E+00 0. -1.
         25    2    1    2    0    0 -0.31012921530E+02  0.38016080225E+02  0.19691839535E+03  0.23834565614E+03  0.12499909487E+03 0.  0.
          2    1    1    2  501    0  0.46615296487E+02 -0.23049255241E+02 -0.56722538104E+03  0.56960414932E+03  0.00000000000E+00 0. -1.
          1    1    1    2  502    0 -0.15602374956E+02 -0.14966824983E+02  0.14170295945E+03  0.14334283613E+03  0.00000000000E+00 0. -1.
         22    1    3    3    0    0  0.43847192166E+02  0.37424892013E+02  0.10514516223E+03  0.11991123360E+03  0.00000000000E+00 0. -1.
         22    1    3    3    0    0 -0.74860113696E+02  0.59118821122E+00  0.91773233126E+02  0.11843442255E+03  0.00000000000E+00 0. -1.
</event>
<event>
 7    1  0.7527776E-006  0.6774460E+02  0.7818608E-02  0.1394550E+00
          2   -1    0    0  502    0  0.00000000000E+00  0.00000000000E+00  0.45760755068E+03  0.45760755068E+03  0.00000000000E+00 0. -1.
          1   -1    0    0  501    0 -0.00000000000E+00 -0.00000000000E+00 -0.11013460941E+04  0.11013460941E+04  0.00000000000E+00 0. -1.
         25    2    1    2    0    0  0.23773815858E+02  0.65804508295E+02 -0.42665796521E+03  0.45006435695E+03  0.12500191394E+03 0.  0.
          2    1    1    2  501    0 -0.54299596526E+02 -0.51978580020E+01 -0.65927017603E+03  0.66152296174E+03  0.00000000000E+00 0. -1.
          1    1    1    2  502    0  0.30525780669E+02 -0.60606650293E+02  0.44218959779E+03  0.44736632611E+03  0.00000000000E+00 0. -1.
         22    1    3    3    0    0  0.47399012582E+02  0.61986325311E+01 -0.33389320575E+03  0.33729773537E+03  0.00000000000E+00 0.  1.
         22    1    3    3    0    0 -0.23625196724E+02  0.59605875764E+02 -0.92764759465E+02  0.11276662159E+03  0.00000000000E+00 0.  1.
</event>
<event>
 7    1  0.7527776E-006  0.9497641E+02  0.7818608E-02  0.1322376E+00
          2   -1    0    0  502    0  0.00000000000E+00  0.00000000000E+00  0.66945923502E+03  0.66945923502E+03  0.00000000000E+00 0. -1.
          1   -1    0    0  501    0 -0.00000000000E+00 -0.00000000000E+00 -0.27917409783E+03  0.27917409783E+03  0.00000000000E+00 0. -1.
         25    2    1    2    0    0 -0.37781830127E+02 -0.12339868766E+03 -0.98217423888E+01  0.17993118222E+03  0.12499624356E+03 0.  0.
          2    1    1    2  501    0  0.70667100917E+02  0.59922705084E+02 -0.17027867690E+03  0.19385406249E+03  0.00000000000E+00 0. -1.
          1    1    1    2  502    0 -0.32885270790E+02  0.63475982580E+02  0.57038555648E+03  0.57484808815E+03  0.00000000000E+00 0. -1.
         22    1    3    3    0    0 -0.73474926621E+02 -0.75149775627E+02  0.28284212422E+02  0.10883956216E+03  0.00000000000E+00 0.  1.
         22    1    3    3    0    0  0.35693096493E+02 -0.48248912038E+02 -0.38105954811E+02  0.71091620056E+02  0.00000000000E+00 0.  1.
</event>
<event>
 7    1  0.7527776E-006  0.7773450E+02  0.7818608E-02  0.1488611E+00
          2   -1    0    0  502    0  0.00000000000E+00  0.00000000000E+00  0.17211219404E+04  0.17211219404E+04  0.00000000000E+00 0. -1.
          1   -1    0    0  501    0 -0.00000000000E+00 -0.00000000000E+00 -0.30337678429E+03  0.30337678429E+03  0.00000000000E+00 0. -1.
         25    2    1    2    0    0 -0.93708447721E+02 -0.12731550513E+01  0.10403431722E+04  0.10520083572E+04  0.12499909437E+03 0.  0.
          2    1    1    2  501    0  0.21851369867E+02 -0.88015829909E+01 -0.29512334765E+03  0.29606205525E+03  0.00000000000E+00 0. -1.
          1    1    1    2  502    0  0.71857077854E+02  0.10074738042E+02  0.67252533165E+03  0.67642831231E+03  0.00000000000E+00 0. -1.
         22    1    3    3    0    0 -0.47397470394E+02 -0.54028054016E+02  0.30643615103E+03  0.31475175214E+03  0.00000000000E+00 0. -1.
         22    1    3    3    0    0 -0.46310977327E+02  0.52754898965E+02  0.73390702114E+03  0.73725660503E+03  0.00000000000E+00 0. -1.
</event>
<event>
 7    1  0.7527776E-006  0.1332390E+03  0.7818608E-02  0.1266342E+00
          2   -1    0    0  502    0  0.00000000000E+00  0.00000000000E+00  0.10195855965E+04  0.10195855965E+04  0.00000000000E+00 0. -1.
          1   -1    0    0  501    0 -0.00000000000E+00 -0.00000000000E+00 -0.20046746400E+03  0.20046746400E+03  0.00000000000E+00 0. -1.
         25    2    1    2    0    0 -0.18258680338E+02 -0.61913766234E+02  0.13392041411E+03  0.19423043530E+03  0.12499636325E+03 0.  0.
          2    1    1    2  501    0 -0.50063379497E+02 -0.69721497382E+02 -0.15255456842E+03  0.17504378170E+03  0.00000000000E+00 0. -1.
          1    1    1    2  502    0  0.68322059835E+02  0.13163526362E+03  0.83775228682E+03  0.85077884351E+03  0.00000000000E+00 0. -1.
         22    1    3    3    0    0  0.47213243535E+02 -0.15759635557E+02  0.90072042931E+02  0.10290981195E+03  0.00000000000E+00 0.  1.
         22    1    3    3    0    0 -0.65471923872E+02 -0.46154130678E+02  0.43848371183E+02  0.91320623353E+02  0.00000000000E+00 0.  1.
</event>
<event>
 7    1  0.7527776E-006  0.5424576E+02  0.7818608E-02  0.1492407E+00
          2   -1    0    0  502    0  0.00000000000E+00  0.00000000000E+00  0.26244742895E+03  0.26244742895E+03  0.00000000000E+00 0. -1.
          1   -1    0    0  501    0 -0.00000000000E+00 -0.00000000000E+00 -0.45833498943E+03  0.45833498943E+03  0.00000000000E+00 0. -1.
         25    2    1    2    0    0 -0.73263495084E+02 -0.43579980932E+02 -0.67243040841E+01  0.15146014262E+03  0.12501281570E+03 0.  0.
          2    1    1    2  501    0  0.25848342784E+02  0.20317162951E+02 -0.37484061532E+03  0.37627969760E+03  0.00000000000E+00 0. -1.
          1    1    1    2  502    0  0.47415152300E+02  0.23262817981E+02  0.18567735891E+03  0.19304257816E+03  0.00000000000E+00 0. -1.
         22    1    3    3    0    0 -0.56992070161E+02 -0.45931577289E+02  0.52447106034E+02  0.90047236409E+02  0.00000000000E+00 0. -1.
         22    1    3    3    0    0 -0.16271424923E+02  0.23515963575E+01 -0.59171410118E+02  0.61412906215E+02  0.00000000000E+00 0. -1.
</event>
<event>
 7    1  0.7527776E-006  0.1394708E+03  0.7818608E-02  0.1342634E+00
          2   -1    0    0  502    0  0.00000000000E+00  0.00000000000E+00  0.46977071987E+03  0.46977071987E+03  0.00000000000E+00 0. -1.
          1   -1    0    0  501    0 -0.00000000000E+00 -0.00000000000E+00 -0.11758311277E+04  0.11758311277E+04  0.00000000000E+00 0. -1.
         25    2    1    2    0    0  0.28123200074E+02 -0.95703893873E+02  0.18669281160E+03  0.24582775835E+03  0.12500772452E+03 0.  0.
          2    1    1    2  501    0 -0.44667106293E+02  0.13295907252E+03 -0.11402997747E+04  0.11488937468E+04  0.00000000000E+00 0. -1.
          1    1    1    2  502    0  0.16543906219E+02 -0.37255178644E+02  0.24754655527E+03  0.25088034238E+03  0.00000000000E+00 0. -1.
         22    1    3    3    0    0  0.32417912378E+02 -0.60529390915E+00 -0.40243540363E+01  0.32672356038E+02  0.00000000000E+00 0. -1.
         22    1    3    3    0    0 -0.42947123036E+01 -0.95098599963E+02  0.19071716564E+03  0.21315540232E+03  0.00000000000E+00 0. -1.
</event>
<event>
 7    1  0.7527776E-006  0.9014913E+02  0.7818608E-02  0.1381269E+00
          2   -1    0    0  502    0  0.00000000000E+00  0.00000000000E+00  0.20148961165E+04  0.20148961165E+04  0.00000000000E+00 0. -1.
          1   -1    0    0  501    0 -0.00000000000E+00 -0.00000000000E+00 -0.42961413225E+02  0.42961413225E+02  0.00000000000E+00 0. -1.
         25    2    1    2    0    0  0.52718063997E+02 -0.58540816191E+00  0.51577949319E+03  0.53332427021E+03  0.12500701830E+03 0.  0.
          2    1    1    2  501    0  0.43408047949E+02  0.14041356400E+02 -0.16625573304E+02  0.48557471145E+02  0.00000000000E+00 0. -1.
          1    1    1    2  502    0 -0.96126111946E+02 -0.13455948238E+02  0.14727807834E+04  0.14759757883E+04  0.00000000000E+00 0. -1.
         22    1    3    3    0    0  0.93974915095E+02  0.45790361806E+01  0.35568269160E+03  0.36791633470E+03  0.00000000000E+00 0.  1.
         22    1    3    3    0    0 -0.41256851098E+02 -0.51644443425E+01  0.16009680159E+03  0.16540793551E+03  0.00000000000E+00 0.  1.
</event>
<event>
 7    1  0.7527776E-006  0.4694473E+02  0.7818608E-02  0.1485864E+00
          2   -1    0    0  502    0  0.00000000000E+00  0.00000000000E+00  0.23408919584E+04  0.23408919584E+04  0.00000000000E+00 0. -1.
          1   -1    0    0  501    0 -0.00000000000E+00 -0.00000000000E+00 -0.47811853231E+03  0.47811853231E+03  0.00000000000E+00 0. -1.
         25    2    1    2    0    0 -0.76866426260E+02 -0.29399775760E+02  0.32681189186E+03  0.35944566800E+03  0.12498952469E+03 0.  0.
          2    1    1    2  501    0  0.30631710604E+02  0.25355650090E+02 -0.46067547551E+03  0.46238847783E+03  0.00000000000E+00 0. -1.
          1    1    1    2  502    0  0.46234715656E+02  0.40441256702E+01  0.19966370097E+04  0.19971763448E+04  0.00000000000E+00 0. -1.
         22    1    3    3    0    0 -0.61413935154E+02  0.17411939967E+02  0.29249831968E+03  0.29938288879E+03  0.00000000000E+00 0. -1.
         22    1    3    3    0    0 -0.15452491106E+02 -0.46811715727E+02  0.34313572176E+02  0.60062779208E+02  0.00000000000E+00 0. -1.
</event>
<event>
 7    1  0.7527776E-006  0.7029404E+02  0.7818608E-02  0.1359902E+00
          2   -1    0    0  502    0  0.00000000000E+00  0.00000000000E+00  0.48512339460E+03  0.48512339460E+03  0.00000000000E+00 0. -1.
          1   -1    0    0  501    0 -0.00000000000E+00 -0.00000000000E+00 -0.35167076523E+03  0.35167076523E+03  0.00000000000E+00 0. -1.
         25    2    1    2    0    0 -0.70574804766E+02 -0.30536265089E+01  0.78309465785E+02  0.16354702255E+03  0.12500051380E+03 0.  0.
          2    1    1    2  501    0  0.34252996452E+02  0.62680952950E+02 -0.30149401214E+03  0.30983997318E+03  0.00000000000E+00 0. -1.
          1    1    1    2  502    0  0.36321808314E+02 -0.59627326441E+02  0.35663717572E+03  0.36340716410E+03  0.00000000000E+00 0. -1.
         22    1    3    3    0    0 -0.24640307964E+02  0.35840875885E+02 -0.20316952942E+02  0.48005121993E+02  0.00000000000E+00 0.  1.
         22    1    3    3    0    0 -0.45934496802E+02 -0.38894502394E+02  0.98626418727E+02  0.11554190055E+03  0.00000000000E+00 0.  1.
</event>
<event>
 7    1  0.7527776E-006  0.7289314E+02  0.7818608E-02  0.1405240E+00
          2   -1    0    0  502    0  0.00000000000E+00  0.00000000000E+00  0.98256163917E+03  0.98256163917E+03  0.00000000000E+00 0. -1.
          1   -1    0    0  501    0 -0.00000000000E+00 -0.00000000000E+00 -0.40104365694E+03  0.40104365694E+03  0.00000000000E+00 0. -1.
         25    2    1    2    0    0  0.32594530111E+02  0.51692705679E+02 -0.34732838162E+02  0.14339724646E+03  0.12498744349E+03 0.  0.
          2    1    1    2  501    0 -0.41544230350E+02  0.21065640161E+02 -0.30878177335E+03  0.31227530774E+03  0.00000000000E+00 0. -1.
          1    1    1    2  502    0  0.89497002393E+01 -0.72758345840E+02  0.92503259374E+03  0.92793274191E+03  0.00000000000E+00 0. -1.
         22    1    3    3    0    0 -0.64618797625E+01 -0.39365179399E+02 -0.69266346314E+01  0.40488905968E+02  0.00000000000E+00 0.  1.
         22    1    3    3    0    0  0.39056409873E+02  0.91057885078E+02 -0.27806203530E+02  0.10290834049E+03  0.00000000000E+00 0.  1.
</event>
<event>
 7    1  0.7527776E-006  0.1553734E+03  0.7818608E-02  0.1274085E+00
          2   -1    0    0  502    0  0.00000000000E+00  0.00000000000E+00  0.73624774028E+03  0.73624774028E+03  0.00000000000E+00 0. -1.
          1   -1    0    0  501    0 -0.00000000000E+00 -0.00000000000E+00 -0.18692743649E+04  0.18692743649E+04  0.00000000000E+00 0. -1.
         25    2    1    2    0    0 -0.18836035773E+03  0.32859854382E+02 -0.13735145884E+04  0.13923821525E+04  0.12500535866E+03 0.  0.
          2    1    1    2  501    0  0.12490925495E+03 -0.75907263237E+01 -0.47662643292E+03  0.49278057760E+03  0.00000000000E+00 0. -1.
          1    1    1    2  502    0  0.63451102773E+02 -0.25269128058E+02  0.71711439670E+03  0.72035937506E+03  0.00000000000E+00 0. -1.
         22    1    3    3    0    0 -0.13035347701E+03  0.21994677387E+02 -0.12317585650E+04  0.12388320941E+04  0.00000000000E+00 0. -1.
         22    1    3    3    0    0 -0.58006880712E+02  0.10865176995E+02 -0.14175602332E+03  0.15355005838E+03  0.00000000000E+00 0. -1.
</event>
<event>
 7    1  0.7527776E-006  0.7958432E+02  0.7818608E-02  0.1407480E+00
          2   -1    0    0  502    0  0.00000000000E+00  0.00000000000E+00  0.83360034379E+03  0.83360034379E+03  0.00000000000E+00 0. -1.
          1   -1    0    0  501    0 -0.00000000000E+00 -0.00000000000E+00 -0.12633231658E+04  0.12633231658E+04  0.00000000000E+00 0. -1.
         25    2    1    2    0    0 -0.57930040197E+02  0.33916585593E+02 -0.16791662121E+03  0.21983304543E+03  0.12499740737E+03 0.  0.
          2    1    1    2  501    0 -0.21860486078E+02 -0.35769226580E+02 -0.10670639909E+04  0.10678871097E+04  0.00000000000E+00 0. -1.
          1    1    1    2  502    0  0.79790526275E+02  0.18526409866E+01  0.80525779009E+03  0.80920335446E+03  0.00000000000E+00 0. -1.
         22    1    3    3    0    0 -0.77923540447E+02 -0.14522288943E+02 -0.13891906719E+03  0.15994212159E+03  0.00000000000E+00 0.  1.
         22    1    3    3    0    0  0.19993500250E+02  0.48438874536E+02 -0.28997554025E+02  0.59890923837E+02  0.00000000000E+00 0.  1.
</event>
<event>
 7    1  0.7527776E-006  0.2590713E+03  0.7818608E-02  0.1173617E+00
          2   -1    0    0  502    0  0.00000000000E+00  0.00000000000E+00  0.15944099404E+04  0.15944099404E+04  0.00000000000E+00 0. -1.
          1   -1    0    0  501    0 -0.00000000000E+00 -0.00000000000E+00 -0.10571742003E+04  0.10571742003E+04  0.00000000000E+00 0. -1.
         25    2    1    2    0    0 -0.16692026434E+03  0.14871922344E+03  0.56253533573E+03  0.61810238747E+03  0.12499910149E+03 0.  0.
          2    1    1    2  501    0  0.32115261658E+02  0.11253344096E+03 -0.10044020236E+04  0.10111966131E+04  0.00000000000E+00 0. -1.
          1    1    1    2  502    0  0.13480500268E+03 -0.26125266440E+03  0.97910242795E+03  0.10222851402E+04  0.00000000000E+00 0. -1.
         22    1    3    3    0    0 -0.20097477882E+02 -0.54926377880E+01  0.51940136880E+01  0.21472202153E+02  0.00000000000E+00 0.  1.
         22    1    3    3    0    0 -0.14682278646E+03  0.15421186123E+03  0.55734132204E+03  0.59663018531E+03  0.00000000000E+00 0.  1.
</event>
<event>
 7    1  0.7527776E-006  0.1459542E+03  0.7818608E-02  0.1310054E+00
          2   -1    0    0  502    0  0.00000000000E+00  0.00000000000E+00  0.45157304115E+03  0.45157304115E+03  0.00000000000E+00 0. -1.
          1   -1    0    0  501    0 -0.00000000000E+00 -0.00000000000E+00 -0.39541997407E+03  0.39541997407E+03  0.00000000000E+00 0. -1.
         25    2    1    2    0    0 -0.19972318868E+02 -0.15839736314E+03 -0.94192820019E+02  0.22357562610E+03  0.12500062029E+03 0.  0.
          2    1    1    2  501    0 -0.28812602855E+02  0.14049184864E+03 -0.21277562607E+03  0.25659616651E+03  0.00000000000E+00 0. -1.
          1    1    1    2  502    0  0.48784921724E+02  0.17905514497E+02  0.36312151317E+03  0.36682122262E+03  0.00000000000E+00 0. -1.
         22    1    3    3    0    0  0.45780950814E+02 -0.29373934272E+02 -0.45128505105E+02  0.70677474807E+02  0.00000000000E+00 0. -1.
         22    1    3    3    0    0 -0.65753269683E+02 -0.12902342886E+03 -0.49064314913E+02  0.15289815129E+03  0.00000000000E+00 0. -1.
</event>
<event>
 7    1  0.8810686E-006  0.8692826E+02  0.7818608E-02  0.1369589E+00
          2   -1    0    0  502    0  0.00000000000E+00  0.00000000000E+00  0.15094174785E+04  0.15094174785E+04  0.00000000000E+00 0. -1.
          1   -1    0    0  501    0 -0.00000000000E+00 -0.00000000000E+00 -0.10916938195E+04  0.10916938195E+04  0.00000000000E+00 0. -1.
         25    2    1    2    0    0 -0.11796422131E+03 -0.92286534986E+01 -0.10061661460E+03  0.19936747856E+03  0.12499185102E+03 0.  0.
          2    1    1    2  501    0  0.81409645185E+02 -0.27860467442E+02 -0.93927031255E+03  0.94320329517E+03  0.00000000000E+00 0. -1.
          1    1    1    2  502    0  0.36554576128E+02  0.37089120941E+02  0.14576105862E+04  0.14585405243E+04  0.00000000000E+00 0. -1.
         22    1    3    3    0    0  0.15014155914E+02  0.18716783536E+02  0.81222081766E+01  0.25332057346E+02  0.00000000000E+00 0. -1.
         22    1    3    3    0    0 -0.13297837723E+03 -0.27945437034E+02 -0.10873882277E+03  0.17403542122E+03  0.00000000000E+00 0. -1.
</event>
<event>
 7    1  0.7527776E-006  0.7716275E+02  0.7818608E-02  0.1437729E+00
          2   -1    0    0  502    0  0.00000000000E+00  0.00000000000E+00  0.17791770151E+04  0.17791770151E+04  0.00000000000E+00 0. -1.
          1   -1    0    0  501    0 -0.00000000000E+00 -0.00000000000E+00 -0.79628831505E+03  0.79628831505E+03  0.00000000000E+00 0. -1.
         25    2    1    2    0    0  0.55791068075E+02 -0.12449556813E+02  0.59934800414E+03  0.61490657786E+03  0.12499773873E+03 0.  0.
          2    1    1    2  501    0  0.24812753120E+02  0.23669091730E+02 -0.78672242019E+03  0.78746940579E+03  0.00000000000E+00 0. -1.
          1    1    1    2  502    0 -0.80603821194E+02 -0.11219534917E+02  0.11702631161E+04  0.11730893465E+04  0.00000000000E+00 0. -1.
         22    1    3    3    0    0 -0.26073523397E+02  0.33210275746E+02  0.23041507701E+03  0.23425169957E+03  0.00000000000E+00 0.  1.
         22    1    3    3    0    0  0.81864591472E+02 -0.45659832559E+02  0.36893292713E+03  0.38065487829E+03  0.00000000000E+00 0.  1.
</event>
<event>
 7    1  0.7527776E-006  0.1378202E+03  0.7818608E-02  0.1367038E+00
          2   -1    0    0  502    0  0.00000000000E+00  0.00000000000E+00  0.66047964014E+03  0.66047964014E+03  0.00000000000E+00 0. -1.
          1   -1    0    0  501    0 -0.00000000000E+00 -0.00000000000E+00 -0.20180564251E+04  0.20180564251E+04  0.00000000000E+00 0. -1.
         25    2    1    2    0    0 -0.72839028758E+02  0.15036624647E+03 -0.44904319252E+02  0.21344081172E+03  0.12500020012E+03 0.  0.
          2    1    1    2  501    0  0.34252945923E+01 -0.33373176911E+02 -0.18807031574E+04  0.18810023572E+04  0.00000000000E+00 0. -1.
          1    1    1    2  502    0  0.69413734166E+02 -0.11699306956E+03  0.56803069169E+03  0.58409289631E+03  0.00000000000E+00 0. -1.
         22    1    3    3    0    0  0.19118326848E+02  0.64290091993E+01  0.22139341691E+02  0.29949841924E+02  0.00000000000E+00 0.  1.
         22    1    3    3    0    0 -0.91957355606E+02  0.14393723727E+03 -0.67043660943E+02  0.18349096979E+03  0.00000000000E+00 0.  1.
</event>
<event>
 7    1  0.7527776E-006  0.7118020E+02  0.7818608E-02  0.1396575E+00
          2   -1    0    0  502    0  0.00000000000E+00  0.00000000000E+00  0.27806157088E+04  0.27806157088E+04  0.00000000000E+00 0. -1.
          1   -1    0    0  501    0 -0.00000000000E+00 -0.00000000000E+00 -0.30157043642E+04  0.30157043642E+04  0.00000000000E+00 0. -1.
         25    2    1    2    0    0 -0.53386797629E+02 -0.34290321941E+01 -0.28353355859E+03  0.31445009391E+03  0.12500269714E+03 0.  0.
          2    1    1    2  501    0  0.54252545082E+02 -0.47647408146E+02 -0.27159967514E+04  0.27169563795E+04  0.00000000000E+00 0. -1.
          1    1    1    2  502    0 -0.86574745340E+00  0.51076440340E+02  0.27644416546E+04  0.27649135997E+04  0.00000000000E+00 0. -1.
         22    1    3    3    0    0 -0.70871901317E+02 -0.42399214032E+02 -0.23844574611E+03  0.25234280965E+03  0.00000000000E+00 0.  1.
         22    1    3    3    0    0  0.17485103688E+02  0.38970181838E+02 -0.45087812483E+02  0.62107284259E+02  0.00000000000E+00 0.  1.
</event>
<event>
 7    1  0.7527776E-006  0.2261848E+03  0.7818608E-02  0.1218656E+00
          2   -1    0    0  502    0  0.00000000000E+00  0.00000000000E+00  0.30637361785E+03  0.30637361785E+03  0.00000000000E+00 0. -1.
          1   -1    0    0  501    0 -0.00000000000E+00 -0.00000000000E+00 -0.11592207039E+04  0.11592207039E+04  0.00000000000E+00 0. -1.
         25    2    1    2    0    0 -0.15314450885E+03  0.73489018116E+02  0.57797776809E+02  0.21867693607E+03  0.12500057196E+03 0.  0.
          2    1    1    2  501    0  0.22822922973E+03 -0.40753932438E+02 -0.10554164171E+04  0.10805800655E+04  0.00000000000E+00 0. -1.
          1    1    1    2  502    0 -0.75084720883E+02 -0.32735085678E+02  0.14477155432E+03  0.16633732018E+03  0.00000000000E+00 0. -1.
         22    1    3    3    0    0 -0.15305722202E+03  0.86830102883E+02  0.18221482087E+02  0.17691241445E+03  0.00000000000E+00 0.  1.
         22    1    3    3    0    0 -0.87286832794E-01 -0.13341084767E+02  0.39576294722E+02  0.41764521614E+02  0.00000000000E+00 0.  1.
</event>
<event>
 7    1  0.7527776E-006  0.6782341E+02  0.7818608E-02  0.1379238E+00
          2   -1    0    0  502    0  0.00000000000E+00  0.00000000000E+00  0.16725519704E+03  0.16725519704E+03  0.00000000000E+00 0. -1.
          1   -1    0    0  501    0 -0.00000000000E+00 -0.00000000000E+00 -0.31369727910E+03  0.31369727910E+03  0.00000000000E+00 0. -1.
         25    2    1    2    0    0 -0.71713722361E+02 -0.88812529743E+02  0.55498667043E+02  0.17810764114E+03  0.12494681419E+03 0.  0.
          2    1    1    2  501    0  0.14989091851E+02  0.64659141803E+02 -0.22684207649E+03  0.23635313656E+03  0.00000000000E+00 0. -1.
          1    1    1    2  502    0  0.56724630510E+02  0.24153387941E+02  0.24901327396E+02  0.66491698441E+02  0.00000000000E+00 0. -1.
         22    1    3    3    0    0  0.23003285343E+02  0.15628767570E+02  0.13988218060E+02  0.31130045885E+02  0.00000000000E+00 0. -1.
         22    1    3    3    0    0 -0.94717007704E+02 -0.10444129731E+03  0.41510448983E+02  0.14697759526E+03  0.00000000000E+00 0. -1.
</event>
<event>
 7    1  0.7527776E-006  0.8487104E+02  0.7818608E-02  0.1404158E+00
          2   -1    0    0  502    0  0.00000000000E+00  0.00000000000E+00  0.28871980202E+04  0.28871980202E+04  0.00000000000E+00 0. -1.
          1   -1    0    0  501    0 -0.00000000000E+00 -0.00000000000E+00 -0.10699453963E+03  0.10699453963E+03  0.00000000000E+00 0. -1.
         25    2    1    2    0    0 -0.80777099935E+02  0.55371900774E+02  0.14242393520E+03  0.21330675720E+03  0.12499683228E+03 0.  0.
          2    1    1    2  501    0  0.43888581303E+02 -0.71717833924E+02 -0.46648360724E+02  0.96154692188E+02  0.00000000000E+00 0. -1.
          1    1    1    2  502    0  0.36888518631E+02  0.16345933150E+02  0.26844279061E+04  0.26847311105E+04  0.00000000000E+00 0. -1.
         22    1    3    3    0    0 -0.70627891071E+02  0.61315036808E+02  0.16396425720E+03  0.18876469579E+03  0.00000000000E+00 0.  1.
         22    1    3    3    0    0 -0.10149208863E+02 -0.59431360339E+01 -0.21540322003E+02  0.24542061414E+02  0.00000000000E+00 0.  1.
</event>
<event>
 7    1  0.7527776E-006  0.5488747E+02  0.7818608E-02  0.1462789E+00
          2   -1    0    0  502    0  0.00000000000E+00  0.00000000000E+00  0.46337775953E+03  0.46337775953E+03  0.00000000000E+00 0. -1.
          1   -1    0    0  501    0 -0.00000000000E+00 -0.00000000000E+00 -0.63856884334E+02  0.63856884334E+02  0.00000000000E+00 0. -1.
         25    2    1    2    0    0  0.55678541105E+01 -0.86686883158E+02  0.27995163628E+03  0.31865898773E+03  0.12500006038E+03 0.  0.
          2    1    1    2  501    0  0.13670865175E+02  0.51522499562E+02 -0.24766268187E+02  0.58777789646E+02  0.00000000000E+00 0. -1.
          1    1    1    2  502    0 -0.19238719286E+02  0.35164383596E+02  0.14433550710E+03  0.14979786648E+03  0.00000000000E+00 0. -1.
         22    1    3    3    0    0  0.22491388509E+02 -0.28625992171E+02  0.45415177196E+01  0.36686991809E+02  0.00000000000E+00 0. -1.
         22    1    3    3    0    0 -0.16923534399E+02 -0.58060890988E+02  0.27541011856E+03  0.28197199592E+03  0.00000000000E+00 0. -1.
</event>
<event>
 7    1  0.7527776E-006  0.2825165E+02  0.7818608E-02  0.1652621E+00
          2   -1    0    0  502    0  0.00000000000E+00  0.00000000000E+00  0.31407201458E+03  0.31407201458E+03  0.00000000000E+00 0. -1.
          1   -1    0    0  501    0 -0.00000000000E+00 -0.00000000000E+00 -0.22595958670E+03  0.22595958670E+03  0.00000000000E+00 0. -1.
         25    2    1    2    0    0  0.43399947229E+02  0.20643398683E+02 -0.18722714880E+03  0.23019863469E+03  0.12501080289E+03 0.  0.
          2    1    1    2  501    0 -0.15401430244E+02 -0.17330880218E+02 -0.84268915594E+01  0.24669332461E+02  0.00000000000E+00 0. -1.
          1    1    1    2  502    0 -0.27998516984E+02 -0.33125184654E+01  0.28376646824E+03  0.28516363413E+03  0.00000000000E+00 0. -1.
         22    1    3    3    0    0 -0.93484995082E+01 -0.34266412751E+02 -0.93779481644E+01  0.36735914275E+02  0.00000000000E+00 0. -1.
         22    1    3    3    0    0  0.52748446737E+02  0.54909811434E+02 -0.17784920063E+03  0.19346272042E+03  0.00000000000E+00 0. -1.
</event>
<event>
 7    1  0.7527776E-006  0.7767615E+02  0.7818608E-02  0.1372126E+00
          2   -1    0    0  502    0  0.00000000000E+00  0.00000000000E+00  0.24699735578E+03  0.24699735578E+03  0.00000000000E+00 0. -1.
          1   -1    0    0  501    0 -0.00000000000E+00 -0.00000000000E+00 -0.10892959909E+04  0.10892959909E+04  0.00000000000E+00 0. -1.
         25    2    1    2    0    0 -0.64953555162E+02  0.60607235880E+02 -0.45069141311E+03  0.47606766824E+03  0.12500189407E+03 0.  0.
          2    1    1    2  501    0  0.78588939309E+02 -0.51916803660E+01 -0.61991257977E+03  0.62489581650E+03  0.00000000000E+00 0. -1.
          1    1    1    2  502    0 -0.13635384147E+02 -0.55415555514E+02  0.22830535780E+03  0.23532986189E+03  0.00000000000E+00 0. -1.
         22    1    3    3    0    0 -0.80538706956E+02 -0.90599176859E+01 -0.26541917568E+03  0.27751739449E+03  0.00000000000E+00 0. -1.
         22    1    3    3    0    0  0.15585151794E+02  0.69667153566E+02 -0.18527223743E+03  0.19855027375E+03  0.00000000000E+00 0. -1.
</event>
<event>
 7    1  0.7527776E-006  0.1232819E+03  0.7818608E-02  0.1407930E+00
          2   -1    0    0  502    0  0.00000000000E+00  0.00000000000E+00  0.15034755677E+04  0.15034755677E+04  0.00000000000E+00 0. -1.
          1   -1    0    0  501    0 -0.00000000000E+00 -0.00000000000E+00 -0.72894820864E+02  0.72894820864E+02  0.00000000000E+00 0. -1.
         25    2    1    2    0    0 -0.95579486002E+02 -0.37068995723E+02  0.26621143179E+03  0.31145598154E+03  0.12500701354E+03 0.  0.
          2    1    1    2  501    0  0.11917380664E+03  0.50126561311E+02  0.33276974899E+02  0.13350065692E+03  0.00000000000E+00 0. -1.
          1    1    1    2  502    0 -0.23594320643E+02 -0.13057565588E+02  0.11310923402E+04  0.11314137501E+04  0.00000000000E+00 0. -1.
         22    1    3    3    0    0 -0.78669867221E+02 -0.10567461149E+02  0.51870081855E+02  0.94821540988E+02  0.00000000000E+00 0.  1.
         22    1    3    3    0    0 -0.16909618780E+02 -0.26501534574E+02  0.21434134993E+03  0.21663444055E+03  0.00000000000E+00 0.  1.
</event>
<event>
 7    1  0.7527776E-006  0.9608560E+02  0.7818608E-02  0.1298374E+00
          2   -1    0    0  502    0  0.00000000000E+00  0.00000000000E+00  0.14423897796E+04  0.14423897796E+04  0.00000000000E+00 0. -1.
          1   -1    0    0  501    0 -0.00000000000E+00 -0.00000000000E+00 -0.32107403241E+03  0.32107403241E+03  0.00000000000E+00 0. -1.
         25    2    1    2    0    0  0.70933678156E+01  0.14139973269E+02  0.12027456337E+03  0.17418686141E+03  0.12499934953E+03 0.  0.
          2    1    1    2  501    0  0.70601761093E+02  0.52275903514E+02 -0.28548559290E+03  0.29869617090E+03  0.00000000000E+00 0. -1.
          1    1    1    2  502    0 -0.77695128909E+02 -0.66415876783E+02  0.12865267767E+04  0.12905807797E+04  0.00000000000E+00 0. -1.
         22    1    3    3    0    0  0.34581011600E+02  0.20384541405E+02 -0.96120775548E+01  0.41276723786E+02  0.00000000000E+00 0. -1.
         22    1    3    3    0    0 -0.27487643784E+02 -0.62445681360E+01  0.12988664092E+03  0.13291013762E+03  0.00000000000E+00 0. -1.
</event>
<event>
 7    1  0.7527776E-006  0.1067181E+03  0.7818608E-02  0.1318528E+00
          2   -1    0    0  502    0  0.00000000000E+00  0.00000000000E+00  0.59183995911E+02  0.59183995911E+02  0.00000000000E+00 0. -1.
          1   -1    0    0  501    0 -0.00000000000E+00 -0.00000000000E+00 -0.23495366349E+04  0.23495366349E+04  0.00000000000E+00 0. -1.
         25    2    1    2    0    0  0.10554619564E+03 -0.24302495028E+02 -0.10010078630E+04  0.10145797382E+04  0.12499877119E+03 0.  0.
          2    1    1    2  501    0 -0.34129728372E+02 -0.56311164565E+02 -0.12846543099E+04  0.12863407331E+04  0.00000000000E+00 0. -1.
          1    1    1    2  502    0 -0.71416467272E+02  0.80613659593E+02 -0.46904660715E+01  0.10780015947E+03  0.00000000000E+00 0. -1.
         22    1    3    3    0    0  0.59861212265E+02  0.33730229376E+02 -0.74411478708E+03  0.74728034195E+03  0.00000000000E+00 0. -1.
         22    1    3    3    0    0  0.45684983378E+02 -0.58032724404E+02 -0.25689307589E+03  0.26729939627E+03  0.00000000000E+00 0. -1.
</event>
<event>
 7    1  0.7527776E-006  0.1288594E+03  0.7818608E-02  0.1380264E+00
          2   -1    0    0  502    0  0.00000000000E+00  0.00000000000E+00  0.15426304206E+04  0.15426304206E+04  0.00000000000E+00 0. -1.
          1   -1    0    0  501    0 -0.00000000000E+00 -0.00000000000E+00 -0.49822630469E+02  0.49822630469E+02  0.00000000000E+00 0. -1.
         25    2    1    2    0    0 -0.11115734858E+03 -0.98170951199E+02  0.32133772946E+03  0.37533444519E+03  0.12499807025E+03 0.  0.
          2    1    1    2  501    0  0.98845055404E+02  0.68439937241E+02  0.13750398867E+03  0.18265190086E+03  0.00000000000E+00 0. -1.
          1    1    1    2  502    0  0.12312293181E+02  0.29731013958E+02  0.10339660720E+04  0.10344667050E+04  0.00000000000E+00 0. -1.
         22    1    3    3    0    0 -0.15992161756E+02  0.25597319832E+02  0.10013105064E+03  0.10458106579E+03  0.00000000000E+00 0. -1.
         22    1    3    3    0    0 -0.95165186828E+02 -0.12376827103E+03  0.22120667882E+03  0.27075337939E+03  0.00000000000E+00 0. -1.
</event>
<event>
 7    1  0.7527776E-006  0.2380758E+03  0.7818608E-02  0.1199096E+00
          2   -1    0    0  502    0  0.00000000000E+00  0.00000000000E+00  0.14228412009E+04  0.14228412009E+04  0.00000000000E+00 0. -1.
          1   -1    0    0  501    0 -0.00000000000E+00 -0.00000000000E+00 -0.93750922011E+03  0.93750922011E+03  0.00000000000E+00 0. -1.
         25    2    1    2    0    0 -0.16758626543E+03  0.20865563653E+03  0.80067294035E+02  0.30603393196E+03  0.12499465957E+03 0.  0.
          2    1    1    2  501    0  0.20422551217E+03 -0.11999644408E+03 -0.80557758074E+03  0.83967996582E+03  0.00000000000E+00 0. -1.
          1    1    1    2  502    0 -0.36639246748E+02 -0.88659192447E+02  0.12108422675E+04  0.12146365233E+04  0.00000000000E+00 0. -1.
         22    1    3    3    0    0 -0.16980084874E+03  0.12550040810E+03  0.45733323830E+02  0.21604216620E+03  0.00000000000E+00 0.  1.
         22    1    3    3    0    0  0.22145833164E+01  0.83155228430E+02  0.34333970205E+02  0.89991765759E+02  0.00000000000E+00 0.  1.
</event>
<event>
 7    1  0.7527776E-006  0.1518806E+03  0.7818608E-02  0.1257948E+00
          2   -1    0    0  502    0  0.00000000000E+00  0.00000000000E+00  0.15614440643E+04  0.15614440643E+04  0.00000000000E+00 0. -1.
          1   -1    0    0  501    0 -0.00000000000E+00 -0.00000000000E+00 -0.29219243135E+03  0.29219243135E+03  0.00000000000E+00 0. -1.
         25    2    1    2    0    0 -0.86000391501E+02 -0.85740341062E+02 -0.71352635591E+02  0.18831705384E+03  0.12499856294E+03 0.  0.
          2    1    1    2  501    0 -0.63482264821E+02  0.51507212055E+02 -0.14787173238E+03  0.16896461191E+03  0.00000000000E+00 0. -1.
          1    1    1    2  502    0  0.14948265632E+03  0.34233129007E+02  0.14884760009E+04  0.14963548299E+04  0.00000000000E+00 0. -1.
         22    1    3    3    0    0 -0.91584037822E+02 -0.37050212492E+02  0.34895587451E+01  0.98856113871E+02  0.00000000000E+00 0. -1.
         22    1    3    3    0    0  0.55836463206E+01 -0.48690128570E+02 -0.74842194336E+02  0.89460939965E+02  0.00000000000E+00 0. -1.
</event>
<event>
 7    1  0.7527776E-006  0.1133611E+03  0.7818608E-02  0.1293854E+00
          2   -1    0    0  502    0  0.00000000000E+00  0.00000000000E+00  0.21131656751E+04  0.21131656751E+04  0.00000000000E+00 0. -1.
          1   -1    0    0  501    0 -0.00000000000E+00 -0.00000000000E+00 -0.66122004868E+03  0.66122004868E+03  0.00000000000E+00 0. -1.
         25    2    1    2    0    0 -0.18649521982E+03  0.36609613122E+00  0.29407511582E+01  0.22456515025E+03  0.12506101570E+03 0.  0.
          2    1    1    2  501    0  0.10946147740E+03  0.93895458842E+01 -0.54416205216E+03  0.55514170949E+03  0.00000000000E+00 0. -1.
          1    1    1    2  502    0  0.77033742424E+02 -0.97556420154E+01  0.19931669275E+04  0.19946788641E+04  0.00000000000E+00 0. -1.
         22    1    3    3    0    0 -0.17333222813E+03 -0.21353785914E+02 -0.35768656570E+02  0.17826789469E+03  0.00000000000E+00 0.  1.
         22    1    3    3    0    0 -0.13162991687E+02  0.21719882045E+02  0.38709407729E+02  0.46297255566E+02  0.00000000000E+00 0.  1.
</event>
<event>
 7    1  0.7527776E-006  0.6588790E+02  0.7818608E-02  0.1486733E+00
          2   -1    0    0  502    0  0.00000000000E+00  0.00000000000E+00  0.84081159641E+03  0.84081159641E+03  0.00000000000E+00 0. -1.
          1   -1    0    0  501    0 -0.00000000000E+00 -0.00000000000E+00 -0.19464640409E+04  0.19464640409E+04  0.00000000000E+00 0. -1.
         25    2    1    2    0    0  0.51441047467E+02  0.33674412740E+02 -0.79770567866E+02  0.16052678086E+03  0.12500142575E+03 0.  0.
          2    1    1    2  501    0 -0.34603629859E+02 -0.56246381406E+02 -0.18254704486E+04  0.18266645629E+04  0.00000000000E+00 0. -1.
          1    1    1    2  502    0 -0.16837417608E+02  0.22571968666E+02  0.79958857196E+03  0.80008429357E+03  0.00000000000E+00 0. -1.
         22    1    3    3    0    0  0.12846357987E+02 -0.41985950029E+02  0.14197653219E+00  0.43907505858E+02  0.00000000000E+00 0.  1.
         22    1    3    3    0    0  0.38594689480E+02  0.75660362769E+02 -0.79912544398E+02  0.11661927500E+03  0.00000000000E+00 0.  1.
</event>
<event>
 7    1  0.7527776E-006  0.4899116E+02  0.7818608E-02  0.1538073E+00
          2   -1    0    0  502    0  0.00000000000E+00  0.00000000000E+00  0.11781506141E+04  0.11781506141E+04  0.00000000000E+00 0. -1.
          1   -1    0    0  501    0 -0.00000000000E+00 -0.00000000000E+00 -0.17635658511E+03  0.17635658511E+03  0.00000000000E+00 0. -1.
         25    2    1    2    0    0 -0.90137028153E+01  0.46483468092E+02  0.19484227646E+03  0.23628457454E+03  0.12499971132E+03 0.  0.
          2    1    1    2  501    0  0.33592892951E+02 -0.35877418418E+02 -0.15156356084E+03  0.15933356390E+03  0.00000000000E+00 0. -1.
          1    1    1    2  502    0 -0.24579190135E+02 -0.10606049673E+02  0.95851531337E+03  0.95888906076E+03  0.00000000000E+00 0. -1.
         22    1    3    3    0    0 -0.45301626827E+02 -0.25354246828E+02  0.60924122349E+02  0.80042638071E+02  0.00000000000E+00 0. -1.
         22    1    3    3    0    0  0.36287924011E+02  0.71837714919E+02  0.13391815411E+03  0.15624193647E+03  0.00000000000E+00 0. -1.
</event>
<event>
 7    1  0.7527776E-006  0.1485172E+03  0.7818608E-02  0.1220026E+00
          2   -1    0    0  502    0  0.00000000000E+00  0.00000000000E+00  0.71649754200E+03  0.71649754200E+03  0.00000000000E+00 0. -1.
          1   -1    0    0  501    0 -0.00000000000E+00 -0.00000000000E+00 -0.10244082555E+04  0.10244082555E+04  0.00000000000E+00 0. -1.
         25    2    1    2    0    0 -0.60097195929E+02  0.54187616863E+02  0.13371913658E+03  0.20013081126E+03  0.12499425326E+03 0.  0.
          2    1    1    2  501    0  0.12153764302E+03  0.85357780146E+02 -0.97489375281E+03  0.98614156112E+03  0.00000000000E+00 0. -1.
          1    1    1    2  502    0 -0.61440447092E+02 -0.13954539701E+03  0.53326390270E+03  0.55463342514E+03  0.00000000000E+00 0. -1.
         22    1    3    3    0    0 -0.52593350006E+02  0.87301791178E+01  0.14345459797E+03  0.15304083825E+03  0.00000000000E+00 0. -1.
         22    1    3    3    0    0 -0.75038459237E+01  0.45457437745E+02 -0.97354613884E+01  0.47089973014E+02  0.00000000000E+00 0. -1.
</event>
<event>
 7    1  0.7527776E-006  0.1106148E+03  0.7818608E-02  0.1339058E+00
          2   -1    0    0  502    0  0.00000000000E+00  0.00000000000E+00  0.44532714129E+03  0.44532714129E+03  0.00000000000E+00 0. -1.
          1   -1    0    0  501    0 -0.00000000000E+00 -0.00000000000E+00 -0.23389935490E+04  0.23389935490E+04  0.00000000000E+00 0. -1.
         25    2    1    2    0    0 -0.71750005156E+02 -0.14380974499E+03  0.17278756794E+03  0.26703882550E+03  0.12499953877E+03 0.  0.
          2    1    1    2  501    0  0.36703916808E+02  0.10403448346E+03 -0.22874032319E+04  0.22900619853E+04  0.00000000000E+00 0. -1.
          1    1    1    2  502    0  0.35046088349E+02  0.39775261524E+02  0.22094925632E+03  0.22721987942E+03  0.00000000000E+00 0. -1.
         22    1    3    3    0    0 -0.42574814107E+02 -0.13217325901E+02 -0.46276363729E+01  0.44818829956E+02  0.00000000000E+00 0. -1.
         22    1    3    3    0    0 -0.29175191049E+02 -0.13059241908E+03  0.17741520432E+03  0.22221999554E+03  0.00000000000E+00 0. -1.
</event>
<event>
 7    1  0.7527776E-006  0.5815344E+02  0.7818608E-02  0.1514046E+00
          2   -1    0    0  502    0  0.00000000000E+00  0.00000000000E+00  0.57663577108E+03  0.57663577108E+03  0.00000000000E+00 0. -1.
          1   -1    0    0  501    0 -0.00000000000E+00 -0.00000000000E+00 -0.14980870868E+03  0.14980870868E+03  0.00000000000E+00 0. -1.
         25    2    1    2    0    0  0.46066762893E+02  0.61392895670E+02  0.27324591289E+03  0.31012870673E+03  0.12500100617E+03 0.  0.
          2    1    1    2  501    0 -0.24452091262E+02 -0.10079932675E+02 -0.12727480125E+03  0.12999378771E+03  0.00000000000E+00 0. -1.
          1    1    1    2  502    0 -0.21614671631E+02 -0.51312962995E+02  0.28085595075E+03  0.28632198532E+03  0.00000000000E+00 0. -1.
         22    1    3    3    0    0 -0.43960173586E+01  0.82916331525E+02  0.10939923702E+03  0.13734131230E+03  0.00000000000E+00 0.  1.
         22    1    3    3    0    0  0.50462780251E+02 -0.21523435855E+02  0.16384667587E+03  0.17278739444E+03  0.00000000000E+00 0.  1.
</event>
<event>
 7    1  0.7527776E-006  0.8350720E+02  0.7818608E-02  0.1354183E+00
          2   -1    0    0  502    0  0.00000000000E+00  0.00000000000E+00  0.15008895661E+04  0.15008895661E+04  0.00000000000E+00 0. -1.
          1   -1    0    0  501    0 -0.00000000000E+00 -0.00000000000E+00 -0.31353530249E+03  0.31353530249E+03  0.00000000000E+00 0. -1.
         25    2    1    2    0    0 -0.26892595264E+01 -0.58105839478E+02  0.19542436394E+02  0.13924975912E+03  0.12500027159E+03 0.  0.
          2    1    1    2  501    0 -0.61586352165E+02  0.33727071373E+01 -0.24865715323E+03  0.25619257167E+03  0.00000000000E+00 0. -1.
          1    1    1    2  502    0  0.64275611692E+02  0.54733132341E+02  0.14164689805E+04  0.14189825378E+04  0.00000000000E+00 0. -1.
         22    1    3    3    0    0 -0.29208567532E+01 -0.74358974851E+02  0.60036732700E+02  0.95614840994E+02  0.00000000000E+00 0.  1.
         22    1    3    3    0    0  0.23159722680E+00  0.16253135373E+02 -0.40494296306E+02  0.43634918128E+02  0.00000000000E+00 0.  1.
</event>
<event>
 7    1  0.7527776E-006  0.1371165E+03  0.7818608E-02  0.1411446E+00
          2   -1    0    0  502    0  0.00000000000E+00  0.00000000000E+00  0.15991398659E+04  0.15991398659E+04  0.00000000000E+00 0. -1.
          1   -1    0    0  501    0 -0.00000000000E+00 -0.00000000000E+00 -0.52190140514E+03  0.52190140514E+03  0.00000000000E+00 0. -1.
         25    2    1    2    0    0  0.32750869128E+02 -0.11009741489E+03  0.12467655869E+03  0.21064020855E+03  0.12502396961E+03 0.  0.
          2    1    1    2  501    0 -0.38757929673E+02  0.13290890650E+03 -0.46881436097E+03  0.48882906991E+03  0.00000000000E+00 0. -1.
          1    1    1    2  502    0  0.60070605457E+01 -0.22811491619E+02  0.14213762630E+04  0.14215719926E+04  0.00000000000E+00 0. -1.
         22    1    3    3    0    0 -0.31365140982E+02 -0.19668526328E+02  0.85324447622E+02  0.93010130409E+02  0.00000000000E+00 0. -1.
         22    1    3    3    0    0  0.64116010109E+02 -0.90428888557E+02  0.39352111068E+02  0.11763007814E+03  0.00000000000E+00 0. -1.
</event>
<event>
 7    1  0.7527776E-006  0.1451756E+03  0.7818608E-02  0.1257184E+00
          2   -1    0    0  502    0  0.00000000000E+00  0.00000000000E+00  0.80386542903E+03  0.80386542903E+03  0.00000000000E+00 0. -1.
          1   -1    0    0  501    0 -0.00000000000E+00 -0.00000000000E+00 -0.20814735035E+03  0.20814735035E+03  0.00000000000E+00 0. -1.
         25    2    1    2    0    0  0.94017289907E+02  0.11330517385E+03  0.26409483066E+03  0.32719042785E+03  0.12502073137E+03 0.  0.
          2    1    1    2  501    0 -0.14568614846E+02 -0.14667555406E+03 -0.14125646463E+03  0.20415521423E+03  0.00000000000E+00 0. -1.
          1    1    1    2  502    0 -0.79448675061E+02  0.33370380214E+02  0.47287971265E+03  0.48066713730E+03  0.00000000000E+00 0. -1.
         22    1    3    3    0    0  0.17265658148E+02 -0.27642642414E+02  0.41350708351E+02  0.52650733253E+02  0.00000000000E+00 0.  1.
         22    1    3    3    0    0  0.76751631759E+02  0.14094781626E+03  0.22274412231E+03  0.27453969460E+03  0.00000000000E+00 0.  1.
</event>
<event>
 7    1  0.7527776E-006  0.3931406E+02  0.7818608E-02  0.1608559E+00
          2   -1    0    0  502    0  0.00000000000E+00  0.00000000000E+00  0.14144408379E+04  0.14144408379E+04  0.00000000000E+00 0. -1.
          1   -1    0    0  501    0 -0.00000000000E+00 -0.00000000000E+00 -0.48706159353E+02  0.48706159353E+02  0.00000000000E+00 0. -1.
         25    2    1    2    0    0  0.44544040807E+02  0.10159920572E+02  0.18073252327E+03  0.22444892273E+03  0.12500271353E+03 0.  0.
          2    1    1    2  501    0 -0.29649084783E+02 -0.25665435810E+02 -0.12380424427E+02  0.41122472357E+02  0.00000000000E+00 0. -1.
          1    1    1    2  502    0 -0.14894956025E+02  0.15505515238E+02  0.11973825797E+04  0.11975756022E+04  0.00000000000E+00 0. -1.
         22    1    3    3    0    0  0.47157181713E+02 -0.31352650093E+01  0.42554799354E+01  0.47452489748E+02  0.00000000000E+00 0. -1.
         22    1    3    3    0    0 -0.26131409057E+01  0.13295185582E+02  0.17647704333E+03  0.17699643298E+03  0.00000000000E+00 0. -1.
</event>
<event>
 7    1  0.7527776E-006  0.2118419E+03  0.7818608E-02  0.1340570E+00
          2   -1    0    0  502    0  0.00000000000E+00  0.00000000000E+00  0.60898512155E+03  0.60898512155E+03  0.00000000000E+00 0. -1.
          1   -1    0    0  501    0 -0.00000000000E+00 -0.00000000000E+00 -0.16896034496E+04  0.16896034496E+04  0.00000000000E+00 0. -1.
         25    2    1    2    0    0  0.11713674488E+03 -0.19124251137E+03  0.25340793948E+03  0.36074219603E+03  0.12499853217E+03 0.  0.
          2    1    1    2  501    0  0.41447164394E+01  0.27004250226E+02 -0.16012900651E+04  0.16015231128E+04  0.00000000000E+00 0. -1.
          1    1    1    2  502    0 -0.12128146132E+03  0.16423826115E+03  0.26726379758E+03  0.33632326232E+03  0.00000000000E+00 0. -1.
         22    1    3    3    0    0  0.63246472942E+02 -0.17418301762E+03  0.23897042743E+03  0.30240156275E+03  0.00000000000E+00 0. -1.
         22    1    3    3    0    0  0.53890271939E+02 -0.17059493755E+02  0.14437512047E+02  0.58340633275E+02  0.00000000000E+00 0. -1.
</event>
<event>
 7    1  0.7527776E-006  0.5015159E+02  0.7818608E-02  0.1524519E+00
          2   -1    0    0  502    0  0.00000000000E+00  0.00000000000E+00  0.62033766336E+03  0.62033766336E+03  0.00000000000E+00 0. -1.
          1   -1    0    0  501    0 -0.00000000000E+00 -0.00000000000E+00 -0.74143696135E+02  0.74143696135E+02  0.00000000000E+00 0. -1.
         25    2    1    2    0    0  0.12786163417E+01  0.29746372557E+02  0.87500419099E+02  0.15545851727E+03  0.12499818282E+03 0.  0.
          2    1    1    2  501    0  0.18825251489E+02 -0.50077159955E+02 -0.21734210026E+02  0.57745025138E+02  0.00000000000E+00 0. -1.
          1    1    1    2  502    0 -0.20103867831E+02  0.20330787398E+02  0.48042775815E+03  0.48127781709E+03  0.00000000000E+00 0. -1.
         22    1    3    3    0    0  0.34723564701E+02  0.68591167177E+02  0.46778191210E+02  0.89992629326E+02  0.00000000000E+00 0. -1.
         22    1    3    3    0    0 -0.33444948359E+02 -0.38844794620E+02  0.40722227890E+02  0.65465887943E+02  0.00000000000E+00 0. -1.
</event>
<event>
 7    1  0.7527776E-006  0.3403233E+02  0.7818608E-02  0.1571621E+00
          2   -1    0    0  502    0  0.00000000000E+00  0.00000000000E+00  0.16763460869E+03  0.16763460869E+03  0.00000000000E+00 0. -1.
          1   -1    0    0  501    0 -0.00000000000E+00 -0.00000000000E+00 -0.35230743711E+03  0.35230743711E+03  0.00000000000E+00 0. -1.
         25    2    1    2    0    0  0.61312560325E+02  0.79654088161E+01  0.54155786434E+02  0.14960110394E+03  0.12499985322E+03 0.  0.
          2    1    1    2  501    0 -0.29528876040E+02 -0.97875305381E+01 -0.29987908079E+03  0.30148833040E+03  0.00000000000E+00 0. -1.
          1    1    1    2  502    0 -0.31783684285E+02  0.18221217220E+01  0.61050465930E+02  0.68852611458E+02  0.00000000000E+00 0. -1.
         22    1    3    3    0    0  0.96637189514E+02  0.25400898391E+02  0.41857054634E+02  0.10833265924E+03  0.00000000000E+00 0. -1.
         22    1    3    3    0    0 -0.35324629189E+02 -0.17435489574E+02  0.12298731800E+02  0.41268444700E+02  0.00000000000E+00 0. -1.
</event>
<event>
 7    1  0.7527776E-006  0.7290088E+02  0.7818608E-02  0.1356557E+00
          2   -1    0    0  502    0  0.00000000000E+00  0.00000000000E+00  0.10343838276E+03  0.10343838276E+03  0.00000000000E+00 0. -1.
          1   -1    0    0  501    0 -0.00000000000E+00 -0.00000000000E+00 -0.27376223469E+04  0.27376223469E+04  0.00000000000E+00 0. -1.
         25    2    1    2    0    0 -0.33971352673E+02  0.79347770180E+01 -0.20782985542E+03  0.24501995889E+03  0.12499807182E+03 0.  0.
          2    1    1    2  501    0  0.43589310925E+02  0.60641256990E+02 -0.24964159059E+04  0.24975327356E+04  0.00000000000E+00 0. -1.
          1    1    1    2  502    0 -0.96179582521E+01 -0.68576034008E+02  0.70061797218E+02  0.98508035158E+02  0.00000000000E+00 0. -1.
         22    1    3    3    0    0 -0.76731792442E+02  0.21908770132E+02 -0.98303476297E+02  0.12661491078E+03  0.00000000000E+00 0.  1.
         22    1    3    3    0    0  0.42760439769E+02 -0.13973993114E+02 -0.10952637913E+03  0.11840504811E+03  0.00000000000E+00 0.  1.
</event>
<event>
 7    1  0.7527776E-006  0.1078680E+03  0.7818608E-02  0.1292455E+00
          2   -1    0    0  502    0  0.00000000000E+00  0.00000000000E+00  0.88411063770E+03  0.88411063770E+03  0.00000000000E+00 0. -1.
          1   -1    0    0  501    0 -0.00000000000E+00 -0.00000000000E+00 -0.18073825767E+03  0.18073825767E+03  0.00000000000E+00 0. -1.
         25    2    1    2    0    0 -0.84798050700E+02  0.16205355614E+03  0.18720719400E+03  0.29004385593E+03  0.12500736144E+03 0.  0.
          2    1    1    2  501    0  0.26751858068E+02 -0.78225828975E+02 -0.11155899636E+03  0.13885370682E+03  0.00000000000E+00 0. -1.
          1    1    1    2  502    0  0.58046192632E+02 -0.83827727165E+02  0.62772418238E+03  0.63595133263E+03  0.00000000000E+00 0. -1.
         22    1    3    3    0    0 -0.65518880945E+02  0.95398671669E+02  0.18786807961E+03  0.22065367809E+03  0.00000000000E+00 0.  1.
         22    1    3    3    0    0 -0.19279169755E+02  0.66654884471E+02 -0.66088561333E+00  0.69390177835E+02  0.00000000000E+00 0.  1.
</event>
<event>
 7    1  0.7527776E-006  0.4430308E+02  0.7818608E-02  0.1494630E+00
          2   -1    0    0  502    0  0.00000000000E+00  0.00000000000E+00  0.10337272106E+04  0.10337272106E+04  0.00000000000E+00 0. -1.
          1   -1    0    0  501    0 -0.00000000000E+00 -0.00000000000E+00 -0.10783077281E+03  0.10783077281E+03  0.00000000000E+00 0. -1.
         25    2    1    2    0    0 -0.70477148431E+01 -0.73325743249E+02  0.26096285605E+03  0.29858443938E+03  0.12499888117E+03 0.  0.
          2    1    1    2  501    0  0.22533813756E+02  0.32612588600E+02 -0.83942584969E+02  0.92831628602E+02  0.00000000000E+00 0. -1.
          1    1    1    2  502    0 -0.15486098913E+02  0.40713154649E+02  0.74887616666E+03  0.75014191538E+03  0.00000000000E+00 0. -1.
         22    1    3    3    0    0 -0.72805662996E+01 -0.30345765233E+02  0.25294448118E+03  0.25486228178E+03  0.00000000000E+00 0. -1.
         22    1    3    3    0    0  0.23285145647E+00 -0.42979978016E+02  0.80183748726E+01  0.43722157605E+02  0.00000000000E+00 0. -1.
</event>
<event>
 7    1  0.7527776E-006  0.3541804E+02  0.7818608E-02  0.1583134E+00
          2   -1    0    0  502    0  0.00000000000E+00  0.00000000000E+00  0.10514300854E+04  0.10514300854E+04  0.00000000000E+00 0. -1.
          1   -1    0    0  501    0 -0.00000000000E+00 -0.00000000000E+00 -0.14241935014E+04  0.14241935014E+04  0.00000000000E+00 0. -1.
         25    2    1    2    0    0 -0.18083117022E+02  0.40346489241E+02 -0.16970674416E+03  0.21536189806E+03  0.12500211921E+03 0.  0.
          2    1    1    2  501    0 -0.13510777263E+02 -0.24334649034E+02 -0.12311969273E+04  0.12315115063E+04  0.00000000000E+00 0. -1.
          1    1    1    2  502    0  0.31593894285E+02 -0.16011840207E+02  0.10281402555E+04  0.10287501825E+04  0.00000000000E+00 0. -1.
         22    1    3    3    0    0 -0.55155912152E+02  0.41991731993E+01 -0.15014663222E+03  0.16001193351E+03  0.00000000000E+00 0. -1.
         22    1    3    3    0    0  0.37072795130E+02  0.36147316042E+02 -0.19560111939E+02  0.55349964542E+02  0.00000000000E+00 0. -1.
</event>
<event>
 7    1  0.7527776E-006  0.5203795E+02  0.7818608E-02  0.1507915E+00
          2   -1    0    0  502    0  0.00000000000E+00  0.00000000000E+00  0.79059564580E+03  0.79059564580E+03  0.00000000000E+00 0. -1.
          1   -1    0    0  501    0 -0.00000000000E+00 -0.00000000000E+00 -0.87387374246E+03  0.87387374246E+03  0.00000000000E+00 0. -1.
         25    2    1    2    0    0 -0.59298997817E+02  0.25498865914E+02  0.30302963703E+03  0.33410559446E+03  0.12503209198E+03 0.  0.
          2    1    1    2  501    0  0.27073877377E+02  0.14703500322E+02 -0.85665202130E+03  0.85720585238E+03  0.00000000000E+00 0. -1.
          1    1    1    2  502    0  0.32225120440E+02 -0.40202366236E+02  0.47034428761E+03  0.47315794142E+03  0.00000000000E+00 0. -1.
         22    1    3    3    0    0 -0.14411919219E+02  0.24343542323E+01 -0.95622843713E+01  0.17466160955E+02  0.00000000000E+00 0.  1.
         22    1    3    3    0    0 -0.44887078598E+02  0.23064511682E+02  0.31259192141E+03  0.31663943351E+03  0.00000000000E+00 0.  1.
</event>
<event>
 7    1  0.7527776E-006  0.8450780E+02  0.7818608E-02  0.1343727E+00
          2   -1    0    0  502    0  0.00000000000E+00  0.00000000000E+00  0.54478448068E+02  0.54478448068E+02  0.00000000000E+00 0. -1.
          1   -1    0    0  501    0 -0.00000000000E+00 -0.00000000000E+00 -0.66215543758E+03  0.66215543758E+03  0.00000000000E+00 0. -1.
         25    2    1    2    0    0 -0.29898826366E+02  0.96631959690E+00 -0.34211911196E+03  0.36546703399E+03  0.12500317024E+03 0.  0.
          2    1    1    2  501    0  0.88092031295E+02  0.60312711688E+02 -0.24032661041E+03  0.26297282909E+03  0.00000000000E+00 0. -1.
          1    1    1    2  502    0 -0.58193204929E+02 -0.61279031285E+02 -0.25231267136E+02  0.88194022566E+02  0.00000000000E+00 0. -1.
         22    1    3    3    0    0  0.13827317217E+02 -0.46940402360E+02 -0.67989850795E+02  0.83768824071E+02  0.00000000000E+00 0.  1.
         22    1    3    3    0    0 -0.43726143583E+02  0.47906721957E+02 -0.27412926117E+03  0.28169820992E+03  0.00000000000E+00 0.  1.
</event>
<event>
 7    1  0.7527776E-006  0.3723049E+02  0.7818608E-02  0.1596107E+00
          2   -1    0    0  502    0  0.00000000000E+00  0.00000000000E+00  0.32884050469E+03  0.32884050469E+03  0.00000000000E+00 0. -1.
          1   -1    0    0  501    0 -0.00000000000E+00 -0.00000000000E+00 -0.11874902420E+03  0.11874902420E+03  0.00000000000E+00 0. -1.
         25    2    1    2    0    0  0.21009546303E+02  0.45905581440E+02  0.23900960255E+03  0.27440843101E+03  0.12500269379E+03 0.  0.
          2    1    1    2  501    0 -0.21857006232E+02 -0.10990811015E+02 -0.95182495222E+02  0.98276314770E+02  0.00000000000E+00 0. -1.
          1    1    1    2  502    0  0.84745992956E+00 -0.34914770425E+02  0.66264373170E+02  0.74904783117E+02  0.00000000000E+00 0. -1.
         22    1    3    3    0    0  0.29541363611E+01  0.73441446726E+02  0.67586078250E+02  0.99851144170E+02  0.00000000000E+00 0. -1.
         22    1    3    3    0    0  0.18055409941E+02 -0.27535865286E+02  0.17142352430E+03  0.17455728683E+03  0.00000000000E+00 0. -1.
</event>
<event>
 7    1  0.7527776E-006  0.4960092E+02  0.7818608E-02  0.1450626E+00
          2   -1    0    0  502    0  0.00000000000E+00  0.00000000000E+00  0.33825196093E+03  0.33825196093E+03  0.00000000000E+00 0. -1.
          1   -1    0    0  501    0 -0.00000000000E+00 -0.00000000000E+00 -0.35130638074E+03  0.35130638074E+03  0.00000000000E+00 0. -1.
         25    2    1    2    0    0  0.74802316006E+02 -0.40557369363E+02 -0.40709852682E+02  0.15659897478E+03  0.12500264040E+03 0.  0.
          2    1    1    2  501    0 -0.48557222751E+02 -0.19507735743E+00 -0.24818593013E+03  0.25289147445E+03  0.00000000000E+00 0. -1.
          1    1    1    2  502    0 -0.26245093255E+02  0.40752446721E+02  0.27584136300E+03  0.28006789244E+03  0.00000000000E+00 0. -1.
         22    1    3    3    0    0 -0.19090377564E+02 -0.53150692518E+02 -0.14512588099E+02  0.58309980656E+02  0.00000000000E+00 0.  1.
         22    1    3    3    0    0  0.93892693570E+02  0.12593323155E+02 -0.26197264583E+02  0.98288994122E+02  0.00000000000E+00 0.  1.
</event>
<event>
 7    1  0.7527776E-006  0.1486975E+03  0.7818608E-02  0.1352751E+00
          2   -1    0    0  502    0  0.00000000000E+00  0.00000000000E+00  0.11741731317E+04  0.11741731317E+04  0.00000000000E+00 0. -1.
          1   -1    0    0  501    0 -0.00000000000E+00 -0.00000000000E+00 -0.13868879040E+03  0.13868879040E+03  0.00000000000E+00 0. -1.
         25    2    1    2    0    0  0.23049282144E+02  0.17661455560E+03  0.10178676846E+03  0.24022823997E+03  0.12500036155E+03 0.  0.
          2    1    1    2  501    0  0.93879275489E+01 -0.33781553775E+02 -0.59301073549E+02  0.68890811311E+02  0.00000000000E+00 0. -1.
          1    1    1    2  502    0 -0.32437209693E+02 -0.14283300183E+03  0.99299864643E+03  0.10037428709E+04  0.00000000000E+00 0. -1.
         22    1    3    3    0    0 -0.28200810081E+02  0.15959418778E+03  0.63651844164E+02  0.17411820045E+03  0.00000000000E+00 0.  1.
         22    1    3    3    0    0  0.51250092225E+02  0.17020367818E+02  0.38134924299E+02  0.66110039517E+02  0.00000000000E+00 0.  1.
</event>
<event>
 7    1  0.7527776E-006  0.1642281E+03  0.7818608E-02  0.1281619E+00
          2   -1    0    0  502    0  0.00000000000E+00  0.00000000000E+00  0.69082367596E+03  0.69082367596E+03  0.00000000000E+00 0. -1.
          1   -1    0    0  501    0 -0.00000000000E+00 -0.00000000000E+00 -0.69022707573E+03  0.69022707573E+03  0.00000000000E+00 0. -1.
         25    2    1    2    0    0 -0.47462863534E+02  0.19598149677E+03 -0.19836078660E+03  0.30924532213E+03  0.12499678839E+03 0.  0.
          2    1    1    2  501    0  0.28056133654E+01 -0.15571468212E+03 -0.42102886787E+03  0.44891005923E+03  0.00000000000E+00 0. -1.
          1    1    1    2  502    0  0.44657250168E+02 -0.40266814649E+02  0.61998625470E+03  0.62289537033E+03  0.00000000000E+00 0. -1.
         22    1    3    3    0    0 -0.66894425820E+02  0.12571921599E+03 -0.63462161292E+02  0.15590904846E+03  0.00000000000E+00 0. -1.
         22    1    3    3    0    0  0.19431562286E+02  0.70262280778E+02 -0.13489862531E+03  0.15333627367E+03  0.00000000000E+00 0. -1.
</event>
<event>
 7    1  0.7527776E-006  0.5219458E+02  0.7818608E-02  0.1455099E+00
          2   -1    0    0  502    0  0.00000000000E+00  0.00000000000E+00  0.43449937928E+03  0.43449937928E+03  0.00000000000E+00 0. -1.
          1   -1    0    0  501    0 -0.00000000000E+00 -0.00000000000E+00 -0.30756022365E+04  0.30756022365E+04  0.00000000000E+00 0. -1.
         25    2    1    2    0    0  0.15118514908E+02 -0.76942931946E+02 -0.13069018608E+03  0.19711442141E+03  0.12500154447E+03 0.  0.
          2    1    1    2  501    0  0.20903895553E+02  0.39371110201E+02 -0.29098406526E+04  0.29101820700E+04  0.00000000000E+00 0. -1.
          1    1    1    2  502    0 -0.36022410461E+02  0.37571821745E+02  0.39942798145E+03  0.40280512435E+03  0.00000000000E+00 0. -1.
         22    1    3    3    0    0 -0.35855885558E+02 -0.20502455967E+02  0.49590523705E+01  0.41600329689E+02  0.00000000000E+00 0. -1.
         22    1    3    3    0    0  0.50974400466E+02 -0.56440475978E+02 -0.13564923845E+03  0.15551409172E+03  0.00000000000E+00 0. -1.
</event>
<event>
 7    1  0.7527776E-006  0.3406999E+02  0.7818608E-02  0.1558177E+00
          2   -1    0    0  502    0  0.00000000000E+00  0.00000000000E+00  0.31400852612E+04  0.31400852612E+04  0.00000000000E+00 0. -1.
          1   -1    0    0  501    0 -0.00000000000E+00 -0.00000000000E+00 -0.26918360333E+02  0.26918360333E+02  0.00000000000E+00 0. -1.
         25    2    1    2    0    0 -0.34667173052E+02 -0.58481458934E+01  0.14320747399E+04  0.14379501379E+04  0.12500609952E+03 0.  0.
          2    1    1    2  501    0  0.11805342572E+02  0.31959317215E+02 -0.11611320047E+02  0.35994260978E+02  0.00000000000E+00 0. -1.
          1    1    1    2  502    0  0.22861830479E+02 -0.26111171321E+02  0.16927034811E+04  0.16930592226E+04  0.00000000000E+00 0. -1.
         22    1    3    3    0    0 -0.26887201164E+02 -0.18363669297E+02  0.88580100143E+02  0.94374679220E+02  0.00000000000E+00 0.  1.
         22    1    3    3    0    0 -0.77799718874E+01  0.12515523403E+02  0.13434946397E+04  0.13435754587E+04  0.00000000000E+00 0.  1.
</event>
<event>
 7    1  0.7527776E-006  0.7644745E+02  0.7818608E-02  0.1431452E+00
          2   -1    0    0  502    0  0.00000000000E+00  0.00000000000E+00  0.70928923619E+02  0.70928923619E+02  0.00000000000E+00 0. -1.
          1   -1    0    0  501    0 -0.00000000000E+00 -0.00000000000E+00 -0.98814416354E+03  0.98814416354E+03  0.00000000000E+00 0. -1.
         25    2    1    2    0    0 -0.61391914881E+01  0.10316846032E+03 -0.25615470963E+03  0.30318608712E+03  0.12500058911E+03 0.  0.
          2    1    1    2  501    0  0.19671132319E+02 -0.30493050568E+02 -0.67887677970E+03  0.67984591018E+03  0.00000000000E+00 0. -1.
          1    1    1    2  502    0 -0.13531940831E+02 -0.72675409751E+02  0.17816249401E+02  0.76041089865E+02  0.00000000000E+00 0. -1.
         22    1    3    3    0    0 -0.29692341931E+02  0.73204629671E+02 -0.49895277112E+02  0.93434959478E+02  0.00000000000E+00 0. -1.
         22    1    3    3    0    0  0.23553150443E+02  0.29963830648E+02 -0.20625943252E+03  0.20975112764E+03  0.00000000000E+00 0. -1.
</event>
<event>
 7    1  0.7527776E-006  0.9242241E+02  0.7818608E-02  0.1337828E+00
          2   -1    0    0  502    0  0.00000000000E+00  0.00000000000E+00  0.81149136642E+03  0.81149136642E+03  0.00000000000E+00 0. -1.
          1   -1    0    0  501    0 -0.00000000000E+00 -0.00000000000E+00 -0.11428070237E+04  0.11428070237E+04  0.00000000000E+00 0. -1.
         25    2    1    2    0    0 -0.12144061473E+03 -0.72322693194E+02 -0.16442187520E+03  0.25026898532E+03  0.12498646772E+03 0.  0.
          2    1    1    2  501    0  0.30984210833E+02  0.56146552164E+02 -0.93160868613E+03  0.93381325794E+03  0.00000000000E+00 0. -1.
          1    1    1    2  502    0  0.90456403898E+02  0.16176141030E+02  0.76471490400E+03  0.77021614690E+03  0.00000000000E+00 0. -1.
         22    1    3    3    0    0 -0.26262952998E+02 -0.89040784233E+01  0.19349282749E+02  0.33814494757E+02  0.00000000000E+00 0. -1.
         22    1    3    3    0    0 -0.95177661732E+02 -0.63418614771E+02 -0.18377115795E+03  0.21645449056E+03  0.00000000000E+00 0. -1.
</event>
<event>
 7    1  0.7527776E-006  0.3022357E+02  0.7818608E-02  0.1632763E+00
          2   -1    0    0  502    0  0.00000000000E+00  0.00000000000E+00  0.41442518568E+03  0.41442518568E+03  0.00000000000E+00 0. -1.
          1   -1    0    0  501    0 -0.00000000000E+00 -0.00000000000E+00 -0.16390215392E+03  0.16390215392E+03  0.00000000000E+00 0. -1.
         25    2    1    2    0    0 -0.10389177853E+02  0.57197224122E+01 -0.45391208093E+02  0.13351572335E+03  0.12500174546E+03 0.  0.
          2    1    1    2  501    0  0.10819788944E+02 -0.29985335712E+02 -0.70616512716E+02  0.77478255393E+02  0.00000000000E+00 0. -1.
          1    1    1    2  502    0 -0.43061109142E+00  0.24265613300E+02  0.36653075257E+03  0.36733336085E+03  0.00000000000E+00 0. -1.
         22    1    3    3    0    0 -0.57024295008E+02  0.26722534539E+02  0.30795595355E+01  0.63050358922E+02  0.00000000000E+00 0.  1.
         22    1    3    3    0    0  0.46635117155E+02 -0.21002812127E+02 -0.48470767629E+02  0.70465364427E+02  0.00000000000E+00 0.  1.
</event>
<event>
 7    1  0.7527776E-006  0.5836245E+02  0.7818608E-02  0.1470029E+00
          2   -1    0    0  502    0  0.00000000000E+00  0.00000000000E+00  0.59940669864E+03  0.59940669864E+03  0.00000000000E+00 0. -1.
          1   -1    0    0  501    0 -0.00000000000E+00 -0.00000000000E+00 -0.11019516786E+04  0.11019516786E+04  0.00000000000E+00 0. -1.
         25    2    1    2    0    0  0.10861235579E+02 -0.65690486266E+02 -0.14734336975E+03  0.20437340117E+03  0.12500084829E+03 0.  0.
          2    1    1    2  501    0 -0.33720003648E+02  0.11971666353E+02 -0.92425368960E+03  0.92494607528E+03  0.00000000000E+00 0. -1.
          1    1    1    2  502    0  0.22858768069E+02  0.53718819913E+02  0.56905207942E+03  0.57203890076E+03  0.00000000000E+00 0. -1.
         22    1    3    3    0    0  0.67858280877E+02 -0.30587878768E+02 -0.71443337507E+02  0.10317225928E+03  0.00000000000E+00 0. -1.
         22    1    3    3    0    0 -0.56997045298E+02 -0.35102607497E+02 -0.75900032241E+02  0.10120114189E+03  0.00000000000E+00 0. -1.
</event>
<event>
 7    1  0.7527776E-006  0.7490432E+02  0.7818608E-02  0.1367975E+00
          2   -1    0    0  502    0  0.00000000000E+00  0.00000000000E+00  0.29262632733E+03  0.29262632733E+03  0.00000000000E+00 0. -1.
          1   -1    0    0  501    0 -0.00000000000E+00 -0.00000000000E+00 -0.29229538213E+03  0.29229538213E+03  0.00000000000E+00 0. -1.
         25    2    1    2    0    0  0.22565840217E+02 -0.22042428697E+01  0.91164990401E+00  0.12704231032E+03  0.12499936670E+03 0.  0.
          2    1    1    2  501    0 -0.70010153138E+02  0.40939819634E+02 -0.21768435904E+03  0.23230146479E+03  0.00000000000E+00 0. -1.
          1    1    1    2  502    0  0.47444312921E+02 -0.38735576764E+02  0.21710365433E+03  0.22557793434E+03  0.00000000000E+00 0. -1.
         22    1    3    3    0    0 -0.43421008220E+01 -0.40190877920E+02  0.46686280370E+02  0.61755722669E+02  0.00000000000E+00 0.  1.
         22    1    3    3    0    0  0.26907941039E+02  0.37986635050E+02 -0.45774630466E+02  0.65286587656E+02  0.00000000000E+00 0.  1.
</event>
<event>
 7    1  0.7527776E-006  0.1044570E+03  0.7818608E-02  0.1444767E+00
          2   -1    0    0  502    0  0.00000000000E+00  0.00000000000E+00  0.57738475148E+02  0.57738475148E+02  0.00000000000E+00 0. -1.
          1   -1    0    0  501    0 -0.00000000000E+00 -0.00000000000E+00 -0.84448561573E+03  0.84448561573E+03  0.00000000000E+00 0. -1.
         25    2    1    2    0    0  0.81655999154E+01  0.10174646016E+03 -0.14856273138E+03  0.21935125532E+03  0.12500027551E+03 0.  0.
          2    1    1    2  501    0  0.24029418419E+02  0.54120254025E+00 -0.53000797441E+03  0.53055269181E+03  0.00000000000E+00 0. -1.
          1    1    1    2  502    0 -0.32195018335E+02 -0.10228766270E+03 -0.10817643479E+03  0.15232014374E+03  0.00000000000E+00 0. -1.
         22    1    3    3    0    0  0.53730224225E+02  0.10231162299E+03 -0.11196380076E+03  0.16090524502E+03  0.00000000000E+00 0. -1.
         22    1    3    3    0    0 -0.45564624310E+02 -0.56516282857E+00 -0.36598930625E+02  0.58446010303E+02  0.00000000000E+00 0. -1.
</event>
<event>
 7    1  0.7527776E-006  0.6159448E+02  0.7818608E-02  0.1396372E+00
          2   -1    0    0  502    0  0.00000000000E+00  0.00000000000E+00  0.10462026019E+03  0.10462026019E+03  0.00000000000E+00 0. -1.
          1   -1    0    0  501    0 -0.00000000000E+00 -0.00000000000E+00 -0.69721544429E+03  0.69721544429E+03  0.00000000000E+00 0. -1.
         25    2    1    2    0    0  0.45975147339E+01  0.97799060240E+01 -0.28882529113E+03  0.31490008800E+03  0.12500093168E+03 0.  0.
          2    1    1    2  501    0 -0.50604013440E+02 -0.50734541862E+02 -0.38126694401E+03  0.38794231853E+03  0.00000000000E+00 0. -1.
          1    1    1    2  502    0  0.46006498706E+02  0.40954635838E+02  0.77497051041E+02  0.98993297954E+02  0.00000000000E+00 0. -1.
         22    1    3    3    0    0  0.52175594590E+02 -0.32280490425E+02 -0.15744447178E+03  0.16897657952E+03  0.00000000000E+00 0. -1.
         22    1    3    3    0    0 -0.47578079856E+02  0.42060396449E+02 -0.13138081935E+03  0.14592350848E+03  0.00000000000E+00 0. -1.
</event>
<event>
 7    1  0.7527776E-006  0.1579787E+03  0.7818608E-02  0.1236440E+00
          2   -1    0    0  502    0  0.00000000000E+00  0.00000000000E+00  0.20058227750E+03  0.20058227750E+03  0.00000000000E+00 0. -1.
          1   -1    0    0  501    0 -0.00000000000E+00 -0.00000000000E+00 -0.81843574299E+03  0.81843574299E+03  0.00000000000E+00 0. -1.
         25    2    1    2    0    0 -0.19616327214E+03 -0.13794881752E+03 -0.18780158761E+03  0.32924681044E+03  0.12499648107E+03 0.  0.
          2    1    1    2  501    0  0.68398791457E+02  0.69523143435E+02 -0.51339930317E+03  0.52258081351E+03  0.00000000000E+00 0. -1.
          1    1    1    2  502    0  0.12776448068E+03  0.68425674090E+02  0.83347425293E+02  0.16719039656E+03  0.00000000000E+00 0. -1.
         22    1    3    3    0    0 -0.19260287719E+03 -0.76835952560E+02 -0.16048602098E+03  0.26221249940E+03  0.00000000000E+00 0.  1.
         22    1    3    3    0    0 -0.35603949450E+01 -0.61112864964E+02 -0.27315566625E+02  0.67034311038E+02  0.00000000000E+00 0.  1.
</event>
<event>
 7    1  0.7527776E-006  0.6565130E+02  0.7818608E-02  0.1479163E+00
          2   -1    0    0  502    0  0.00000000000E+00  0.00000000000E+00  0.14119135609E+04  0.14119135609E+04  0.00000000000E+00 0. -1.
          1   -1    0    0  501    0 -0.00000000000E+00 -0.00000000000E+00 -0.19237410780E+03  0.19237410780E+03  0.00000000000E+00 0. -1.
         25    2    1    2    0    0 -0.15438238951E+02 -0.34244510116E+02  0.82696064189E+02  0.15451298632E+03  0.12499839285E+03 0.  0.
          2    1    1    2  501    0  0.27896320149E+02  0.61323711115E+02 -0.14903284153E+03  0.16355301916E+03  0.00000000000E+00 0. -1.
          1    1    1    2  502    0 -0.12458081198E+02 -0.27079200999E+02  0.12858762305E+04  0.12862216632E+04  0.00000000000E+00 0. -1.
         22    1    3    3    0    0  0.50364632485E+02  0.53267654232E+01  0.16890164654E+02  0.53387716726E+02  0.00000000000E+00 0.  1.
         22    1    3    3    0    0 -0.65802871436E+02 -0.39571275539E+02  0.65805899534E+02  0.10112526959E+03  0.00000000000E+00 0.  1.
</event>
<event>
 7    1  0.7527776E-006  0.1975313E+03  0.7818608E-02  0.1223959E+00
          2   -1    0    0  502    0  0.00000000000E+00  0.00000000000E+00  0.15370141452E+03  0.15370141452E+03  0.00000000000E+00 0. -1.
          1   -1    0    0  501    0 -0.00000000000E+00 -0.00000000000E+00 -0.12257667353E+04  0.12257667353E+04  0.00000000000E+00 0. -1.
         25    2    1    2    0    0  0.22338032439E+03 -0.51335129831E+02 -0.22899470884E+03  0.34727547599E+03  0.12501045823E+03 0.  0.
          2    1    1    2  501    0 -0.35001637608E+02  0.81528153695E+02 -0.83660875933E+03  0.84130028567E+03  0.00000000000E+00 0. -1.
          1    1    1    2  502    0 -0.18837868678E+03 -0.30193023864E+02 -0.64618526213E+01  0.19089238817E+03  0.00000000000E+00 0. -1.
         22    1    3    3    0    0  0.54949505606E+02 -0.41558872211E+02 -0.14113926030E+03  0.15705692861E+03  0.00000000000E+00 0.  1.
         22    1    3    3    0    0  0.16843081878E+03 -0.97762576197E+01 -0.87855448540E+02  0.19021854738E+03  0.00000000000E+00 0.  1.
</event>
<event>
 7    1  0.7527776E-006  0.4071919E+02  0.7818608E-02  0.1561246E+00
          2   -1    0    0  502    0  0.00000000000E+00  0.00000000000E+00  0.12445552397E+03  0.12445552397E+03  0.00000000000E+00 0. -1.
          1   -1    0    0  501    0 -0.00000000000E+00 -0.00000000000E+00 -0.16616110106E+03  0.16616110106E+03  0.00000000000E+00 0. -1.
         25    2    1    2    0    0 -0.36870895299E+02 -0.40977417618E+01  0.61820369364E+02  0.14430167075E+03  0.12499983882E+03 0.  0.
          2    1    1    2  501    0  0.29100155703E+01 -0.27598955702E+02 -0.95145941214E+02  0.99110648651E+02  0.00000000000E+00 0. -1.
          1    1    1    2  502    0  0.33960879728E+02  0.31696697464E+02 -0.83800052399E+01  0.47204305628E+02  0.00000000000E+00 0. -1.
         22    1    3    3    0    0 -0.25184372652E+02  0.29786805456E+02 -0.27720483711E+02  0.47853230009E+02  0.00000000000E+00 0. -1.
         22    1    3    3    0    0 -0.11686522646E+02 -0.33884547217E+02  0.89540853075E+02  0.96448440740E+02  0.00000000000E+00 0. -1.
</event>
<event>
 7    1  0.7527776E-006  0.1187629E+03  0.7818608E-02  0.1447344E+00
          2   -1    0    0  502    0  0.00000000000E+00  0.00000000000E+00  0.91886447663E+03  0.91886447663E+03  0.00000000000E+00 0. -1.
          1   -1    0    0  501    0 -0.00000000000E+00 -0.00000000000E+00 -0.10445078092E+03  0.10445078092E+03  0.00000000000E+00 0. -1.
         25    2    1    2    0    0 -0.93649748100E+02 -0.37398391187E+02  0.11429412786E+02  0.16100867952E+03  0.12499699365E+03 0.  0.
          2    1    1    2  501    0 -0.13918846776E+02 -0.15376309809E+02 -0.21082808558E+02  0.29574482508E+02  0.00000000000E+00 0. -1.
          1    1    1    2  502    0  0.10756859488E+03  0.52774700996E+02  0.82406709147E+03  0.83273209552E+03  0.00000000000E+00 0. -1.
         22    1    3    3    0    0 -0.11207319966E+03  0.34407260400E-01 -0.12735962935E+02  0.11279453895E+03  0.00000000000E+00 0. -1.
         22    1    3    3    0    0  0.18423451556E+02 -0.37432798447E+02  0.24165375721E+02  0.48214140567E+02  0.00000000000E+00 0. -1.
</event>
<event>
 7    1  0.7527776E-006  0.1809992E+03  0.7818608E-02  0.1270482E+00
          2   -1    0    0  502    0  0.00000000000E+00  0.00000000000E+00  0.99529964795E+03  0.99529964795E+03  0.00000000000E+00 0. -1.
          1   -1    0    0  501    0 -0.00000000000E+00 -0.00000000000E+00 -0.77786808908E+03  0.77786808908E+03  0.00000000000E+00 0. -1.
         25    2    1    2    0    0 -0.18848728787E+03 -0.44057959835E+02 -0.14615395475E+03  0.27286467595E+03  0.12500236549E+03 0.  0.
          2    1    1    2  501    0  0.17923156158E+03 -0.15931082268E+02 -0.55308808586E+03  0.58162202741E+03  0.00000000000E+00 0. -1.
          1    1    1    2  502    0  0.92557262896E+01  0.59989042103E+02  0.91667359948E+03  0.91868103367E+03  0.00000000000E+00 0. -1.
         22    1    3    3    0    0 -0.24657851239E-01 -0.36351056795E+02 -0.48067919681E+02  0.60265453127E+02  0.00000000000E+00 0.  1.
         22    1    3    3    0    0 -0.18846263002E+03 -0.77069030401E+01 -0.98086035068E+02  0.21259922282E+03  0.00000000000E+00 0.  1.
</event>
<event>
 7    1  0.7527776E-006  0.5979395E+02  0.7818608E-02  0.1537625E+00
          2   -1    0    0  502    0  0.00000000000E+00  0.00000000000E+00  0.16579977540E+04  0.16579977540E+04  0.00000000000E+00 0. -1.
          1   -1    0    0  501    0 -0.00000000000E+00 -0.00000000000E+00 -0.28845628875E+03  0.28845628875E+03  0.00000000000E+00 0. -1.
         25    2    1    2    0    0  0.34318717805E+02 -0.17074776800E+02 -0.77207816031E+02  0.15183247553E+03  0.12499092517E+03 0.  0.
          2    1    1    2  501    0  0.21499756123E+02 -0.46536605304E+01 -0.17268473249E+03  0.17408019102E+03  0.00000000000E+00 0. -1.
          1    1    1    2  502    0 -0.55818473928E+02  0.21728437331E+02  0.16194340138E+04  0.16205413762E+04  0.00000000000E+00 0. -1.
         22    1    3    3    0    0  0.70077580271E+02  0.24611959896E+02 -0.55741246741E+02  0.92863891878E+02  0.00000000000E+00 0. -1.
         22    1    3    3    0    0 -0.35758862466E+02 -0.41686736696E+02 -0.21466569290E+02  0.58968583655E+02  0.00000000000E+00 0. -1.
</event>
<event>
 7    1  0.7527776E-006  0.7142575E+02  0.7818608E-02  0.1511895E+00
          2   -1    0    0  502    0  0.00000000000E+00  0.00000000000E+00  0.30268269982E+03  0.30268269982E+03  0.00000000000E+00 0. -1.
          1   -1    0    0  501    0 -0.00000000000E+00 -0.00000000000E+00 -0.52975896141E+03  0.52975896141E+03  0.00000000000E+00 0. -1.
         25    2    1    2    0    0  0.83833189991E+00  0.71379939820E+02 -0.19765194910E+03  0.24451489112E+03  0.12500176153E+03 0.  0.
          2    1    1    2  501    0 -0.22474110598E+02 -0.68338257082E+02 -0.30404430532E+03  0.31243902226E+03  0.00000000000E+00 0. -1.
          1    1    1    2  502    0  0.21635778698E+02 -0.30416827381E+01  0.27461999284E+03  0.27548774786E+03  0.00000000000E+00 0. -1.
         22    1    3    3    0    0  0.95339139792E+01  0.50243003894E+01  0.16746487373E+02  0.19914415620E+02  0.00000000000E+00 0. -1.
         22    1    3    3    0    0 -0.86955820793E+01  0.66355639431E+02 -0.21439843647E+03  0.22460047550E+03  0.00000000000E+00 0. -1.
</event>
<event>
 7    1  0.7527776E-006  0.5373343E+02  0.7818608E-02  0.1465453E+00
          2   -1    0    0  502    0  0.00000000000E+00  0.00000000000E+00  0.11447085555E+03  0.11447085555E+03  0.00000000000E+00 0. -1.
          1   -1    0    0  501    0 -0.00000000000E+00 -0.00000000000E+00 -0.16262651489E+04  0.16262651489E+04  0.00000000000E+00 0. -1.
         25    2    1    2    0    0  0.16411578916E+02 -0.73031471306E+02 -0.40744372174E+02  0.15129229286E+03  0.12500527306E+03 0.  0.
          2    1    1    2  501    0 -0.32680487619E+02  0.23347663595E+02 -0.15183865928E+04  0.15189176979E+04  0.00000000000E+00 0. -1.
          1    1    1    2  502    0  0.16268908703E+02  0.49683807712E+02  0.47336671591E+02  0.70526013757E+02  0.00000000000E+00 0. -1.
         22    1    3    3    0    0  0.48908551712E+01  0.21973606347E+02 -0.50307649207E+02  0.55114602502E+02  0.00000000000E+00 0. -1.
         22    1    3    3    0    0  0.11520723745E+02 -0.95005077654E+02  0.95632770321E+01  0.96177690361E+02  0.00000000000E+00 0. -1.
</event>
<event>
 7    1  0.7527776E-006  0.7296323E+02  0.7818608E-02  0.1459805E+00
          2   -1    0    0  502    0  0.00000000000E+00  0.00000000000E+00  0.16698562375E+04  0.16698562375E+04  0.00000000000E+00 0. -1.
          1   -1    0    0  501    0 -0.00000000000E+00 -0.00000000000E+00 -0.19604145394E+04  0.19604145394E+04  0.00000000000E+00 0. -1.
         25    2    1    2    0    0  0.95013803348E+02 -0.21815159178E+02  0.14068354303E+03  0.21194424581E+03  0.12499992022E+03 0.  0.
          2    1    1    2  501    0 -0.65744251392E+02  0.31443154971E+02 -0.19239353244E+04  0.19253150680E+04  0.00000000000E+00 0. -1.
          1    1    1    2  502    0 -0.29269551956E+02 -0.96279957930E+01  0.14926934795E+04  0.14930114630E+04  0.00000000000E+00 0. -1.
         22    1    3    3    0    0 -0.14701456877E+02  0.26783403564E+02  0.52545423085E+01  0.31001512152E+02  0.00000000000E+00 0.  1.
         22    1    3    3    0    0  0.10971526023E+03 -0.48598562742E+02  0.13542900072E+03  0.18094273366E+03  0.00000000000E+00 0.  1.
</event>
<event>
 7    1  0.7527776E-006  0.4340267E+02  0.7818608E-02  0.1494946E+00
          2   -1    0    0  502    0  0.00000000000E+00  0.00000000000E+00  0.11102390740E+03  0.11102390740E+03  0.00000000000E+00 0. -1.
          1   -1    0    0  501    0 -0.00000000000E+00 -0.00000000000E+00 -0.21231568884E+04  0.21231568884E+04  0.00000000000E+00 0. -1.
         25    2    1    2    0    0  0.17818985412E+01 -0.69206090832E+01 -0.59407026571E+03  0.60712057180E+03  0.12499935240E+03 0.  0.
          2    1    1    2  501    0  0.21137016195E+02  0.40159157796E+02 -0.15183099818E+04  0.15189880619E+04  0.00000000000E+00 0. -1.
          1    1    1    2  502    0 -0.22918914736E+02 -0.33238548713E+02  0.10024726652E+03  0.10807216208E+03  0.00000000000E+00 0. -1.
         22    1    3    3    0    0 -0.28274679744E+02  0.48274792800E+02 -0.37723140979E+03  0.38135737789E+03  0.00000000000E+00 0.  1.
         22    1    3    3    0    0  0.30056578285E+02 -0.55195401883E+02 -0.21683885592E+03  0.22576319391E+03  0.00000000000E+00 0.  1.
</event>
<event>
 7    1  0.7527776E-006  0.1348129E+03  0.7818608E-02  0.1267340E+00
          2   -1    0    0  502    0  0.00000000000E+00  0.00000000000E+00  0.10644729584E+04  0.10644729584E+04  0.00000000000E+00 0. -1.
          1   -1    0    0  501    0 -0.00000000000E+00 -0.00000000000E+00 -0.14320949899E+04  0.14320949899E+04  0.00000000000E+00 0. -1.
         25    2    1    2    0    0 -0.98131601648E+02 -0.86619355459E+02 -0.78561598425E+02  0.19730674407E+03  0.12500121010E+03 0.  0.
          2    1    1    2  501    0  0.70138667697E+02 -0.46245184879E+02 -0.12882005123E+04  0.12909371053E+04  0.00000000000E+00 0. -1.
          1    1    1    2  502    0  0.27992933951E+02  0.13286454034E+03  0.99914007926E+03  0.10083240989E+04  0.00000000000E+00 0. -1.
         22    1    3    3    0    0 -0.57948183653E+02 -0.43127983821E+02 -0.10897287695E+03  0.13074059388E+03  0.00000000000E+00 0.  1.
         22    1    3    3    0    0 -0.40183417995E+02 -0.43491371638E+02  0.30411278530E+02  0.66566150186E+02  0.00000000000E+00 0.  1.
</event>
<event>
 7    1  0.7527776E-006  0.1361964E+03  0.7818608E-02  0.1350977E+00
          2   -1    0    0  502    0  0.00000000000E+00  0.00000000000E+00  0.11287961837E+04  0.11287961837E+04  0.00000000000E+00 0. -1.
          1   -1    0    0  501    0 -0.00000000000E+00 -0.00000000000E+00 -0.95674509525E+02  0.95674509525E+02  0.00000000000E+00 0. -1.
         25    2    1    2    0    0 -0.12305303181E+03  0.79700325637E+01  0.41396969586E+03  0.44966808263E+03  0.12499962157E+03 0.  0.
          2    1    1    2  501    0 -0.12463609146E+02  0.36809216859E+02 -0.65103771589E+02  0.75820584763E+02  0.00000000000E+00 0. -1.
          1    1    1    2  502    0  0.13551664095E+03 -0.44779249422E+02  0.68425574986E+03  0.69898202579E+03  0.00000000000E+00 0. -1.
         22    1    3    3    0    0 -0.10294727853E+03  0.20605554067E+02  0.41274643180E+03  0.42589006561E+03  0.00000000000E+00 0. -1.
         22    1    3    3    0    0 -0.20105753281E+02 -0.12635521504E+02  0.12232640528E+01  0.23778017024E+02  0.00000000000E+00 0. -1.
</event>
<event>
 7    1  0.7527776E-006  0.4828939E+02  0.7818608E-02  0.1540788E+00
          2   -1    0    0  502    0  0.00000000000E+00  0.00000000000E+00  0.37102486277E+03  0.37102486277E+03  0.00000000000E+00 0. -1.
          1   -1    0    0  501    0 -0.00000000000E+00 -0.00000000000E+00 -0.13565124963E+04  0.13565124963E+04  0.00000000000E+00 0. -1.
         25    2    1    2    0    0  0.41477972917E+02 -0.35948641447E+02  0.10676780745E+02  0.13693694878E+03  0.12500002894E+03 0.  0.
          2    1    1    2  501    0 -0.24960443490E+02 -0.94312649901E+01 -0.12912820130E+04  0.12915576679E+04  0.00000000000E+00 0. -1.
          1    1    1    2  502    0 -0.16517529427E+02  0.45379906437E+02  0.29511759872E+03  0.29904274236E+03  0.00000000000E+00 0. -1.
         22    1    3    3    0    0  0.84985809572E+01  0.29544818743E+02 -0.38033296941E+02  0.48904538328E+02  0.00000000000E+00 0.  1.
         22    1    3    3    0    0  0.32979391960E+02 -0.65493460190E+02  0.48710077686E+02  0.88032410451E+02  0.00000000000E+00 0.  1.
</event>
<event>
 7    1  0.7527776E-006  0.9613049E+02  0.7818608E-02  0.1318103E+00
          2   -1    0    0  502    0  0.00000000000E+00  0.00000000000E+00  0.95892919235E+03  0.95892919235E+03  0.00000000000E+00 0. -1.
          1   -1    0    0  501    0 -0.00000000000E+00 -0.00000000000E+00 -0.45118940915E+03  0.45118940915E+03  0.00000000000E+00 0. -1.
         25    2    1    2    0    0 -0.26748892131E+02 -0.31899409493E+02  0.31788693025E+03  0.34410867490E+03  0.12500241662E+03 0.  0.
          2    1    1    2  501    0  0.96719749537E+02  0.98005459784E+01 -0.43049615879E+03  0.44133627019E+03  0.00000000000E+00 0. -1.
          1    1    1    2  502    0 -0.69970857406E+02  0.22098863515E+02  0.62034901173E+03  0.62467365641E+03  0.00000000000E+00 0. -1.
         22    1    3    3    0    0 -0.92376130094E+01 -0.54108206068E+01  0.31154385664E+03  0.31172774192E+03  0.00000000000E+00 0.  1.
         22    1    3    3    0    0 -0.17511279121E+02 -0.26488588887E+02  0.63430736111E+01  0.32380932978E+02  0.00000000000E+00 0.  1.
</event>
<event>
 7    1  0.7527776E-006  0.1351350E+03  0.7818608E-02  0.1290546E+00
          2   -1    0    0  502    0  0.00000000000E+00  0.00000000000E+00  0.29614878873E+04  0.29614878873E+04  0.00000000000E+00 0. -1.
          1   -1    0    0  501    0 -0.00000000000E+00 -0.00000000000E+00 -0.35433740420E+03  0.35433740420E+03  0.00000000000E+00 0. -1.
         25    2    1    2    0    0 -0.10028230181E+03  0.35619161671E+02  0.23755405849E+03  0.28876061212E+03  0.12500198268E+03 0.  0.
          2    1    1    2  501    0  0.91749332745E+02 -0.10225477870E+03 -0.31394184071E+03  0.34268565651E+03  0.00000000000E+00 0. -1.
          1    1    1    2  502    0  0.85329690670E+01  0.66635617033E+02  0.26835382653E+04  0.26843790229E+04  0.00000000000E+00 0. -1.
         22    1    3    3    0    0 -0.69014174755E+02  0.64296512975E+02  0.22583935755E+03  0.24474560939E+03  0.00000000000E+00 0.  1.
         22    1    3    3    0    0 -0.31268127057E+02 -0.28677351304E+02  0.11714700943E+02  0.44015002733E+02  0.00000000000E+00 0.  1.
</event>
<event>
 7    1  0.7527776E-006  0.3962082E+02  0.7818608E-02  0.1573662E+00
          2   -1    0    0  502    0  0.00000000000E+00  0.00000000000E+00  0.16173151298E+03  0.16173151298E+03  0.00000000000E+00 0. -1.
          1   -1    0    0  501    0 -0.00000000000E+00 -0.00000000000E+00 -0.16771693139E+03  0.16771693139E+03  0.00000000000E+00 0. -1.
         25    2    1    2    0    0 -0.43749349448E+02 -0.13801426707E+02  0.87458739062E+02  0.15930618564E+03  0.12499977916E+03 0.  0.
          2    1    1    2  501    0  0.19621539087E+02 -0.17636777553E+02 -0.11972028007E+03  0.12259284717E+03  0.00000000000E+00 0. -1.
          1    1    1    2  502    0  0.24127810362E+02  0.31438204260E+02  0.26276122596E+02  0.47549411549E+02  0.00000000000E+00 0. -1.
         22    1    3    3    0    0 -0.34108363234E+02 -0.14632219143E+02 -0.26076509267E+02  0.45359305717E+02  0.00000000000E+00 0.  1.
         22    1    3    3    0    0 -0.96409862146E+01  0.83079243615E+00  0.11353524833E+03  0.11394687992E+03  0.00000000000E+00 0.  1.
</event>
<event>
 7    1  0.7527776E-006  0.1082124E+03  0.7818608E-02  0.1265259E+00
          2   -1    0    0  502    0  0.00000000000E+00  0.00000000000E+00  0.79306850036E+02  0.79306850036E+02  0.00000000000E+00 0. -1.
          1   -1    0    0  501    0 -0.00000000000E+00 -0.00000000000E+00 -0.19619018408E+04  0.19619018408E+04  0.00000000000E+00 0. -1.
         25    2    1    2    0    0 -0.97907276416E+02 -0.72593492910E+02 -0.53591832802E+03  0.56363837407E+03  0.12499644967E+03 0.  0.
          2    1    1    2  501    0  0.10166309387E+03 -0.37074633996E+02 -0.13624231489E+04  0.13667138507E+04  0.00000000000E+00 0. -1.
          1    1    1    2  502    0 -0.37558174570E+01  0.10966812691E+03  0.15746486195E+02  0.11085646599E+03  0.00000000000E+00 0. -1.
         22    1    3    3    0    0 -0.49787095698E+02  0.18915260781E+02 -0.31810258676E+03  0.32253030508E+03  0.00000000000E+00 0.  1.
         22    1    3    3    0    0 -0.48120180718E+02 -0.91508753691E+02 -0.21781574126E+03  0.24110806900E+03  0.00000000000E+00 0.  1.
</event>
<event>
 7    1  0.7527776E-006  0.9884397E+02  0.7818608E-02  0.1307137E+00
          2   -1    0    0  502    0  0.00000000000E+00  0.00000000000E+00  0.16106991794E+04  0.16106991794E+04  0.00000000000E+00 0. -1.
          1   -1    0    0  501    0 -0.00000000000E+00 -0.00000000000E+00 -0.37926532328E+03  0.37926532328E+03  0.00000000000E+00 0. -1.
         25    2    1    2    0    0 -0.94501492311E+02  0.86727673896E+02  0.98771239387E+01  0.17935853649E+03  0.12497882046E+03 0.  0.
          2    1    1    2  501    0  0.78070356749E+02  0.10683426499E+02 -0.28761022720E+03  0.29820925370E+03  0.00000000000E+00 0. -1.
          1    1    1    2  502    0  0.16431135562E+02 -0.97411100395E+02  0.15091669593E+04  0.15123967125E+04  0.00000000000E+00 0. -1.
         22    1    3    3    0    0 -0.77921111194E+02  0.62778561120E+02 -0.50675291471E+02  0.11216431015E+03  0.00000000000E+00 0. -1.
         22    1    3    3    0    0 -0.16580381117E+02  0.23949112776E+02  0.60552415409E+02  0.67194226334E+02  0.00000000000E+00 0. -1.
</event>
<event>
 7    1  0.7527776E-006  0.1055701E+03  0.7818608E-02  0.1424888E+00
          2   -1    0    0  502    0  0.00000000000E+00  0.00000000000E+00  0.11795074498E+04  0.11795074498E+04  0.00000000000E+00 0. -1.
          1   -1    0    0  501    0 -0.00000000000E+00 -0.00000000000E+00 -0.94063316560E+02  0.94063316560E+02  0.00000000000E+00 0. -1.
         25    2    1    2    0    0 -0.25800218366E+02 -0.90301570669E+02  0.74413712225E+02  0.17316593155E+03  0.12501605637E+03 0.  0.
          2    1    1    2  501    0  0.51410745101E+02  0.10064772633E+03  0.27275942264E+02  0.11626266191E+03  0.00000000000E+00 0. -1.
          1    1    1    2  502    0 -0.25610526735E+02 -0.10346155664E+02  0.98375447877E+03  0.98414217292E+03  0.00000000000E+00 0. -1.
         22    1    3    3    0    0 -0.59522491889E+02 -0.99014541126E+02  0.35319127149E+02  0.12080665188E+03  0.00000000000E+00 0. -1.
         22    1    3    3    0    0  0.33722273523E+02  0.87129704573E+01  0.39094585076E+02  0.52359279675E+02  0.00000000000E+00 0. -1.
</event>
<event>
 7    1  0.7527776E-006  0.1007392E+03  0.7818608E-02  0.1419809E+00
          2   -1    0    0  502    0  0.00000000000E+00  0.00000000000E+00  0.67436365446E+03  0.67436365446E+03  0.00000000000E+00 0. -1.
          1   -1    0    0  501    0 -0.00000000000E+00 -0.00000000000E+00 -0.71493520639E+02  0.71493520639E+02  0.00000000000E+00 0. -1.
         25    2    1    2    0    0  0.63657345470E+02 -0.65398936696E+02  0.49190847651E+03  0.51568117691E+03  0.12499539354E+03 0.  0.
          2    1    1    2  501    0 -0.46962786761E+02  0.90438901988E+02 -0.12892753822E+02  0.10271767830E+03  0.00000000000E+00 0. -1.
          1    1    1    2  502    0 -0.16694558709E+02 -0.25039965292E+02  0.12385441113E+03  0.12745831989E+03  0.00000000000E+00 0. -1.
         22    1    3    3    0    0  0.10162402479E+03 -0.51498486259E+02  0.37892834497E+03  0.39568450453E+03  0.00000000000E+00 0. -1.
         22    1    3    3    0    0 -0.37966679317E+02 -0.13900450437E+02  0.11298013153E+03  0.11999667238E+03  0.00000000000E+00 0. -1.
</event>
<event>
 7    1  0.7527776E-006  0.1263616E+03  0.7818608E-02  0.1408154E+00
          2   -1    0    0  502    0  0.00000000000E+00  0.00000000000E+00  0.81532815195E+03  0.81532815195E+03  0.00000000000E+00 0. -1.
          1   -1    0    0  501    0 -0.00000000000E+00 -0.00000000000E+00 -0.26748599817E+03  0.26748599817E+03  0.00000000000E+00 0. -1.
         25    2    1    2    0    0 -0.78188530916E+02  0.69160736261E+02 -0.14888529584E+03  0.22065572870E+03  0.12500186193E+03 0.  0.
          2    1    1    2  501    0 -0.65485253369E+01  0.25433659219E+02 -0.75303385059E+02  0.79751827607E+02  0.00000000000E+00 0. -1.
          1    1    1    2  502    0  0.84737056253E+02 -0.94594395480E+02  0.77203083467E+03  0.78240659382E+03  0.00000000000E+00 0. -1.
         22    1    3    3    0    0 -0.97187533389E+02  0.63169099275E+02 -0.16020667218E+03  0.19774207838E+03  0.00000000000E+00 0. -1.
         22    1    3    3    0    0  0.18999002473E+02  0.59916369854E+01  0.11321376350E+02  0.22913650324E+02  0.00000000000E+00 0. -1.
</event>
<event>
 7    1  0.7527776E-006  0.1508215E+03  0.7818608E-02  0.1369979E+00
          2   -1    0    0  502    0  0.00000000000E+00  0.00000000000E+00  0.50100947841E+03  0.50100947841E+03  0.00000000000E+00 0. -1.
          1   -1    0    0  501    0 -0.00000000000E+00 -0.00000000000E+00 -0.79817744426E+03  0.79817744426E+03  0.00000000000E+00 0. -1.
         25    2    1    2    0    0  0.15344765347E+03 -0.68468720182E+02 -0.26494284729E+03  0.33771732855E+03  0.12499653464E+03 0.  0.
          2    1    1    2  501    0 -0.13995157143E+03  0.41768307713E+02 -0.48561049833E+03  0.50709820545E+03  0.00000000000E+00 0. -1.
          1    1    1    2  502    0 -0.13496082033E+02  0.26700412469E+02  0.45338537977E+03  0.45437138868E+03  0.00000000000E+00 0. -1.
         22    1    3    3    0    0  0.98011062952E+02  0.24629455430E+02 -0.12965409342E+03  0.16438662499E+03  0.00000000000E+00 0. -1.
         22    1    3    3    0    0  0.55436590514E+02 -0.93098175612E+02 -0.13528875388E+03  0.17333070356E+03  0.00000000000E+00 0. -1.
</event>
<event>
 7    1  0.7527776E-006  0.9988112E+02  0.7818608E-02  0.1324128E+00
          2   -1    0    0  502    0  0.00000000000E+00  0.00000000000E+00  0.21244292234E+04  0.21244292234E+04  0.00000000000E+00 0. -1.
          1   -1    0    0  501    0 -0.00000000000E+00 -0.00000000000E+00 -0.26948901863E+02  0.26948901863E+02  0.00000000000E+00 0. -1.
         25    2    1    2    0    0  0.41888234783E+02  0.86830207284E+01  0.11757857577E+04  0.11831849427E+04  0.12499776597E+03 0.  0.
          2    1    1    2  501    0 -0.10574830693E+03  0.11345871713E+02  0.10738853738E+03  0.15114142776E+03  0.00000000000E+00 0. -1.
          1    1    1    2  502    0  0.63860072151E+02 -0.20028892441E+02  0.81430602643E+03  0.81705175480E+03  0.00000000000E+00 0. -1.
         22    1    3    3    0    0  0.22603419014E+02 -0.34712844541E+02  0.13261648991E+03  0.13893534296E+03  0.00000000000E+00 0.  1.
         22    1    3    3    0    0  0.19284815769E+02  0.43395865269E+02  0.10431692678E+04  0.10442495997E+04  0.00000000000E+00 0.  1.
</event>
<event>
 7    1  0.7527776E-006  0.1147935E+03  0.7818608E-02  0.1385955E+00
          2   -1    0    0  502    0  0.00000000000E+00  0.00000000000E+00  0.28149255284E+03  0.28149255284E+03  0.00000000000E+00 0. -1.
          1   -1    0    0  501    0 -0.00000000000E+00 -0.00000000000E+00 -0.15036633752E+04  0.15036633752E+04  0.00000000000E+00 0. -1.
         25    2    1    2    0    0  0.21366331527E+02 -0.78154740554E+02 -0.83870221702E+03  0.85183160712E+03  0.12502397555E+03 0.  0.
          2    1    1    2  501    0  0.43688834432E+01 -0.34214064337E+02 -0.64583187947E+03  0.64675227551E+03  0.00000000000E+00 0. -1.
          1    1    1    2  502    0 -0.25735214970E+02  0.11236880489E+03  0.26236327412E+03  0.28657204541E+03  0.00000000000E+00 0. -1.
         22    1    3    3    0    0 -0.15865831325E+02 -0.65092689232E+02 -0.18191721467E+03  0.19386246616E+03  0.00000000000E+00 0. -1.
         22    1    3    3    0    0  0.37232162853E+02 -0.13062051322E+02 -0.65678500235E+03  0.65796914095E+03  0.00000000000E+00 0. -1.
</event>
<event>
 7    1  0.7527776E-006  0.9116625E+02  0.7818608E-02  0.1300400E+00
          2   -1    0    0  502    0  0.00000000000E+00  0.00000000000E+00  0.88576057985E+03  0.88576057985E+03  0.00000000000E+00 0. -1.
          1   -1    0    0  501    0 -0.00000000000E+00 -0.00000000000E+00 -0.52598815459E+03  0.52598815459E+03  0.00000000000E+00 0. -1.
         25    2    1    2    0    0 -0.59696120514E+02  0.78187904335E+02 -0.14840332491E+03  0.21754390589E+03  0.12499931583E+03 0.  0.
          2    1    1    2  501    0 -0.30084607477E+02 -0.92244119914E+02 -0.33365867883E+03  0.34747974793E+03  0.00000000000E+00 0. -1.
          1    1    1    2  502    0  0.89780727991E+02  0.14056215579E+02  0.84183442900E+03  0.84672508062E+03  0.00000000000E+00 0. -1.
         22    1    3    3    0    0  0.31682219195E+02 -0.87349231542E+01 -0.33583238826E+02  0.46988251997E+02  0.00000000000E+00 0. -1.
         22    1    3    3    0    0 -0.91378339710E+02  0.86922827489E+02 -0.11482008608E+03  0.17055565389E+03  0.00000000000E+00 0. -1.
</event>
<event>
 7    1  0.7527776E-006  0.5631389E+02  0.7818608E-02  0.1489670E+00
          2   -1    0    0  502    0  0.00000000000E+00  0.00000000000E+00  0.19260667168E+04  0.19260667168E+04  0.00000000000E+00 0. -1.
          1   -1    0    0  501    0 -0.00000000000E+00 -0.00000000000E+00 -0.20743162489E+02  0.20743162489E+02  0.00000000000E+00 0. -1.
         25    2    1    2    0    0 -0.14919714554E+02  0.65354480304E+02  0.11157764334E+04  0.11247564072E+04  0.12500448069E+03 0.  0.
          2    1    1    2  501    0  0.37259145802E+02 -0.42055041709E+02  0.33700424310E+02  0.65517853122E+02  0.00000000000E+00 0. -1.
          1    1    1    2  502    0 -0.22339431248E+02 -0.23299438595E+02  0.75584669661E+03  0.75653561899E+03  0.00000000000E+00 0. -1.
         22    1    3    3    0    0 -0.61467759790E+02  0.10641423675E+02  0.70424076094E+03  0.70699828484E+03  0.00000000000E+00 0. -1.
         22    1    3    3    0    0  0.46548045236E+02  0.54713056629E+02  0.41153567247E+03  0.41775812236E+03  0.00000000000E+00 0. -1.
</event>
<event>
 7    1  0.7527776E-006  0.1020433E+03  0.7818608E-02  0.1343636E+00
          2   -1    0    0  502    0  0.00000000000E+00  0.00000000000E+00  0.82387978068E+03  0.82387978068E+03  0.00000000000E+00 0. -1.
          1   -1    0    0  501    0 -0.00000000000E+00 -0.00000000000E+00 -0.31096861073E+03  0.31096861073E+03  0.00000000000E+00 0. -1.
         25    2    1    2    0    0 -0.67933542243E+02  0.28366115978E+02  0.32848407955E+03  0.35908603084E+03  0.12498553648E+03 0.  0.
          2    1    1    2  501    0 -0.16775614871E+02  0.52626031255E+02 -0.28583159796E+03  0.29111960225E+03  0.00000000000E+00 0. -1.
          1    1    1    2  502    0  0.84709157115E+02 -0.80992147233E+02  0.47025868836E+03  0.48464275832E+03  0.00000000000E+00 0. -1.
         22    1    3    3    0    0  0.21625683853E+02 -0.30578014976E+02  0.96947833081E+02  0.10393059002E+03  0.00000000000E+00 0. -1.
         22    1    3    3    0    0 -0.89559226096E+02  0.58944130954E+02  0.23153624647E+03  0.25515544083E+03  0.00000000000E+00 0. -1.
</event>
<event>
 7    1  0.7527776E-006  0.7170637E+02  0.7818608E-02  0.1450353E+00
          2   -1    0    0  502    0  0.00000000000E+00  0.00000000000E+00  0.35553159391E+03  0.35553159391E+03  0.00000000000E+00 0. -1.
          1   -1    0    0  501    0 -0.00000000000E+00 -0.00000000000E+00 -0.25182226513E+04  0.25182226513E+04  0.00000000000E+00 0. -1.
         25    2    1    2    0    0 -0.17248998360E+02 -0.43570215467E+02 -0.19953092378E+02  0.13497392898E+03  0.12499577588E+03 0.  0.
          2    1    1    2  501    0  0.15648674376E+02 -0.29729929957E+02 -0.24361322547E+04  0.24363639121E+04  0.00000000000E+00 0. -1.
          1    1    1    2  502    0  0.16003239837E+01  0.73300145424E+02  0.29339428962E+03  0.30241640421E+03  0.00000000000E+00 0. -1.
         22    1    3    3    0    0 -0.60722533492E+02 -0.27814193145E+02 -0.46753940479E+02  0.81527825705E+02  0.00000000000E+00 0.  1.
         22    1    3    3    0    0  0.43473535132E+02 -0.15756022322E+02  0.26800848100E+02  0.53446103274E+02  0.00000000000E+00 0.  1.
</event>
<event>
 7    1  0.7527776E-006  0.4696481E+02  0.7818608E-02  0.1469472E+00
          2   -1    0    0  502    0  0.00000000000E+00  0.00000000000E+00  0.53815003119E+03  0.53815003119E+03  0.00000000000E+00 0. -1.
          1   -1    0    0  501    0 -0.00000000000E+00 -0.00000000000E+00 -0.19765622160E+03  0.19765622160E+03  0.00000000000E+00 0. -1.
         25    2    1    2    0    0 -0.25501509623E+02  0.76807845738E+02  0.14445547182E+03  0.20746146052E+03  0.12499240818E+03 0.  0.
          2    1    1    2  501    0 -0.65467036187E+01 -0.44161027205E+02 -0.16167110154E+03  0.16772179562E+03  0.00000000000E+00 0. -1.
          1    1    1    2  502    0  0.32048213242E+02 -0.32646818534E+02  0.35770943932E+03  0.36062299664E+03  0.00000000000E+00 0. -1.
         22    1    3    3    0    0 -0.72995920903E+02  0.45866615224E+02  0.57373978524E+02  0.10355638209E+03  0.00000000000E+00 0.  1.
         22    1    3    3    0    0  0.47494411279E+02  0.30941230514E+02  0.87081493296E+02  0.10390507843E+03  0.00000000000E+00 0.  1.
</event>
<event>
 7    1  0.7527776E-006  0.2682205E+02  0.7818608E-02  0.1658368E+00
          2   -1    0    0  502    0  0.00000000000E+00  0.00000000000E+00  0.22234522381E+04  0.22234522381E+04  0.00000000000E+00 0. -1.
          1   -1    0    0  501    0 -0.00000000000E+00 -0.00000000000E+00 -0.49464417625E+01  0.49464417625E+01  0.00000000000E+00 0. -1.
         25    2    1    2    0    0  0.14902198086E+02  0.25788413216E+02  0.15968936036E+04  0.16020551676E+04  0.12499784419E+03 0.  0.
          2    1    1    2  501    0 -0.23643121466E+02  0.41086724016E+00  0.67114846200E+02  0.71158756207E+02  0.00000000000E+00 0. -1.
          1    1    1    2  502    0  0.87409233795E+01 -0.26199280456E+02  0.55449734650E+03  0.55518475601E+03  0.00000000000E+00 0. -1.
         22    1    3    3    0    0  0.64426984767E+02  0.27344010854E+02  0.62648923072E+03  0.63038661748E+03  0.00000000000E+00 0.  1.
         22    1    3    3    0    0 -0.49524786680E+02 -0.15555976379E+01  0.97040437288E+03  0.97166855012E+03  0.00000000000E+00 0.  1.
</event>
<event>
 7    1  0.7527776E-006  0.7805603E+02  0.7818608E-02  0.1371094E+00
          2   -1    0    0  502    0  0.00000000000E+00  0.00000000000E+00  0.69767391873E+03  0.69767391873E+03  0.00000000000E+00 0. -1.
          1   -1    0    0  501    0 -0.00000000000E+00 -0.00000000000E+00 -0.16127022657E+04  0.16127022657E+04  0.00000000000E+00 0. -1.
         25    2    1    2    0    0 -0.71973589597E+02 -0.11222378838E+03 -0.79729297441E+03  0.81796301747E+03  0.12495212930E+03 0.  0.
          2    1    1    2  501    0  0.39644208141E+02  0.41339857500E+02 -0.80184174928E+03  0.80388484122E+03  0.00000000000E+00 0. -1.
          1    1    1    2  502    0  0.32329381455E+02  0.70883930880E+02  0.68410637676E+03  0.68852832570E+03  0.00000000000E+00 0. -1.
         22    1    3    3    0    0  0.10595149446E+02 -0.74120711207E+01 -0.40111541548E+01  0.13538291906E+02  0.00000000000E+00 0.  1.
         22    1    3    3    0    0 -0.82568739042E+02 -0.10481171726E+03 -0.79328182026E+03  0.80442472556E+03  0.00000000000E+00 0.  1.
</event>
<event>
 7    1  0.7527776E-006  0.1068264E+03  0.7818608E-02  0.1343595E+00
          2   -1    0    0  502    0  0.00000000000E+00  0.00000000000E+00  0.98058521795E+03  0.98058521795E+03  0.00000000000E+00 0. -1.
          1   -1    0    0  501    0 -0.00000000000E+00 -0.00000000000E+00 -0.24687317486E+04  0.24687317486E+04  0.00000000000E+00 0. -1.
         25    2    1    2    0    0  0.10154790122E+03  0.92988128723E+02 -0.20576050208E+04  0.20659918238E+04  0.12500010412E+03 0.  0.
          2    1    1    2  501    0 -0.26380245202E+01 -0.52714699981E+02 -0.40228409071E+03  0.40573179368E+03  0.00000000000E+00 0. -1.
          1    1    1    2  502    0 -0.98909876699E+02 -0.40273428742E+02  0.97174258085E+03  0.97759334910E+03  0.00000000000E+00 0. -1.
         22    1    3    3    0    0  0.58713500007E-01  0.95805137372E+01 -0.10274554737E+04  0.10275001412E+04  0.00000000000E+00 0.  1.
         22    1    3    3    0    0  0.10148918772E+03  0.83407614986E+02 -0.10301495470E+04  0.10384916825E+04  0.00000000000E+00 0.  1.
</event>
<event>
 7    1  0.7527776E-006  0.1080335E+03  0.7818608E-02  0.1295197E+00
          2   -1    0    0  502    0  0.00000000000E+00  0.00000000000E+00  0.13899158667E+04  0.13899158667E+04  0.00000000000E+00 0. -1.
          1   -1    0    0  501    0 -0.00000000000E+00 -0.00000000000E+00 -0.35267412282E+03  0.35267412282E+03  0.00000000000E+00 0. -1.
         25    2    1    2    0    0 -0.18213753197E+01  0.17399887293E+03  0.36963899149E+03  0.42724211155E+03  0.12499565061E+03 0.  0.
          2    1    1    2  501    0  0.35217414565E+02 -0.10078964613E+03 -0.31338140067E+03  0.33106905827E+03  0.00000000000E+00 0. -1.
          1    1    1    2  502    0 -0.33396039245E+02 -0.73209226801E+02  0.98098415307E+03  0.98427881969E+03  0.00000000000E+00 0. -1.
         22    1    3    3    0    0  0.10203564739E+02  0.66894787973E+02  0.36044797722E+02  0.76669764798E+02  0.00000000000E+00 0. -1.
         22    1    3    3    0    0 -0.12024940058E+02  0.10710408495E+03  0.33359419376E+03  0.35057234676E+03  0.00000000000E+00 0. -1.
</event>
<event>
 7    1  0.7527776E-006  0.9794164E+02  0.7818608E-02  0.1331928E+00
          2   -1    0    0  502    0  0.00000000000E+00  0.00000000000E+00  0.44457707625E+03  0.44457707625E+03  0.00000000000E+00 0. -1.
          1   -1    0    0  501    0 -0.00000000000E+00 -0.00000000000E+00 -0.13727631706E+04  0.13727631706E+04  0.00000000000E+00 0. -1.
         25    2    1    2    0    0 -0.59813995354E+02 -0.16177054783E+02 -0.41261719494E+03  0.43556496878E+03  0.12499792529E+03 0.  0.
          2    1    1    2  501    0 -0.30386196287E+02  0.56001115673E+02 -0.94197011352E+03  0.94412241825E+03  0.00000000000E+00 0. -1.
          1    1    1    2  502    0  0.90200191641E+02 -0.39824060890E+02  0.42640121406E+03  0.43765285986E+03  0.00000000000E+00 0. -1.
         22    1    3    3    0    0 -0.36456851821E+02 -0.56050391628E+02 -0.10490186129E+03  0.12439915172E+03  0.00000000000E+00 0. -1.
         22    1    3    3    0    0 -0.23357143534E+02  0.39873336846E+02 -0.30771533364E+03  0.31116581706E+03  0.00000000000E+00 0. -1.
</event>
<event>
 7    1  0.7527776E-006  0.3873240E+02  0.7818608E-02  0.1559286E+00
          2   -1    0    0  502    0  0.00000000000E+00  0.00000000000E+00  0.28285604217E+02  0.28285604217E+02  0.00000000000E+00 0. -1.
          1   -1    0    0  501    0 -0.00000000000E+00 -0.00000000000E+00 -0.17082128202E+04  0.17082128202E+04  0.00000000000E+00 0. -1.
         25    2    1    2    0    0  0.28410922634E+02 -0.20743439160E+01 -0.57513881637E+03  0.58925454866E+03  0.12499912635E+03 0.  0.
          2    1    1    2  501    0 -0.28669880375E+02 -0.27464500056E+02 -0.11152122190E+04  0.11159187042E+04  0.00000000000E+00 0. -1.
          1    1    1    2  502    0  0.25895774146E+00  0.29538843972E+02  0.10423819450E+02  0.31325171575E+02  0.00000000000E+00 0. -1.
         22    1    3    3    0    0  0.14897386339E+02  0.52146826972E+02 -0.13351189237E+03  0.14410638114E+03  0.00000000000E+00 0. -1.
         22    1    3    3    0    0  0.13513536294E+02 -0.54221170888E+02 -0.44162692400E+03  0.44514816751E+03  0.00000000000E+00 0. -1.
</event>
<event>
 7    1  0.7527776E-006  0.6372965E+02  0.7818608E-02  0.1454538E+00
          2   -1    0    0  502    0  0.00000000000E+00  0.00000000000E+00  0.11549181008E+04  0.11549181008E+04  0.00000000000E+00 0. -1.
          1   -1    0    0  501    0 -0.00000000000E+00 -0.00000000000E+00 -0.18441073727E+02  0.18441073727E+02  0.00000000000E+00 0. -1.
         25    2    1    2    0    0  0.31939005880E+02  0.12759191300E+02  0.37141324902E+03  0.39339030288E+03  0.12500092716E+03 0.  0.
          2    1    1    2  501    0  0.21598958545E+02  0.29619489891E+02  0.51883305742E+02  0.63527211542E+02  0.00000000000E+00 0. -1.
          1    1    1    2  502    0 -0.53537964425E+02 -0.42378681192E+02  0.71318047229E+03  0.71644166009E+03  0.00000000000E+00 0. -1.
         22    1    3    3    0    0  0.25804945331E+02  0.55818545483E+02  0.32086871391E+03  0.32670833597E+03  0.00000000000E+00 0. -1.
         22    1    3    3    0    0  0.61340605487E+01 -0.43059354182E+02  0.50544535107E+02  0.66681966907E+02  0.00000000000E+00 0. -1.
</event>
<event>
 7    1  0.7527776E-006  0.9571451E+02  0.7818608E-02  0.1337523E+00
          2   -1    0    0  502    0  0.00000000000E+00  0.00000000000E+00  0.89860146695E+03  0.89860146695E+03  0.00000000000E+00 0. -1.
          1   -1    0    0  501    0 -0.00000000000E+00 -0.00000000000E+00 -0.40719664282E+03  0.40719664282E+03  0.00000000000E+00 0. -1.
         25    2    1    2    0    0 -0.11362559338E+03  0.56072156316E+02  0.31952935151E+02  0.18083300477E+03  0.12499889345E+03 0.  0.
          2    1    1    2  501    0  0.94576420108E+02  0.30202827950E+01 -0.32477778214E+03  0.33828158259E+03  0.00000000000E+00 0. -1.
          1    1    1    2  502    0  0.19049173272E+02 -0.59092439111E+02  0.78422967113E+03  0.78668352241E+03  0.00000000000E+00 0. -1.
         22    1    3    3    0    0 -0.29508629289E+02  0.22290551213E+01 -0.45616438352E+02  0.54374509994E+02  0.00000000000E+00 0.  1.
         22    1    3    3    0    0 -0.84116964091E+02  0.53843101194E+02  0.77569373502E+02  0.12645849477E+03  0.00000000000E+00 0.  1.
</event>
<event>
 7    1  0.7527776E-006  0.5507063E+02  0.7818608E-02  0.1458832E+00
          2   -1    0    0  502    0  0.00000000000E+00  0.00000000000E+00  0.35326597626E+03  0.35326597626E+03  0.00000000000E+00 0. -1.
          1   -1    0    0  501    0 -0.00000000000E+00 -0.00000000000E+00 -0.57462107630E+02  0.57462107630E+02  0.00000000000E+00 0. -1.
         25    2    1    2    0    0 -0.59099022452E+02 -0.52167635376E+02  0.21012591228E+03  0.25689177190E+03  0.12500530718E+03 0.  0.
          2    1    1    2  501    0  0.40799155893E+02  0.50735230289E+01 -0.12878964510E+02  0.43083401495E+02  0.00000000000E+00 0. -1.
          1    1    1    2  502    0  0.18299866559E+02  0.47094112347E+02  0.98556920862E+02  0.11075291050E+03  0.00000000000E+00 0. -1.
         22    1    3    3    0    0  0.23839546452E+02  0.36274352866E+01 -0.96663018985E-01  0.24114137047E+02  0.00000000000E+00 0. -1.
         22    1    3    3    0    0 -0.82938568904E+02 -0.55795070663E+02  0.21022257529E+03  0.23277763485E+03  0.00000000000E+00 0. -1.
</event>
<event>
 7    1  0.7527776E-006  0.7573718E+02  0.7818608E-02  0.1509995E+00
          2   -1    0    0  502    0  0.00000000000E+00  0.00000000000E+00  0.13458245734E+04  0.13458245734E+04  0.00000000000E+00 0. -1.
          1   -1    0    0  501    0 -0.00000000000E+00 -0.00000000000E+00 -0.11167478957E+04  0.11167478957E+04  0.00000000000E+00 0. -1.
         25    2    1    2    0    0 -0.69154623728E+02 -0.14607775723E+02  0.38595469588E+03  0.41180219636E+03  0.12499709020E+03 0.  0.
          2    1    1    2  501    0  0.67000440819E+02  0.35367915060E+02 -0.11024088298E+04  0.11050091296E+04  0.00000000000E+00 0. -1.
          1    1    1    2  502    0  0.21541829089E+01 -0.20760139337E+02  0.94553081170E+03  0.94576114308E+03  0.00000000000E+00 0. -1.
         22    1    3    3    0    0 -0.65938482035E+02 -0.54111436776E+02  0.15012980244E+03  0.17266988326E+03  0.00000000000E+00 0. -1.
         22    1    3    3    0    0 -0.32161416933E+01  0.39503661053E+02  0.23582489344E+03  0.23913231310E+03  0.00000000000E+00 0. -1.
</event>
<event>
 7    1  0.7527776E-006  0.1391619E+03  0.7818608E-02  0.1284753E+00
          2   -1    0    0  502    0  0.00000000000E+00  0.00000000000E+00  0.41249048786E+03  0.41249048786E+03  0.00000000000E+00 0. -1.
          1   -1    0    0  501    0 -0.00000000000E+00 -0.00000000000E+00 -0.56096856163E+03  0.56096856163E+03  0.00000000000E+00 0. -1.
         25    2    1    2    0    0  0.10163556685E+03  0.39567234187E+02  0.10280606490E+03  0.19516700645E+03  0.12500287579E+03 0.  0.
          2    1    1    2  501    0  0.55918769110E+02 -0.40230060484E+02 -0.48860241583E+03  0.49343458255E+03  0.00000000000E+00 0. -1.
          1    1    1    2  502    0 -0.15755433596E+03  0.66282629702E+00  0.23731827716E+03  0.28485746048E+03  0.00000000000E+00 0. -1.
         22    1    3    3    0    0  0.12819092038E+03  0.23308506589E+02  0.99327970733E+02  0.16383602875E+03  0.00000000000E+00 0.  1.
         22    1    3    3    0    0 -0.26555353532E+02  0.16258727598E+02  0.34780941685E+01  0.31330977696E+02  0.00000000000E+00 0.  1.
</event>
<event>
 7    1  0.7527776E-006  0.2121488E+03  0.7818608E-02  0.1170308E+00
          2   -1    0    0  502    0  0.00000000000E+00  0.00000000000E+00  0.51307874738E+03  0.51307874738E+03  0.00000000000E+00 0. -1.
          1   -1    0    0  501    0 -0.00000000000E+00 -0.00000000000E+00 -0.13102164309E+04  0.13102164309E+04  0.00000000000E+00 0. -1.
         25    2    1    2    0    0  0.74348434806E+02 -0.10400962110E+03 -0.53031996454E+02  0.18649668733E+03  0.12499172253E+03 0.  0.
          2    1    1    2  501    0  0.37057961369E+01  0.23022814401E+03 -0.11665437672E+04  0.11890513412E+04  0.00000000000E+00 0. -1.
          1    1    1    2  502    0 -0.78054230943E+02 -0.12621852291E+03  0.42243808017E+03  0.44774714970E+03  0.00000000000E+00 0. -1.
         22    1    3    3    0    0  0.17288450329E+02 -0.76484273410E+02 -0.84907993808E+02  0.11557725558E+03  0.00000000000E+00 0.  1.
         22    1    3    3    0    0  0.57059984477E+02 -0.27525347687E+02  0.31875997354E+02  0.70919431759E+02  0.00000000000E+00 0.  1.
</event>
<event>
 7    1  0.7527776E-006  0.1285938E+03  0.7818608E-02  0.1243054E+00
          2   -1    0    0  502    0  0.00000000000E+00  0.00000000000E+00  0.25190505813E+03  0.25190505813E+03  0.00000000000E+00 0. -1.
          1   -1    0    0  501    0 -0.00000000000E+00 -0.00000000000E+00 -0.26191260991E+03  0.26191260991E+03  0.00000000000E+00 0. -1.
         25    2    1    2    0    0  0.37085650971E+02 -0.22061552514E+02 -0.82969350011E+02  0.15611074233E+03  0.12499837288E+03 0.  0.
          2    1    1    2  501    0  0.55552057794E+02 -0.97285361098E+02 -0.83867459675E+02  0.13994364366E+03  0.00000000000E+00 0. -1.
          1    1    1    2  502    0 -0.92637708765E+02  0.11934691361E+03  0.15682925790E+03  0.21776328205E+03  0.00000000000E+00 0. -1.
         22    1    3    3    0    0 -0.10920062828E+02  0.46125447049E+02 -0.19240860779E+02  0.51156772388E+02  0.00000000000E+00 0.  1.
         22    1    3    3    0    0  0.48005713799E+02 -0.68186999563E+02 -0.63728489232E+02  0.10495396994E+03  0.00000000000E+00 0.  1.
</event>
<event>
 7    1  0.7527776E-006  0.1110803E+03  0.7818608E-02  0.1359129E+00
          2   -1    0    0  502    0  0.00000000000E+00  0.00000000000E+00  0.48452565319E+03  0.48452565319E+03  0.00000000000E+00 0. -1.
          1   -1    0    0  501    0 -0.00000000000E+00 -0.00000000000E+00 -0.97582095397E+03  0.97582095397E+03  0.00000000000E+00 0. -1.
         25    2    1    2    0    0 -0.52739757062E+02 -0.46776547743E+02 -0.22635862244E+02  0.14527719649E+03  0.12499421653E+03 0.  0.
          2    1    1    2  501    0 -0.30489758333E+02 -0.32373882770E+02 -0.88350196883E+03  0.88462049636E+03  0.00000000000E+00 0. -1.
          1    1    1    2  502    0  0.83229515395E+02  0.79150430512E+02  0.41484253030E+03  0.43044891431E+03  0.00000000000E+00 0. -1.
         22    1    3    3    0    0  0.56038592521E+00 -0.31941213892E+02  0.46694756812E+02  0.56576987292E+02  0.00000000000E+00 0. -1.
         22    1    3    3    0    0 -0.53300142987E+02 -0.14835333851E+02 -0.69330619056E+02  0.88700209197E+02  0.00000000000E+00 0. -1.
</event>
<event>
 7    1  0.7527776E-006  0.3901182E+03  0.7818608E-02  0.1229712E+00
          2   -1    0    0  502    0  0.00000000000E+00  0.00000000000E+00  0.19441148602E+04  0.19441148602E+04  0.00000000000E+00 0. -1.
          1   -1    0    0  501    0 -0.00000000000E+00 -0.00000000000E+00 -0.30008661568E+03  0.30008661568E+03  0.00000000000E+00 0. -1.
         25    2    1    2    0    0  0.40377566927E+03 -0.22012927184E+02  0.22848072613E+03  0.48098643237E+03  0.12500058339E+03 0.  0.
          2    1    1    2  501    0 -0.20543355439E+02 -0.36999636619E+02 -0.14715803019E+03  0.15312246214E+03  0.00000000000E+00 0. -1.
          1    1    1    2  502    0 -0.38323231383E+03  0.59012563803E+02  0.15627055486E+04  0.16100925814E+04  0.00000000000E+00 0. -1.
         22    1    3    3    0    0  0.22020125918E+03 -0.36231605446E+02  0.59223273296E+02  0.23088681183E+03  0.00000000000E+00 0. -1.
         22    1    3    3    0    0  0.18357441009E+03  0.14218678262E+02  0.16925745283E+03  0.25009962053E+03  0.00000000000E+00 0. -1.
</event>
<event>
 7    1  0.7527776E-006  0.3723632E+02  0.7818608E-02  0.1535342E+00
          2   -1    0    0  502    0  0.00000000000E+00  0.00000000000E+00  0.33592047084E+03  0.33592047084E+03  0.00000000000E+00 0. -1.
          1   -1    0    0  501    0 -0.00000000000E+00 -0.00000000000E+00 -0.44522570858E+03  0.44522570858E+03  0.00000000000E+00 0. -1.
         25    2    1    2    0    0 -0.38245971263E+01 -0.44263334395E+01 -0.21408855286E+03  0.24797738321E+03  0.12499861658E+03 0.  0.
          2    1    1    2  501    0  0.22210850814E+02 -0.28147278286E+02 -0.21158271396E+03  0.21459924515E+03  0.00000000000E+00 0. -1.
          1    1    1    2  502    0 -0.18386253687E+02  0.32573611726E+02  0.31636602908E+03  0.31856955106E+03  0.00000000000E+00 0. -1.
         22    1    3    3    0    0 -0.47177118664E+02  0.40719397562E+01 -0.19355105860E+03  0.19925931221E+03  0.00000000000E+00 0.  1.
         22    1    3    3    0    0  0.43352521538E+02 -0.84982731957E+01 -0.20537494263E+02  0.48718070997E+02  0.00000000000E+00 0.  1.
</event>
<event>
 7    1  0.7527776E-006  0.4772379E+02  0.7818608E-02  0.1499864E+00
          2   -1    0    0  502    0  0.00000000000E+00  0.00000000000E+00  0.13917346211E+04  0.13917346211E+04  0.00000000000E+00 0. -1.
          1   -1    0    0  501    0 -0.00000000000E+00 -0.00000000000E+00 -0.16746604605E+03  0.16746604605E+03  0.00000000000E+00 0. -1.
         25    2    1    2    0    0  0.27406137077E+01  0.12753362294E+02 -0.78654901256E+02  0.14826247476E+03  0.12500003487E+03 0.  0.
          2    1    1    2  501    0  0.19782794352E+02  0.29470039517E+02 -0.47705663446E+02  0.59461521225E+02  0.00000000000E+00 0. -1.
          1    1    1    2  502    0 -0.22523408060E+02 -0.42223401812E+02  0.13506291398E+04  0.13514766712E+04  0.00000000000E+00 0. -1.
         22    1    3    3    0    0 -0.43511133487E+02  0.49993230884E+02 -0.42875303402E+02  0.78935628922E+02  0.00000000000E+00 0.  1.
         22    1    3    3    0    0  0.46251747195E+02 -0.37239868589E+02 -0.35779597854E+02  0.69326845837E+02  0.00000000000E+00 0.  1.
</event>
<event>
 7    1  0.7527776E-006  0.4168233E+02  0.7818608E-02  0.1544697E+00
          2   -1    0    0  502    0  0.00000000000E+00  0.00000000000E+00  0.89603707592E+03  0.89603707592E+03  0.00000000000E+00 0. -1.
          1   -1    0    0  501    0 -0.00000000000E+00 -0.00000000000E+00 -0.91082710567E+02  0.91082710567E+02  0.00000000000E+00 0. -1.
         25    2    1    2    0    0  0.34337926512E+02 -0.51383346938E+02  0.20396707523E+03  0.24707575631E+03  0.12499808013E+03 0.  0.
          2    1    1    2  501    0 -0.61061212509E+01  0.40834021689E+02 -0.63026762459E+02  0.75346365739E+02  0.00000000000E+00 0. -1.
          1    1    1    2  502    0 -0.28231805261E+02  0.10549325249E+02  0.66401405258E+03  0.66469766444E+03  0.00000000000E+00 0. -1.
         22    1    3    3    0    0  0.37938337245E+02 -0.70046319144E+02  0.21197612922E+03  0.22645017911E+03  0.00000000000E+00 0. -1.
         22    1    3    3    0    0 -0.36004107330E+01  0.18662972206E+02 -0.80090539884E+01  0.20625577199E+02  0.00000000000E+00 0. -1.
</event>
<event>
 7    1  0.7527776E-006  0.3111879E+02  0.7818608E-02  0.1622499E+00
          2   -1    0    0  502    0  0.00000000000E+00  0.00000000000E+00  0.74713560986E+03  0.74713560986E+03  0.00000000000E+00 0. -1.
          1   -1    0    0  501    0 -0.00000000000E+00 -0.00000000000E+00 -0.42271820029E+02  0.42271820029E+02  0.00000000000E+00 0. -1.
         25    2    1    2    0    0 -0.50865081036E+01  0.50657745849E+02  0.24203705432E+03  0.27712603664E+03  0.12499929897E+03 0.  0.
          2    1    1    2  501    0 -0.89115996801E+01 -0.23378128080E+02 -0.17782687157E+02  0.30694909088E+02  0.00000000000E+00 0. -1.
          1    1    1    2  502    0  0.13998107784E+02 -0.27279617768E+02  0.48060942266E+03  0.48158648416E+03  0.00000000000E+00 0. -1.
         22    1    3    3    0    0 -0.52322423097E+02  0.92406440337E+01  0.42822200577E+02  0.68240503538E+02  0.00000000000E+00 0. -1.
         22    1    3    3    0    0  0.47235914994E+02  0.41417101815E+02  0.19921485374E+03  0.20888553310E+03  0.00000000000E+00 0. -1.
</event>
<event>
 7    1  0.7527776E-006  0.3953229E+02  0.7818608E-02  0.1523945E+00
          2   -1    0    0  502    0  0.00000000000E+00  0.00000000000E+00  0.24789245548E+04  0.24789245548E+04  0.00000000000E+00 0. -1.
          1   -1    0    0  501    0 -0.00000000000E+00 -0.00000000000E+00 -0.12602589566E+04  0.12602589566E+04  0.00000000000E+00 0. -1.
         25    2    1    2    0    0 -0.70484520662E+02  0.19302970103E+02  0.80257822373E+02  0.16555075807E+03  0.12500025255E+03 0.  0.
          2    1    1    2  501    0  0.39450597332E+02 -0.25924577497E+00 -0.12171521908E+04  0.12177913911E+04  0.00000000000E+00 0. -1.
          1    1    1    2  502    0  0.31033923329E+02 -0.19043724328E+02  0.23555599665E+04  0.23558413622E+04  0.00000000000E+00 0. -1.
         22    1    3    3    0    0 -0.16647911360E+01  0.64537069332E+01 -0.32308988086E+02  0.32989279680E+02  0.00000000000E+00 0.  1.
         22    1    3    3    0    0 -0.68819729526E+02  0.12849263170E+02  0.11256681046E+03  0.13256147839E+03  0.00000000000E+00 0.  1.
</event>
<event>
 7    1  0.7527776E-006  0.2119279E+03  0.7818608E-02  0.1209952E+00
          2   -1    0    0  502    0  0.00000000000E+00  0.00000000000E+00  0.20091840113E+04  0.20091840113E+04  0.00000000000E+00 0. -1.
          1   -1    0    0  501    0 -0.00000000000E+00 -0.00000000000E+00 -0.65979877062E+02  0.65979877062E+02  0.00000000000E+00 0. -1.
         25    2    1    2    0    0 -0.17110497816E+03 -0.78215793621E+02  0.65616215541E+03  0.69395128962E+03  0.12499997700E+03 0.  0.
          2    1    1    2  501    0  0.22742941733E+03  0.63558362519E+00  0.24318241115E+03  0.33295980077E+03  0.00000000000E+00 0. -1.
          1    1    1    2  502    0 -0.56324439176E+02  0.77580209996E+02  0.10438595677E+04  0.10482527980E+04  0.00000000000E+00 0. -1.
         22    1    3    3    0    0 -0.10284836119E+03 -0.10978142660E+03  0.42211725237E+03  0.44812132483E+03  0.00000000000E+00 0.  1.
         22    1    3    3    0    0 -0.68256616969E+02  0.31565632979E+02  0.23404490305E+03  0.24582996479E+03  0.00000000000E+00 0.  1.
</event>
<event>
 7    1  0.7527776E-006  0.7483405E+02  0.7818608E-02  0.1372767E+00
          2   -1    0    0  502    0  0.00000000000E+00  0.00000000000E+00  0.30662827539E+02  0.30662827539E+02  0.00000000000E+00 0. -1.
          1   -1    0    0  501    0 -0.00000000000E+00 -0.00000000000E+00 -0.98189444255E+03  0.98189444255E+03  0.00000000000E+00 0. -1.
         25    2    1    2    0    0  0.61859364190E+02  0.19252027416E+02 -0.45844985131E+03  0.47958345262E+03  0.12500720127E+03 0.  0.
          2    1    1    2  501    0 -0.74602958458E+02  0.38276631814E+02 -0.45570760560E+03  0.46335744707E+03  0.00000000000E+00 0. -1.
          1    1    1    2  502    0  0.12743594268E+02 -0.57528659231E+02 -0.37074158104E+02  0.69616370394E+02  0.00000000000E+00 0. -1.
         22    1    3    3    0    0  0.16607936216E+02 -0.16654098884E+02 -0.38694974688E+03  0.38766388684E+03  0.00000000000E+00 0. -1.
         22    1    3    3    0    0  0.45251427974E+02  0.35906126300E+02 -0.71500104430E+02  0.91919565780E+02  0.00000000000E+00 0. -1.
</event>
<event>
 7    1  0.7527776E-006  0.2391265E+03  0.7818608E-02  0.1160105E+00
          2   -1    0    0  502    0  0.00000000000E+00  0.00000000000E+00  0.20167473241E+04  0.20167473241E+04  0.00000000000E+00 0. -1.
          1   -1    0    0  501    0 -0.00000000000E+00 -0.00000000000E+00 -0.13323197884E+03  0.13323197884E+03  0.00000000000E+00 0. -1.
         25    2    1    2    0    0  0.32724122818E+03 -0.10285381513E+03  0.58845354168E+03  0.69250981314E+03  0.12500616731E+03 0.  0.
          2    1    1    2  501    0 -0.18018226671E+03  0.12039460322E+03  0.76302409000E+02  0.22974456977E+03  0.00000000000E+00 0. -1.
          1    1    1    2  502    0 -0.14705896147E+03 -0.17540788089E+02  0.12187593946E+04  0.12277249200E+04  0.00000000000E+00 0. -1.
         22    1    3    3    0    0  0.20728129559E+02  0.12012027224E+02  0.11145915296E+03  0.11400476714E+03  0.00000000000E+00 0. -1.
         22    1    3    3    0    0  0.30651309862E+03 -0.11486584236E+03  0.47699438872E+03  0.57850504599E+03  0.00000000000E+00 0. -1.
</event>
<event>
 7    1  0.7527776E-006  0.9832179E+02  0.7818608E-02  0.1386112E+00
          2   -1    0    0  502    0  0.00000000000E+00  0.00000000000E+00  0.59865337164E+03  0.59865337164E+03  0.00000000000E+00 0. -1.
          1   -1    0    0  501    0 -0.00000000000E+00 -0.00000000000E+00 -0.73966915979E+03  0.73966915979E+03  0.00000000000E+00 0. -1.
         25    2    1    2    0    0 -0.84047869626E+02  0.95472929712E+02  0.63153418619E+02  0.18919979632E+03  0.12501633472E+03 0.  0.
          2    1    1    2  501    0  0.80358286983E+02 -0.55423361015E+02 -0.67225838987E+03  0.67930887377E+03  0.00000000000E+00 0. -1.
          1    1    1    2  502    0  0.36895826426E+01 -0.40049568698E+02  0.46808918310E+03  0.46981386134E+03  0.00000000000E+00 0. -1.
         22    1    3    3    0    0 -0.95573959488E+01 -0.28640194601E+00 -0.33024563607E+02  0.34380919779E+02  0.00000000000E+00 0.  1.
         22    1    3    3    0    0 -0.74490473677E+02  0.95759331658E+02  0.96177982226E+02  0.15481887654E+03  0.00000000000E+00 0.  1.
</event>
<event>
 7    1  0.7527776E-006  0.1260182E+03  0.7818608E-02  0.1295590E+00
          2   -1    0    0  502    0  0.00000000000E+00  0.00000000000E+00  0.89470727807E+03  0.89470727807E+03  0.00000000000E+00 0. -1.
          1   -1    0    0  501    0 -0.00000000000E+00 -0.00000000000E+00 -0.12881234433E+04  0.12881234433E+04  0.00000000000E+00 0. -1.
         25    2    1    2    0    0  0.83057601608E+01 -0.14287824224E+03 -0.51630241339E+02  0.19692127839E+03  0.12501652013E+03 0.  0.
          2    1    1    2  501    0 -0.66821583613E+02  0.10682319341E+03 -0.11589904978E+04  0.11658195798E+04  0.00000000000E+00 0. -1.
          1    1    1    2  502    0  0.58515823453E+02  0.36055048825E+02  0.81720457388E+03  0.82008986319E+03  0.00000000000E+00 0. -1.
         22    1    3    3    0    0 -0.36149496201E+02 -0.52401425562E+02 -0.69819347629E+02  0.94485114065E+02  0.00000000000E+00 0.  1.
         22    1    3    3    0    0  0.44455256361E+02 -0.90476816675E+02  0.18189106290E+02  0.10243616432E+03  0.00000000000E+00 0.  1.
</event>
<event>
 7    1  0.7527776E-006  0.8763942E+02  0.7818608E-02  0.1362776E+00
          2   -1    0    0  502    0  0.00000000000E+00  0.00000000000E+00  0.11711633448E+04  0.11711633448E+04  0.00000000000E+00 0. -1.
          1   -1    0    0  501    0 -0.00000000000E+00 -0.00000000000E+00 -0.15467392515E+03  0.15467392515E+03  0.00000000000E+00 0. -1.
         25    2    1    2    0    0 -0.12577560576E+03  0.12659969591E+02 -0.24821254437E+01  0.17779716252E+03  0.12500356883E+03 0.  0.
          2    1    1    2  501    0  0.47935767515E+02  0.26280751523E+02 -0.50863752234E+02  0.74670188156E+02  0.00000000000E+00 0. -1.
          1    1    1    2  502    0  0.77839838246E+02 -0.38940721114E+02  0.10698352973E+04  0.10733699192E+04  0.00000000000E+00 0. -1.
         22    1    3    3    0    0 -0.11572127649E+03  0.30765548681E+02 -0.47049489203E+02  0.12865297219E+03  0.00000000000E+00 0.  1.
         22    1    3    3    0    0 -0.10054329272E+02 -0.18105579090E+02  0.44567363760E+02  0.49144190336E+02  0.00000000000E+00 0.  1.
</event>
<event>
 7    1  0.7527776E-006  0.1082433E+03  0.7818608E-02  0.1376883E+00
          2   -1    0    0  502    0  0.00000000000E+00  0.00000000000E+00  0.32023587166E+03  0.32023587166E+03  0.00000000000E+00 0. -1.
          1   -1    0    0  501    0 -0.00000000000E+00 -0.00000000000E+00 -0.29109109338E+03  0.29109109338E+03  0.00000000000E+00 0. -1.
         25    2    1    2    0    0  0.76198383171E+02  0.50627932947E+02  0.22571901534E+02  0.15653841848E+03  0.12500161811E+03 0.  0.
          2    1    1    2  501    0 -0.76031984026E+01  0.38640786435E+02 -0.20841745681E+03  0.21210552870E+03  0.00000000000E+00 0. -1.
          1    1    1    2  502    0 -0.68595184769E+02 -0.89268719381E+02  0.21499033356E+03  0.24268301786E+03  0.00000000000E+00 0. -1.
         22    1    3    3    0    0  0.25372834698E+02  0.71940411560E+02 -0.28467126884E+02  0.81422238173E+02  0.00000000000E+00 0.  1.
         22    1    3    3    0    0  0.50825548473E+02 -0.21312478613E+02  0.51039028418E+02  0.75116180308E+02  0.00000000000E+00 0.  1.
</event>
<event>
 7    1  0.7527776E-006  0.1160191E+03  0.7818608E-02  0.1410588E+00
          2   -1    0    0  502    0  0.00000000000E+00  0.00000000000E+00  0.97859788035E+03  0.97859788035E+03  0.00000000000E+00 0. -1.
          1   -1    0    0  501    0 -0.00000000000E+00 -0.00000000000E+00 -0.12989846536E+03  0.12989846536E+03  0.00000000000E+00 0. -1.
         25    2    1    2    0    0 -0.11438239806E+03 -0.80808184168E+02  0.62073490267E+03  0.64849908805E+03  0.12500380872E+03 0.  0.
          2    1    1    2  501    0  0.10000804255E+03  0.56702753905E+02 -0.86757290810E+02  0.14402651973E+03  0.00000000000E+00 0. -1.
          1    1    1    2  502    0  0.14374355511E+02  0.24105430264E+02  0.31472180312E+03  0.31597073793E+03  0.00000000000E+00 0. -1.
         22    1    3    3    0    0 -0.95020739263E+02 -0.42784895876E+01  0.21417625755E+03  0.23434742512E+03  0.00000000000E+00 0. -1.
         22    1    3    3    0    0 -0.19361658802E+02 -0.76529694581E+02  0.40655864512E+03  0.41415166293E+03  0.00000000000E+00 0. -1.
</event>
<event>
 7    1  0.7527776E-006  0.4817228E+02  0.7818608E-02  0.1530319E+00
          2   -1    0    0  502    0  0.00000000000E+00  0.00000000000E+00  0.35359165835E+03  0.35359165835E+03  0.00000000000E+00 0. -1.
          1   -1    0    0  501    0 -0.00000000000E+00 -0.00000000000E+00 -0.61213952490E+02  0.61213952490E+02  0.00000000000E+00 0. -1.
         25    2    1    2    0    0 -0.12268038161E+02  0.47009998044E+02  0.16798383619E+03  0.21494160265E+03  0.12498351351E+03 0.  0.
          2    1    1    2  501    0 -0.24741292186E+02 -0.14437190473E+02 -0.27779595569E+02  0.39903257232E+02  0.00000000000E+00 0. -1.
          1    1    1    2  502    0  0.37009330347E+02 -0.32572807571E+02  0.15217346524E+03  0.15996075096E+03  0.00000000000E+00 0. -1.
         22    1    3    3    0    0 -0.58751265869E+02  0.38369936722E+02  0.14764762987E+03  0.16347411383E+03  0.00000000000E+00 0.  1.
         22    1    3    3    0    0  0.46483227708E+02  0.86400613228E+01  0.20336206322E+02  0.51467488819E+02  0.00000000000E+00 0.  1.
</event>
<event>
 7    1  0.7527776E-006  0.3034614E+02  0.7818608E-02  0.1655360E+00
          2   -1    0    0  502    0  0.00000000000E+00  0.00000000000E+00  0.24671519518E+03  0.24671519518E+03  0.00000000000E+00 0. -1.
          1   -1    0    0  501    0 -0.00000000000E+00 -0.00000000000E+00 -0.68324954851E+03  0.68324954851E+03  0.00000000000E+00 0. -1.
         25    2    1    2    0    0 -0.93193311887E+01  0.32319250029E+02 -0.22255219465E+03  0.25745935113E+03  0.12499781713E+03 0.  0.
          2    1    1    2  501    0  0.20831603988E+02 -0.42237034520E+01 -0.44198196722E+03  0.44249277366E+03  0.00000000000E+00 0. -1.
          1    1    1    2  502    0 -0.11512272799E+02 -0.28095546577E+02  0.22799980853E+03  0.23001261890E+03  0.00000000000E+00 0. -1.
         22    1    3    3    0    0  0.52614749649E+02  0.29280772978E+02 -0.15221281162E+03  0.16368999838E+03  0.00000000000E+00 0. -1.
         22    1    3    3    0    0 -0.61934080838E+02  0.30384770507E+01 -0.70339383027E+02  0.93769352758E+02  0.00000000000E+00 0. -1.
</event>
<event>
 7    1  0.7527776E-006  0.1300169E+03  0.7818608E-02  0.1321291E+00
          2   -1    0    0  502    0  0.00000000000E+00  0.00000000000E+00  0.93947114973E+02  0.93947114973E+02  0.00000000000E+00 0. -1.
          1   -1    0    0  501    0 -0.00000000000E+00 -0.00000000000E+00 -0.20749386850E+04  0.20749386850E+04  0.00000000000E+00 0. -1.
         25    2    1    2    0    0  0.96078972104E+02 -0.12856615957E+03 -0.19664257252E+03  0.28293727611E+03  0.12499909847E+03 0.  0.
          2    1    1    2  501    0 -0.43890197927E+02  0.12103803470E+03 -0.18185481660E+04  0.18231001035E+04  0.00000000000E+00 0. -1.
          1    1    1    2  502    0 -0.52188774177E+02  0.75281248644E+01  0.34199168508E+02  0.62848420352E+02  0.00000000000E+00 0. -1.
         22    1    3    3    0    0 -0.22223064165E+02 -0.15210784330E+02 -0.72602245633E+02  0.77435900019E+02  0.00000000000E+00 0. -1.
         22    1    3    3    0    0  0.11830203627E+03 -0.11335537524E+03 -0.12404032689E+03  0.20550137609E+03  0.00000000000E+00 0. -1.
</event>
<event>
 7    1  0.7527776E-006  0.9927342E+02  0.7818608E-02  0.1301364E+00
          2   -1    0    0  502    0  0.00000000000E+00  0.00000000000E+00  0.16542417417E+04  0.16542417417E+04  0.00000000000E+00 0. -1.
          1   -1    0    0  501    0 -0.00000000000E+00 -0.00000000000E+00 -0.15501171215E+04  0.15501171215E+04  0.00000000000E+00 0. -1.
         25    2    1    2    0    0 -0.48187883324E+02  0.13215536754E+03 -0.44725536914E+02  0.19342207541E+03  0.12499844932E+03 0.  0.
          2    1    1    2  501    0  0.74194842234E+02 -0.36565773750E+02 -0.14282926588E+04  0.14306857970E+04  0.00000000000E+00 0. -1.
          1    1    1    2  502    0 -0.26006958910E+02 -0.95589593789E+02  0.15771428159E+04  0.15802509908E+04  0.00000000000E+00 0. -1.
         22    1    3    3    0    0 -0.81510538913E+02  0.43215467726E+02 -0.31718199328E+02  0.97558130226E+02  0.00000000000E+00 0.  1.
         22    1    3    3    0    0  0.33322655588E+02  0.88939899813E+02 -0.13007337586E+02  0.95863945179E+02  0.00000000000E+00 0.  1.
</event>
<event>
 7    1  0.7527776E-006  0.1285908E+03  0.7818608E-02  0.1281539E+00
          2   -1    0    0  502    0  0.00000000000E+00  0.00000000000E+00  0.72236814203E+03  0.72236814203E+03  0.00000000000E+00 0. -1.
          1   -1    0    0  501    0 -0.00000000000E+00 -0.00000000000E+00 -0.33733337969E+03  0.33733337969E+03  0.00000000000E+00 0. -1.
         25    2    1    2    0    0 -0.10035782867E+03  0.23105206053E+02  0.20510646378E+03  0.26133093956E+03  0.12497861483E+03 0.  0.
          2    1    1    2  501    0  0.12097787724E+03  0.50929628862E+02 -0.29204188336E+03  0.32018422121E+03  0.00000000000E+00 0. -1.
          1    1    1    2  502    0 -0.20620048562E+02 -0.74034834916E+02  0.47197018192E+03  0.47818636096E+03  0.00000000000E+00 0. -1.
         22    1    3    3    0    0 -0.82765493700E+02 -0.40296406880E+02  0.14755896348E+03  0.17391829995E+03  0.00000000000E+00 0. -1.
         22    1    3    3    0    0 -0.17592334974E+02  0.63401612933E+02  0.57547500294E+02  0.87412639603E+02  0.00000000000E+00 0. -1.
</event>
<event>
 7    1  0.7527776E-006  0.3111410E+03  0.7818608E-02  0.1244820E+00
          2   -1    0    0  502    0  0.00000000000E+00  0.00000000000E+00  0.50822666646E+03  0.50822666646E+03  0.00000000000E+00 0. -1.
          1   -1    0    0  501    0 -0.00000000000E+00 -0.00000000000E+00 -0.33468396094E+04  0.33468396094E+04  0.00000000000E+00 0. -1.
         25    2    1    2    0    0 -0.31861743872E+03  0.11644099070E+03 -0.40451562756E+03  0.54252450160E+03  0.12499746129E+03 0.  0.
          2    1    1    2  501    0  0.27695407733E+03 -0.13468772317E+03 -0.28638638584E+04  0.28803750699E+04  0.00000000000E+00 0. -1.
          1    1    1    2  502    0  0.41663361390E+02  0.18246732475E+02  0.42976654299E+03  0.43216670441E+03  0.00000000000E+00 0. -1.
         22    1    3    3    0    0 -0.63024507623E+02 -0.20589473996E+02 -0.11496583124E+03  0.13271457099E+03  0.00000000000E+00 0.  1.
         22    1    3    3    0    0 -0.25559293110E+03  0.13703046470E+03 -0.28954979632E+03  0.40980993062E+03  0.00000000000E+00 0.  1.
</event>
<event>
 7    1  0.7527776E-006  0.6555191E+02  0.7818608E-02  0.1428198E+00
          2   -1    0    0  502    0  0.00000000000E+00  0.00000000000E+00  0.63745021344E+03  0.63745021344E+03  0.00000000000E+00 0. -1.
          1   -1    0    0  501    0 -0.00000000000E+00 -0.00000000000E+00 -0.22559429039E+03  0.22559429039E+03  0.00000000000E+00 0. -1.
         25    2    1    2    0    0 -0.12360254785E+02  0.46804704125E+02  0.68695968774E+02  0.15062154760E+03  0.12499703296E+03 0.  0.
          2    1    1    2  501    0 -0.42558671571E+02 -0.83821462171E+01 -0.17991564786E+03  0.18507063853E+03  0.00000000000E+00 0. -1.
          1    1    1    2  502    0  0.54918926355E+02 -0.38422557908E+02  0.52307560214E+03  0.52735231769E+03  0.00000000000E+00 0. -1.
         22    1    3    3    0    0 -0.24740363958E+02  0.17699712794E+01  0.94196990784E+02  0.97407861489E+02  0.00000000000E+00 0. -1.
         22    1    3    3    0    0  0.12380109173E+02  0.45034732846E+02 -0.25501022010E+02  0.53213686108E+02  0.00000000000E+00 0. -1.
</event>
<event>
 7    1  0.7527776E-006  0.9036913E+02  0.7818608E-02  0.1339176E+00
          2   -1    0    0  502    0  0.00000000000E+00  0.00000000000E+00  0.51156948879E+03  0.51156948879E+03  0.00000000000E+00 0. -1.
          1   -1    0    0  501    0 -0.00000000000E+00 -0.00000000000E+00 -0.16216202220E+03  0.16216202220E+03  0.00000000000E+00 0. -1.
         25    2    1    2    0    0  0.50576610029E+02 -0.56199398156E+02  0.12753523192E+03  0.19392436924E+03  0.12500023907E+03 0.  0.
          2    1    1    2  501    0  0.45789218687E+02  0.45882987526E+02 -0.11350314998E+03  0.13070908977E+03  0.00000000000E+00 0. -1.
          1    1    1    2  502    0 -0.96365828716E+02  0.10316410630E+02  0.33537538464E+03  0.34909805198E+03  0.00000000000E+00 0. -1.
         22    1    3    3    0    0  0.90450388411E+02 -0.31340324794E+02  0.65022767484E+02  0.11572142850E+03  0.00000000000E+00 0.  1.
         22    1    3    3    0    0 -0.39873778382E+02 -0.24859073362E+02  0.62512464440E+02  0.78202940746E+02  0.00000000000E+00 0.  1.
</event>
<event>
 7    1  0.7527776E-006  0.1161787E+03  0.7818608E-02  0.1425001E+00
          2   -1    0    0  502    0  0.00000000000E+00  0.00000000000E+00  0.18426361618E+04  0.18426361618E+04  0.00000000000E+00 0. -1.
          1   -1    0    0  501    0 -0.00000000000E+00 -0.00000000000E+00 -0.87704399690E+03  0.87704399690E+03  0.00000000000E+00 0. -1.
         25    2    1    2    0    0 -0.77045327875E+02 -0.10772328002E+03 -0.19897740562E+03  0.26973564231E+03  0.12500008472E+03 0.  0.
          2    1    1    2  501    0  0.52885066035E+02  0.10100223202E+03 -0.63754332562E+03  0.64765714164E+03  0.00000000000E+00 0. -1.
          1    1    1    2  502    0  0.24160261839E+02  0.67210480074E+01  0.18021128962E+04  0.18022873748E+04  0.00000000000E+00 0. -1.
         22    1    3    3    0    0 -0.52788038711E+02 -0.13518316430E+03 -0.16534852271E+03  0.22000272476E+03  0.00000000000E+00 0.  1.
         22    1    3    3    0    0 -0.24257289164E+02  0.27459884278E+02 -0.33628882908E+02  0.49732917547E+02  0.00000000000E+00 0.  1.
</event>
<event>
 7    1  0.7527776E-006  0.8953162E+02  0.7818608E-02  0.1353699E+00
          2   -1    0    0  502    0  0.00000000000E+00  0.00000000000E+00  0.59722141972E+03  0.59722141972E+03  0.00000000000E+00 0. -1.
          1   -1    0    0  501    0 -0.00000000000E+00 -0.00000000000E+00 -0.15636189795E+04  0.15636189795E+04  0.00000000000E+00 0. -1.
         25    2    1    2    0    0 -0.11730290476E+03 -0.84369764306E+02 -0.65368122713E+02  0.20193537089E+03  0.12500669564E+03 0.  0.
          2    1    1    2  501    0  0.77640459087E+02  0.42373784163E+02 -0.14270167256E+04  0.14297553334E+04  0.00000000000E+00 0. -1.
          1    1    1    2  502    0  0.39662445671E+02  0.41995980142E+02  0.52598728850E+03  0.52914969490E+03  0.00000000000E+00 0. -1.
         22    1    3    3    0    0 -0.90043754782E+02 -0.78764172455E+02 -0.10111036592E+03  0.15663645404E+03  0.00000000000E+00 0. -1.
         22    1    3    3    0    0 -0.27259149976E+02 -0.56055918506E+01  0.35742243211E+02  0.45298916843E+02  0.00000000000E+00 0. -1.
</event>
<event>
 7    1  0.7527776E-006  0.6389356E+02  0.7818608E-02  0.1463449E+00
          2   -1    0    0  502    0  0.00000000000E+00  0.00000000000E+00  0.18890839426E+03  0.18890839426E+03  0.00000000000E+00 0. -1.
          1   -1    0    0  501    0 -0.00000000000E+00 -0.00000000000E+00 -0.57284673173E+03  0.57284673173E+03  0.00000000000E+00 0. -1.
         25    2    1    2    0    0 -0.17901222803E+02 -0.62389289646E+02 -0.92198563296E+02  0.16833766038E+03  0.12499646230E+03 0.  0.
          2    1    1    2  501    0  0.34268623299E+02  0.20779540821E+00 -0.43502161957E+03  0.43636932891E+03  0.00000000000E+00 0. -1.
          1    1    1    2  502    0 -0.16367400496E+02  0.62181494238E+02  0.14328184539E+03  0.15704813670E+03  0.00000000000E+00 0. -1.
         22    1    3    3    0    0 -0.32869155291E+02  0.29205522570E+02 -0.11746415798E+02  0.45511780917E+02  0.00000000000E+00 0.  1.
         22    1    3    3    0    0  0.14967932488E+02 -0.91594812216E+02 -0.80452147497E+02  0.12282587946E+03  0.00000000000E+00 0.  1.
</event>
<event>
 7    1  0.7527776E-006  0.7460273E+02  0.7818608E-02  0.1407558E+00
          2   -1    0    0  502    0  0.00000000000E+00  0.00000000000E+00  0.11553707855E+04  0.11553707855E+04  0.00000000000E+00 0. -1.
          1   -1    0    0  501    0 -0.00000000000E+00 -0.00000000000E+00 -0.20946044297E+02  0.20946044297E+02  0.00000000000E+00 0. -1.
         25    2    1    2    0    0 -0.70318773421E+02  0.59201453273E+02  0.73423655366E+03  0.75045170511E+03  0.12499961201E+03 0.  0.
          2    1    1    2  501    0  0.41636184731E+02 -0.16242926063E+02  0.35326354049E+03  0.35607939223E+03  0.00000000000E+00 0. -1.
          1    1    1    2  502    0  0.28682588690E+02 -0.42958527210E+02  0.46924647034E+02  0.69785732448E+02  0.00000000000E+00 0. -1.
         22    1    3    3    0    0 -0.10929305060E+01  0.43657162261E+02  0.70473457297E+02  0.82907481551E+02  0.00000000000E+00 0. -1.
         22    1    3    3    0    0 -0.69225842915E+02  0.15544291011E+02  0.66376309636E+03  0.66754422356E+03  0.00000000000E+00 0. -1.
</event>
<event>
 7    1  0.7527776E-006  0.7225413E+02  0.7818608E-02  0.1383426E+00
          2   -1    0    0  502    0  0.00000000000E+00  0.00000000000E+00  0.37767865834E+02  0.37767865834E+02  0.00000000000E+00 0. -1.
          1   -1    0    0  501    0 -0.00000000000E+00 -0.00000000000E+00 -0.12059699288E+04  0.12059699288E+04  0.00000000000E+00 0. -1.
         25    2    1    2    0    0 -0.60037211581E+02  0.28319877435E+02 -0.93979418924E+03  0.95039173683E+03  0.12499941231E+03 0.  0.
          2    1    1    2  501    0  0.44511122580E+02 -0.82054645781E+02 -0.21704821585E+03  0.23627131212E+03  0.00000000000E+00 0. -1.
          1    1    1    2  502    0  0.15526089001E+02  0.53734768345E+02 -0.11359657892E+02  0.57074745696E+02  0.00000000000E+00 0. -1.
         22    1    3    3    0    0 -0.75203516428E+02  0.35585145754E+02 -0.32868397481E+03  0.33905018328E+03  0.00000000000E+00 0.  1.
         22    1    3    3    0    0  0.15166304847E+02 -0.72652683188E+01 -0.61111021442E+03  0.61134155355E+03  0.00000000000E+00 0.  1.
</event>
<event>
 7    1  0.7527776E-006  0.2996588E+03  0.7818608E-02  0.1267262E+00
          2   -1    0    0  502    0  0.00000000000E+00  0.00000000000E+00  0.99869779763E+03  0.99869779763E+03  0.00000000000E+00 0. -1.
          1   -1    0    0  501    0 -0.00000000000E+00 -0.00000000000E+00 -0.39190210258E+03  0.39190210258E+03  0.00000000000E+00 0. -1.
         25    2    1    2    0    0 -0.10569821757E+03  0.27591464697E+03 -0.44321336205E+02  0.32386891712E+03  0.12500275608E+03 0.  0.
          2    1    1    2  501    0  0.14276805078E+03 -0.26839551809E+03 -0.95888307093E+02  0.31876862752E+03  0.00000000000E+00 0. -1.
          1    1    1    2  502    0 -0.37069833201E+02 -0.75191288791E+01  0.74700533835E+03  0.74796235557E+03  0.00000000000E+00 0. -1.
         22    1    3    3    0    0  0.90379293759E+01  0.10451621952E+02  0.23099597812E+02  0.26916760353E+02  0.00000000000E+00 0. -1.
         22    1    3    3    0    0 -0.11473614695E+03  0.26546302502E+03 -0.67420934017E+02  0.29695215677E+03  0.00000000000E+00 0. -1.
</event>
<event>
 7    1  0.7527776E-006  0.3669072E+02  0.7818608E-02  0.1602109E+00
          2   -1    0    0  502    0  0.00000000000E+00  0.00000000000E+00  0.19284882369E+02  0.19284882369E+02  0.00000000000E+00 0. -1.
          1   -1    0    0  501    0 -0.00000000000E+00 -0.00000000000E+00 -0.57734481578E+03  0.57734481578E+03  0.00000000000E+00 0. -1.
         25    2    1    2    0    0 -0.19769237253E+02  0.18351297106E+02 -0.45204854048E+03  0.46978739214E+03  0.12499887204E+03 0.  0.
          2    1    1    2  501    0  0.15014149807E+02 -0.41817602200E+02 -0.79843239563E+02  0.91373297259E+02  0.00000000000E+00 0. -1.
          1    1    1    2  502    0  0.47550874458E+01  0.23466305094E+02 -0.26168153366E+02  0.35469008754E+02  0.00000000000E+00 0. -1.
         22    1    3    3    0    0 -0.24222678092E+02 -0.47336473816E+02 -0.11968518954E+03  0.13096573782E+03  0.00000000000E+00 0.  1.
         22    1    3    3    0    0  0.44534408390E+01  0.65687770922E+02 -0.33236335095E+03  0.33882165432E+03  0.00000000000E+00 0.  1.
</event>
<event>
 7    1  0.7527776E-006  0.5011877E+02  0.7818608E-02  0.1483423E+00
          2   -1    0    0  502    0  0.00000000000E+00  0.00000000000E+00  0.68812700364E+03  0.68812700364E+03  0.00000000000E+00 0. -1.
          1   -1    0    0  501    0 -0.00000000000E+00 -0.00000000000E+00 -0.62476592304E+03  0.62476592304E+03  0.00000000000E+00 0. -1.
         25    2    1    2    0    0  0.15227774132E+02  0.18163524344E+02 -0.17491020411E+03  0.21628835328E+03  0.12500109416E+03 0.  0.
          2    1    1    2  501    0  0.55767336923E+00 -0.52608672056E+02 -0.42701314897E+03  0.43024203975E+03  0.00000000000E+00 0. -1.
          1    1    1    2  502    0 -0.15785447501E+02  0.34445147712E+02  0.66528443368E+03  0.66636253365E+03  0.00000000000E+00 0. -1.
         22    1    3    3    0    0 -0.43022683796E+02 -0.29166831208E+02 -0.65718171516E+02  0.83788623518E+02  0.00000000000E+00 0.  1.
         22    1    3    3    0    0  0.58250457928E+02  0.47330355553E+02 -0.10919203260E+03  0.13249972977E+03  0.00000000000E+00 0.  1.
</event>
<event>
 7    1  0.7527776E-006  0.6647008E+02  0.7818608E-02  0.1456604E+00
          2   -1    0    0  502    0  0.00000000000E+00  0.00000000000E+00  0.19880596250E+04  0.19880596250E+04  0.00000000000E+00 0. -1.
          1   -1    0    0  501    0 -0.00000000000E+00 -0.00000000000E+00 -0.74999909152E+03  0.74999909152E+03  0.00000000000E+00 0. -1.
         25    2    1    2    0    0  0.59100850406E+02 -0.23684376444E+01  0.84849176139E+03  0.85968707858E+03  0.12500033561E+03 0.  0.
          2    1    1    2  501    0 -0.67250724384E+00 -0.34613589458E+02 -0.74294380525E+03  0.74374999200E+03  0.00000000000E+00 0. -1.
          1    1    1    2  502    0 -0.58428343162E+02  0.36982027103E+02  0.11325125773E+04  0.11346216459E+04  0.00000000000E+00 0. -1.
         22    1    3    3    0    0  0.37598939753E+02 -0.73085852255E+01  0.61941748715E+02  0.72827713972E+02  0.00000000000E+00 0. -1.
         22    1    3    3    0    0  0.21501910653E+02  0.49401475812E+01  0.78655001268E+03  0.78685936460E+03  0.00000000000E+00 0. -1.
</event>
<event>
 7    1  0.7527776E-006  0.6202819E+02  0.7818608E-02  0.1514169E+00
          2   -1    0    0  502    0  0.00000000000E+00  0.00000000000E+00  0.42152102218E+03  0.42152102218E+03  0.00000000000E+00 0. -1.
          1   -1    0    0  501    0 -0.00000000000E+00 -0.00000000000E+00 -0.81243818096E+02  0.81243818096E+02  0.00000000000E+00 0. -1.
         25    2    1    2    0    0  0.44391626095E+02  0.45181948573E+02 -0.31787233914E+01  0.14016779596E+03  0.12499952719E+03 0.  0.
          2    1    1    2  501    0 -0.21355417392E+02  0.12560615573E+02  0.16462122631E+02  0.29745998001E+02  0.00000000000E+00 0. -1.
          1    1    1    2  502    0 -0.23036208702E+02 -0.57742564146E+02  0.32699380484E+03  0.33285104631E+03  0.00000000000E+00 0. -1.
         22    1    3    3    0    0 -0.21675564076E+02 -0.14047168093E+02  0.35061646987E+02  0.43548502832E+02  0.00000000000E+00 0.  1.
         22    1    3    3    0    0  0.66067190171E+02  0.59229116666E+02 -0.38240370378E+02  0.96619293129E+02  0.00000000000E+00 0.  1.
</event>
<event>
 7    1  0.7527776E-006  0.8622116E+02  0.7818608E-02  0.1480485E+00
          2   -1    0    0  502    0  0.00000000000E+00  0.00000000000E+00  0.34714605375E+03  0.34714605375E+03  0.00000000000E+00 0. -1.
          1   -1    0    0  501    0 -0.00000000000E+00 -0.00000000000E+00 -0.12392466236E+04  0.12392466236E+04  0.00000000000E+00 0. -1.
         25    2    1    2    0    0 -0.62684634922E+02 -0.55993944503E+02 -0.72978276008E+03  0.74516583682E+03  0.12499824872E+03 0.  0.
          2    1    1    2  501    0  0.15545939281E+02 -0.16245319245E+02 -0.49603372943E+03  0.49654309718E+03  0.00000000000E+00 0. -1.
          1    1    1    2  502    0  0.47138695641E+02  0.72239263747E+02  0.33371591969E+03  0.34468374332E+03  0.00000000000E+00 0. -1.
         22    1    3    3    0    0 -0.35957356701E+02 -0.79307165131E+02 -0.67014804434E+03  0.67578173938E+03  0.00000000000E+00 0.  1.
         22    1    3    3    0    0 -0.26727278221E+02  0.23313220628E+02 -0.59634715736E+02  0.69384097444E+02  0.00000000000E+00 0.  1.
</event>
<event>
 7    1  0.7527776E-006  0.6564386E+02  0.7818608E-02  0.1485929E+00
          2   -1    0    0  502    0  0.00000000000E+00  0.00000000000E+00  0.43626890775E+03  0.43626890775E+03  0.00000000000E+00 0. -1.
          1   -1    0    0  501    0 -0.00000000000E+00 -0.00000000000E+00 -0.87389409510E+03  0.87389409510E+03  0.00000000000E+00 0. -1.
         25    2    1    2    0    0 -0.75608518967E+02 -0.11123657442E+01 -0.45099769443E+03  0.47407153651E+03  0.12500806314E+03 0.  0.
          2    1    1    2  501    0  0.14319887991E+02  0.24553772122E+02 -0.40832803873E+03  0.40931617869E+03  0.00000000000E+00 0. -1.
          1    1    1    2  502    0  0.61288630976E+02 -0.23441406378E+02  0.42170054581E+03  0.42677528766E+03  0.00000000000E+00 0. -1.
         22    1    3    3    0    0  0.34901124844E+02 -0.62907404339E+01 -0.10788703200E+03  0.11356616400E+03  0.00000000000E+00 0. -1.
         22    1    3    3    0    0 -0.11050964381E+03  0.51783746897E+01 -0.34311066243E+03  0.36050537251E+03  0.00000000000E+00 0. -1.
</event>
<event>
 7    1  0.7527776E-006  0.9754267E+02  0.7818608E-02  0.1438827E+00
          2   -1    0    0  502    0  0.00000000000E+00  0.00000000000E+00  0.62990339611E+03  0.62990339611E+03  0.00000000000E+00 0. -1.
          1   -1    0    0  501    0 -0.00000000000E+00 -0.00000000000E+00 -0.15968176731E+04  0.15968176731E+04  0.00000000000E+00 0. -1.
         25    2    1    2    0    0 -0.85166456256E+02  0.50052322182E+02 -0.78311133363E+02  0.17752723911E+03  0.12499890715E+03 0.  0.
          2    1    1    2  501    0 -0.92516436442E+01 -0.25263706615E+02 -0.14646687255E+04  0.14649158075E+04  0.00000000000E+00 0. -1.
          1    1    1    2  502    0  0.94418099900E+02 -0.24788615567E+02  0.57606558185E+03  0.58427802256E+03  0.00000000000E+00 0. -1.
         22    1    3    3    0    0 -0.48644117260E+01  0.74366263552E+02 -0.27490599877E+02  0.79433851334E+02  0.00000000000E+00 0. -1.
         22    1    3    3    0    0 -0.80302044530E+02 -0.24313941370E+02 -0.50820533487E+02  0.98093387771E+02  0.00000000000E+00 0. -1.
</event>
<event>
 7    1  0.7527776E-006  0.1675377E+03  0.7818608E-02  0.1383997E+00
          2   -1    0    0  502    0  0.00000000000E+00  0.00000000000E+00  0.27065754979E+04  0.27065754979E+04  0.00000000000E+00 0. -1.
          1   -1    0    0  501    0 -0.00000000000E+00 -0.00000000000E+00 -0.73346625756E+02  0.73346625756E+02  0.00000000000E+00 0. -1.
         25    2    1    2    0    0 -0.91437479092E+02  0.16120544049E+03  0.69980086193E+03  0.73463742540E+03  0.12499157499E+03 0.  0.
          2    1    1    2  501    0  0.13983894997E+01 -0.23969835984E+02 -0.49794780806E+02  0.55281359659E+02  0.00000000000E+00 0. -1.
          1    1    1    2  502    0  0.90039089592E+02 -0.13723560450E+03  0.19832227910E+04  0.19900033386E+04  0.00000000000E+00 0. -1.
         22    1    3    3    0    0 -0.42715073298E+02  0.15910916740E+03  0.43027507448E+03  0.46073522153E+03  0.00000000000E+00 0. -1.
         22    1    3    3    0    0 -0.48722405794E+02  0.20962730895E+01  0.26952578745E+03  0.27390220387E+03  0.00000000000E+00 0. -1.
</event>
<event>
 7    1  0.7527776E-006  0.4119107E+02  0.7818608E-02  0.1576332E+00
          2   -1    0    0  502    0  0.00000000000E+00  0.00000000000E+00  0.25560268677E+03  0.25560268677E+03  0.00000000000E+00 0. -1.
          1   -1    0    0  501    0 -0.00000000000E+00 -0.00000000000E+00 -0.85922548907E+03  0.85922548907E+03  0.00000000000E+00 0. -1.
         25    2    1    2    0    0  0.16208795700E+02  0.56281708545E+01 -0.20188419803E+03  0.23806916451E+03  0.12500118524E+03 0.  0.
          2    1    1    2  501    0 -0.40014105487E+02 -0.13130653747E+02 -0.63789682642E+03  0.63928546351E+03  0.00000000000E+00 0. -1.
          1    1    1    2  502    0  0.23805309787E+02  0.75024828921E+01  0.23615822215E+03  0.23747354782E+03  0.00000000000E+00 0. -1.
         22    1    3    3    0    0  0.54382753098E+01  0.39491628987E+02 -0.76255311394E+01  0.40587095530E+02  0.00000000000E+00 0.  1.
         22    1    3    3    0    0  0.10770520390E+02 -0.33863458133E+02 -0.19425866689E+03  0.19748206898E+03  0.00000000000E+00 0.  1.
</event>
<event>
 7    1  0.7527776E-006  0.2381065E+02  0.7818608E-02  0.1681962E+00
          2   -1    0    0  502    0  0.00000000000E+00  0.00000000000E+00  0.32252893704E+03  0.32252893704E+03  0.00000000000E+00 0. -1.
          1   -1    0    0  501    0 -0.00000000000E+00 -0.00000000000E+00 -0.37887961055E+03  0.37887961055E+03  0.00000000000E+00 0. -1.
         25    2    1    2    0    0  0.16571550219E+02 -0.25302670565E+02  0.24170739928E+03  0.27379443868E+03  0.12500434541E+03 0.  0.
          2    1    1    2  501    0 -0.23627236503E+02  0.30005438595E+01 -0.36031834777E+03  0.36110464038E+03  0.00000000000E+00 0. -1.
          1    1    1    2  502    0  0.70556862842E+01  0.22302126705E+02  0.62260274981E+02  0.66509468538E+02  0.00000000000E+00 0. -1.
         22    1    3    3    0    0  0.59268467707E+02  0.20880241818E+02  0.92009153174E+02  0.11142001629E+03  0.00000000000E+00 0.  1.
         22    1    3    3    0    0 -0.42696917489E+02 -0.46182912382E+02  0.14969824610E+03  0.16237442239E+03  0.00000000000E+00 0.  1.
</event>
<event>
 7    1  0.7527776E-006  0.1362995E+03  0.7818608E-02  0.1245732E+00
          2   -1    0    0  502    0  0.00000000000E+00  0.00000000000E+00  0.15109171442E+04  0.15109171442E+04  0.00000000000E+00 0. -1.
          1   -1    0    0  501    0 -0.00000000000E+00 -0.00000000000E+00 -0.10580974462E+03  0.10580974462E+03  0.00000000000E+00 0. -1.
         25    2    1    2    0    0 -0.62148899312E+02  0.13783482872E+03  0.19113467049E+03  0.27389478436E+03  0.12499985978E+03 0.  0.
          2    1    1    2  501    0 -0.63668076974E+02 -0.80812428083E+02 -0.16877249595E+02  0.10425504358E+03  0.00000000000E+00 0. -1.
          1    1    1    2  502    0  0.12581697629E+03 -0.57022400634E+02  0.12308499787E+04  0.12385770608E+04  0.00000000000E+00 0. -1.
         22    1    3    3    0    0 -0.98725623990E+02  0.79307976831E+02  0.13314603132E+03  0.18375083585E+03  0.00000000000E+00 0.  1.
         22    1    3    3    0    0  0.36576724678E+02  0.58526851886E+02  0.57988639167E+02  0.90143948506E+02  0.00000000000E+00 0.  1.
</event>
<event>
 7    1  0.7527776E-006  0.1047685E+03  0.7818608E-02  0.1273024E+00
          2   -1    0    0  502    0  0.00000000000E+00  0.00000000000E+00  0.26479828087E+04  0.26479828087E+04  0.00000000000E+00 0. -1.
          1   -1    0    0  501    0 -0.00000000000E+00 -0.00000000000E+00 -0.86830046275E+03  0.86830046275E+03  0.00000000000E+00 0. -1.
         25    2    1    2    0    0  0.25177832371E+02  0.21783638129E+02 -0.35563899740E+01  0.12940787171E+03  0.12500119686E+03 0.  0.
          2    1    1    2  501    0 -0.69965863392E+02  0.74666677833E+02 -0.79745426917E+03  0.80399231728E+03  0.00000000000E+00 0. -1.
          1    1    1    2  502    0  0.44788031021E+02 -0.96450315962E+02  0.25806930051E+04  0.25828830825E+04  0.00000000000E+00 0. -1.
         22    1    3    3    0    0 -0.14811827174E+02 -0.40302233482E+02  0.25623214125E+02  0.50002093456E+02  0.00000000000E+00 0.  1.
         22    1    3    3    0    0  0.39989659545E+02  0.62085871611E+02 -0.29179604099E+02  0.79405778251E+02  0.00000000000E+00 0.  1.
</event>
<event>
 7    1  0.7527776E-006  0.1103500E+03  0.7818608E-02  0.1287672E+00
          2   -1    0    0  502    0  0.00000000000E+00  0.00000000000E+00  0.40009461491E+03  0.40009461491E+03  0.00000000000E+00 0. -1.
          1   -1    0    0  501    0 -0.00000000000E+00 -0.00000000000E+00 -0.10686337196E+04  0.10686337196E+04  0.00000000000E+00 0. -1.
         25    2    1    2    0    0  0.24119317695E+02  0.18918073514E+03 -0.10548293313E+03  0.25124171251E+03  0.12499862755E+03 0.  0.
          2    1    1    2  501    0 -0.59004719740E+01 -0.10665198841E+03 -0.88153584964E+03  0.88798362395E+03  0.00000000000E+00 0. -1.
          1    1    1    2  502    0 -0.18218845721E+02 -0.82528746725E+02  0.31847967809E+03  0.32950299806E+03  0.00000000000E+00 0. -1.
         22    1    3    3    0    0  0.58408890655E+02  0.32653380078E+02 -0.21236271109E+02  0.70205562092E+02  0.00000000000E+00 0. -1.
         22    1    3    3    0    0 -0.34289572960E+02  0.15652735506E+03 -0.84246662020E+02  0.18103615041E+03  0.00000000000E+00 0. -1.
</event>
<event>
 7    1  0.7527776E-006  0.5813812E+02  0.7818608E-02  0.1436583E+00
          2   -1    0    0  502    0  0.00000000000E+00  0.00000000000E+00  0.62608280155E+02  0.62608280155E+02  0.00000000000E+00 0. -1.
          1   -1    0    0  501    0 -0.00000000000E+00 -0.00000000000E+00 -0.69435957886E+03  0.69435957886E+03  0.00000000000E+00 0. -1.
         25    2    1    2    0    0  0.32196893475E+02 -0.50277889237E+02 -0.36010775818E+03  0.38583529980E+03  0.12500709969E+03 0.  0.
          2    1    1    2  501    0 -0.45348760219E+02 -0.71283255141E+01 -0.30158926924E+03  0.30506296137E+03  0.00000000000E+00 0. -1.
          1    1    1    2  502    0  0.13151866744E+02  0.57406214751E+02  0.29945728721E+02  0.66069597846E+02  0.00000000000E+00 0. -1.
         22    1    3    3    0    0  0.25923715568E+02 -0.79738286636E+02 -0.33859207700E+03  0.34881919097E+03  0.00000000000E+00 0.  1.
         22    1    3    3    0    0  0.62731779076E+01  0.29460397399E+02 -0.21515681188E+02  0.37016108830E+02  0.00000000000E+00 0.  1.
</event>
<event>
 7    1  0.7527776E-006  0.7999554E+02  0.7818608E-02  0.1464345E+00
          2   -1    0    0  502    0  0.00000000000E+00  0.00000000000E+00  0.24806214895E+03  0.24806214895E+03  0.00000000000E+00 0. -1.
          1   -1    0    0  501    0 -0.00000000000E+00 -0.00000000000E+00 -0.35029815702E+03  0.35029815702E+03  0.00000000000E+00 0. -1.
         25    2    1    2    0    0  0.45651172497E+02  0.32460472205E+02  0.55836253430E+02  0.14791835427E+03  0.12499776209E+03 0.  0.
          2    1    1    2  501    0 -0.58591183818E+02 -0.56379331157E+02 -0.29748721029E+03  0.30839941000E+03  0.00000000000E+00 0. -1.
          1    1    1    2  502    0  0.12940011321E+02  0.23918858952E+02  0.13941494879E+03  0.14204254170E+03  0.00000000000E+00 0. -1.
         22    1    3    3    0    0  0.45481254325E+02 -0.20850248200E+02  0.75941935377E+02  0.90942041399E+02  0.00000000000E+00 0. -1.
         22    1    3    3    0    0  0.16991817241E+00  0.53310720405E+02 -0.20105681946E+02  0.56976312875E+02  0.00000000000E+00 0. -1.
</event>
<event>
 7    1  0.7527776E-006  0.1101973E+03  0.7818608E-02  0.1351341E+00
          2   -1    0    0  502    0  0.00000000000E+00  0.00000000000E+00  0.34532818801E+04  0.34532818801E+04  0.00000000000E+00 0. -1.
          1   -1    0    0  501    0 -0.00000000000E+00 -0.00000000000E+00 -0.78076696690E+03  0.78076696690E+03  0.00000000000E+00 0. -1.
         25    2    1    2    0    0  0.49883032556E+02  0.48026485191E+02  0.39109768965E+03  0.41638730892E+03  0.12500451177E+03 0.  0.
          2    1    1    2  501    0 -0.97591528811E+02 -0.52098611877E+02 -0.76394977057E+03  0.77191814579E+03  0.00000000000E+00 0. -1.
          1    1    1    2  502    0  0.47708496255E+02  0.40721266861E+01  0.30453669941E+04  0.30457433923E+04  0.00000000000E+00 0. -1.
         22    1    3    3    0    0  0.49322987395E+02  0.87601236739E+02  0.24029450691E+03  0.26047683930E+03  0.00000000000E+00 0. -1.
         22    1    3    3    0    0  0.56004516097E+00 -0.39574751548E+02  0.15080318274E+03  0.15591046962E+03  0.00000000000E+00 0. -1.
</event>
<event>
 7    1  0.7527776E-006  0.5505265E+02  0.7818608E-02  0.1435045E+00
          2   -1    0    0  502    0  0.00000000000E+00  0.00000000000E+00  0.21754368633E+04  0.21754368633E+04  0.00000000000E+00 0. -1.
          1   -1    0    0  501    0 -0.00000000000E+00 -0.00000000000E+00 -0.87442772136E+02  0.87442772136E+02  0.00000000000E+00 0. -1.
         25    2    1    2    0    0 -0.62122363816E+02 -0.29017402787E+01  0.63423479652E+03  0.64942076920E+03  0.12500380062E+03 0.  0.
          2    1    1    2  501    0  0.38213948015E+02 -0.39917855727E+02 -0.69846875169E+02  0.89063612096E+02  0.00000000000E+00 0. -1.
          1    1    1    2  502    0  0.23908415800E+02  0.42819596006E+02  0.15236061698E+04  0.15243952541E+04  0.00000000000E+00 0. -1.
         22    1    3    3    0    0  0.25974153403E+02 -0.36397488868E+02  0.23450617737E+03  0.23873118997E+03  0.00000000000E+00 0. -1.
         22    1    3    3    0    0 -0.88096517219E+02  0.33495748589E+02  0.39972861915E+03  0.41068957923E+03  0.00000000000E+00 0. -1.
</event>
<event>
 7    1  0.7527776E-006  0.5254488E+02  0.7818608E-02  0.1440482E+00
          2   -1    0    0  502    0  0.00000000000E+00  0.00000000000E+00  0.24090359921E+02  0.24090359921E+02  0.00000000000E+00 0. -1.
          1   -1    0    0  501    0 -0.00000000000E+00 -0.00000000000E+00 -0.11491317328E+04  0.11491317328E+04  0.00000000000E+00 0. -1.
         25    2    1    2    0    0  0.12438962874E+02 -0.52763471159E+02 -0.35724108513E+03  0.38234156268E+03  0.12500066386E+03 0.  0.
          2    1    1    2  501    0  0.38833282251E+02  0.30421274596E+02 -0.70524745692E+03  0.70697061697E+03  0.00000000000E+00 0. -1.
          1    1    1    2  502    0 -0.51272245126E+02  0.22342196564E+02 -0.62552830840E+02  0.83909913083E+02  0.00000000000E+00 0. -1.
         22    1    3    3    0    0 -0.16789313360E+02 -0.88406128475E+02 -0.22708744800E+03  0.24426672641E+03  0.00000000000E+00 0.  1.
         22    1    3    3    0    0  0.29228276234E+02  0.35642657316E+02 -0.13015363714E+03  0.13807483627E+03  0.00000000000E+00 0.  1.
</event>
<event>
 7    1  0.7527776E-006  0.1071898E+03  0.7818608E-02  0.1309048E+00
          2   -1    0    0  502    0  0.00000000000E+00  0.00000000000E+00  0.53076629574E+03  0.53076629574E+03  0.00000000000E+00 0. -1.
          1   -1    0    0  501    0 -0.00000000000E+00 -0.00000000000E+00 -0.29150578090E+03  0.29150578090E+03  0.00000000000E+00 0. -1.
         25    2    1    2    0    0  0.27850892316E+02 -0.27988709289E+02  0.27271561104E+03  0.30258461947E+03  0.12499842952E+03 0.  0.
          2    1    1    2  501    0 -0.90559585929E+02  0.62149736525E+02 -0.25995036977E+03  0.28220174184E+03  0.00000000000E+00 0. -1.
          1    1    1    2  502    0  0.62708693613E+02 -0.34161027236E+02  0.22649527357E+03  0.23748571533E+03  0.00000000000E+00 0. -1.
         22    1    3    3    0    0 -0.43092949701E+02 -0.19414977510E+02  0.17659734203E+03  0.18281292317E+03  0.00000000000E+00 0.  1.
         22    1    3    3    0    0  0.70943842017E+02 -0.85737317787E+01  0.96118269015E+02  0.11977169630E+03  0.00000000000E+00 0.  1.
</event>
<event>
 7    1  0.7527776E-006  0.1061791E+03  0.7818608E-02  0.1296465E+00
          2   -1    0    0  502    0  0.00000000000E+00  0.00000000000E+00  0.20020615598E+04  0.20020615598E+04  0.00000000000E+00 0. -1.
          1   -1    0    0  501    0 -0.00000000000E+00 -0.00000000000E+00 -0.20547940529E+03  0.20547940529E+03  0.00000000000E+00 0. -1.
         25    2    1    2    0    0  0.65931775074E+02  0.26331133997E+02 -0.13867265161E+03  0.19973823380E+03  0.12499972062E+03 0.  0.
          2    1    1    2  501    0 -0.91635654150E+02 -0.12935209447E+03  0.14634629512E+03  0.21574590506E+03  0.00000000000E+00 0. -1.
          1    1    1    2  502    0  0.25703879076E+02  0.10302096047E+03  0.17889085110E+04  0.17920568263E+04  0.00000000000E+00 0. -1.
         22    1    3    3    0    0  0.38542657823E+01  0.66986794953E+02 -0.47626387359E+02  0.82282190270E+02  0.00000000000E+00 0.  1.
         22    1    3    3    0    0  0.62077509291E+02 -0.40655660956E+02 -0.91046264250E+02  0.11745604353E+03  0.00000000000E+00 0.  1.
</event>
<event>
 7    1  0.7527776E-006  0.4430908E+02  0.7818608E-02  0.1585215E+00
          2   -1    0    0  502    0  0.00000000000E+00  0.00000000000E+00  0.11186937976E+04  0.11186937976E+04  0.00000000000E+00 0. -1.
          1   -1    0    0  501    0 -0.00000000000E+00 -0.00000000000E+00 -0.37167126935E+03  0.37167126935E+03  0.00000000000E+00 0. -1.
         25    2    1    2    0    0 -0.22374375326E+01  0.58760622964E+02 -0.59647950127E+02  0.15050109505E+03  0.12503953262E+03 0.  0.
          2    1    1    2  501    0 -0.12120258057E+02 -0.42136499852E+02 -0.26468069554E+03  0.26828763644E+03  0.00000000000E+00 0. -1.
          1    1    1    2  502    0  0.14357695590E+02 -0.16624123112E+02  0.10713511739E+04  0.10715763354E+04  0.00000000000E+00 0. -1.
         22    1    3    3    0    0 -0.43565539002E+02  0.35002331995E+02 -0.80885674138E+02  0.98313842944E+02  0.00000000000E+00 0. -1.
         22    1    3    3    0    0  0.41328101470E+02  0.23758290970E+02  0.21237724011E+02  0.52187252103E+02  0.00000000000E+00 0. -1.
</event>
<event>
 7    1  0.7527776E-006  0.9426018E+02  0.7818608E-02  0.1331769E+00
          2   -1    0    0  502    0  0.00000000000E+00  0.00000000000E+00  0.25518607310E+04  0.25518607310E+04  0.00000000000E+00 0. -1.
          1   -1    0    0  501    0 -0.00000000000E+00 -0.00000000000E+00 -0.28697820316E+02  0.28697820316E+02  0.00000000000E+00 0. -1.
         25    2    1    2    0    0 -0.50048758134E+02 -0.60879773461E+02  0.91129432002E+03  0.92319755676E+03  0.12500066443E+03 0.  0.
          2    1    1    2  501    0  0.97304248929E+02  0.14383765368E+02  0.87789774234E+02  0.13184101800E+03  0.00000000000E+00 0. -1.
          1    1    1    2  502    0 -0.47255490795E+02  0.46496008093E+02  0.15240788165E+04  0.15255199766E+04  0.00000000000E+00 0. -1.
         22    1    3    3    0    0  0.88412590824E+00 -0.75194643774E+02  0.74268898025E+03  0.74648639473E+03  0.00000000000E+00 0.  1.
         22    1    3    3    0    0 -0.50932884042E+02  0.14314870313E+02  0.16860533976E+03  0.17671116203E+03  0.00000000000E+00 0.  1.
</event>
<event>
 7    1  0.7527776E-006  0.8269030E+02  0.7818608E-02  0.1421058E+00
          2   -1    0    0  502    0  0.00000000000E+00  0.00000000000E+00  0.79332765980E+03  0.79332765980E+03  0.00000000000E+00 0. -1.
          1   -1    0    0  501    0 -0.00000000000E+00 -0.00000000000E+00 -0.10258009851E+04  0.10258009851E+04  0.00000000000E+00 0. -1.
         25    2    1    2    0    0  0.69551071765E+02  0.66244694230E+02  0.38915749304E+02  0.16236354077E+03  0.12498709026E+03 0.  0.
          2    1    1    2  501    0  0.69758847128E+01 -0.35637327279E+02 -0.96128130049E+03  0.96196695408E+03  0.00000000000E+00 0. -1.
          1    1    1    2  502    0 -0.76526956477E+02 -0.30607366950E+02  0.68989222589E+03  0.69479815006E+03  0.00000000000E+00 0. -1.
         22    1    3    3    0    0 -0.32326041603E+02 -0.33575131621E+01 -0.14862497164E+01  0.32533902295E+02  0.00000000000E+00 0.  1.
         22    1    3    3    0    0  0.10187711337E+03  0.69602207392E+02  0.40401999021E+02  0.12982963848E+03  0.00000000000E+00 0.  1.
</event>
<event>
 7    1  0.7527776E-006  0.6315856E+02  0.7818608E-02  0.1448457E+00
          2   -1    0    0  502    0  0.00000000000E+00  0.00000000000E+00  0.40222650236E+04  0.40222650236E+04  0.00000000000E+00 0. -1.
          1   -1    0    0  501    0 -0.00000000000E+00 -0.00000000000E+00 -0.22799368284E+04  0.22799368284E+04  0.00000000000E+00 0. -1.
         25    2    1    2    0    0 -0.50125205083E+02 -0.87888498140E+02 -0.27128560182E+03  0.31536587146E+03  0.12499132306E+03 0.  0.
          2    1    1    2  501    0  0.14204728011E+02  0.35978114405E+02 -0.19861737246E+04  0.19865503425E+04  0.00000000000E+00 0. -1.
          1    1    1    2  502    0  0.35920477072E+02  0.51910383735E+02  0.39997875216E+04  0.40002856381E+04  0.00000000000E+00 0. -1.
         22    1    3    3    0    0  0.37096102591E+01 -0.63323831300E+02 -0.24037662602E+03  0.24860529189E+03  0.00000000000E+00 0.  1.
         22    1    3    3    0    0 -0.53834815342E+02 -0.24564666841E+02 -0.30908975797E+02  0.66760579571E+02  0.00000000000E+00 0.  1.
</event>
<event>
 7    1  0.7527776E-006  0.4468284E+02  0.7818608E-02  0.1501687E+00
          2   -1    0    0  502    0  0.00000000000E+00  0.00000000000E+00  0.36302395237E+02  0.36302395237E+02  0.00000000000E+00 0. -1.
          1   -1    0    0  501    0 -0.00000000000E+00 -0.00000000000E+00 -0.92465318527E+03  0.92465318527E+03  0.00000000000E+00 0. -1.
         25    2    1    2    0    0 -0.34890044771E+01 -0.55751557168E+02 -0.30245777104E+03  0.33200333033E+03  0.12500039523E+03 0.  0.
          2    1    1    2  501    0 -0.27779963039E+02  0.35162871861E+02 -0.58962749318E+03  0.59132794168E+03  0.00000000000E+00 0. -1.
          1    1    1    2  502    0  0.31268967516E+02  0.20588685306E+02  0.37344741873E+01  0.37624308494E+02  0.00000000000E+00 0. -1.
         22    1    3    3    0    0 -0.13091493270E+02 -0.95187082184E+02 -0.22146072428E+03  0.24140592414E+03  0.00000000000E+00 0. -1.
         22    1    3    3    0    0  0.96024887925E+01  0.39435525016E+02 -0.80997046761E+02  0.90597406190E+02  0.00000000000E+00 0. -1.
</event>
<event>
 7    1  0.7527776E-006  0.4096879E+02  0.7818608E-02  0.1550845E+00
          2   -1    0    0  502    0  0.00000000000E+00  0.00000000000E+00  0.62822670458E+02  0.62822670458E+02  0.00000000000E+00 0. -1.
          1   -1    0    0  501    0 -0.00000000000E+00 -0.00000000000E+00 -0.72649227732E+03  0.72649227732E+03  0.00000000000E+00 0. -1.
         25    2    1    2    0    0  0.19575469762E+02 -0.65719587898E+02 -0.21404485019E+03  0.25718183594E+03  0.12500014238E+03 0.  0.
          2    1    1    2  501    0 -0.16395605572E+02  0.36418914368E+02 -0.48468665673E+03  0.48632942376E+03  0.00000000000E+00 0. -1.
          1    1    1    2  502    0 -0.31798641896E+01  0.29300673531E+02  0.35061900058E+02  0.45803688075E+02  0.00000000000E+00 0. -1.
         22    1    3    3    0    0 -0.51391534483E+02 -0.22176945835E+02 -0.11418271133E+03  0.12716366741E+03  0.00000000000E+00 0. -1.
         22    1    3    3    0    0  0.70967004245E+02 -0.43542642063E+02 -0.99862138859E+02  0.13001816853E+03  0.00000000000E+00 0. -1.
</event>
<event>
 7    1  0.7527776E-006  0.1091763E+03  0.7818608E-02  0.1388673E+00
          2   -1    0    0  502    0  0.00000000000E+00  0.00000000000E+00  0.40176751286E+04  0.40176751286E+04  0.00000000000E+00 0. -1.
          1   -1    0    0  501    0 -0.00000000000E+00 -0.00000000000E+00 -0.54323483320E+03  0.54323483320E+03  0.00000000000E+00 0. -1.
         25    2    1    2    0    0 -0.11582354854E+03 -0.40993282236E+02  0.75770053467E+03  0.77770517381E+03  0.12497877238E+03 0.  0.
          2    1    1    2  501    0  0.27755301836E+02 -0.22101396140E+02 -0.53173831043E+03  0.53292068760E+03  0.00000000000E+00 0. -1.
          1    1    1    2  502    0  0.88068246704E+02  0.63094678376E+02  0.32484780712E+04  0.32502841004E+04  0.00000000000E+00 0. -1.
         22    1    3    3    0    0  0.76287505132E+01  0.31246531682E+02  0.14701907750E+03  0.15049635452E+03  0.00000000000E+00 0. -1.
         22    1    3    3    0    0 -0.12345229905E+03 -0.72239813918E+02  0.61068145718E+03  0.62720881929E+03  0.00000000000E+00 0. -1.
</event>
<event>
 7    1  0.7527776E-006  0.4467788E+02  0.7818608E-02  0.1490785E+00
          2   -1    0    0  502    0  0.00000000000E+00  0.00000000000E+00  0.11890447929E+04  0.11890447929E+04  0.00000000000E+00 0. -1.
          1   -1    0    0  501    0 -0.00000000000E+00 -0.00000000000E+00 -0.16215063103E+03  0.16215063103E+03  0.00000000000E+00 0. -1.
         25    2    1    2    0    0 -0.58162836343E+02  0.10088850455E+02  0.11297346853E+03  0.17853023517E+03  0.12500135936E+03 0.  0.
          2    1    1    2  501    0  0.20789900354E+02 -0.34606212594E+02 -0.12573086771E+03  0.13205325063E+03  0.00000000000E+00 0. -1.
          1    1    1    2  502    0  0.37372935988E+02  0.24517362139E+02  0.10396515610E+04  0.10406119381E+04  0.00000000000E+00 0. -1.
         22    1    3    3    0    0  0.37814547392E+02  0.11990633096E+02  0.18245156547E+02  0.43664642606E+02  0.00000000000E+00 0. -1.
         22    1    3    3    0    0 -0.95977383735E+02 -0.19017826409E+01  0.94728311981E+02  0.13486559256E+03  0.00000000000E+00 0. -1.
</event>
<event>
 7    1  0.7527776E-006  0.1064214E+03  0.7818608E-02  0.1355920E+00
          2   -1    0    0  502    0  0.00000000000E+00  0.00000000000E+00  0.25461174024E+04  0.25461174024E+04  0.00000000000E+00 0. -1.
          1   -1    0    0  501    0 -0.00000000000E+00 -0.00000000000E+00 -0.15743752306E+03  0.15743752306E+03  0.00000000000E+00 0. -1.
         25    2    1    2    0    0  0.82844929637E+02 -0.82436021964E+02  0.15095270897E+03  0.22819039816E+03  0.12500062953E+03 0.  0.
          2    1    1    2  501    0  0.16639351007E+02  0.44694635026E+02 -0.11278055791E+03  0.12244971476E+03  0.00000000000E+00 0. -1.
          1    1    1    2  502    0 -0.99484280644E+02  0.37741386938E+02  0.23505077283E+04  0.23529148125E+04  0.00000000000E+00 0. -1.
         22    1    3    3    0    0  0.66185426059E+02 -0.68757542246E+01  0.98518352958E+01  0.67266970182E+02  0.00000000000E+00 0.  1.
         22    1    3    3    0    0  0.16659503578E+02 -0.75560267740E+02  0.14110087368E+03  0.16092342798E+03  0.00000000000E+00 0.  1.
</event>
<event>
 7    1  0.7527776E-006  0.6293512E+02  0.7818608E-02  0.1415029E+00
          2   -1    0    0  502    0  0.00000000000E+00  0.00000000000E+00  0.42505992355E+04  0.42505992355E+04  0.00000000000E+00 0. -1.
          1   -1    0    0  501    0 -0.00000000000E+00 -0.00000000000E+00 -0.63484913095E+01  0.63484913095E+01  0.00000000000E+00 0. -1.
         25    2    1    2    0    0  0.27525976501E+02  0.12194587877E+02  0.15547099670E+04  0.15600174707E+04  0.12500016067E+03 0.  0.
          2    1    1    2  501    0 -0.70968943590E+02  0.12524687131E+02  0.37567746061E+03  0.38252714041E+03  0.00000000000E+00 0. -1.
          1    1    1    2  502    0  0.43442967090E+02 -0.24719275008E+02  0.23138633166E+04  0.23144031157E+04  0.00000000000E+00 0. -1.
         22    1    3    3    0    0  0.47008099999E+02  0.27248207350E+02  0.14866266751E+04  0.14876192717E+04  0.00000000000E+00 0.  1.
         22    1    3    3    0    0 -0.19482123498E+02 -0.15053619473E+02  0.68083291894E+02  0.72398199082E+02  0.00000000000E+00 0.  1.
</event>
<event>
 7    1  0.7527776E-006  0.8028295E+02  0.7818608E-02  0.1346020E+00
          2   -1    0    0  502    0  0.00000000000E+00  0.00000000000E+00  0.15540231005E+04  0.15540231005E+04  0.00000000000E+00 0. -1.
          1   -1    0    0  501    0 -0.00000000000E+00 -0.00000000000E+00 -0.51295512935E+03  0.51295512935E+03  0.00000000000E+00 0. -1.
         25    2    1    2    0    0 -0.46890867883E+02  0.87916588349E+01  0.40711391671E+03  0.42853541613E+03  0.12499925978E+03 0.  0.
          2    1    1    2  501    0  0.47968775842E+01  0.68614451450E+02 -0.49816961749E+03  0.50289553664E+03  0.00000000000E+00 0. -1.
          1    1    1    2  502    0  0.42093990299E+02 -0.77406110285E+02  0.11321236720E+04  0.11355472771E+04  0.00000000000E+00 0. -1.
         22    1    3    3    0    0  0.21077671883E+02  0.68414668393E+01  0.30530123950E+03  0.30610442787E+03  0.00000000000E+00 0. -1.
         22    1    3    3    0    0 -0.67968539766E+02  0.19501919956E+01  0.10181267721E+03  0.12243098826E+03  0.00000000000E+00 0. -1.
</event>
<event>
 7    1  0.7527776E-006  0.2207133E+03  0.7818608E-02  0.1300360E+00
          2   -1    0    0  502    0  0.00000000000E+00  0.00000000000E+00  0.84517443681E+03  0.84517443681E+03  0.00000000000E+00 0. -1.
          1   -1    0    0  501    0 -0.00000000000E+00 -0.00000000000E+00 -0.11156265018E+04  0.11156265018E+04  0.00000000000E+00 0. -1.
         25    2    1    2    0    0  0.54197133701E+02  0.18961446607E+03 -0.47022796449E+02  0.23817515877E+03  0.12500115129E+03 0.  0.
          2    1    1    2  501    0  0.34025923395E+02  0.15880962317E+02 -0.95597123992E+03  0.95670840906E+03  0.00000000000E+00 0. -1.
          1    1    1    2  502    0 -0.88223057097E+02 -0.20549542839E+03  0.73254197142E+03  0.76591737073E+03  0.00000000000E+00 0. -1.
         22    1    3    3    0    0  0.84649663638E+02  0.17948006430E+03 -0.53296690319E+02  0.20547310344E+03  0.00000000000E+00 0.  1.
         22    1    3    3    0    0 -0.30452529936E+02  0.10134401770E+02  0.62738938705E+01  0.32702055334E+02  0.00000000000E+00 0.  1.
</event>
<event>
 7    1  0.7527776E-006  0.2097880E+03  0.7818608E-02  0.1165506E+00
          2   -1    0    0  502    0  0.00000000000E+00  0.00000000000E+00  0.22545013988E+04  0.22545013988E+04  0.00000000000E+00 0. -1.
          1   -1    0    0  501    0 -0.00000000000E+00 -0.00000000000E+00 -0.13280415276E+03  0.13280415276E+03  0.00000000000E+00 0. -1.
         25    2    1    2    0    0 -0.10001091768E+03  0.34367652721E+03  0.17140426123E+04  0.17554720919E+04  0.12499779877E+03 0.  0.
          2    1    1    2  501    0  0.72147585679E+02 -0.18756682977E+03  0.71652652156E+01  0.20109184662E+03  0.00000000000E+00 0. -1.
          1    1    1    2  502    0  0.27863332006E+02 -0.15610969744E+03  0.40048936857E+03  0.43074161309E+03  0.00000000000E+00 0. -1.
         22    1    3    3    0    0 -0.11700014866E+03  0.34196949212E+03  0.16552328579E+04  0.16942337449E+04  0.00000000000E+00 0.  1.
         22    1    3    3    0    0  0.16989230975E+02  0.17070350855E+01  0.58809754349E+02  0.61238347010E+02  0.00000000000E+00 0.  1.
</event>
<event>
 7    1  0.7527776E-006  0.9754682E+02  0.7818608E-02  0.1425257E+00
          2   -1    0    0  502    0  0.00000000000E+00  0.00000000000E+00  0.18589924035E+03  0.18589924035E+03  0.00000000000E+00 0. -1.
          1   -1    0    0  501    0 -0.00000000000E+00 -0.00000000000E+00 -0.56002910611E+03  0.56002910611E+03  0.00000000000E+00 0. -1.
         25    2    1    2    0    0 -0.77734367559E+02 -0.76500589688E+02 -0.88239286999E+02  0.18790542817E+03  0.12500922383E+03 0.  0.
          2    1    1    2  501    0  0.29016043557E+02 -0.68303334556E+01 -0.40421913344E+03  0.40531677991E+03  0.00000000000E+00 0. -1.
          1    1    1    2  502    0  0.48718324002E+02  0.83330923143E+02  0.11832855468E+03  0.15270613837E+03  0.00000000000E+00 0. -1.
         22    1    3    3    0    0 -0.15136568173E+02  0.22070361708E+02 -0.62989288031E+02  0.68438782636E+02  0.00000000000E+00 0. -1.
         22    1    3    3    0    0 -0.62597799386E+02 -0.98570951395E+02 -0.25249998968E+02  0.11946664553E+03  0.00000000000E+00 0. -1.
</event>
<event>
 7    1  0.7527776E-006  0.3317621E+02  0.7818608E-02  0.1632902E+00
          2   -1    0    0  502    0  0.00000000000E+00  0.00000000000E+00  0.27017526025E+02  0.27017526025E+02  0.00000000000E+00 0. -1.
          1   -1    0    0  501    0 -0.00000000000E+00 -0.00000000000E+00 -0.13733900515E+04  0.13733900515E+04  0.00000000000E+00 0. -1.
         25    2    1    2    0    0  0.30956127382E+02  0.33515347615E+02 -0.12304777929E+04  0.12376493279E+04  0.12497479694E+03 0.  0.
          2    1    1    2  501    0 -0.98503493686E+01 -0.26988938660E+02 -0.13220951176E+03  0.13529518540E+03  0.00000000000E+00 0. -1.
          1    1    1    2  502    0 -0.21105778014E+02 -0.65264089548E+01  0.16314779107E+02  0.27463064227E+02  0.00000000000E+00 0. -1.
         22    1    3    3    0    0  0.71081411196E+02  0.52423848631E+02 -0.86109560662E+03  0.86561334940E+03  0.00000000000E+00 0.  1.
         22    1    3    3    0    0 -0.40125283814E+02 -0.18908501016E+02 -0.36938218624E+03  0.37203597854E+03  0.00000000000E+00 0.  1.
</event>
<event>
 7    1  0.7527776E-006  0.9080075E+02  0.7818608E-02  0.1317265E+00
          2   -1    0    0  502    0  0.00000000000E+00  0.00000000000E+00  0.31231519456E+04  0.31231519456E+04  0.00000000000E+00 0. -1.
          1   -1    0    0  501    0 -0.00000000000E+00 -0.00000000000E+00 -0.17825446152E+03  0.17825446152E+03  0.00000000000E+00 0. -1.
         25    2    1    2    0    0  0.50414224480E+02 -0.15426206746E+02  0.50361294883E+03  0.52156474378E+03  0.12499687132E+03 0.  0.
          2    1    1    2  501    0  0.26889983582E+02  0.73506402016E+02 -0.15928422260E+03  0.17747598689E+03  0.00000000000E+00 0. -1.
          1    1    1    2  502    0 -0.77304208061E+02 -0.58080195270E+02  0.26005687578E+04  0.26023656764E+04  0.00000000000E+00 0. -1.
         22    1    3    3    0    0 -0.39905582905E+02 -0.16772051927E+02  0.20810135286E+03  0.21255571113E+03  0.00000000000E+00 0. -1.
         22    1    3    3    0    0  0.90319807385E+02  0.13458451815E+01  0.29551159597E+03  0.30900903265E+03  0.00000000000E+00 0. -1.
</event>
<event>
 7    1  0.7527776E-006  0.4387976E+02  0.7818608E-02  0.1482003E+00
          2   -1    0    0  502    0  0.00000000000E+00  0.00000000000E+00  0.86631158548E+03  0.86631158548E+03  0.00000000000E+00 0. -1.
          1   -1    0    0  501    0 -0.00000000000E+00 -0.00000000000E+00 -0.10605831053E+04  0.10605831053E+04  0.00000000000E+00 0. -1.
         25    2    1    2    0    0  0.16977898432E+02  0.16575565243E+02  0.13875754443E+03  0.18825648696E+03  0.12499540131E+03 0.  0.
          2    1    1    2  501    0 -0.37122617140E+02  0.23395398267E+02 -0.10346554598E+04  0.10355855126E+04  0.00000000000E+00 0. -1.
          1    1    1    2  502    0  0.20144718708E+02 -0.39970963510E+02  0.70162639559E+03  0.70305269120E+03  0.00000000000E+00 0. -1.
         22    1    3    3    0    0  0.24132168732E+02  0.68809887622E+02  0.65623523933E+02  0.98099995390E+02  0.00000000000E+00 0. -1.
         22    1    3    3    0    0 -0.71542703001E+01 -0.52234322379E+02  0.73134020500E+02  0.90156491571E+02  0.00000000000E+00 0. -1.
</event>
<event>
 7    1  0.7527776E-006  0.6611209E+02  0.7818608E-02  0.1396474E+00
          2   -1    0    0  502    0  0.00000000000E+00  0.00000000000E+00  0.56114245112E+03  0.56114245112E+03  0.00000000000E+00 0. -1.
          1   -1    0    0  501    0 -0.00000000000E+00 -0.00000000000E+00 -0.35937587896E+02  0.35937587896E+02  0.00000000000E+00 0. -1.
         25    2    1    2    0    0  0.27276173053E+02  0.33652834750E+02  0.21496200135E+03  0.25240946094E+03  0.12500148418E+03 0.  0.
          2    1    1    2  501    0 -0.81734185317E+02 -0.41664217840E+02  0.22739648575E+03  0.24520510971E+03  0.00000000000E+00 0. -1.
          1    1    1    2  502    0  0.54458012264E+02  0.80113830900E+01  0.82846376126E+02  0.99465468360E+02  0.00000000000E+00 0. -1.
         22    1    3    3    0    0  0.19172263809E+02 -0.35686693981E+02  0.19707560750E+02  0.45050014179E+02  0.00000000000E+00 0.  1.
         22    1    3    3    0    0  0.81039092447E+01  0.69339528731E+02  0.19525444060E+03  0.20735944677E+03  0.00000000000E+00 0.  1.
</event>
<event>
 7    1  0.7527776E-006  0.3905857E+02  0.7818608E-02  0.1559359E+00
          2   -1    0    0  502    0  0.00000000000E+00  0.00000000000E+00  0.47418339444E+03  0.47418339444E+03  0.00000000000E+00 0. -1.
          1   -1    0    0  501    0 -0.00000000000E+00 -0.00000000000E+00 -0.21126609649E+03  0.21126609649E+03  0.00000000000E+00 0. -1.
         25    2    1    2    0    0  0.64863355575E+02  0.18787502966E+02  0.84008999475E+02  0.16505391402E+03  0.12500022950E+03 0.  0.
          2    1    1    2  501    0 -0.27662230980E+02 -0.95969684492E+01 -0.16842689902E+03  0.17095297932E+03  0.00000000000E+00 0. -1.
          1    1    1    2  502    0 -0.37201124595E+02 -0.91905345172E+01  0.34733519749E+03  0.34944259759E+03  0.00000000000E+00 0. -1.
         22    1    3    3    0    0  0.25836810353E+02 -0.49150671056E+02  0.83780441562E+01  0.56156218340E+02  0.00000000000E+00 0.  1.
         22    1    3    3    0    0  0.39026545222E+02  0.67938174022E+02  0.75630955318E+02  0.10889769568E+03  0.00000000000E+00 0.  1.
</event>
<event>
 7    1  0.7527776E-006  0.1364172E+03  0.7818608E-02  0.1431048E+00
          2   -1    0    0  502    0  0.00000000000E+00  0.00000000000E+00  0.53456655907E+03  0.53456655907E+03  0.00000000000E+00 0. -1.
          1   -1    0    0  501    0 -0.00000000000E+00 -0.00000000000E+00 -0.25743840194E+03  0.25743840194E+03  0.00000000000E+00 0. -1.
         25    2    1    2    0    0  0.14330098559E+03 -0.42419090277E+02  0.33263718994E+02  0.19764975189E+03  0.12499759090E+03 0.  0.
          2    1    1    2  501    0 -0.12415778509E+03  0.49462038879E+02 -0.14946171407E+03  0.20050050589E+03  0.00000000000E+00 0. -1.
          1    1    1    2  502    0 -0.19143200497E+02 -0.70429486017E+01  0.39332615220E+03  0.39385470323E+03  0.00000000000E+00 0. -1.
         22    1    3    3    0    0  0.15495193943E+01  0.30390491485E+02  0.22659938412E+02  0.37940160673E+02  0.00000000000E+00 0. -1.
         22    1    3    3    0    0  0.14175146620E+03 -0.72809581762E+02  0.10603780583E+02  0.15970959122E+03  0.00000000000E+00 0. -1.
</event>
<event>
 7    1  0.7527776E-006  0.4985452E+02  0.7818608E-02  0.1460687E+00
          2   -1    0    0  502    0  0.00000000000E+00  0.00000000000E+00  0.37846818098E+02  0.37846818098E+02  0.00000000000E+00 0. -1.
          1   -1    0    0  501    0 -0.00000000000E+00 -0.00000000000E+00 -0.11677290346E+04  0.11677290346E+04  0.00000000000E+00 0. -1.
         25    2    1    2    0    0 -0.10040224654E+02 -0.13329439710E+02 -0.69189362398E+03  0.70329249993E+03  0.12500029393E+03 0.  0.
          2    1    1    2  501    0 -0.22649409810E+02  0.50970655770E+02 -0.44797881232E+03  0.45143772528E+03  0.00000000000E+00 0. -1.
          1    1    1    2  502    0  0.32689634465E+02 -0.37641216059E+02  0.99902197606E+01  0.50845627528E+02  0.00000000000E+00 0. -1.
         22    1    3    3    0    0 -0.46648392134E+02 -0.34246205619E+01 -0.62214016728E+03  0.62389597551E+03  0.00000000000E+00 0.  1.
         22    1    3    3    0    0  0.36608167479E+02 -0.99048191486E+01 -0.69753456700E+02  0.79396524421E+02  0.00000000000E+00 0.  1.
</event>
<event>
 7    1  0.7527776E-006  0.9205806E+02  0.7818608E-02  0.1321866E+00
          2   -1    0    0  502    0  0.00000000000E+00  0.00000000000E+00  0.11749056549E+04  0.11749056549E+04  0.00000000000E+00 0. -1.
          1   -1    0    0  501    0 -0.00000000000E+00 -0.00000000000E+00 -0.42601171917E+03  0.42601171917E+03  0.00000000000E+00 0. -1.
         25    2    1    2    0    0 -0.44656246664E+02 -0.41591187185E+02  0.14035425393E+03  0.19760355468E+03  0.12499536395E+03 0.  0.
          2    1    1    2  501    0 -0.82325883672E+01  0.93477455517E+02 -0.39045620989E+03  0.40157422981E+03  0.00000000000E+00 0. -1.
          1    1    1    2  502    0  0.52888835031E+02 -0.51886268333E+02  0.99899589171E+03  0.10017395896E+04  0.00000000000E+00 0. -1.
         22    1    3    3    0    0 -0.19317307173E+02 -0.36229181290E+02 -0.12227257743E+02  0.42839441702E+02  0.00000000000E+00 0.  1.
         22    1    3    3    0    0 -0.25338939491E+02 -0.53620058946E+01  0.15258151167E+03  0.15476411298E+03  0.00000000000E+00 0.  1.
</event>
<event>
 7    1  0.7527776E-006  0.1090509E+03  0.7818608E-02  0.1262601E+00
          2   -1    0    0  502    0  0.00000000000E+00  0.00000000000E+00  0.24707066941E+04  0.24707066941E+04  0.00000000000E+00 0. -1.
          1   -1    0    0  501    0 -0.00000000000E+00 -0.00000000000E+00 -0.77601810445E+03  0.77601810445E+03  0.00000000000E+00 0. -1.
         25    2    1    2    0    0 -0.17423752690E+02  0.10349849019E+03  0.66867276730E+02  0.17639048723E+03  0.12500738642E+03 0.  0.
          2    1    1    2  501    0 -0.86330001468E+02 -0.66627542484E+02 -0.71583449265E+03  0.72409330851E+03  0.00000000000E+00 0. -1.
          1    1    1    2  502    0  0.10375375416E+03 -0.36870947710E+02  0.23436558056E+04  0.23462410028E+04  0.00000000000E+00 0. -1.
         22    1    3    3    0    0 -0.55293011292E+02  0.80680608999E+01  0.40429272868E+01  0.56024601431E+02  0.00000000000E+00 0. -1.
         22    1    3    3    0    0  0.37869258602E+02  0.95430429294E+02  0.62824349443E+02  0.12036588580E+03  0.00000000000E+00 0. -1.
</event>
<event>
 7    1  0.9891865E-006  0.3783440E+02  0.7818608E-02  0.1532714E+00
          2   -1    0    0  502    0  0.00000000000E+00  0.00000000000E+00  0.19714018192E+04  0.19714018192E+04  0.00000000000E+00 0. -1.
          1   -1    0    0  501    0 -0.00000000000E+00 -0.00000000000E+00 -0.94134249744E+03  0.94134249744E+03  0.00000000000E+00 0. -1.
         25    2    1    2    0    0  0.50765169361E+02 -0.29899225656E+02 -0.16789718220E+03  0.21745278221E+03  0.12500073034E+03 0.  0.
          2    1    1    2  501    0 -0.37479519505E+02 -0.34541299110E+01 -0.74802877755E+03  0.74897509801E+03  0.00000000000E+00 0. -1.
          1    1    1    2  502    0 -0.13285649856E+02  0.33353355566E+02  0.19459852815E+04  0.19463164364E+04  0.00000000000E+00 0. -1.
         22    1    3    3    0    0 -0.32322092463E+02 -0.37686281169E+02 -0.92517023915E+02  0.10499701502E+03  0.00000000000E+00 0.  1.
         22    1    3    3    0    0  0.83087261824E+02  0.77870555132E+01 -0.75380158288E+02  0.11245576719E+03  0.00000000000E+00 0.  1.
</event>
<event>
 7    1  0.7527776E-006  0.5492815E+02  0.7818608E-02  0.1456570E+00
          2   -1    0    0  502    0  0.00000000000E+00  0.00000000000E+00  0.13812019918E+04  0.13812019918E+04  0.00000000000E+00 0. -1.
          1   -1    0    0  501    0 -0.00000000000E+00 -0.00000000000E+00 -0.51912939318E+03  0.51912939318E+03  0.00000000000E+00 0. -1.
         25    2    1    2    0    0 -0.68556639893E+02 -0.16020262453E+02  0.41328273786E+03  0.43747500413E+03  0.12500038459E+03 0.  0.
          2    1    1    2  501    0  0.18278724934E+02  0.37708523951E+02 -0.50538115644E+03  0.50711552712E+03  0.00000000000E+00 0. -1.
          1    1    1    2  502    0  0.50277914959E+02 -0.21688261498E+02  0.95417101724E+03  0.95574085377E+03  0.00000000000E+00 0. -1.
         22    1    3    3    0    0 -0.70304618199E+02  0.18745284838E+02  0.38720176008E+03  0.39397884213E+03  0.00000000000E+00 0.  1.
         22    1    3    3    0    0  0.17479783063E+01 -0.34765547291E+02  0.26080977780E+02  0.43496161998E+02  0.00000000000E+00 0.  1.
</event>
<event>
 7    1  0.7527776E-006  0.8985738E+02  0.7818608E-02  0.1399481E+00
          2   -1    0    0  502    0  0.00000000000E+00  0.00000000000E+00  0.46796243052E+02  0.46796243052E+02  0.00000000000E+00 0. -1.
          1   -1    0    0  501    0 -0.00000000000E+00 -0.00000000000E+00 -0.14293588349E+04  0.14293588349E+04  0.00000000000E+00 0. -1.
         25    2    1    2    0    0  0.46839270341E+02 -0.28204095814E+02 -0.48571684319E+03  0.50451550072E+03  0.12500260173E+03 0.  0.
          2    1    1    2  501    0  0.35605096165E+02 -0.17201857852E+02 -0.87385766746E+03  0.87475187897E+03  0.00000000000E+00 0. -1.
          1    1    1    2  502    0 -0.82444366506E+02  0.45405953665E+02 -0.22988081196E+02  0.96887698259E+02  0.00000000000E+00 0. -1.
         22    1    3    3    0    0  0.54337793901E+02 -0.11081460882E+02 -0.74501644536E+02  0.92875667749E+02  0.00000000000E+00 0.  1.
         22    1    3    3    0    0 -0.74985235597E+01 -0.17122634932E+02 -0.41121519866E+03  0.41163983297E+03  0.00000000000E+00 0.  1.
</event>
<event>
 7    1  0.7527776E-006  0.1999222E+03  0.7818608E-02  0.1267258E+00
          2   -1    0    0  502    0  0.00000000000E+00  0.00000000000E+00  0.17664230036E+03  0.17664230036E+03  0.00000000000E+00 0. -1.
          1   -1    0    0  501    0 -0.00000000000E+00 -0.00000000000E+00 -0.11581608606E+04  0.11581608606E+04  0.00000000000E+00 0. -1.
         25    2    1    2    0    0 -0.13203657049E+03 -0.16808053930E+03 -0.14064950244E+02  0.24800586801E+03  0.12499745639E+03 0.  0.
          2    1    1    2  501    0  0.56584442093E+02 -0.35709083418E+01 -0.87661978259E+03  0.87845136104E+03  0.00000000000E+00 0. -1.
          1    1    1    2  502    0  0.75452128395E+02  0.17165144764E+03 -0.90833827448E+02  0.20834593197E+03  0.00000000000E+00 0. -1.
         22    1    3    3    0    0 -0.59267518848E+02 -0.87856488180E+01  0.30591294243E+02  0.67272978966E+02  0.00000000000E+00 0. -1.
         22    1    3    3    0    0 -0.72769051640E+02 -0.15929489048E+03 -0.44656244487E+02  0.18073288905E+03  0.00000000000E+00 0. -1.
</event>
<event>
 7    1  0.7527776E-006  0.1065346E+03  0.7818608E-02  0.1314907E+00
          2   -1    0    0  502    0  0.00000000000E+00  0.00000000000E+00  0.59165559318E+03  0.59165559318E+03  0.00000000000E+00 0. -1.
          1   -1    0    0  501    0 -0.00000000000E+00 -0.00000000000E+00 -0.20822567610E+03  0.20822567610E+03  0.00000000000E+00 0. -1.
         25    2    1    2    0    0 -0.11302674574E+03  0.76633252228E+02  0.11022998618E+03  0.21545884830E+03  0.12499665939E+03 0.  0.
          2    1    1    2  501    0  0.87384131515E+01 -0.67577024947E+02 -0.14131965055E+03  0.15688931703E+03  0.00000000000E+00 0. -1.
          1    1    1    2  502    0  0.10428833259E+03 -0.90562272808E+01  0.41451958146E+03  0.42753310395E+03  0.00000000000E+00 0. -1.
         22    1    3    3    0    0 -0.49871789265E+02 -0.19369181026E+02  0.80680070427E+02  0.96807201706E+02  0.00000000000E+00 0.  1.
         22    1    3    3    0    0 -0.63154956477E+02  0.96002433253E+02  0.29549915749E+02  0.11865164659E+03  0.00000000000E+00 0.  1.
</event>
<event>
 7    1  0.7527776E-006  0.1685189E+03  0.7818608E-02  0.1301602E+00
          2   -1    0    0  502    0  0.00000000000E+00  0.00000000000E+00  0.70270812476E+03  0.70270812476E+03  0.00000000000E+00 0. -1.
          1   -1    0    0  501    0 -0.00000000000E+00 -0.00000000000E+00 -0.10884973500E+04  0.10884973500E+04  0.00000000000E+00 0. -1.
         25    2    1    2    0    0 -0.20248022490E+03 -0.61089265556E+02 -0.45828491165E+03  0.51998162917E+03  0.12500277830E+03 0.  0.
          2    1    1    2  501    0  0.48376224486E+02 -0.48690037700E+01 -0.58788936871E+03  0.58989649612E+03  0.00000000000E+00 0. -1.
          1    1    1    2  502    0  0.15410400041E+03  0.65958269326E+02  0.66038505508E+03  0.68132734952E+03  0.00000000000E+00 0. -1.
         22    1    3    3    0    0 -0.11125234570E+03 -0.60316581481E+02 -0.13927409466E+03  0.18818195415E+03  0.00000000000E+00 0. -1.
         22    1    3    3    0    0 -0.91227879203E+02 -0.77268407587E+00 -0.31901081699E+03  0.33179967501E+03  0.00000000000E+00 0. -1.
</event>
<event>
 7    1  0.7527776E-006  0.8762708E+02  0.7818608E-02  0.1322696E+00
          2   -1    0    0  502    0  0.00000000000E+00  0.00000000000E+00  0.22604531008E+04  0.22604531008E+04  0.00000000000E+00 0. -1.
          1   -1    0    0  501    0 -0.00000000000E+00 -0.00000000000E+00 -0.98361136996E+03  0.98361136996E+03  0.00000000000E+00 0. -1.
         25    2    1    2    0    0  0.29588499920E+02 -0.15196023526E+03  0.13681243036E+04  0.13825177153E+04  0.12499492264E+03 0.  0.
          2    1    1    2  501    0  0.11834901092E+02  0.86739150230E+02 -0.97275919289E+03  0.97669042814E+03  0.00000000000E+00 0. -1.
          1    1    1    2  502    0 -0.41423401013E+02  0.65221085031E+02  0.88147662015E+03  0.88485632729E+03  0.00000000000E+00 0. -1.
         22    1    3    3    0    0  0.29986897269E+01 -0.16297227597E+03  0.99282298162E+03  0.10061145202E+04  0.00000000000E+00 0.  1.
         22    1    3    3    0    0  0.26589810194E+02  0.11012040707E+02  0.37530132196E+03  0.37640319514E+03  0.00000000000E+00 0.  1.
</event>
<event>
 7    1  0.7527776E-006  0.1115268E+03  0.7818608E-02  0.1380104E+00
          2   -1    0    0  502    0  0.00000000000E+00  0.00000000000E+00  0.60343749579E+03  0.60343749579E+03  0.00000000000E+00 0. -1.
          1   -1    0    0  501    0 -0.00000000000E+00 -0.00000000000E+00 -0.12617384418E+04  0.12617384418E+04  0.00000000000E+00 0. -1.
         25    2    1    2    0    0  0.95541122377E+02  0.26814787355E+02 -0.13026772298E+03  0.20601515874E+03  0.12500170837E+03 0.  0.
          2    1    1    2  501    0 -0.34175927197E+01  0.37071901979E+02 -0.10877197758E+04  0.10883567046E+04  0.00000000000E+00 0. -1.
          1    1    1    2  502    0 -0.92123529657E+02 -0.63886689334E+02  0.55968655277E+03  0.57080407421E+03  0.00000000000E+00 0. -1.
         22    1    3    3    0    0  0.12169245590E+03  0.28150778152E+02 -0.77197924577E+02  0.14683677909E+03  0.00000000000E+00 0. -1.
         22    1    3    3    0    0 -0.26151333522E+02 -0.13359907972E+01 -0.53069798400E+02  0.59178379655E+02  0.00000000000E+00 0. -1.
</event>
<event>
 7    1  0.7527776E-006  0.2021183E+03  0.7818608E-02  0.1198723E+00
          2   -1    0    0  502    0  0.00000000000E+00  0.00000000000E+00  0.17642258271E+04  0.17642258271E+04  0.00000000000E+00 0. -1.
          1   -1    0    0  501    0 -0.00000000000E+00 -0.00000000000E+00 -0.14741245286E+03  0.14741245286E+03  0.00000000000E+00 0. -1.
         25    2    1    2    0    0 -0.22914069727E+02 -0.17440501566E+03  0.21603435693E+03  0.30534825680E+03  0.12499820190E+03 0.  0.
          2    1    1    2  501    0  0.13635483142E+03  0.17636662941E+03  0.23297815978E+02  0.22414418629E+03  0.00000000000E+00 0. -1.
          1    1    1    2  502    0 -0.11344076169E+03 -0.19616137508E+01  0.13774812013E+04  0.13821458369E+04  0.00000000000E+00 0. -1.
         22    1    3    3    0    0 -0.30288103637E+02 -0.18624931653E+03  0.22094588129E+03  0.29055680958E+03  0.00000000000E+00 0.  1.
         22    1    3    3    0    0  0.73740339095E+01  0.11844300877E+02 -0.49115243632E+01  0.14791447223E+02  0.00000000000E+00 0.  1.
</event>
<event>
 7    1  0.7527776E-006  0.1322208E+03  0.7818608E-02  0.1264332E+00
          2   -1    0    0  502    0  0.00000000000E+00  0.00000000000E+00  0.64242017964E+03  0.64242017964E+03  0.00000000000E+00 0. -1.
          1   -1    0    0  501    0 -0.00000000000E+00 -0.00000000000E+00 -0.46804553359E+03  0.46804553359E+03  0.00000000000E+00 0. -1.
         25    2    1    2    0    0 -0.72846718815E+02 -0.10054254952E+03 -0.11661942211E+03  0.21128347432E+03  0.12500067281E+03 0.  0.
          2    1    1    2  501    0  0.13669249153E+03  0.39683688236E+02 -0.28388840904E+03  0.31757245023E+03  0.00000000000E+00 0. -1.
          1    1    1    2  502    0 -0.63845772719E+02  0.60858861281E+02  0.57488247721E+03  0.58160978868E+03  0.00000000000E+00 0. -1.
         22    1    3    3    0    0  0.72786334882E+01 -0.38701174654E+02 -0.10159445194E+03  0.10895958926E+03  0.00000000000E+00 0.  1.
         22    1    3    3    0    0 -0.80125352304E+02 -0.61841374863E+02 -0.15024970166E+02  0.10232388507E+03  0.00000000000E+00 0.  1.
</event>
<event>
 7    1  0.7527776E-006  0.6158881E+02  0.7818608E-02  0.1505568E+00
          2   -1    0    0  502    0  0.00000000000E+00  0.00000000000E+00  0.30171761625E+03  0.30171761625E+03  0.00000000000E+00 0. -1.
          1   -1    0    0  501    0 -0.00000000000E+00 -0.00000000000E+00 -0.23731463754E+03  0.23731463754E+03  0.00000000000E+00 0. -1.
         25    2    1    2    0    0  0.17874818322E+02  0.66632717323E+02  0.14823721787E+03  0.20581192461E+03  0.12499938960E+03 0.  0.
          2    1    1    2  501    0  0.19006239938E+02 -0.18395280039E+02 -0.20021325840E+03  0.20195289630E+03  0.00000000000E+00 0. -1.
          1    1    1    2  502    0 -0.36881058260E+02 -0.48237437284E+02  0.11637901924E+03  0.13126743287E+03  0.00000000000E+00 0. -1.
         22    1    3    3    0    0  0.64092356784E+02  0.51223035376E+02  0.13013250128E+03  0.15383789338E+03  0.00000000000E+00 0. -1.
         22    1    3    3    0    0 -0.46217538462E+02  0.15409681947E+02  0.18104716594E+02  0.51974031228E+02  0.00000000000E+00 0. -1.
</event>
<event>
 7    1  0.7527776E-006  0.5257642E+02  0.7818608E-02  0.1465066E+00
          2   -1    0    0  502    0  0.00000000000E+00  0.00000000000E+00  0.16983732112E+04  0.16983732112E+04  0.00000000000E+00 0. -1.
          1   -1    0    0  501    0 -0.00000000000E+00 -0.00000000000E+00 -0.18054428538E+03  0.18054428538E+03  0.00000000000E+00 0. -1.
         25    2    1    2    0    0  0.28795334119E+01  0.26614757254E+02  0.76869784525E+02  0.14917426981E+03  0.12500944758E+03 0.  0.
          2    1    1    2  501    0  0.35855233604E+02 -0.40541730581E+02 -0.13904290338E+03  0.14920508931E+03  0.00000000000E+00 0. -1.
          1    1    1    2  502    0 -0.38734767016E+02  0.13926973326E+02  0.15800020447E+04  0.15805381375E+04  0.00000000000E+00 0. -1.
         22    1    3    3    0    0  0.46986841032E+02 -0.22429951543E+02  0.60850245975E+01  0.52420353688E+02  0.00000000000E+00 0. -1.
         22    1    3    3    0    0 -0.44107307620E+02  0.49044708798E+02  0.70784759928E+02  0.96753916120E+02  0.00000000000E+00 0. -1.
</event>
<event>
 7    1  0.7544517E-006  0.1107448E+03  0.7818608E-02  0.1262652E+00
          2   -1    0    0  502    0  0.00000000000E+00  0.00000000000E+00  0.15190948275E+04  0.15190948275E+04  0.00000000000E+00 0. -1.
          1   -1    0    0  501    0 -0.00000000000E+00 -0.00000000000E+00 -0.12190862961E+04  0.12190862961E+04  0.00000000000E+00 0. -1.
         25    2    1    2    0    0 -0.34634203598E+02  0.47910596770E+02 -0.31686551677E+03  0.34572170730E+03  0.12499915936E+03 0.  0.
          2    1    1    2  501    0  0.13114348002E+03  0.64067246640E+01 -0.88088249850E+03  0.89061418956E+03  0.00000000000E+00 0. -1.
          1    1    1    2  502    0 -0.96509276423E+02 -0.54317321434E+02  0.14977565467E+04  0.15018452267E+04  0.00000000000E+00 0. -1.
         22    1    3    3    0    0 -0.39626085175E+01  0.74278819458E+02 -0.97375122610E+02  0.12253554500E+03  0.00000000000E+00 0. -1.
         22    1    3    3    0    0 -0.30671595080E+02 -0.26368222688E+02 -0.21949039416E+03  0.22318616230E+03  0.00000000000E+00 0. -1.
</event>
<event>
 7    1  0.7527776E-006  0.1024008E+03  0.7818608E-02  0.1327859E+00
          2   -1    0    0  502    0  0.00000000000E+00  0.00000000000E+00  0.22054345698E+04  0.22054345698E+04  0.00000000000E+00 0. -1.
          1   -1    0    0  501    0 -0.00000000000E+00 -0.00000000000E+00 -0.16566566518E+03  0.16566566518E+03  0.00000000000E+00 0. -1.
         25    2    1    2    0    0  0.49569469198E+02  0.65316168688E+01  0.44572533927E+03  0.46562350311E+03  0.12503749151E+03 0.  0.
          2    1    1    2  501    0  0.62358681687E+02 -0.10031095980E+02 -0.14743876710E+03  0.16039768736E+03  0.00000000000E+00 0. -1.
          1    1    1    2  502    0 -0.11192815089E+03  0.34994791111E+01  0.17414823324E+04  0.17450790445E+04  0.00000000000E+00 0. -1.
         22    1    3    3    0    0  0.12570621713E+02 -0.50071940884E+02  0.92025710311E+02  0.10551753955E+03  0.00000000000E+00 0.  1.
         22    1    3    3    0    0  0.36998847485E+02  0.56603557753E+02  0.35369962896E+03  0.36010596356E+03  0.00000000000E+00 0.  1.
</event>
<event>
 7    1  0.7527776E-006  0.4784081E+02  0.7818608E-02  0.1513193E+00
          2   -1    0    0  502    0  0.00000000000E+00  0.00000000000E+00  0.26055760812E+04  0.26055760812E+04  0.00000000000E+00 0. -1.
          1   -1    0    0  501    0 -0.00000000000E+00 -0.00000000000E+00 -0.28517408718E+03  0.28517408718E+03  0.00000000000E+00 0. -1.
         25    2    1    2    0    0 -0.48969608674E+02  0.60913153144E+02  0.16713735535E+04  0.16778623707E+04  0.12499657924E+03 0.  0.
          2    1    1    2  501    0  0.22685213055E+02 -0.42080419958E+02 -0.27961971855E+03  0.28367687188E+03  0.00000000000E+00 0. -1.
          1    1    1    2  502    0  0.26284395619E+02 -0.18832733187E+02  0.92864815901E+03  0.92921092575E+03  0.00000000000E+00 0. -1.
         22    1    3    3    0    0  0.30766781885E+02  0.58490303884E+02  0.63781599941E+03  0.64123081618E+03  0.00000000000E+00 0.  1.
         22    1    3    3    0    0 -0.79736390559E+02  0.24228492607E+01  0.10335575541E+04  0.10366315545E+04  0.00000000000E+00 0.  1.
</event>
<event>
 7    1  0.7527776E-006  0.4460674E+02  0.7818608E-02  0.1484548E+00
          2   -1    0    0  502    0  0.00000000000E+00  0.00000000000E+00  0.16855699159E+04  0.16855699159E+04  0.00000000000E+00 0. -1.
          1   -1    0    0  501    0 -0.00000000000E+00 -0.00000000000E+00 -0.59852507617E+03  0.59852507617E+03  0.00000000000E+00 0. -1.
         25    2    1    2    0    0  0.40560169161E+02 -0.81550981985E+01 -0.10032720839E+03  0.16552884474E+03  0.12499046663E+03 0.  0.
          2    1    1    2  501    0 -0.25304668716E+02 -0.33817559457E+02 -0.46433672410E+03  0.46625373664E+03  0.00000000000E+00 0. -1.
          1    1    1    2  502    0 -0.15255500445E+02  0.41972657655E+02  0.16517087722E+04  0.16523124107E+04  0.00000000000E+00 0. -1.
         22    1    3    3    0    0 -0.43078659394E+02  0.10969298622E+02 -0.46044299897E+02  0.64001359052E+02  0.00000000000E+00 0.  1.
         22    1    3    3    0    0  0.83638828555E+02 -0.19124396821E+02 -0.54282908496E+02  0.10152748569E+03  0.00000000000E+00 0.  1.
</event>
<event>
 7    1  0.7527776E-006  0.1054563E+03  0.7818608E-02  0.1279625E+00
          2   -1    0    0  502    0  0.00000000000E+00  0.00000000000E+00  0.20162687314E+04  0.20162687314E+04  0.00000000000E+00 0. -1.
          1   -1    0    0  501    0 -0.00000000000E+00 -0.00000000000E+00 -0.62229678693E+02  0.62229678693E+02  0.00000000000E+00 0. -1.
         25    2    1    2    0    0  0.11629403595E+03  0.14470399712E+03  0.99156079727E+03  0.10165045241E+04  0.12500033268E+03 0.  0.
          2    1    1    2  501    0 -0.85918861979E+02 -0.54233645497E+02  0.70898391022E+01  0.10185089575E+03  0.00000000000E+00 0. -1.
          1    1    1    2  502    0 -0.30375173975E+02 -0.90470351619E+02  0.95538841634E+03  0.96014299028E+03  0.00000000000E+00 0. -1.
         22    1    3    3    0    0  0.93800914781E+02  0.14403309322E+03  0.97076258759E+03  0.98586213287E+03  0.00000000000E+00 0. -1.
         22    1    3    3    0    0  0.22493121173E+02  0.67090390079E+00  0.20798209680E+02  0.30642391193E+02  0.00000000000E+00 0. -1.
</event>
<event>
 7    1  0.7527776E-006  0.4496704E+02  0.7818608E-02  0.1553650E+00
          2   -1    0    0  502    0  0.00000000000E+00  0.00000000000E+00  0.10095431141E+04  0.10095431141E+04  0.00000000000E+00 0. -1.
          1   -1    0    0  501    0 -0.00000000000E+00 -0.00000000000E+00 -0.17218433705E+03  0.17218433705E+03  0.00000000000E+00 0. -1.
         25    2    1    2    0    0  0.52907084702E+02 -0.33058043735E+02  0.35097137220E+03  0.37775692432E+03  0.12500958323E+03 0.  0.
          2    1    1    2  501    0 -0.26701945118E+02  0.36038351687E+02 -0.15534799111E+03  0.16169339816E+03  0.00000000000E+00 0. -1.
          1    1    1    2  502    0 -0.26205139584E+02 -0.29803079517E+01  0.64173539600E+03  0.64227712871E+03  0.00000000000E+00 0. -1.
         22    1    3    3    0    0  0.65429534231E+01  0.22715937859E+02  0.26156689527E+03  0.26263294685E+03  0.00000000000E+00 0.  1.
         22    1    3    3    0    0  0.46364131279E+02 -0.55773981594E+02  0.89404476932E+02  0.11512397747E+03  0.00000000000E+00 0.  1.
</event>
<event>
 7    1  0.7527776E-006  0.2246324E+03  0.7818608E-02  0.1318267E+00
          2   -1    0    0  502    0  0.00000000000E+00  0.00000000000E+00  0.69410821121E+03  0.69410821121E+03  0.00000000000E+00 0. -1.
          1   -1    0    0  501    0 -0.00000000000E+00 -0.00000000000E+00 -0.13812103705E+04  0.13812103705E+04  0.00000000000E+00 0. -1.
         25    2    1    2    0    0 -0.19400618160E+03  0.33203503365E+02  0.19598183134E+03  0.30458863686E+03  0.12499795340E+03 0.  0.
          2    1    1    2  501    0  0.21990082749E+03 -0.50885231907E+02 -0.13167382347E+04  0.13359435840E+04  0.00000000000E+00 0. -1.
          1    1    1    2  502    0 -0.25894645890E+02  0.17681728543E+02  0.43365424408E+03  0.43478636089E+03  0.00000000000E+00 0. -1.
         22    1    3    3    0    0 -0.43376071382E+02  0.63430053591E+02  0.87861968496E+02  0.11672437952E+03  0.00000000000E+00 0. -1.
         22    1    3    3    0    0 -0.15063011022E+03 -0.30226550227E+02  0.10811986284E+03  0.18786425733E+03  0.00000000000E+00 0. -1.
</event>
<event>
 7    1  0.7527776E-006  0.1380743E+03  0.7818608E-02  0.1275414E+00
          2   -1    0    0  502    0  0.00000000000E+00  0.00000000000E+00  0.32176489846E+03  0.32176489846E+03  0.00000000000E+00 0. -1.
          1   -1    0    0  501    0 -0.00000000000E+00 -0.00000000000E+00 -0.74625389104E+03  0.74625389104E+03  0.00000000000E+00 0. -1.
         25    2    1    2    0    0 -0.25595530819E+02  0.65082849972E+02 -0.47503108640E+03  0.49615530755E+03  0.12499859042E+03 0.  0.
          2    1    1    2  501    0  0.12908426583E+02  0.74774908059E+02 -0.23862538854E+03  0.25039966136E+03  0.00000000000E+00 0. -1.
          1    1    1    2  502    0  0.12687104236E+02 -0.13985775803E+03  0.28916748236E+03  0.32146382059E+03  0.00000000000E+00 0. -1.
         22    1    3    3    0    0 -0.76033308626E+02  0.34364426299E+02 -0.25295228306E+03  0.26635847146E+03  0.00000000000E+00 0. -1.
         22    1    3    3    0    0  0.50437777807E+02  0.30718423672E+02 -0.22207880334E+03  0.22979683609E+03  0.00000000000E+00 0. -1.
</event>
<event>
 7    1  0.7527776E-006  0.9307457E+02  0.7818608E-02  0.1323660E+00
          2   -1    0    0  502    0  0.00000000000E+00  0.00000000000E+00  0.70110538403E+03  0.70110538403E+03  0.00000000000E+00 0. -1.
          1   -1    0    0  501    0 -0.00000000000E+00 -0.00000000000E+00 -0.31431001624E+04  0.31431001624E+04  0.00000000000E+00 0. -1.
         25    2    1    2    0    0 -0.57888191467E+02 -0.67355284354E+02 -0.86358844222E+03  0.87709528188E+03  0.12499343551E+03 0.  0.
          2    1    1    2  501    0 -0.78395291799E+01  0.97042933180E+02 -0.22698391821E+04  0.22719262096E+04  0.00000000000E+00 0. -1.
          1    1    1    2  502    0  0.65727720647E+02 -0.29687648826E+02  0.69143284598E+03  0.69518405495E+03  0.00000000000E+00 0. -1.
         22    1    3    3    0    0 -0.62271598246E+02 -0.22829409022E+02 -0.77516248991E+03  0.77799474267E+03  0.00000000000E+00 0.  1.
         22    1    3    3    0    0  0.43834067790E+01 -0.44525875332E+02 -0.88425952305E+02  0.99100539202E+02  0.00000000000E+00 0.  1.
</event>
<event>
 7    1  0.7527776E-006  0.6325949E+02  0.7818608E-02  0.1488529E+00
          2   -1    0    0  502    0  0.00000000000E+00  0.00000000000E+00  0.28691169098E+03  0.28691169098E+03  0.00000000000E+00 0. -1.
          1   -1    0    0  501    0 -0.00000000000E+00 -0.00000000000E+00 -0.50658879508E+03  0.50658879508E+03  0.00000000000E+00 0. -1.
         25    2    1    2    0    0  0.47472306303E+02 -0.14069211428E+02 -0.46629775714E+03  0.48529400487E+03  0.12500044108E+03 0.  0.
          2    1    1    2  501    0  0.15026517729E+02  0.24761486879E+02 -0.19316664248E+02  0.34814666237E+02  0.00000000000E+00 0. -1.
          1    1    1    2  502    0 -0.62498824032E+02 -0.10692275451E+02  0.26593731729E+03  0.27339181496E+03  0.00000000000E+00 0. -1.
         22    1    3    3    0    0  0.62476827109E+02  0.37359597656E+02 -0.18247093832E+03  0.19645543208E+03  0.00000000000E+00 0. -1.
         22    1    3    3    0    0 -0.15004520807E+02 -0.51428809084E+02 -0.28382681882E+03  0.28883857279E+03  0.00000000000E+00 0. -1.
</event>
<event>
 7    1  0.7527776E-006  0.8129483E+02  0.7818608E-02  0.1481522E+00
          2   -1    0    0  502    0  0.00000000000E+00  0.00000000000E+00  0.73914406130E+03  0.73914406130E+03  0.00000000000E+00 0. -1.
          1   -1    0    0  501    0 -0.00000000000E+00 -0.00000000000E+00 -0.45072789736E+02  0.45072789736E+02  0.00000000000E+00 0. -1.
         25    2    1    2    0    0  0.79934697373E+02  0.53252959478E+02  0.22328857933E+03  0.27333020729E+03  0.12500471600E+03 0.  0.
          2    1    1    2  501    0 -0.70322602806E+02 -0.31618125191E+02  0.55672817167E+02  0.95102244333E+02  0.00000000000E+00 0. -1.
          1    1    1    2  502    0 -0.96120945674E+01 -0.21634834288E+02  0.41510987506E+03  0.41578439941E+03  0.00000000000E+00 0. -1.
         22    1    3    3    0    0  0.70183298076E+02 -0.97251450679E+00  0.20270860626E+03  0.21451671302E+03  0.00000000000E+00 0.  1.
         22    1    3    3    0    0  0.97513992968E+01  0.54225473985E+02  0.20579973076E+02  0.58813494276E+02  0.00000000000E+00 0.  1.
</event>
<event>
 7    1  0.7527776E-006  0.3989239E+02  0.7818608E-02  0.1561283E+00
          2   -1    0    0  502    0  0.00000000000E+00  0.00000000000E+00  0.13470540079E+03  0.13470540079E+03  0.00000000000E+00 0. -1.
          1   -1    0    0  501    0 -0.00000000000E+00 -0.00000000000E+00 -0.26372186980E+03  0.26372186980E+03  0.00000000000E+00 0. -1.
         25    2    1    2    0    0 -0.60918781492E+01  0.45488395498E+02 -0.13069499321E+02  0.13380277685E+03  0.12500426464E+03 0.  0.
          2    1    1    2  501    0  0.28459733975E+02 -0.28118122830E+02 -0.18537472784E+03  0.18964275629E+03  0.00000000000E+00 0. -1.
          1    1    1    2  502    0 -0.22367855826E+02 -0.17370272667E+02  0.69427758160E+02  0.74981737443E+02  0.00000000000E+00 0. -1.
         22    1    3    3    0    0 -0.36405730100E+02  0.65607842338E+02 -0.43185759886E+02  0.86572374446E+02  0.00000000000E+00 0. -1.
         22    1    3    3    0    0  0.30313851950E+02 -0.20119446841E+02  0.30116260564E+02  0.47230402408E+02  0.00000000000E+00 0. -1.
</event>
<event>
 7    1  0.7527776E-006  0.3711132E+02  0.7818608E-02  0.1562517E+00
          2   -1    0    0  502    0  0.00000000000E+00  0.00000000000E+00  0.76164140936E+03  0.76164140936E+03  0.00000000000E+00 0. -1.
          1   -1    0    0  501    0 -0.00000000000E+00 -0.00000000000E+00 -0.33444522522E+03  0.33444522522E+03  0.00000000000E+00 0. -1.
         25    2    1    2    0    0  0.36317187471E+01  0.12917811406E+02 -0.80608234022E+02  0.14934114327E+03  0.12500012180E+03 0.  0.
          2    1    1    2  501    0 -0.24145696636E+02  0.18149304978E+02 -0.21795182356E+03  0.22003501842E+03  0.00000000000E+00 0. -1.
          1    1    1    2  502    0  0.20513977889E+02 -0.31067116383E+02  0.72575624172E+03  0.72671047289E+03  0.00000000000E+00 0. -1.
         22    1    3    3    0    0  0.12446313740E+02  0.28093419263E+02 -0.11049213863E+03  0.11468506281E+03  0.00000000000E+00 0.  1.
         22    1    3    3    0    0 -0.88145949934E+01 -0.15175607857E+02  0.29883904609E+02  0.34656080468E+02  0.00000000000E+00 0.  1.
</event>
<event>
 7    1  0.7527776E-006  0.5651022E+02  0.7818608E-02  0.1455754E+00
          2   -1    0    0  502    0  0.00000000000E+00  0.00000000000E+00  0.80173061762E+03  0.80173061762E+03  0.00000000000E+00 0. -1.
          1   -1    0    0  501    0 -0.00000000000E+00 -0.00000000000E+00 -0.44125033384E+03  0.44125033384E+03  0.00000000000E+00 0. -1.
         25    2    1    2    0    0  0.31100010593E+02 -0.89616365244E+02 -0.22360755318E+02  0.15850388781E+03  0.12500070197E+03 0.  0.
          2    1    1    2  501    0 -0.22577034612E+02  0.34194641044E+02 -0.34854468553E+03  0.35094500107E+03  0.00000000000E+00 0. -1.
          1    1    1    2  502    0 -0.85229759812E+01  0.55421724200E+02  0.73138572462E+03  0.73353206257E+03  0.00000000000E+00 0. -1.
         22    1    3    3    0    0 -0.42093103583E+02 -0.55767959994E+01  0.75231008870E+01  0.43122234054E+02  0.00000000000E+00 0. -1.
         22    1    3    3    0    0  0.73193114176E+02 -0.84039569244E+02 -0.29883856205E+02  0.11538165375E+03  0.00000000000E+00 0. -1.
</event>
<event>
 7    1  0.7527776E-006  0.4252192E+02  0.7818608E-02  0.1506858E+00
          2   -1    0    0  502    0  0.00000000000E+00  0.00000000000E+00  0.37365678801E+03  0.37365678801E+03  0.00000000000E+00 0. -1.
          1   -1    0    0  501    0 -0.00000000000E+00 -0.00000000000E+00 -0.11624490284E+04  0.11624490284E+04  0.00000000000E+00 0. -1.
         25    2    1    2    0    0  0.50827642566E+01  0.42252130483E+02  0.26021303455E+03  0.29180049812E+03  0.12500252129E+03 0.  0.
          2    1    1    2  501    0  0.34087141687E+02 -0.16739421213E+02 -0.11407267484E+04  0.11413586885E+04  0.00000000000E+00 0. -1.
          1    1    1    2  502    0 -0.39169905944E+02 -0.25512709270E+02  0.91721473489E+02  0.10294662969E+03  0.00000000000E+00 0. -1.
         22    1    3    3    0    0 -0.15137664138E+01 -0.10392203476E+02  0.23099044627E+03  0.23122905452E+03  0.00000000000E+00 0. -1.
         22    1    3    3    0    0  0.65965306704E+01  0.52644333959E+02  0.29222588278E+02  0.60571443606E+02  0.00000000000E+00 0. -1.
</event>
<event>
 7    1  0.7527776E-006  0.8545707E+02  0.7818608E-02  0.1474599E+00
          2   -1    0    0  502    0  0.00000000000E+00  0.00000000000E+00  0.62663139829E+03  0.62663139829E+03  0.00000000000E+00 0. -1.
          1   -1    0    0  501    0 -0.00000000000E+00 -0.00000000000E+00 -0.56133614296E+02  0.56133614296E+02  0.00000000000E+00 0. -1.
         25    2    1    2    0    0  0.91027841362E+02  0.12277771589E+01  0.45357204003E+03  0.47920661485E+03  0.12499523543E+03 0.  0.
          2    1    1    2  501    0 -0.11349866151E+02 -0.20751744913E+02 -0.28227586611E+02  0.36827313566E+02  0.00000000000E+00 0. -1.
          1    1    1    2  502    0 -0.79677975211E+02  0.19523967755E+02  0.14515333057E+03  0.16673108417E+03  0.00000000000E+00 0. -1.
         22    1    3    3    0    0 -0.87701338988E+01 -0.18246016371E+02  0.25789367201E+03  0.25868702794E+03  0.00000000000E+00 0. -1.
         22    1    3    3    0    0  0.99797975261E+02  0.19473793530E+02  0.19567836802E+03  0.22051958691E+03  0.00000000000E+00 0. -1.
</event>
<event>
 7    1  0.7527776E-006  0.1024575E+03  0.7818608E-02  0.1304779E+00
          2   -1    0    0  502    0  0.00000000000E+00  0.00000000000E+00  0.15937162262E+04  0.15937162262E+04  0.00000000000E+00 0. -1.
          1   -1    0    0  501    0 -0.00000000000E+00 -0.00000000000E+00 -0.11634282392E+04  0.11634282392E+04  0.00000000000E+00 0. -1.
         25    2    1    2    0    0 -0.86743623572E+02  0.10018548022E+03  0.25430544556E+02  0.18394667508E+03  0.12501231939E+03 0.  0.
          2    1    1    2  501    0  0.99572314173E+02 -0.23578663028E+02 -0.10807388991E+04  0.10855722764E+04  0.00000000000E+00 0. -1.
          1    1    1    2  502    0 -0.12828690601E+02 -0.76606817188E+02  0.14855963416E+04  0.14876255140E+04  0.00000000000E+00 0. -1.
         22    1    3    3    0    0 -0.11100972782E+02  0.80197828784E+02 -0.31827869715E+02  0.86993888458E+02  0.00000000000E+00 0. -1.
         22    1    3    3    0    0 -0.75642650790E+02  0.19987651432E+02  0.57258414272E+02  0.96952786619E+02  0.00000000000E+00 0. -1.
</event>
<event>
 7    1  0.7527776E-006  0.7529637E+02  0.7818608E-02  0.1383715E+00
          2   -1    0    0  502    0  0.00000000000E+00  0.00000000000E+00  0.18477804215E+03  0.18477804215E+03  0.00000000000E+00 0. -1.
          1   -1    0    0  501    0 -0.00000000000E+00 -0.00000000000E+00 -0.21787583044E+04  0.21787583044E+04  0.00000000000E+00 0. -1.
         25    2    1    2    0    0 -0.70178664028E+02 -0.19832253618E+02 -0.66789459417E+03  0.68339326523E+03  0.12499921152E+03 0.  0.
          2    1    1    2  501    0  0.70061633004E+02 -0.33714900086E+02 -0.14980337653E+04  0.15000501622E+04  0.00000000000E+00 0. -1.
          1    1    1    2  502    0  0.11703102409E+00  0.53547153704E+02  0.17194809727E+03  0.18009291913E+03  0.00000000000E+00 0. -1.
         22    1    3    3    0    0 -0.82484101118E+02 -0.58913531419E+02 -0.41490195635E+03  0.42710427825E+03  0.00000000000E+00 0. -1.
         22    1    3    3    0    0  0.12305437091E+02  0.39081277800E+02 -0.25299263782E+03  0.25628898698E+03  0.00000000000E+00 0. -1.
</event>
<event>
 7    1  0.7527776E-006  0.1030319E+03  0.7818608E-02  0.1411834E+00
          2   -1    0    0  502    0  0.00000000000E+00  0.00000000000E+00  0.68226033244E+03  0.68226033244E+03  0.00000000000E+00 0. -1.
          1   -1    0    0  501    0 -0.00000000000E+00 -0.00000000000E+00 -0.77363957197E+02  0.77363957197E+02  0.00000000000E+00 0. -1.
         25    2    1    2    0    0  0.63636819519E+02 -0.10280698403E+03  0.81799469877E+02  0.19219463813E+03  0.12501481869E+03 0.  0.
          2    1    1    2  501    0 -0.30587488565E+02  0.66319663701E+01 -0.31411325884E+01  0.31455431146E+02  0.00000000000E+00 0. -1.
          1    1    1    2  502    0 -0.33049330954E+02  0.96175017656E+02  0.52623803796E+03  0.53597422036E+03  0.00000000000E+00 0. -1.
         22    1    3    3    0    0  0.46941748691E+02 -0.99417033172E+02  0.13388253581E+01  0.10995029199E+03  0.00000000000E+00 0. -1.
         22    1    3    3    0    0  0.16695070828E+02 -0.33899508548E+01  0.80460644519E+02  0.82244346147E+02  0.00000000000E+00 0. -1.
</event>
<event>
 7    1  0.7527776E-006  0.4407388E+02  0.7818608E-02  0.1519041E+00
          2   -1    0    0  502    0  0.00000000000E+00  0.00000000000E+00  0.81932410982E+03  0.81932410982E+03  0.00000000000E+00 0. -1.
          1   -1    0    0  501    0 -0.00000000000E+00 -0.00000000000E+00 -0.45738137944E+02  0.45738137944E+02  0.00000000000E+00 0. -1.
         25    2    1    2    0    0 -0.28140804364E+02  0.79668953490E+00  0.49508429610E+03  0.51139745944E+03  0.12500544668E+03 0.  0.
          2    1    1    2  501    0  0.28474888150E+02 -0.34540591047E+02 -0.22967503398E+02  0.50312800532E+02  0.00000000000E+00 0. -1.
          1    1    1    2  502    0 -0.33408378621E+00  0.33743901512E+02  0.30146917918E+03  0.30335198779E+03  0.00000000000E+00 0. -1.
         22    1    3    3    0    0 -0.52380898642E+02  0.10411364652E+02  0.84343934621E+02  0.99830127536E+02  0.00000000000E+00 0. -1.
         22    1    3    3    0    0  0.24240094278E+02 -0.96146751172E+01  0.41074036148E+03  0.41156733191E+03  0.00000000000E+00 0. -1.
</event>
<event>
 7    1  0.7527776E-006  0.8156820E+02  0.7818608E-02  0.1426367E+00
          2   -1    0    0  502    0  0.00000000000E+00  0.00000000000E+00  0.84337681365E+03  0.84337681365E+03  0.00000000000E+00 0. -1.
          1   -1    0    0  501    0 -0.00000000000E+00 -0.00000000000E+00 -0.92872335211E+03  0.92872335211E+03  0.00000000000E+00 0. -1.
         25    2    1    2    0    0  0.59859755927E+02 -0.20632472418E+02  0.11366658848E+03  0.18040624662E+03  0.12496972107E+03 0.  0.
          2    1    1    2  501    0  0.23214884821E+02  0.26656409166E+02 -0.89251164816E+03  0.89321136196E+03  0.00000000000E+00 0. -1.
          1    1    1    2  502    0 -0.83074640748E+02 -0.60239367479E+01  0.69349852122E+03  0.69848255718E+03  0.00000000000E+00 0. -1.
         22    1    3    3    0    0 -0.21131653427E+02  0.93052864143E+01 -0.13461006928E+02  0.26727024513E+02  0.00000000000E+00 0. -1.
         22    1    3    3    0    0  0.80991409354E+02 -0.29937758832E+02  0.12712759541E+03  0.15367922211E+03  0.00000000000E+00 0. -1.
</event>
<event>
 7    1  0.7527776E-006  0.1255554E+03  0.7818608E-02  0.1283754E+00
          2   -1    0    0  502    0  0.00000000000E+00  0.00000000000E+00  0.78000393551E+03  0.78000393551E+03  0.00000000000E+00 0. -1.
          1   -1    0    0  501    0 -0.00000000000E+00 -0.00000000000E+00 -0.19010095152E+04  0.19010095152E+04  0.00000000000E+00 0. -1.
         25    2    1    2    0    0  0.13518006389E+03 -0.14075995832E+03  0.18564743302E+03  0.29694236236E+03  0.12499112624E+03 0.  0.
          2    1    1    2  501    0 -0.66469598947E+02  0.10583763187E+03 -0.18404749795E+04  0.18447135176E+04  0.00000000000E+00 0. -1.
          1    1    1    2  502    0 -0.68710464943E+02  0.34922326446E+02  0.53382196679E+03  0.53935757073E+03  0.00000000000E+00 0. -1.
         22    1    3    3    0    0  0.97913531083E+02 -0.13158550733E+02  0.81434494808E+02  0.12803040253E+03  0.00000000000E+00 0. -1.
         22    1    3    3    0    0  0.37266532807E+02 -0.12760140758E+03  0.10421293821E+03  0.16891195984E+03  0.00000000000E+00 0. -1.
</event>
<event>
 7    1  0.7527776E-006  0.1241650E+03  0.7818608E-02  0.1422136E+00
          2   -1    0    0  502    0  0.00000000000E+00  0.00000000000E+00  0.29326744820E+03  0.29326744820E+03  0.00000000000E+00 0. -1.
          1   -1    0    0  501    0 -0.00000000000E+00 -0.00000000000E+00 -0.17296575089E+03  0.17296575089E+03  0.00000000000E+00 0. -1.
         25    2    1    2    0    0 -0.53036317996E+02 -0.92579864106E+02 -0.52873269739E+02  0.17263896523E+03  0.12499898959E+03 0.  0.
          2    1    1    2  501    0 -0.21807782474E+02 -0.99841611081E+01 -0.39318977466E+02  0.46056973831E+02  0.00000000000E+00 0. -1.
          1    1    1    2  502    0  0.74844100470E+02  0.10256402521E+03  0.21249394452E+03  0.24753726002E+03  0.00000000000E+00 0. -1.
         22    1    3    3    0    0 -0.68343042482E+02 -0.24098190834E+02 -0.69626310648E+02  0.10049536005E+03  0.00000000000E+00 0.  1.
         22    1    3    3    0    0  0.15306724485E+02 -0.68481673272E+02  0.16753040909E+02  0.72143605180E+02  0.00000000000E+00 0.  1.
</event>
<event>
 7    1  0.7527776E-006  0.9885621E+02  0.7818608E-02  0.1347371E+00
          2   -1    0    0  502    0  0.00000000000E+00  0.00000000000E+00  0.17555079580E+04  0.17555079580E+04  0.00000000000E+00 0. -1.
          1   -1    0    0  501    0 -0.00000000000E+00 -0.00000000000E+00 -0.50240093541E+03  0.50240093541E+03  0.00000000000E+00 0. -1.
         25    2    1    2    0    0 -0.27312713160E+02 -0.14791867263E+03  0.21697152638E+02  0.19678001587E+03  0.12500276078E+03 0.  0.
          2    1    1    2  501    0  0.25801200953E+02  0.92723615326E+02 -0.40880645207E+03  0.41998343546E+03  0.00000000000E+00 0. -1.
          1    1    1    2  502    0  0.15115122072E+01  0.55195057301E+02  0.16402163221E+04  0.16411454421E+04  0.00000000000E+00 0. -1.
         22    1    3    3    0    0  0.17230611594E+02  0.73917741878E+01  0.29573842828E+02  0.35016345914E+02  0.00000000000E+00 0.  1.
         22    1    3    3    0    0 -0.44543324754E+02 -0.15531044681E+03 -0.78766901898E+01  0.16176366996E+03  0.00000000000E+00 0.  1.
</event>
<event>
 7    1  0.7527776E-006  0.6194079E+02  0.7818608E-02  0.1484459E+00
          2   -1    0    0  502    0  0.00000000000E+00  0.00000000000E+00  0.11879298395E+04  0.11879298395E+04  0.00000000000E+00 0. -1.
          1   -1    0    0  501    0 -0.00000000000E+00 -0.00000000000E+00 -0.15025235561E+03  0.15025235561E+03  0.00000000000E+00 0. -1.
         25    2    1    2    0    0  0.22498587254E+02  0.35956617428E+02  0.74600335747E+03  0.75759212286E+03  0.12500300194E+03 0.  0.
          2    1    1    2  501    0  0.83376869594E+01  0.29271537401E+02 -0.13982570508E+03  0.14309985229E+03  0.00000000000E+00 0. -1.
          1    1    1    2  502    0 -0.30836274213E+02 -0.65228154829E+02  0.43149983150E+03  0.43749021997E+03  0.00000000000E+00 0. -1.
         22    1    3    3    0    0 -0.49317460646E+02  0.27378633151E+02  0.24596521877E+03  0.25235033252E+03  0.00000000000E+00 0. -1.
         22    1    3    3    0    0  0.71816047899E+02  0.85779842766E+01  0.50003813871E+03  0.50524179035E+03  0.00000000000E+00 0. -1.
</event>
<event>
 7    1  0.9874013E-006  0.9796304E+02  0.7818608E-02  0.1294710E+00
          2   -1    0    0  502    0  0.00000000000E+00  0.00000000000E+00  0.95370342069E+03  0.95370342069E+03  0.00000000000E+00 0. -1.
          1   -1    0    0  501    0 -0.00000000000E+00 -0.00000000000E+00 -0.15676377197E+04  0.15676377197E+04  0.00000000000E+00 0. -1.
         25    2    1    2    0    0 -0.85318138860E+02 -0.72796014169E+01 -0.66406369812E+03  0.68113075352E+03  0.12500532315E+03 0.  0.
          2    1    1    2  501    0  0.56484962475E+02 -0.86344137279E+02 -0.88951203809E+03  0.89547614537E+03  0.00000000000E+00 0. -1.
          1    1    1    2  502    0  0.28833176384E+02  0.93623738696E+02  0.93964143721E+03  0.94473424148E+03  0.00000000000E+00 0. -1.
         22    1    3    3    0    0  0.39019109834E+01 -0.26371484488E+02 -0.28397619873E+02  0.38950031038E+02  0.00000000000E+00 0. -1.
         22    1    3    3    0    0 -0.89220049843E+02  0.19091883071E+02 -0.63566607825E+03  0.64218072249E+03  0.00000000000E+00 0. -1.
</event>
<event>
 7    1  0.7527776E-006  0.8731280E+02  0.7818608E-02  0.1395542E+00
          2   -1    0    0  502    0  0.00000000000E+00  0.00000000000E+00  0.64470327730E+03  0.64470327730E+03  0.00000000000E+00 0. -1.
          1   -1    0    0  501    0 -0.00000000000E+00 -0.00000000000E+00 -0.16204527337E+03  0.16204527337E+03  0.00000000000E+00 0. -1.
         25    2    1    2    0    0 -0.92405982587E+02  0.82386290441E+02  0.59153883689E+02  0.18560863387E+03  0.12500006616E+03 0.  0.
          2    1    1    2  501    0  0.58185138912E+02 -0.58055085622E+02 -0.80701138519E+02  0.11518930990E+03  0.00000000000E+00 0. -1.
          1    1    1    2  502    0  0.34220843675E+02 -0.24331204819E+02  0.50420525876E+03  0.50595060691E+03  0.00000000000E+00 0. -1.
         22    1    3    3    0    0 -0.67405292837E+02  0.10453860555E+03  0.78425091934E+02  0.14704519237E+03  0.00000000000E+00 0.  1.
         22    1    3    3    0    0 -0.25000689750E+02 -0.22152315114E+02 -0.19271208244E+02  0.38563441497E+02  0.00000000000E+00 0.  1.
</event>
<event>
 7    1  0.7527776E-006  0.6074324E+02  0.7818608E-02  0.1450216E+00
          2   -1    0    0  502    0  0.00000000000E+00  0.00000000000E+00  0.16690895805E+03  0.16690895805E+03  0.00000000000E+00 0. -1.
          1   -1    0    0  501    0 -0.00000000000E+00 -0.00000000000E+00 -0.21083349985E+03  0.21083349985E+03  0.00000000000E+00 0. -1.
         25    2    1    2    0    0  0.20088914229E+02  0.24963767221E+02 -0.88880600377E+02  0.15668703797E+03  0.12499725035E+03 0.  0.
          2    1    1    2  501    0  0.39416866100E+02 -0.47373959035E+01 -0.75436329981E+02  0.85245364296E+02  0.00000000000E+00 0. -1.
          1    1    1    2  502    0 -0.59505780329E+02 -0.20226371317E+02  0.12039238856E+03  0.13581005564E+03  0.00000000000E+00 0. -1.
         22    1    3    3    0    0  0.54095108590E+02  0.58890971148E+02 -0.45741000214E+02  0.92123104359E+02  0.00000000000E+00 0. -1.
         22    1    3    3    0    0 -0.34006194361E+02 -0.33927203927E+02 -0.43139600164E+02  0.64563933612E+02  0.00000000000E+00 0. -1.
</event>
<event>
 7    1  0.7527776E-006  0.2867957E+02  0.7818608E-02  0.1671808E+00
          2   -1    0    0  502    0  0.00000000000E+00  0.00000000000E+00  0.15634758573E+04  0.15634758573E+04  0.00000000000E+00 0. -1.
          1   -1    0    0  501    0 -0.00000000000E+00 -0.00000000000E+00 -0.21020937479E+02  0.21020937479E+02  0.00000000000E+00 0. -1.
         25    2    1    2    0    0  0.24909130435E+02 -0.16863516114E+02  0.50295063551E+03  0.51912404257E+03  0.12500234740E+03 0.  0.
          2    1    1    2  501    0 -0.17362613409E+02 -0.10951181541E+02 -0.44633468042E+01  0.21007384088E+02  0.00000000000E+00 0. -1.
          1    1    1    2  502    0 -0.75465170260E+01  0.27814697655E+02  0.10439676311E+04  0.10443653682E+04  0.00000000000E+00 0. -1.
         22    1    3    3    0    0 -0.26579762115E+02  0.41495600723E+02  0.23438700961E+03  0.23951125007E+03  0.00000000000E+00 0.  1.
         22    1    3    3    0    0  0.51488892550E+02 -0.58359116837E+02  0.26856362590E+03  0.27961279250E+03  0.00000000000E+00 0.  1.
</event>
<event>
 7    1  0.7527776E-006  0.5700217E+02  0.7818608E-02  0.1481506E+00
          2   -1    0    0  502    0  0.00000000000E+00  0.00000000000E+00  0.86164588065E+03  0.86164588065E+03  0.00000000000E+00 0. -1.
          1   -1    0    0  501    0 -0.00000000000E+00 -0.00000000000E+00 -0.98320199845E+03  0.98320199845E+03  0.00000000000E+00 0. -1.
         25    2    1    2    0    0  0.30883869857E+02 -0.64872421005E+02  0.62574659971E+02  0.15719655535E+03  0.12503169405E+03 0.  0.
          2    1    1    2  501    0  0.19322740703E+01  0.56915271765E+02 -0.93464477110E+03  0.93637809137E+03  0.00000000000E+00 0. -1.
          1    1    1    2  502    0 -0.32816143927E+02  0.79571492401E+01  0.75051399332E+03  0.75127323239E+03  0.00000000000E+00 0. -1.
         22    1    3    3    0    0  0.23456492937E+02 -0.18427872096E+02 -0.36729640142E+02  0.47316593240E+02  0.00000000000E+00 0.  1.
         22    1    3    3    0    0  0.74273769197E+01 -0.46444548909E+02  0.99304300113E+02  0.10987996211E+03  0.00000000000E+00 0.  1.
</event>
<event>
 7    1  0.7527776E-006  0.8377066E+02  0.7818608E-02  0.1375330E+00
          2   -1    0    0  502    0  0.00000000000E+00  0.00000000000E+00  0.78981629349E+02  0.78981629349E+02  0.00000000000E+00 0. -1.
          1   -1    0    0  501    0 -0.00000000000E+00 -0.00000000000E+00 -0.87478720760E+03  0.87478720760E+03  0.00000000000E+00 0. -1.
         25    2    1    2    0    0 -0.50317973736E+02  0.20232975699E+02 -0.93069709414E+02  0.16501012943E+03  0.12500040087E+03 0.  0.
          2    1    1    2  501    0  0.84562464155E+02  0.18284740693E+02 -0.72676257927E+03  0.73189411032E+03  0.00000000000E+00 0. -1.
          1    1    1    2  502    0 -0.34244490419E+02 -0.38517716392E+02  0.24026710437E+02  0.56864597199E+02  0.00000000000E+00 0. -1.
         22    1    3    3    0    0  0.24905197631E+01  0.38731212578E+02 -0.10127500368E+03  0.10845706933E+03  0.00000000000E+00 0.  1.
         22    1    3    3    0    0 -0.52808493499E+02 -0.18498236880E+02  0.82052942666E+01  0.56553060105E+02  0.00000000000E+00 0.  1.
</event>
<event>
 7    1  0.7527776E-006  0.4753144E+02  0.7818608E-02  0.1555850E+00
          2   -1    0    0  502    0  0.00000000000E+00  0.00000000000E+00  0.25386338600E+04  0.25386338600E+04  0.00000000000E+00 0. -1.
          1   -1    0    0  501    0 -0.00000000000E+00 -0.00000000000E+00 -0.48577829170E+02  0.48577829170E+02  0.00000000000E+00 0. -1.
         25    2    1    2    0    0  0.62360753617E+02  0.13733652454E+02  0.14240078170E+04  0.14309087502E+04  0.12499644663E+03 0.  0.
          2    1    1    2  501    0 -0.47092213398E+02  0.55586243187E+01 -0.32494661090E+02  0.57484588077E+02  0.00000000000E+00 0. -1.
          1    1    1    2  502    0 -0.15268540219E+02 -0.19292276773E+02  0.10985428748E+04  0.10988183508E+04  0.00000000000E+00 0. -1.
         22    1    3    3    0    0 -0.36261059055E+02 -0.20797189745E+01  0.24498738323E+03  0.24766511174E+03  0.00000000000E+00 0.  1.
         22    1    3    3    0    0  0.98621812672E+02  0.15813371429E+02  0.11790204338E+04  0.11832436385E+04  0.00000000000E+00 0.  1.
</event>
<event>
 7    1  0.7527776E-006  0.1325184E+03  0.7818608E-02  0.1411316E+00
          2   -1    0    0  502    0  0.00000000000E+00  0.00000000000E+00  0.42063147053E+03  0.42063147053E+03  0.00000000000E+00 0. -1.
          1   -1    0    0  501    0 -0.00000000000E+00 -0.00000000000E+00 -0.17945469619E+03  0.17945469619E+03  0.00000000000E+00 0. -1.
         25    2    1    2    0    0  0.57018168198E+02 -0.11540274022E+03  0.22315205228E+03  0.28634113959E+03  0.12500218330E+03 0.  0.
          2    1    1    2  501    0 -0.36197286095E+02  0.12818706431E+03 -0.11653700637E+03  0.17698316538E+03  0.00000000000E+00 0. -1.
          1    1    1    2  502    0 -0.20820882104E+02 -0.12784324086E+02  0.13456172842E+03  0.13676186175E+03  0.00000000000E+00 0. -1.
         22    1    3    3    0    0  0.24201551377E+02  0.18988432912E+02  0.86840813119E+02  0.92128185137E+02  0.00000000000E+00 0. -1.
         22    1    3    3    0    0  0.32816616822E+02 -0.13439117313E+03  0.13631123916E+03  0.19421295445E+03  0.00000000000E+00 0. -1.
</event>
<event>
 7    1  0.7527776E-006  0.1262494E+03  0.7818608E-02  0.1259456E+00
          2   -1    0    0  502    0  0.00000000000E+00  0.00000000000E+00  0.15485588765E+04  0.15485588765E+04  0.00000000000E+00 0. -1.
          1   -1    0    0  501    0 -0.00000000000E+00 -0.00000000000E+00 -0.14273928880E+04  0.14273928880E+04  0.00000000000E+00 0. -1.
         25    2    1    2    0    0  0.71579047064E+02  0.18869361174E+03 -0.72354774423E+02  0.24816960805E+03  0.12499640750E+03 0.  0.
          2    1    1    2  501    0 -0.73197281249E+02 -0.63491752124E+02 -0.12625875105E+04  0.12663002276E+04  0.00000000000E+00 0. -1.
          1    1    1    2  502    0  0.16182341856E+01 -0.12520185962E+03  0.14561082734E+04  0.14614819288E+04  0.00000000000E+00 0. -1.
         22    1    3    3    0    0  0.89396701325E+02  0.11226817018E+03 -0.87728609569E+02  0.16820291668E+03  0.00000000000E+00 0. -1.
         22    1    3    3    0    0 -0.17817654261E+02  0.76425441563E+02  0.15373835146E+02  0.79966691370E+02  0.00000000000E+00 0. -1.
</event>
<event>
 7    1  0.7527776E-006  0.8524195E+02  0.7818608E-02  0.1357070E+00
          2   -1    0    0  502    0  0.00000000000E+00  0.00000000000E+00  0.17885360955E+04  0.17885360955E+04  0.00000000000E+00 0. -1.
          1   -1    0    0  501    0 -0.00000000000E+00 -0.00000000000E+00 -0.10048196849E+03  0.10048196849E+03  0.00000000000E+00 0. -1.
         25    2    1    2    0    0 -0.75776707280E+02  0.31436078793E+02  0.18744503097E+03  0.23977214850E+03  0.12499882858E+03 0.  0.
          2    1    1    2  501    0  0.37219923045E+02  0.45734116166E+02 -0.61241684111E+02  0.85014563021E+02  0.00000000000E+00 0. -1.
          1    1    1    2  502    0  0.38556784234E+02 -0.77170194958E+02  0.15618507801E+04  0.15642313525E+04  0.00000000000E+00 0. -1.
         22    1    3    3    0    0 -0.16611142975E+02 -0.15670019228E+02 -0.12478110771E+02  0.26022736634E+02  0.00000000000E+00 0.  1.
         22    1    3    3    0    0 -0.59165564305E+02  0.47106098020E+02  0.19992314174E+03  0.21374941187E+03  0.00000000000E+00 0.  1.
</event>
<event>
 7    1  0.7527776E-006  0.1024889E+03  0.7818608E-02  0.1301362E+00
          2   -1    0    0  502    0  0.00000000000E+00  0.00000000000E+00  0.87637136806E+02  0.87637136806E+02  0.00000000000E+00 0. -1.
          1   -1    0    0  501    0 -0.00000000000E+00 -0.00000000000E+00 -0.31224877360E+04  0.31224877360E+04  0.00000000000E+00 0. -1.
         25    2    1    2    0    0  0.24452832258E+02 -0.77117054202E+02 -0.18006844515E+03  0.23365459333E+03  0.12499937197E+03 0.  0.
          2    1    1    2  501    0 -0.76609613097E+02 -0.23463221903E+02 -0.28618306249E+04  0.28629519872E+04  0.00000000000E+00 0. -1.
          1    1    1    2  502    0  0.52156780839E+02  0.10058027611E+03  0.70484708653E+01  0.11351829223E+03  0.00000000000E+00 0. -1.
         22    1    3    3    0    0 -0.27330155678E+02 -0.23144389278E+02 -0.14800320432E+03  0.15227458308E+03  0.00000000000E+00 0.  1.
         22    1    3    3    0    0  0.51782987936E+02 -0.53972664924E+02 -0.32065240828E+02  0.81380010248E+02  0.00000000000E+00 0.  1.
</event>
<event>
 7    1  0.7527776E-006  0.7241531E+02  0.7818608E-02  0.1391342E+00
          2   -1    0    0  502    0  0.00000000000E+00  0.00000000000E+00  0.18515700863E+04  0.18515700863E+04  0.00000000000E+00 0. -1.
          1   -1    0    0  501    0 -0.00000000000E+00 -0.00000000000E+00 -0.81350863292E+03  0.81350863292E+03  0.00000000000E+00 0. -1.
         25    2    1    2    0    0 -0.10850476202E+03 -0.37482603936E+01  0.85541013009E+03  0.87128770666E+03  0.12501377634E+03 0.  0.
          2    1    1    2  501    0  0.66780357445E+02 -0.27878085371E+02 -0.80324865667E+03  0.80650183398E+03  0.00000000000E+00 0. -1.
          1    1    1    2  502    0  0.41724404575E+02  0.31626345764E+02  0.98589997995E+03  0.98728917858E+03  0.00000000000E+00 0. -1.
         22    1    3    3    0    0 -0.98401504593E+02 -0.39322693491E+01  0.85553268257E+03  0.86118203058E+03  0.00000000000E+00 0. -1.
         22    1    3    3    0    0 -0.10103257426E+02  0.18400895548E+00 -0.12255247778E+00  0.10105676079E+02  0.00000000000E+00 0. -1.
</event>
<event>
 7    1  0.7527776E-006  0.1890973E+03  0.7818608E-02  0.1269588E+00
          2   -1    0    0  502    0  0.00000000000E+00  0.00000000000E+00  0.29146706643E+04  0.29146706643E+04  0.00000000000E+00 0. -1.
          1   -1    0    0  501    0 -0.00000000000E+00 -0.00000000000E+00 -0.12792229705E+04  0.12792229705E+04  0.00000000000E+00 0. -1.
         25    2    1    2    0    0  0.20492861782E+03  0.11949255616E+03  0.19791928542E+03  0.33327288002E+03  0.12499823853E+03 0.  0.
          2    1    1    2  501    0 -0.17457227889E+03 -0.69363947342E+02 -0.12039378495E+04  0.12185044863E+04  0.00000000000E+00 0. -1.
          1    1    1    2  502    0 -0.30356338932E+02 -0.50128608815E+02  0.26414662578E+04  0.26421162684E+04  0.00000000000E+00 0. -1.
         22    1    3    3    0    0  0.15548366201E+03  0.11096557161E+03  0.20766724920E+03  0.28215990790E+03  0.00000000000E+00 0. -1.
         22    1    3    3    0    0  0.49444955808E+02  0.85269845424E+01 -0.97479637848E+01  0.51112972112E+02  0.00000000000E+00 0. -1.
</event>
<event>
 7    1  0.7527776E-006  0.9547119E+02  0.7818608E-02  0.1437135E+00
          2   -1    0    0  502    0  0.00000000000E+00  0.00000000000E+00  0.18201012218E+04  0.18201012218E+04  0.00000000000E+00 0. -1.
          1   -1    0    0  501    0 -0.00000000000E+00 -0.00000000000E+00 -0.31742560641E+03  0.31742560641E+03  0.00000000000E+00 0. -1.
         25    2    1    2    0    0 -0.28547716529E+02  0.10045768246E+03  0.59911878786E+02  0.17355253970E+03  0.12499733090E+03 0.  0.
          2    1    1    2  501    0  0.27363982222E+02 -0.51212251855E+01 -0.25852320184E+03  0.26001780777E+03  0.00000000000E+00 0. -1.
          1    1    1    2  502    0  0.11837343077E+01 -0.95336457274E+02  0.17012869384E+04  0.17039564807E+04  0.00000000000E+00 0. -1.
         22    1    3    3    0    0  0.14326202552E+01 -0.13510018535E+02 -0.24897313202E+02  0.28362813794E+02  0.00000000000E+00 0.  1.
         22    1    3    3    0    0 -0.29980336784E+02  0.11396770099E+03  0.84809191989E+02  0.14518972591E+03  0.00000000000E+00 0.  1.
</event>
<event>
 7    1  0.7527776E-006  0.9037904E+02  0.7818608E-02  0.1451058E+00
          2   -1    0    0  502    0  0.00000000000E+00  0.00000000000E+00  0.16408493851E+04  0.16408493851E+04  0.00000000000E+00 0. -1.
          1   -1    0    0  501    0 -0.00000000000E+00 -0.00000000000E+00 -0.12131718234E+03  0.12131718234E+03  0.00000000000E+00 0. -1.
         25    2    1    2    0    0 -0.40250832745E+02 -0.64440134234E+02  0.56263153498E+02  0.15672731362E+03  0.12500099181E+03 0.  0.
          2    1    1    2  501    0  0.31900008222E+02  0.89608589256E+02 -0.39097053057E+02  0.10283914309E+03  0.00000000000E+00 0. -1.
          1    1    1    2  502    0  0.83508245226E+01 -0.25168455022E+02  0.15023661023E+04  0.15026001107E+04  0.00000000000E+00 0. -1.
         22    1    3    3    0    0 -0.17203546190E+02 -0.76811533708E+02  0.86360978916E+02  0.11685115486E+03  0.00000000000E+00 0.  1.
         22    1    3    3    0    0 -0.23047286554E+02  0.12371399473E+02 -0.30097825418E+02  0.39876158758E+02  0.00000000000E+00 0.  1.
</event>
<event>
 7    1  0.7527776E-006  0.6750147E+02  0.7818608E-02  0.1384583E+00
          2   -1    0    0  502    0  0.00000000000E+00  0.00000000000E+00  0.12679356908E+04  0.12679356908E+04  0.00000000000E+00 0. -1.
          1   -1    0    0  501    0 -0.00000000000E+00 -0.00000000000E+00 -0.63580579261E+03  0.63580579261E+03  0.00000000000E+00 0. -1.
         25    2    1    2    0    0  0.44770037186E+02 -0.40861230467E+02  0.11353553587E+03  0.17941798234E+03  0.12500599225E+03 0.  0.
          2    1    1    2  501    0  0.22265494393E+02  0.54973966577E+02 -0.60035567607E+03  0.60327839928E+03  0.00000000000E+00 0. -1.
          1    1    1    2  502    0 -0.67035531579E+02 -0.14112736109E+02  0.11189500384E+04  0.11210451018E+04  0.00000000000E+00 0. -1.
         22    1    3    3    0    0 -0.24706401854E+02 -0.78725896500E+01 -0.14758825592E+02  0.29836335117E+02  0.00000000000E+00 0.  1.
         22    1    3    3    0    0  0.69476439040E+02 -0.32988640817E+02  0.12829436146E+03  0.14958164723E+03  0.00000000000E+00 0.  1.
</event>
<event>
 7    1  0.7527776E-006  0.3959769E+02  0.7818608E-02  0.1539351E+00
          2   -1    0    0  502    0  0.00000000000E+00  0.00000000000E+00  0.95871074385E+03  0.95871074385E+03  0.00000000000E+00 0. -1.
          1   -1    0    0  501    0 -0.00000000000E+00 -0.00000000000E+00 -0.16579961863E+03  0.16579961863E+03  0.00000000000E+00 0. -1.
         25    2    1    2    0    0  0.48628611837E+02  0.33137239788E+02  0.74723775184E+03  0.75990314796E+03  0.12500287176E+03 0.  0.
          2    1    1    2  501    0 -0.15927766427E+02 -0.36215906395E+02 -0.15566154302E+03  0.16061071445E+03  0.00000000000E+00 0. -1.
          1    1    1    2  502    0 -0.32700845410E+02  0.30786666068E+01  0.20133491640E+03  0.20399650007E+03  0.00000000000E+00 0. -1.
         22    1    3    3    0    0 -0.28101090494E+02  0.51428833140E+02  0.28192723875E+03  0.28795410071E+03  0.00000000000E+00 0.  1.
         22    1    3    3    0    0  0.76729702331E+02 -0.18291593351E+02  0.46531051309E+03  0.47194904725E+03  0.00000000000E+00 0.  1.
</event>
<event>
 7    1  0.7527776E-006  0.6766711E+02  0.7818608E-02  0.1386924E+00
          2   -1    0    0  502    0  0.00000000000E+00  0.00000000000E+00  0.99644735459E+03  0.99644735459E+03  0.00000000000E+00 0. -1.
          1   -1    0    0  501    0 -0.00000000000E+00 -0.00000000000E+00 -0.14474467121E+03  0.14474467121E+03  0.00000000000E+00 0. -1.
         25    2    1    2    0    0  0.97502679501E+02 -0.22738406322E+02  0.70851425804E+02  0.17511520490E+03  0.12498641052E+03 0.  0.
          2    1    1    2  501    0 -0.51662191341E+02 -0.26488974913E+02 -0.82074712484E+02  0.10053311014E+03  0.00000000000E+00 0. -1.
          1    1    1    2  502    0 -0.45840488160E+02  0.49227381235E+02  0.86292597007E+03  0.86554371076E+03  0.00000000000E+00 0. -1.
         22    1    3    3    0    0  0.11731229468E+03 -0.28110454951E+02  0.87220867451E+02  0.14886185502E+03  0.00000000000E+00 0.  1.
         22    1    3    3    0    0 -0.19809615178E+02  0.53720486283E+01 -0.16369441648E+02  0.26253349878E+02  0.00000000000E+00 0.  1.
</event>
<event>
 7    1  0.7527776E-006  0.5460566E+02  0.7818608E-02  0.1473377E+00
          2   -1    0    0  502    0  0.00000000000E+00  0.00000000000E+00  0.25906015367E+04  0.25906015367E+04  0.00000000000E+00 0. -1.
          1   -1    0    0  501    0 -0.00000000000E+00 -0.00000000000E+00 -0.35188119411E+03  0.35188119411E+03  0.00000000000E+00 0. -1.
         25    2    1    2    0    0  0.99054571104E+01  0.70869198961E+02  0.12220192398E+04  0.12304784042E+04  0.12500207697E+03 0.  0.
          2    1    1    2  501    0 -0.34224270706E+02 -0.42534351826E+02 -0.34525086011E+03  0.34954059593E+03  0.00000000000E+00 0. -1.
          1    1    1    2  502    0  0.24318813596E+02 -0.28334847136E+02  0.13619519629E+04  0.13624637308E+04  0.00000000000E+00 0. -1.
         22    1    3    3    0    0  0.59503851742E+02  0.43002971404E+01  0.42959736960E+03  0.43372007205E+03  0.00000000000E+00 0. -1.
         22    1    3    3    0    0 -0.49598394632E+02  0.66568901821E+02  0.79242187020E+03  0.79675833213E+03  0.00000000000E+00 0. -1.
</event>
<event>
 7    1  0.7527776E-006  0.1038043E+03  0.7818608E-02  0.1357004E+00
          2   -1    0    0  502    0  0.00000000000E+00  0.00000000000E+00  0.93048791835E+03  0.93048791835E+03  0.00000000000E+00 0. -1.
          1   -1    0    0  501    0 -0.00000000000E+00 -0.00000000000E+00 -0.85526303564E+03  0.85526303564E+03  0.00000000000E+00 0. -1.
         25    2    1    2    0    0 -0.14669843082E+03 -0.17021858974E+02 -0.43492472475E+02  0.19832339260E+03  0.12502159654E+03 0.  0.
          2    1    1    2  501    0  0.44027936376E+02  0.20217896427E+02 -0.73045754438E+03  0.73206246090E+03  0.00000000000E+00 0. -1.
          1    1    1    2  502    0  0.10267049445E+03 -0.31960374529E+01  0.84917489957E+03  0.85536510049E+03  0.00000000000E+00 0. -1.
         22    1    3    3    0    0 -0.93208906488E+02  0.40071826810E+02  0.12344455653E+02  0.10220585667E+03  0.00000000000E+00 0.  1.
         22    1    3    3    0    0 -0.53489524337E+02 -0.57093685784E+02 -0.55836928128E+02  0.96117535928E+02  0.00000000000E+00 0.  1.
</event>
<event>
 7    1  0.7527776E-006  0.7045095E+02  0.7818608E-02  0.1497018E+00
          2   -1    0    0  502    0  0.00000000000E+00  0.00000000000E+00  0.86956179227E+02  0.86956179227E+02  0.00000000000E+00 0. -1.
          1   -1    0    0  501    0 -0.00000000000E+00 -0.00000000000E+00 -0.79194960532E+03  0.79194960532E+03  0.00000000000E+00 0. -1.
         25    2    1    2    0    0 -0.30726800823E+02 -0.80195574560E+02 -0.19178472641E+03  0.24450418656E+03  0.12500179797E+03 0.  0.
          2    1    1    2  501    0 -0.83642716119E+01  0.23048995917E+02 -0.55366711202E+03  0.55420978716E+03  0.00000000000E+00 0. -1.
          1    1    1    2  502    0  0.39091072435E+02  0.57146578643E+02  0.40458412335E+02  0.80191810825E+02  0.00000000000E+00 0. -1.
         22    1    3    3    0    0  0.30012989659E+02  0.18349687389E+02 -0.35089860688E+02  0.49686908725E+02  0.00000000000E+00 0.  1.
         22    1    3    3    0    0 -0.60739790482E+02 -0.98545261949E+02 -0.15669486572E+03  0.19481727783E+03  0.00000000000E+00 0.  1.
</event>
<event>
 7    1  0.7527776E-006  0.1635905E+03  0.7818608E-02  0.1197891E+00
          2   -1    0    0  502    0  0.00000000000E+00  0.00000000000E+00  0.29438984491E+04  0.29438984491E+04  0.00000000000E+00 0. -1.
          1   -1    0    0  501    0 -0.00000000000E+00 -0.00000000000E+00 -0.31405422857E+03  0.31405422857E+03  0.00000000000E+00 0. -1.
         25    2    1    2    0    0 -0.24906959933E+03 -0.37052797350E+02  0.19617952370E+03  0.34281133802E+03  0.12499853140E+03 0.  0.
          2    1    1    2  501    0  0.12480817763E+03 -0.66577851661E+02 -0.21727704319E+03  0.25926628210E+03  0.00000000000E+00 0. -1.
          1    1    1    2  502    0  0.12426142170E+03  0.10363064901E+03  0.26509417401E+04  0.26558750576E+04  0.00000000000E+00 0. -1.
         22    1    3    3    0    0 -0.73731943525E+02 -0.63739191957E+02  0.10545781608E+03  0.14359817220E+03  0.00000000000E+00 0. -1.
         22    1    3    3    0    0 -0.17533765581E+03  0.26686394607E+02  0.90721707617E+02  0.19921316581E+03  0.00000000000E+00 0. -1.
</event>
<event>
 7    1  0.7527776E-006  0.1035543E+03  0.7818608E-02  0.1382433E+00
          2   -1    0    0  502    0  0.00000000000E+00  0.00000000000E+00  0.27618028786E+04  0.27618028786E+04  0.00000000000E+00 0. -1.
          1   -1    0    0  501    0 -0.00000000000E+00 -0.00000000000E+00 -0.67560783897E+03  0.67560783897E+03  0.00000000000E+00 0. -1.
         25    2    1    2    0    0 -0.75340772976E+02 -0.34221620312E+02 -0.81857207566E+02  0.17079801512E+03  0.12499603261E+03 0.  0.
          2    1    1    2  501    0 -0.28196208307E+02  0.27437079455E+02 -0.54758373349E+03  0.54899523193E+03  0.00000000000E+00 0. -1.
          1    1    1    2  502    0  0.10353698128E+03  0.67845408571E+01  0.27156359807E+04  0.27176174705E+04  0.00000000000E+00 0. -1.
         22    1    3    3    0    0  0.74385362217E+01 -0.43797983215E+02 -0.75019324365E+02  0.87186548177E+02  0.00000000000E+00 0. -1.
         22    1    3    3    0    0 -0.82779309198E+02  0.95763629028E+01 -0.68378832007E+01  0.83611466943E+02  0.00000000000E+00 0. -1.
</event>
<event>
 7    1  0.7527776E-006  0.1041390E+03  0.7818608E-02  0.1339500E+00
          2   -1    0    0  502    0  0.00000000000E+00  0.00000000000E+00  0.35967584308E+03  0.35967584308E+03  0.00000000000E+00 0. -1.
          1   -1    0    0  501    0 -0.00000000000E+00 -0.00000000000E+00 -0.69569219880E+03  0.69569219880E+03  0.00000000000E+00 0. -1.
         25    2    1    2    0    0  0.63154273561E+02 -0.21195907528E+02  0.96079524963E+02  0.17115512372E+03  0.12500028997E+03 0.  0.
          2    1    1    2  501    0  0.56036906642E+02  0.25193537852E+01 -0.64074446532E+03  0.64319511183E+03  0.00000000000E+00 0. -1.
          1    1    1    2  502    0 -0.11919118020E+03  0.18676553743E+02  0.20864858464E+03  0.24101780633E+03  0.00000000000E+00 0. -1.
         22    1    3    3    0    0  0.74336576079E+02  0.11226335011E+02  0.67663893116E+01  0.75483383372E+02  0.00000000000E+00 0.  1.
         22    1    3    3    0    0 -0.11182302518E+02 -0.32422242539E+02  0.89313135652E+02  0.95671740346E+02  0.00000000000E+00 0.  1.
</event>
<event>
 7    1  0.7527776E-006  0.8655707E+02  0.7818608E-02  0.1433183E+00
          2   -1    0    0  502    0  0.00000000000E+00  0.00000000000E+00  0.13173448055E+04  0.13173448055E+04  0.00000000000E+00 0. -1.
          1   -1    0    0  501    0 -0.00000000000E+00 -0.00000000000E+00 -0.48915109221E+03  0.48915109221E+03  0.00000000000E+00 0. -1.
         25    2    1    2    0    0 -0.89597960378E+02  0.38485107587E+02 -0.20591710640E+02  0.15987058095E+03  0.12500274436E+03 0.  0.
          2    1    1    2  501    0  0.64236531181E+02 -0.57390954559E+02 -0.39406626493E+03  0.40337113773E+03  0.00000000000E+00 0. -1.
          1    1    1    2  502    0  0.25361429197E+02  0.18905846972E+02  0.12428516889E+04  0.12432541790E+04  0.00000000000E+00 0. -1.
         22    1    3    3    0    0 -0.14267488333E+02  0.19568603421E+01  0.48957015781E+02  0.51031166162E+02  0.00000000000E+00 0. -1.
         22    1    3    3    0    0 -0.75330472045E+02  0.36528247245E+02 -0.69548726421E+02  0.10883941479E+03  0.00000000000E+00 0. -1.
</event>
<event>
 7    1  0.7527776E-006  0.3339102E+02  0.7818608E-02  0.1640421E+00
          2   -1    0    0  502    0  0.00000000000E+00  0.00000000000E+00  0.31428838829E+03  0.31428838829E+03  0.00000000000E+00 0. -1.
          1   -1    0    0  501    0 -0.00000000000E+00 -0.00000000000E+00 -0.80460048055E+02  0.80460048055E+02  0.00000000000E+00 0. -1.
         25    2    1    2    0    0 -0.38143770793E+01 -0.15169910510E+02  0.63214891822E+02  0.14094379066E+03  0.12499741565E+03 0.  0.
          2    1    1    2  501    0  0.10413864132E+02 -0.18261499998E+02 -0.37461980766E+02  0.42957315456E+02  0.00000000000E+00 0. -1.
          1    1    1    2  502    0 -0.65994870522E+01  0.33431410508E+02  0.20807542918E+03  0.21084733024E+03  0.00000000000E+00 0. -1.
         22    1    3    3    0    0  0.24872652064E+02 -0.64362953275E+02  0.36004627925E+02  0.77830404130E+02  0.00000000000E+00 0. -1.
         22    1    3    3    0    0 -0.28687029143E+02  0.49193042765E+02  0.27210263897E+02  0.63113386527E+02  0.00000000000E+00 0. -1.
</event>
<event>
 7    1  0.7527776E-006  0.1031723E+03  0.7818608E-02  0.1368757E+00
          2   -1    0    0  502    0  0.00000000000E+00  0.00000000000E+00  0.16118195725E+04  0.16118195725E+04  0.00000000000E+00 0. -1.
          1   -1    0    0  501    0 -0.00000000000E+00 -0.00000000000E+00 -0.83955993125E+02  0.83955993125E+02  0.00000000000E+00 0. -1.
         25    2    1    2    0    0 -0.89616530670E+02  0.47266142581E+02  0.80322733339E+03  0.81918514810E+03  0.12499978788E+03 0.  0.
          2    1    1    2  501    0  0.62854194515E+02 -0.82417887354E+02 -0.39689224966E+02  0.11098915489E+03  0.00000000000E+00 0. -1.
          1    1    1    2  502    0  0.26762336154E+02  0.35151744773E+02  0.76432547097E+03  0.76560126265E+03  0.00000000000E+00 0. -1.
         22    1    3    3    0    0 -0.23938222617E+02  0.59072676908E+02  0.63522966440E+03  0.63841941245E+03  0.00000000000E+00 0.  1.
         22    1    3    3    0    0 -0.65678308053E+02 -0.11806534327E+02  0.16799766899E+03  0.18076573566E+03  0.00000000000E+00 0.  1.
</event>
<event>
 7    1  0.7527776E-006  0.2010665E+03  0.7818608E-02  0.1212292E+00
          2   -1    0    0  502    0  0.00000000000E+00  0.00000000000E+00  0.26567397845E+04  0.26567397845E+04  0.00000000000E+00 0. -1.
          1   -1    0    0  501    0 -0.00000000000E+00 -0.00000000000E+00 -0.61804076167E+03  0.61804076167E+03  0.00000000000E+00 0. -1.
         25    2    1    2    0    0  0.16702121670E+03 -0.11083578902E+03 -0.21831938635E+03  0.32166694257E+03  0.12500243410E+03 0.  0.
          2    1    1    2  501    0 -0.10142220595E+03  0.18439517464E+03 -0.31520552696E+03  0.37900206928E+03  0.00000000000E+00 0. -1.
          1    1    1    2  502    0 -0.65599010747E+02 -0.73559385617E+02  0.25722239362E+04  0.25741115343E+04  0.00000000000E+00 0. -1.
         22    1    3    3    0    0  0.14275941896E+02  0.16527373409E+01 -0.93478075387E+02  0.94576342897E+02  0.00000000000E+00 0. -1.
         22    1    3    3    0    0  0.15274527481E+03 -0.11248852636E+03 -0.12484131097E+03  0.22709059968E+03  0.00000000000E+00 0. -1.
</event>
<event>
 7    1  0.7527776E-006  0.1138188E+03  0.7818608E-02  0.1306364E+00
          2   -1    0    0  502    0  0.00000000000E+00  0.00000000000E+00  0.13294323523E+04  0.13294323523E+04  0.00000000000E+00 0. -1.
          1   -1    0    0  501    0 -0.00000000000E+00 -0.00000000000E+00 -0.52949516476E+02  0.52949516476E+02  0.00000000000E+00 0. -1.
         25    2    1    2    0    0 -0.73252548288E+01 -0.74935469920E+02  0.48532074800E+03  0.50678467805E+03  0.12500198981E+03 0.  0.
          2    1    1    2  501    0 -0.47856502171E+02 -0.49587944195E+02 -0.38311102647E+01  0.69020912885E+02  0.00000000000E+00 0. -1.
          1    1    1    2  502    0  0.55181757000E+02  0.12452341412E+03  0.79499319809E+03  0.80657627784E+03  0.00000000000E+00 0. -1.
         22    1    3    3    0    0  0.50901424876E+02 -0.37934702469E+01  0.12736612965E+03  0.13721325174E+03  0.00000000000E+00 0.  1.
         22    1    3    3    0    0 -0.58226679705E+02 -0.71141999673E+02  0.35795461835E+03  0.36957142631E+03  0.00000000000E+00 0.  1.
</event>
<event>
 7    1  0.7527776E-006  0.8772883E+02  0.7818608E-02  0.1365647E+00
          2   -1    0    0  502    0  0.00000000000E+00  0.00000000000E+00  0.10079099452E+04  0.10079099452E+04  0.00000000000E+00 0. -1.
          1   -1    0    0  501    0 -0.00000000000E+00 -0.00000000000E+00 -0.30933212684E+03  0.30933212684E+03  0.00000000000E+00 0. -1.
         25    2    1    2    0    0  0.69378524187E+02  0.10916966929E+03  0.40221317567E+03  0.44060394094E+03  0.12499999110E+03 0.  0.
          2    1    1    2  501    0 -0.42931472732E+02 -0.31617307884E+02 -0.28478880311E+03  0.28973682521E+03  0.00000000000E+00 0. -1.
          1    1    1    2  502    0 -0.26447051455E+02 -0.77552361407E+02  0.58115344585E+03  0.58690130594E+03  0.00000000000E+00 0. -1.
         22    1    3    3    0    0 -0.21160370423E+02 -0.15104466901E+02  0.64106570955E+02  0.69177732229E+02  0.00000000000E+00 0.  1.
         22    1    3    3    0    0  0.90538894611E+02  0.12427413619E+03  0.33810660472E+03  0.37142620871E+03  0.00000000000E+00 0.  1.
</event>
<event>
 7    1  0.7527776E-006  0.8794964E+02  0.7818608E-02  0.1309215E+00
          2   -1    0    0  502    0  0.00000000000E+00  0.00000000000E+00  0.44054606914E+02  0.44054606914E+02  0.00000000000E+00 0. -1.
          1   -1    0    0  501    0 -0.00000000000E+00 -0.00000000000E+00 -0.15959528292E+04  0.15959528292E+04  0.00000000000E+00 0. -1.
         25    2    1    2    0    0  0.85100167393E+02  0.25322455916E+02 -0.99982694482E+03  0.10115141963E+04  0.12499513807E+03 0.  0.
          2    1    1    2  501    0 -0.38274474575E+02 -0.98527070378E+02 -0.52778264812E+03  0.53826298652E+03  0.00000000000E+00 0. -1.
          1    1    1    2  502    0 -0.46825692818E+02  0.73204614462E+02 -0.24288629342E+02  0.90230253251E+02  0.00000000000E+00 0. -1.
         22    1    3    3    0    0  0.93395553335E+02  0.48700175013E+02 -0.95032904758E+03  0.95614838550E+03  0.00000000000E+00 0.  1.
         22    1    3    3    0    0 -0.82953859424E+01 -0.23377719097E+02 -0.49497897243E+02  0.55365810836E+02  0.00000000000E+00 0.  1.
</event>
<event>
 7    1  0.7527776E-006  0.1364529E+03  0.7818608E-02  0.1250275E+00
          2   -1    0    0  502    0  0.00000000000E+00  0.00000000000E+00  0.17334126511E+04  0.17334126511E+04  0.00000000000E+00 0. -1.
          1   -1    0    0  501    0 -0.00000000000E+00 -0.00000000000E+00 -0.68098080735E+02  0.68098080735E+02  0.00000000000E+00 0. -1.
         25    2    1    2    0    0  0.16703648319E+03  0.96701608889E+02  0.35888107481E+03  0.42623190405E+03  0.12500248916E+03 0.  0.
          2    1    1    2  501    0 -0.96897085022E+02  0.15887815886E+02  0.46966069197E+02  0.10884520860E+03  0.00000000000E+00 0. -1.
          1    1    1    2  502    0 -0.70139398169E+02 -0.11258942477E+03  0.12594674264E+04  0.12664336192E+04  0.00000000000E+00 0. -1.
         22    1    3    3    0    0 -0.15221082186E+02  0.46898405257E+00  0.38407078546E+01  0.15705168760E+02  0.00000000000E+00 0.  1.
         22    1    3    3    0    0  0.18225756538E+03  0.96232624836E+02  0.35504036696E+03  0.41052673529E+03  0.00000000000E+00 0.  1.
</event>
<event>
 7    1  0.7527776E-006  0.9145312E+02  0.7818608E-02  0.1400938E+00
          2   -1    0    0  502    0  0.00000000000E+00  0.00000000000E+00  0.16985067779E+04  0.16985067779E+04  0.00000000000E+00 0. -1.
          1   -1    0    0  501    0 -0.00000000000E+00 -0.00000000000E+00 -0.25082180686E+03  0.25082180686E+03  0.00000000000E+00 0. -1.
         25    2    1    2    0    0 -0.62656846368E+02  0.98418673666E+02  0.12890143822E+03  0.21413331602E+03  0.12500152211E+03 0.  0.
          2    1    1    2  501    0  0.26192510125E+02 -0.86358001641E+02 -0.19817288952E+03  0.21775271795E+03  0.00000000000E+00 0. -1.
          1    1    1    2  502    0  0.36464336243E+02 -0.12060672025E+02  0.15169564224E+04  0.15174425508E+04  0.00000000000E+00 0. -1.
         22    1    3    3    0    0 -0.44495568001E+02  0.33892461173E+01 -0.91521492714E+01  0.45553313790E+02  0.00000000000E+00 0. -1.
         22    1    3    3    0    0 -0.18161278367E+02  0.95029427549E+02  0.13805358749E+03  0.16858000223E+03  0.00000000000E+00 0. -1.
</event>
<event>
 7    1  0.7527776E-006  0.4319212E+02  0.7818608E-02  0.1575089E+00
          2   -1    0    0  502    0  0.00000000000E+00  0.00000000000E+00  0.12119430485E+02  0.12119430485E+02  0.00000000000E+00 0. -1.
          1   -1    0    0  501    0 -0.00000000000E+00 -0.00000000000E+00 -0.12372140909E+04  0.12372140909E+04  0.00000000000E+00 0. -1.
         25    2    1    2    0    0  0.44952192941E+02  0.45494840497E+02 -0.64994590710E+03  0.66493978650E+03  0.12499902941E+03 0.  0.
          2    1    1    2  501    0 -0.14654015166E+02 -0.18991194132E+02 -0.48584359543E+03  0.48643540665E+03  0.00000000000E+00 0. -1.
          1    1    1    2  502    0 -0.30298177775E+02 -0.26503646364E+02 -0.89305157902E+02  0.97958328257E+02  0.00000000000E+00 0. -1.
         22    1    3    3    0    0 -0.28497415065E+02 -0.96923716622E+01 -0.52879268642E+02  0.60846214228E+02  0.00000000000E+00 0.  1.
         22    1    3    3    0    0  0.73449608006E+02  0.55187212159E+02 -0.59706663846E+03  0.60409357227E+03  0.00000000000E+00 0.  1.
</event>
<event>
 7    1  0.7527776E-006  0.6232798E+02  0.7818608E-02  0.1392107E+00
          2   -1    0    0  502    0  0.00000000000E+00  0.00000000000E+00  0.11348197849E+04  0.11348197849E+04  0.00000000000E+00 0. -1.
          1   -1    0    0  501    0 -0.00000000000E+00 -0.00000000000E+00 -0.15584716260E+03  0.15584716260E+03  0.00000000000E+00 0. -1.
         25    2    1    2    0    0  0.58025352395E+01 -0.22136188339E+02  0.25746807126E+03  0.28712795672E+03  0.12501590124E+03 0.  0.
          2    1    1    2  501    0 -0.56486977976E+02 -0.21549269214E+02 -0.13316893704E+03  0.14625018112E+03  0.00000000000E+00 0. -1.
          1    1    1    2  502    0  0.50684442737E+02  0.43685457553E+02  0.85467348809E+03  0.85728880967E+03  0.00000000000E+00 0. -1.
         22    1    3    3    0    0  0.63942109015E+02 -0.17339467272E+02  0.10828696559E+03  0.12694611986E+03  0.00000000000E+00 0. -1.
         22    1    3    3    0    0 -0.58139573776E+02 -0.47967210670E+01  0.14918110567E+03  0.16018183686E+03  0.00000000000E+00 0. -1.
</event>
<event>
 7    1  0.7527776E-006  0.6686565E+02  0.7818608E-02  0.1426200E+00
          2   -1    0    0  502    0  0.00000000000E+00  0.00000000000E+00  0.13942225601E+04  0.13942225601E+04  0.00000000000E+00 0. -1.
          1   -1    0    0  501    0 -0.00000000000E+00 -0.00000000000E+00 -0.25893908395E+03  0.25893908395E+03  0.00000000000E+00 0. -1.
         25    2    1    2    0    0  0.82834528701E+01  0.90211092738E+02  0.14139281795E+03  0.20934085327E+03  0.12500002815E+03 0.  0.
          2    1    1    2  501    0 -0.32581394346E+02 -0.28329709336E+02 -0.22197702956E+03  0.22613695262E+03  0.00000000000E+00 0. -1.
          1    1    1    2  502    0  0.24297941476E+02 -0.61881383401E+02  0.12158676878E+04  0.12176838382E+04  0.00000000000E+00 0. -1.
         22    1    3    3    0    0 -0.24683063297E+02  0.13548379191E+02  0.11990745071E+03  0.12316902585E+03  0.00000000000E+00 0. -1.
         22    1    3    3    0    0  0.32966516167E+02  0.76662713547E+02  0.21485367244E+02  0.86171827427E+02  0.00000000000E+00 0. -1.
</event>
<event>
 7    1  0.7527776E-006  0.8129170E+02  0.7818608E-02  0.1345567E+00
          2   -1    0    0  502    0  0.00000000000E+00  0.00000000000E+00  0.51926929297E+03  0.51926929297E+03  0.00000000000E+00 0. -1.
          1   -1    0    0  501    0 -0.00000000000E+00 -0.00000000000E+00 -0.23575463467E+03  0.23575463467E+03  0.00000000000E+00 0. -1.
         25    2    1    2    0    0 -0.22346653188E+02 -0.64569369714E+01 -0.72346532346E+02  0.14629010655E+03  0.12500283832E+03 0.  0.
          2    1    1    2  501    0 -0.52308389208E+02  0.43751293812E+02 -0.11328322230E+03  0.13222492861E+03  0.00000000000E+00 0. -1.
          1    1    1    2  502    0  0.74655042396E+02 -0.37294356841E+02  0.46914441295E+03  0.47650889247E+03  0.00000000000E+00 0. -1.
         22    1    3    3    0    0 -0.23669395545E+02  0.16171684685E+02  0.29981969818E+02  0.41481106365E+02  0.00000000000E+00 0.  1.
         22    1    3    3    0    0  0.13227423572E+01 -0.22628621657E+02 -0.10232850216E+03  0.10480900019E+03  0.00000000000E+00 0.  1.
</event>
<event>
 7    1  0.7527776E-006  0.9311307E+02  0.7818608E-02  0.1317215E+00
          2   -1    0    0  502    0  0.00000000000E+00  0.00000000000E+00  0.99307511585E+02  0.99307511585E+02  0.00000000000E+00 0. -1.
          1   -1    0    0  501    0 -0.00000000000E+00 -0.00000000000E+00 -0.42633163600E+03  0.42633163600E+03  0.00000000000E+00 0. -1.
         25    2    1    2    0    0  0.23370386620E+02  0.94650225956E+02 -0.23275416215E+03  0.28161026210E+03  0.12499999790E+03 0.  0.
          2    1    1    2  501    0 -0.87675871934E+02 -0.53469997370E+02 -0.12494900827E+03  0.16173544388E+03  0.00000000000E+00 0. -1.
          1    1    1    2  502    0  0.64305485314E+02 -0.41180228585E+02  0.30679046010E+02  0.82293441609E+02  0.00000000000E+00 0. -1.
         22    1    3    3    0    0  0.12913210648E+01 -0.29700926391E+02 -0.66350619595E+02  0.72706377019E+02  0.00000000000E+00 0.  1.
         22    1    3    3    0    0  0.22079065556E+02  0.12435115235E+03 -0.16640354256E+03  0.20890388508E+03  0.00000000000E+00 0.  1.
</event>
<event>
 7    1  0.7527776E-006  0.1341494E+03  0.7818608E-02  0.1245986E+00
          2   -1    0    0  502    0  0.00000000000E+00  0.00000000000E+00  0.16951051210E+03  0.16951051210E+03  0.00000000000E+00 0. -1.
          1   -1    0    0  501    0 -0.00000000000E+00 -0.00000000000E+00 -0.10503977478E+04  0.10503977478E+04  0.00000000000E+00 0. -1.
         25    2    1    2    0    0  0.11370896388E+03  0.20366086810E+03 -0.79601520943E+02  0.27634982142E+03  0.12500137601E+03 0.  0.
          2    1    1    2  501    0 -0.66052166388E+02 -0.11092762589E+03 -0.82631019325E+03  0.83633507779E+03  0.00000000000E+00 0. -1.
          1    1    1    2  502    0 -0.47656797489E+02 -0.92733242213E+02  0.25024478472E+02  0.10722336071E+03  0.00000000000E+00 0. -1.
         22    1    3    3    0    0  0.78918639167E+02  0.77997416711E+02  0.19389943947E+02  0.11263977338E+03  0.00000000000E+00 0.  1.
         22    1    3    3    0    0  0.34790324711E+02  0.12566345139E+03 -0.98991464890E+02  0.16371004804E+03  0.00000000000E+00 0.  1.
</event>
<event>
 7    1  0.7527776E-006  0.3813056E+02  0.7818608E-02  0.1552661E+00
          2   -1    0    0  502    0  0.00000000000E+00  0.00000000000E+00  0.73495942227E+03  0.73495942227E+03  0.00000000000E+00 0. -1.
          1   -1    0    0  501    0 -0.00000000000E+00 -0.00000000000E+00 -0.54692811093E+03  0.54692811093E+03  0.00000000000E+00 0. -1.
         25    2    1    2    0    0 -0.29526333369E+02 -0.35210554636E+02 -0.16787834772E+03  0.21428971831E+03  0.12500142489E+03 0.  0.
          2    1    1    2  501    0  0.31165911409E+02 -0.28959584691E+01 -0.35464330891E+03  0.35602187737E+03  0.00000000000E+00 0. -1.
          1    1    1    2  502    0 -0.16395780399E+01  0.38106513105E+02  0.71055296797E+03  0.71157593752E+03  0.00000000000E+00 0. -1.
         22    1    3    3    0    0 -0.58058390231E+02 -0.47795549792E+02 -0.45265266917E+02  0.87773205736E+02  0.00000000000E+00 0. -1.
         22    1    3    3    0    0  0.28532056862E+02  0.12584995156E+02 -0.12261308080E+03  0.12651651258E+03  0.00000000000E+00 0. -1.
</event>
<event>
 7    1  0.7527776E-006  0.2173667E+03  0.7818608E-02  0.1226179E+00
          2   -1    0    0  502    0  0.00000000000E+00  0.00000000000E+00  0.10250987741E+04  0.10250987741E+04  0.00000000000E+00 0. -1.
          1   -1    0    0  501    0 -0.00000000000E+00 -0.00000000000E+00 -0.12729322147E+04  0.12729322147E+04  0.00000000000E+00 0. -1.
         25    2    1    2    0    0  0.14298223638E+03  0.23188265299E+03 -0.60333504334E+03  0.67368221251E+03  0.12498425603E+03 0.  0.
          2    1    1    2  501    0 -0.10806724097E+03 -0.16125555586E+03 -0.61794583950E+03  0.64771825930E+03  0.00000000000E+00 0. -1.
          1    1    1    2  502    0 -0.34914995409E+02 -0.70627097136E+02  0.97344744227E+03  0.97663051694E+03  0.00000000000E+00 0. -1.
         22    1    3    3    0    0  0.47934487365E+02  0.40748765433E+01 -0.14966548872E+03  0.15720711883E+03  0.00000000000E+00 0.  1.
         22    1    3    3    0    0  0.95047749012E+02  0.22780777645E+03 -0.45366955462E+03  0.51647509368E+03  0.00000000000E+00 0.  1.
</event>
<event>
 7    1  0.7527776E-006  0.1665688E+03  0.7818608E-02  0.1253937E+00
          2   -1    0    0  502    0  0.00000000000E+00  0.00000000000E+00  0.57255664985E+03  0.57255664985E+03  0.00000000000E+00 0. -1.
          1   -1    0    0  501    0 -0.00000000000E+00 -0.00000000000E+00 -0.42108328550E+03  0.42108328550E+03  0.00000000000E+00 0. -1.
         25    2    1    2    0    0 -0.12392006902E+03 -0.41095887799E+02  0.29078672407E+03  0.34238274755E+03  0.12499588563E+03 0.  0.
          2    1    1    2  501    0  0.12097247530E+03  0.11859808459E+03 -0.37050726179E+03  0.40740087935E+03  0.00000000000E+00 0. -1.
          1    1    1    2  502    0  0.29475937143E+01 -0.77502196794E+02  0.23119390208E+03  0.24385630846E+03  0.00000000000E+00 0. -1.
         22    1    3    3    0    0 -0.55116637747E+02 -0.72449764358E+02  0.22288340467E+03  0.24075677393E+03  0.00000000000E+00 0.  1.
         22    1    3    3    0    0 -0.68803431271E+02  0.31353876559E+02  0.67903319392E+02  0.10162597362E+03  0.00000000000E+00 0.  1.
</event>
<event>
 7    1  0.7527776E-006  0.5912072E+02  0.7818608E-02  0.1534612E+00
          2   -1    0    0  502    0  0.00000000000E+00  0.00000000000E+00  0.19089584981E+03  0.19089584981E+03  0.00000000000E+00 0. -1.
          1   -1    0    0  501    0 -0.00000000000E+00 -0.00000000000E+00 -0.66091625100E+03  0.66091625100E+03  0.00000000000E+00 0. -1.
         25    2    1    2    0    0 -0.50659315498E+02  0.56036734231E+02  0.51065255159E+02  0.15472289505E+03  0.12500012855E+03 0.  0.
          2    1    1    2  501    0  0.48506064789E+02 -0.33448080458E+02 -0.60617217816E+03  0.60902899930E+03  0.00000000000E+00 0. -1.
          1    1    1    2  502    0  0.21532507086E+01 -0.22588653774E+02  0.85086521815E+02  0.88060206464E+02  0.00000000000E+00 0. -1.
         22    1    3    3    0    0 -0.91993680868E+02  0.44994238448E+02  0.28234942373E+02  0.10622867214E+03  0.00000000000E+00 0.  1.
         22    1    3    3    0    0  0.41334365370E+02  0.11042495783E+02  0.22830312785E+02  0.48494222909E+02  0.00000000000E+00 0.  1.
</event>
<event>
 7    1  0.7527776E-006  0.9138329E+02  0.7818608E-02  0.1471910E+00
          2   -1    0    0  502    0  0.00000000000E+00  0.00000000000E+00  0.17852613232E+04  0.17852613232E+04  0.00000000000E+00 0. -1.
          1   -1    0    0  501    0 -0.00000000000E+00 -0.00000000000E+00 -0.46785529656E+03  0.46785529656E+03  0.00000000000E+00 0. -1.
         25    2    1    2    0    0  0.68697367320E+02 -0.95138834904E+01  0.81081762257E+03  0.82332132892E+03  0.12499180504E+03 0.  0.
          2    1    1    2  501    0 -0.89854315735E+02  0.17308202573E+02 -0.45693532411E+03  0.46600779215E+03  0.00000000000E+00 0. -1.
          1    1    1    2  502    0  0.21156948415E+02 -0.77943190828E+01  0.96352372814E+03  0.96378749866E+03  0.00000000000E+00 0. -1.
         22    1    3    3    0    0 -0.33767326677E+02  0.41728437404E+01  0.11706752741E+03  0.12191165223E+03  0.00000000000E+00 0.  1.
         22    1    3    3    0    0  0.10246469400E+03 -0.13686727231E+02  0.69375009515E+03  0.70140967668E+03  0.00000000000E+00 0.  1.
</event>
<event>
 7    1  0.7527776E-006  0.1406449E+03  0.7818608E-02  0.1325622E+00
          2   -1    0    0  502    0  0.00000000000E+00  0.00000000000E+00  0.24717341670E+04  0.24717341670E+04  0.00000000000E+00 0. -1.
          1   -1    0    0  501    0 -0.00000000000E+00 -0.00000000000E+00 -0.20227300003E+02  0.20227300003E+02  0.00000000000E+00 0. -1.
         25    2    1    2    0    0  0.11528489838E+02  0.15217005288E+03  0.57780407727E+03  0.61055060980E+03  0.12500345733E+03 0.  0.
          2    1    1    2  501    0 -0.38201153054E+02 -0.11358784597E+03  0.11617342800E+04  0.11678989957E+04  0.00000000000E+00 0. -1.
          1    1    1    2  502    0  0.26672663216E+02 -0.38582206915E+02  0.71196850974E+03  0.71351186151E+03  0.00000000000E+00 0. -1.
         22    1    3    3    0    0 -0.14583053604E+02  0.14910183856E+03  0.34314001766E+03  0.37441834281E+03  0.00000000000E+00 0. -1.
         22    1    3    3    0    0  0.26111543443E+02  0.30682143229E+01  0.23466405961E+03  0.23613226699E+03  0.00000000000E+00 0. -1.
</event>
<event>
 7    1  0.7527776E-006  0.9579445E+02  0.7818608E-02  0.1401044E+00
          2   -1    0    0  502    0  0.00000000000E+00  0.00000000000E+00  0.13934132439E+04  0.13934132439E+04  0.00000000000E+00 0. -1.
          1   -1    0    0  501    0 -0.00000000000E+00 -0.00000000000E+00 -0.11363074436E+04  0.11363074436E+04  0.00000000000E+00 0. -1.
         25    2    1    2    0    0  0.76113784500E+02 -0.46395874104E+02 -0.76087760672E+02  0.17134501085E+03  0.12499552029E+03 0.  0.
          2    1    1    2  501    0 -0.95227974153E+02  0.15141549307E+02 -0.10100452285E+04  0.10146373723E+04  0.00000000000E+00 0. -1.
          1    1    1    2  502    0  0.19114189653E+02  0.31254324797E+02  0.13432387895E+04  0.13437383043E+04  0.00000000000E+00 0. -1.
         22    1    3    3    0    0  0.44804808793E+02 -0.70643527254E+02  0.21222540507E+01  0.83680838883E+02  0.00000000000E+00 0. -1.
         22    1    3    3    0    0  0.31308975707E+02  0.24247653150E+02 -0.78210014723E+02  0.87664171964E+02  0.00000000000E+00 0. -1.
</event>
<event>
 7    1  0.7527776E-006  0.1479959E+03  0.7818608E-02  0.1319356E+00
          2   -1    0    0  502    0  0.00000000000E+00  0.00000000000E+00  0.10515662393E+04  0.10515662393E+04  0.00000000000E+00 0. -1.
          1   -1    0    0  501    0 -0.00000000000E+00 -0.00000000000E+00 -0.58777699507E+03  0.58777699507E+03  0.00000000000E+00 0. -1.
         25    2    1    2    0    0 -0.41606803570E+01  0.14498581233E+03  0.46943264381E+03  0.50698096534E+03  0.12499798040E+03 0.  0.
          2    1    1    2  501    0  0.47119794431E+02  0.10221844148E+01 -0.55771138166E+03  0.55969929884E+03  0.00000000000E+00 0. -1.
          1    1    1    2  502    0 -0.42959114074E+02 -0.14600799674E+03  0.55206798210E+03  0.57266297022E+03  0.00000000000E+00 0. -1.
         22    1    3    3    0    0  0.49391616283E+02  0.29513801694E+02  0.21387046256E+03  0.22147498957E+03  0.00000000000E+00 0.  1.
         22    1    3    3    0    0 -0.53552296640E+02  0.11547201063E+03  0.25556218126E+03  0.28550597578E+03  0.00000000000E+00 0.  1.
</event>
<event>
 7    1  0.7527776E-006  0.9771995E+02  0.7818608E-02  0.1341041E+00
          2   -1    0    0  502    0  0.00000000000E+00  0.00000000000E+00  0.85989892404E+02  0.85989892404E+02  0.00000000000E+00 0. -1.
          1   -1    0    0  501    0 -0.00000000000E+00 -0.00000000000E+00 -0.12653496134E+04  0.12653496134E+04  0.00000000000E+00 0. -1.
         25    2    1    2    0    0 -0.18417389779E+02  0.66439683550E+02 -0.23044689307E+03  0.27107872062E+03  0.12499788179E+03 0.  0.
          2    1    1    2  501    0  0.48758927579E+02  0.33194406461E+02 -0.97182935826E+03  0.97361779113E+03  0.00000000000E+00 0. -1.
          1    1    1    2  502    0 -0.30341537800E+02 -0.99634090012E+02  0.22916530365E+02  0.10664299402E+03  0.00000000000E+00 0. -1.
         22    1    3    3    0    0  0.53456951566E+02  0.22726204833E+02 -0.82703494234E+02  0.10106430634E+03  0.00000000000E+00 0.  1.
         22    1    3    3    0    0 -0.71874341346E+02  0.43713478717E+02 -0.14774339884E+03  0.17001441429E+03  0.00000000000E+00 0.  1.
</event>
<event>
 7    1  0.7527776E-006  0.4567213E+02  0.7818608E-02  0.1500683E+00
          2   -1    0    0  502    0  0.00000000000E+00  0.00000000000E+00  0.14986759730E+03  0.14986759730E+03  0.00000000000E+00 0. -1.
          1   -1    0    0  501    0 -0.00000000000E+00 -0.00000000000E+00 -0.37224480138E+04  0.37224480138E+04  0.00000000000E+00 0. -1.
         25    2    1    2    0    0 -0.97960974529E+01 -0.51950196356E+02 -0.15637494985E+04  0.15696279762E+04  0.12499881326E+03 0.  0.
          2    1    1    2  501    0  0.37233349115E+02  0.27305155013E+02 -0.21531935122E+04  0.21536885092E+04  0.00000000000E+00 0. -1.
          1    1    1    2  502    0 -0.27437251662E+02  0.24645041344E+02  0.14436259419E+03  0.14899912564E+03  0.00000000000E+00 0. -1.
         22    1    3    3    0    0 -0.66867299123E+01  0.11702414322E+02 -0.17611217634E+02  0.22176876346E+02  0.00000000000E+00 0.  1.
         22    1    3    3    0    0 -0.31093675406E+01 -0.63652610679E+02 -0.15461382808E+04  0.15474510999E+04  0.00000000000E+00 0.  1.
</event>
<event>
 7    1  0.9196181E-006  0.7869685E+02  0.7818608E-02  0.1416799E+00
          2   -1    0    0  502    0  0.00000000000E+00  0.00000000000E+00  0.12470479526E+04  0.12470479526E+04  0.00000000000E+00 0. -1.
          1   -1    0    0  501    0 -0.00000000000E+00 -0.00000000000E+00 -0.99280033470E+03  0.99280033470E+03  0.00000000000E+00 0. -1.
         25    2    1    2    0    0 -0.95519345141E+02 -0.15247067716E+02 -0.10995246384E+03  0.19252240757E+03  0.12497565660E+03 0.  0.
          2    1    1    2  501    0  0.19277594165E+02  0.34395073003E+02 -0.83981863721E+03  0.84074371249E+03  0.00000000000E+00 0. -1.
          1    1    1    2  502    0  0.76241750976E+02 -0.19148005287E+02  0.12040187190E+04  0.12065821673E+04  0.00000000000E+00 0. -1.
         22    1    3    3    0    0 -0.61888264425E+02 -0.69177796126E+02 -0.51385573686E+02  0.10609524934E+03  0.00000000000E+00 0. -1.
         22    1    3    3    0    0 -0.33631080716E+02  0.53930728409E+02 -0.58566890158E+02  0.86427158229E+02  0.00000000000E+00 0. -1.
</event>
<event>
 7    1  0.7527776E-006  0.1235676E+03  0.7818608E-02  0.1242737E+00
          2   -1    0    0  502    0  0.00000000000E+00  0.00000000000E+00  0.15581922766E+04  0.15581922766E+04  0.00000000000E+00 0. -1.
          1   -1    0    0  501    0 -0.00000000000E+00 -0.00000000000E+00 -0.26555139760E+04  0.26555139760E+04  0.00000000000E+00 0. -1.
         25    2    1    2    0    0  0.15314360123E+03  0.41698362370E+02 -0.93605073280E+02  0.22266324633E+03  0.12500118200E+03 0.  0.
          2    1    1    2  501    0 -0.47808273108E+02 -0.10674349596E+03 -0.24934413976E+04  0.24961830478E+04  0.00000000000E+00 0. -1.
          1    1    1    2  502    0 -0.10533532813E+03  0.65045133588E+02  0.14897247715E+04  0.14948599585E+04  0.00000000000E+00 0. -1.
         22    1    3    3    0    0  0.50462519244E+02  0.44942583079E+02 -0.98915349475E+02  0.11979377273E+03  0.00000000000E+00 0. -1.
         22    1    3    3    0    0  0.10268108199E+03 -0.32442207085E+01  0.53102761949E+01  0.10286947361E+03  0.00000000000E+00 0. -1.
</event>
<event>
 7    1  0.7527776E-006  0.9448546E+02  0.7818608E-02  0.1397770E+00
          2   -1    0    0  502    0  0.00000000000E+00  0.00000000000E+00  0.66840411840E+03  0.66840411840E+03  0.00000000000E+00 0. -1.
          1   -1    0    0  501    0 -0.00000000000E+00 -0.00000000000E+00 -0.19650306432E+04  0.19650306432E+04  0.00000000000E+00 0. -1.
         25    2    1    2    0    0  0.82640775514E+02 -0.84213267919E+02 -0.11124032769E+04  0.11256051817E+04  0.12499840968E+03 0.  0.
          2    1    1    2  501    0 -0.73226712715E+02  0.47274125819E+02 -0.84322925089E+03  0.84772198508E+03  0.00000000000E+00 0. -1.
          1    1    1    2  502    0 -0.94140627993E+01  0.36939142100E+02  0.65900600296E+03  0.66010759482E+03  0.00000000000E+00 0. -1.
         22    1    3    3    0    0  0.95721796856E+02 -0.87991939448E+02 -0.64348625483E+03  0.65649052084E+03  0.00000000000E+00 0.  1.
         22    1    3    3    0    0 -0.13081021342E+02  0.37786715298E+01 -0.46891702209E+03  0.46911466091E+03  0.00000000000E+00 0.  1.
</event>
<event>
 7    1  0.7527776E-006  0.8606215E+02  0.7818608E-02  0.1452644E+00
          2   -1    0    0  502    0  0.00000000000E+00  0.00000000000E+00  0.14308644814E+03  0.14308644814E+03  0.00000000000E+00 0. -1.
          1   -1    0    0  501    0 -0.00000000000E+00 -0.00000000000E+00 -0.10932601616E+04  0.10932601616E+04  0.00000000000E+00 0. -1.
         25    2    1    2    0    0  0.11060286146E+03 -0.11821112253E+02 -0.73311845004E+03  0.75197055969E+03  0.12499731671E+03 0.  0.
          2    1    1    2  501    0 -0.24997172748E+02  0.11522652700E+02 -0.33638847364E+03  0.33751271883E+03  0.00000000000E+00 0. -1.
          1    1    1    2  502    0 -0.85605688715E+02  0.29845955228E+00  0.11933321019E+03  0.14686333127E+03  0.00000000000E+00 0. -1.
         22    1    3    3    0    0  0.26747326885E+01  0.16917903469E+02 -0.91140651029E+01  0.19401954423E+02  0.00000000000E+00 0.  1.
         22    1    3    3    0    0  0.10792812878E+03 -0.28739015722E+02 -0.72400438494E+03  0.73256860527E+03  0.00000000000E+00 0.  1.
</event>
<event>
 7    1  0.7527776E-006  0.8926030E+02  0.7818608E-02  0.1362481E+00
          2   -1    0    0  502    0  0.00000000000E+00  0.00000000000E+00  0.31178285797E+03  0.31178285797E+03  0.00000000000E+00 0. -1.
          1   -1    0    0  501    0 -0.00000000000E+00 -0.00000000000E+00 -0.41240946386E+03  0.41240946386E+03  0.00000000000E+00 0. -1.
         25    2    1    2    0    0  0.50415693342E+02 -0.94240176013E+02  0.11631841966E+03  0.20144225440E+03  0.12500421671E+03 0.  0.
          2    1    1    2  501    0 -0.75846043301E+02  0.46821983786E+02 -0.35949647967E+03  0.37038174813E+03  0.00000000000E+00 0. -1.
          1    1    1    2  502    0  0.25430349959E+02  0.47418192227E+02  0.14255145412E+03  0.15236831930E+03  0.00000000000E+00 0. -1.
         22    1    3    3    0    0  0.28157871316E+02 -0.68064848395E+02 -0.64645304324E+01  0.73942406357E+02  0.00000000000E+00 0. -1.
         22    1    3    3    0    0  0.22257822026E+02 -0.26175327618E+02  0.12278295010E+03  0.12749984804E+03  0.00000000000E+00 0. -1.
</event>
<event>
 7    1  0.7527776E-006  0.7443903E+02  0.7818608E-02  0.1426079E+00
          2   -1    0    0  502    0  0.00000000000E+00  0.00000000000E+00  0.85104975051E+03  0.85104975051E+03  0.00000000000E+00 0. -1.
          1   -1    0    0  501    0 -0.00000000000E+00 -0.00000000000E+00 -0.65852579285E+03  0.65852579285E+03  0.00000000000E+00 0. -1.
         25    2    1    2    0    0 -0.89800765785E+02  0.61211884245E+02  0.22430036010E+03  0.27883112170E+03  0.12500028233E+03 0.  0.
          2    1    1    2  501    0  0.36572942253E+02 -0.13011902737E+02 -0.62850907615E+03  0.62970671628E+03  0.00000000000E+00 0. -1.
          1    1    1    2  502    0  0.53227823532E+02 -0.48199981508E+02  0.59673267372E+03  0.60103770539E+03  0.00000000000E+00 0. -1.
         22    1    3    3    0    0  0.88289879800E+01  0.66269924946E+02  0.92868752383E+02  0.11443014966E+03  0.00000000000E+00 0. -1.
         22    1    3    3    0    0 -0.98629753765E+02 -0.50580407010E+01  0.13143160771E+03  0.16440097205E+03  0.00000000000E+00 0. -1.
</event>
<event>
 7    1  0.7527776E-006  0.3890884E+02  0.7818608E-02  0.1621545E+00
          2   -1    0    0  502    0  0.00000000000E+00  0.00000000000E+00  0.16549140315E+04  0.16549140315E+04  0.00000000000E+00 0. -1.
          1   -1    0    0  501    0 -0.00000000000E+00 -0.00000000000E+00 -0.10691445412E+03  0.10691445412E+03  0.00000000000E+00 0. -1.
         25    2    1    2    0    0  0.33073246196E+01  0.41033861349E+02  0.66862173115E+02  0.14761596851E+03  0.12500083117E+03 0.  0.
          2    1    1    2  501    0 -0.19337953857E+02 -0.55618799237E+01 -0.64765643920E+02  0.67819463284E+02  0.00000000000E+00 0. -1.
          1    1    1    2  502    0  0.16030629238E+02 -0.35471981425E+02  0.15459030482E+04  0.15463930539E+04  0.00000000000E+00 0. -1.
         22    1    3    3    0    0  0.15426428277E+02 -0.10645630106E+02 -0.31033995199E+02  0.36254833992E+02  0.00000000000E+00 0. -1.
         22    1    3    3    0    0 -0.12119103657E+02  0.51679491455E+02  0.97896168315E+02  0.11136113452E+03  0.00000000000E+00 0. -1.
</event>
<event>
 7    1  0.7527776E-006  0.2399415E+03  0.7818608E-02  0.1295019E+00
          2   -1    0    0  502    0  0.00000000000E+00  0.00000000000E+00  0.29849855113E+04  0.29849855113E+04  0.00000000000E+00 0. -1.
          1   -1    0    0  501    0 -0.00000000000E+00 -0.00000000000E+00 -0.27145074754E+03  0.27145074754E+03  0.00000000000E+00 0. -1.
         25    2    1    2    0    0 -0.43207805362E+02 -0.20153767050E+03  0.86325163932E+02  0.25604906631E+03  0.12499897343E+03 0.  0.
          2    1    1    2  501    0 -0.19125938220E+01 -0.36239714788E+02 -0.17956606488E+03  0.18319646994E+03  0.00000000000E+00 0. -1.
          1    1    1    2  502    0  0.45120399184E+02  0.23777738528E+03  0.28067756647E+04  0.28171907226E+04  0.00000000000E+00 0. -1.
         22    1    3    3    0    0 -0.11811913420E+02  0.13094477801E+02  0.25067461810E+02  0.30649050379E+02  0.00000000000E+00 0. -1.
         22    1    3    3    0    0 -0.31395891941E+02 -0.21463214830E+03  0.61257702122E+02  0.22540001593E+03  0.00000000000E+00 0. -1.
</event>
<event>
 7    1  0.7527776E-006  0.1635907E+03  0.7818608E-02  0.1212808E+00
          2   -1    0    0  502    0  0.00000000000E+00  0.00000000000E+00  0.12444388526E+04  0.12444388526E+04  0.00000000000E+00 0. -1.
          1   -1    0    0  501    0 -0.00000000000E+00 -0.00000000000E+00 -0.88601159534E+03  0.88601159534E+03  0.00000000000E+00 0. -1.
         25    2    1    2    0    0 -0.36895744562E+01 -0.11447495573E+03 -0.11486362644E+03  0.20478711326E+03  0.12500392246E+03 0.  0.
          2    1    1    2  501    0  0.12241301715E+03  0.13494803144E+03 -0.71165540926E+03  0.73460828983E+03  0.00000000000E+00 0. -1.
          1    1    1    2  502    0 -0.11872344270E+03 -0.20473075711E+02  0.11849462929E+04  0.11910550448E+04  0.00000000000E+00 0. -1.
         22    1    3    3    0    0 -0.37928608294E+02 -0.34785958585E+02  0.10323170138E+02  0.52490095099E+02  0.00000000000E+00 0.  1.
         22    1    3    3    0    0  0.34239033838E+02 -0.79688997141E+02 -0.12518679658E+03  0.15229701816E+03  0.00000000000E+00 0.  1.
</event>
<event>
 7    1  0.7527776E-006  0.4581169E+02  0.7818608E-02  0.1494301E+00
          2   -1    0    0  502    0  0.00000000000E+00  0.00000000000E+00  0.10361183352E+04  0.10361183352E+04  0.00000000000E+00 0. -1.
          1   -1    0    0  501    0 -0.00000000000E+00 -0.00000000000E+00 -0.10831254215E+03  0.10831254215E+03  0.00000000000E+00 0. -1.
         25    2    1    2    0    0 -0.62648550426E+02 -0.40712089569E+02  0.43497720750E+03  0.45870708715E+03  0.12499882260E+03 0.  0.
          2    1    1    2  501    0  0.38222671943E+02  0.39108461757E+01 -0.91754505413E+02  0.99474401893E+02  0.00000000000E+00 0. -1.
          1    1    1    2  502    0  0.24425878482E+02  0.36801243393E+02  0.58458309098E+03  0.58624938832E+03  0.00000000000E+00 0. -1.
         22    1    3    3    0    0 -0.52893773303E+02  0.13899395949E+02  0.36659547756E+03  0.37065238247E+03  0.00000000000E+00 0.  1.
         22    1    3    3    0    0 -0.97547771229E+01 -0.54611485517E+02  0.68381729934E+02  0.88054704678E+02  0.00000000000E+00 0.  1.
</event>
<event>
 7    1  0.7527776E-006  0.7950754E+02  0.7818608E-02  0.1348092E+00
          2   -1    0    0  502    0  0.00000000000E+00  0.00000000000E+00  0.47890602179E+03  0.47890602179E+03  0.00000000000E+00 0. -1.
          1   -1    0    0  501    0 -0.00000000000E+00 -0.00000000000E+00 -0.76777191105E+02  0.76777191105E+02  0.00000000000E+00 0. -1.
         25    2    1    2    0    0 -0.47582234261E+02 -0.69085840411E+02  0.23022370871E+03  0.27507170908E+03  0.12499826687E+03 0.  0.
          2    1    1    2  501    0 -0.19769818109E+02  0.79999676043E+02 -0.13085860772E+02  0.83438801689E+02  0.00000000000E+00 0. -1.
          1    1    1    2  502    0  0.67352052370E+02 -0.10913835632E+02  0.18499098274E+03  0.19717270212E+03  0.00000000000E+00 0. -1.
         22    1    3    3    0    0  0.28515525980E+01  0.33120105840E+02  0.78998169701E+02  0.85707546804E+02  0.00000000000E+00 0.  1.
         22    1    3    3    0    0 -0.50433786859E+02 -0.10220594625E+03  0.15122553901E+03  0.18936416228E+03  0.00000000000E+00 0.  1.
</event>
<event>
 7    1  0.7527776E-006  0.6415767E+02  0.7818608E-02  0.1504877E+00
          2   -1    0    0  502    0  0.00000000000E+00  0.00000000000E+00  0.10539021348E+04  0.10539021348E+04  0.00000000000E+00 0. -1.
          1   -1    0    0  501    0 -0.00000000000E+00 -0.00000000000E+00 -0.44907600041E+03  0.44907600041E+03  0.00000000000E+00 0. -1.
         25    2    1    2    0    0 -0.26112023717E+02 -0.79825493128E+02  0.45770281146E+03  0.48184124336E+03  0.12500069222E+03 0.  0.
          2    1    1    2  501    0  0.32601461442E+02  0.55153387524E+02 -0.43437739140E+03  0.43907683792E+03  0.00000000000E+00 0. -1.
          1    1    1    2  502    0 -0.64894377252E+01  0.24672105604E+02  0.58150071436E+03  0.58206005395E+03  0.00000000000E+00 0. -1.
         22    1    3    3    0    0 -0.22645714801E+02  0.15707417836E+02  0.26799773808E+03  0.26941109663E+03  0.00000000000E+00 0.  1.
         22    1    3    3    0    0 -0.34663089161E+01 -0.95532910964E+02  0.18970507338E+03  0.21243014673E+03  0.00000000000E+00 0.  1.
</event>
<event>
 7    1  0.7527776E-006  0.6416700E+02  0.7818608E-02  0.1486736E+00
          2   -1    0    0  502    0  0.00000000000E+00  0.00000000000E+00  0.41407672098E+03  0.41407672098E+03  0.00000000000E+00 0. -1.
          1   -1    0    0  501    0 -0.00000000000E+00 -0.00000000000E+00 -0.68476841364E+02  0.68476841364E+02  0.00000000000E+00 0. -1.
         25    2    1    2    0    0  0.76496162032E+00 -0.46118972117E+02  0.12741167727E+03  0.18434975572E+03  0.12499420856E+03 0.  0.
          2    1    1    2  501    0 -0.22985608223E+02 -0.17542179448E+02 -0.29615595766E+02  0.41390213309E+02  0.00000000000E+00 0. -1.
          1    1    1    2  502    0  0.22220646603E+02  0.63661151565E+02  0.24780379811E+03  0.25681359332E+03  0.00000000000E+00 0. -1.
         22    1    3    3    0    0 -0.21900562938E+02  0.38322529227E+02  0.56997681302E+02  0.72090128153E+02  0.00000000000E+00 0.  1.
         22    1    3    3    0    0  0.22665524559E+02 -0.84441501344E+02  0.70413995969E+02  0.11225962756E+03  0.00000000000E+00 0.  1.
</event>
<event>
 7    1  0.7527776E-006  0.4691699E+02  0.7818608E-02  0.1555328E+00
          2   -1    0    0  502    0  0.00000000000E+00  0.00000000000E+00  0.16093687990E+04  0.16093687990E+04  0.00000000000E+00 0. -1.
          1   -1    0    0  501    0 -0.00000000000E+00 -0.00000000000E+00 -0.10459411110E+04  0.10459411110E+04  0.00000000000E+00 0. -1.
         25    2    1    2    0    0  0.11378622754E+02  0.33431694736E+02 -0.42189973172E+03  0.44144218779E+03  0.12499868105E+03 0.  0.
          2    1    1    2  501    0 -0.36350622275E+02 -0.32078457922E+02 -0.61321561165E+03  0.61512907716E+03  0.00000000000E+00 0. -1.
          1    1    1    2  502    0  0.24971999522E+02 -0.13532368135E+01  0.15985430314E+04  0.15987386451E+04  0.00000000000E+00 0. -1.
         22    1    3    3    0    0 -0.41905135602E+02  0.56830309447E+02 -0.20257905961E+03  0.21453204855E+03  0.00000000000E+00 0. -1.
         22    1    3    3    0    0  0.53283758356E+02 -0.23398614711E+02 -0.21932067211E+03  0.22691013924E+03  0.00000000000E+00 0. -1.
</event>
<event>
 7    1  0.7527776E-006  0.4946103E+02  0.7818608E-02  0.1511044E+00
          2   -1    0    0  502    0  0.00000000000E+00  0.00000000000E+00  0.11074585543E+02  0.11074585543E+02  0.00000000000E+00 0. -1.
          1   -1    0    0  501    0 -0.00000000000E+00 -0.00000000000E+00 -0.37792995123E+04  0.37792995123E+04  0.00000000000E+00 0. -1.
         25    2    1    2    0    0  0.49832567626E+02 -0.27148871841E+02 -0.16529478388E+04  0.16586408214E+04  0.12502987905E+03 0.  0.
          2    1    1    2  501    0 -0.26928855053E+02 -0.16788102834E+02 -0.20476576727E+04  0.20479035495E+04  0.00000000000E+00 0. -1.
          1    1    1    2  502    0 -0.22903712574E+02  0.43936974675E+02 -0.67619415355E+02  0.83829726984E+02  0.00000000000E+00 0. -1.
         22    1    3    3    0    0  0.17004160552E+02  0.47594906510E+02 -0.86501853876E+03  0.86649379051E+03  0.00000000000E+00 0. -1.
         22    1    3    3    0    0  0.32828407075E+02 -0.74743778351E+02 -0.78792930003E+03  0.79214703090E+03  0.00000000000E+00 0. -1.
</event>
<event>
 7    1  0.7527776E-006  0.1602056E+03  0.7818608E-02  0.1328908E+00
          2   -1    0    0  502    0  0.00000000000E+00  0.00000000000E+00  0.14753931478E+04  0.14753931478E+04  0.00000000000E+00 0. -1.
          1   -1    0    0  501    0 -0.00000000000E+00 -0.00000000000E+00 -0.81429442953E+03  0.81429442953E+03  0.00000000000E+00 0. -1.
         25    2    1    2    0    0 -0.16360052160E+02  0.17362058751E+03  0.12289451295E+03  0.24726545964E+03  0.12500154601E+03 0.  0.
          2    1    1    2  501    0 -0.33301384878E+02 -0.22157318215E+02 -0.74664887769E+03  0.74771951663E+03  0.00000000000E+00 0. -1.
          1    1    1    2  502    0  0.49661437038E+02 -0.15146326929E+03  0.12848530830E+04  0.12947026011E+04  0.00000000000E+00 0. -1.
         22    1    3    3    0    0 -0.27812256420E+02 -0.97994340074E+01  0.80949487620E+01  0.30579056713E+02  0.00000000000E+00 0. -1.
         22    1    3    3    0    0  0.11452204260E+02  0.18342002151E+03  0.11479956419E+03  0.21668640293E+03  0.00000000000E+00 0. -1.
</event>
<event>
 7    1  0.7527776E-006  0.1237618E+03  0.7818608E-02  0.1312999E+00
          2   -1    0    0  502    0  0.00000000000E+00  0.00000000000E+00  0.26959869031E+04  0.26959869031E+04  0.00000000000E+00 0. -1.
          1   -1    0    0  501    0 -0.00000000000E+00 -0.00000000000E+00 -0.25400987389E+03  0.25400987389E+03  0.00000000000E+00 0. -1.
         25    2    1    2    0    0 -0.71138505501E+02  0.89519156438E+02  0.65928566025E+03  0.68070336392E+03  0.12500048606E+03 0.  0.
          2    1    1    2  501    0  0.47607919295E+02  0.35977337711E+02 -0.23759612512E+03  0.24497510379E+03  0.00000000000E+00 0. -1.
          1    1    1    2  502    0  0.23530586206E+02 -0.12549649415E+03  0.20202874941E+04  0.20243183093E+04  0.00000000000E+00 0. -1.
         22    1    3    3    0    0 -0.57715066906E+01  0.87156628590E+02  0.51404680738E+03  0.52141510179E+03  0.00000000000E+00 0. -1.
         22    1    3    3    0    0 -0.65366998810E+02  0.23625278475E+01  0.14523885287E+03  0.15928826213E+03  0.00000000000E+00 0. -1.
</event>
<event>
 7    1  0.7527776E-006  0.1924459E+03  0.7818608E-02  0.1379464E+00
          2   -1    0    0  502    0  0.00000000000E+00  0.00000000000E+00  0.11429940757E+04  0.11429940757E+04  0.00000000000E+00 0. -1.
          1   -1    0    0  501    0 -0.00000000000E+00 -0.00000000000E+00 -0.93056299194E+03  0.93056299194E+03  0.00000000000E+00 0. -1.
         25    2    1    2    0    0 -0.14424389381E+03  0.15277036598E+03  0.25996789216E+03  0.35686601559E+03  0.12499985002E+03 0.  0.
          2    1    1    2  501    0  0.13066346001E+02 -0.17310362653E+02 -0.87132607723E+03  0.87159595623E+03  0.00000000000E+00 0. -1.
          1    1    1    2  502    0  0.13117754781E+03 -0.13546000333E+03  0.82378926887E+03  0.84509509587E+03  0.00000000000E+00 0. -1.
         22    1    3    3    0    0 -0.11365697021E+03  0.15618231747E+03  0.26258526022E+03  0.32597828463E+03  0.00000000000E+00 0. -1.
         22    1    3    3    0    0 -0.30586923598E+02 -0.34119514945E+01 -0.26173680555E+01  0.30887730958E+02  0.00000000000E+00 0. -1.
</event>
<event>
 7    1  0.7527776E-006  0.5836392E+02  0.7818608E-02  0.1432108E+00
          2   -1    0    0  502    0  0.00000000000E+00  0.00000000000E+00  0.14071988861E+04  0.14071988861E+04  0.00000000000E+00 0. -1.
          1   -1    0    0  501    0 -0.00000000000E+00 -0.00000000000E+00 -0.75313482878E+02  0.75313482878E+02  0.00000000000E+00 0. -1.
         25    2    1    2    0    0 -0.10003403456E+03 -0.22350015940E+02  0.27914709088E+03  0.32257456912E+03  0.12499969205E+03 0.  0.
          2    1    1    2  501    0  0.47285270822E+02  0.99734613636E+00 -0.42281762303E+02  0.63440042241E+02  0.00000000000E+00 0. -1.
          1    1    1    2  502    0  0.52748763739E+02  0.21352669804E+02  0.10950200747E+04  0.10964977576E+04  0.00000000000E+00 0. -1.
         22    1    3    3    0    0  0.23411883807E+02 -0.29887912343E+02  0.67093616505E+02  0.77090576489E+02  0.00000000000E+00 0.  1.
         22    1    3    3    0    0 -0.12344591837E+03  0.75378964028E+01  0.21205347438E+03  0.24548399263E+03  0.00000000000E+00 0.  1.
</event>
<event>
 7    1  0.7527776E-006  0.6891144E+02  0.7818608E-02  0.1485342E+00
          2   -1    0    0  502    0  0.00000000000E+00  0.00000000000E+00  0.47970735532E+04  0.47970735532E+04  0.00000000000E+00 0. -1.
          1   -1    0    0  501    0 -0.00000000000E+00 -0.00000000000E+00 -0.10926586226E+03  0.10926586226E+03  0.00000000000E+00 0. -1.
         25    2    1    2    0    0  0.92196733590E+02 -0.10547231869E+02  0.77905214422E+02  0.17409695976E+03  0.12501618767E+03 0.  0.
          2    1    1    2  501    0 -0.23477769658E+02  0.13711157602E+02 -0.57882883038E+02  0.63950212351E+02  0.00000000000E+00 0. -1.
          1    1    1    2  502    0 -0.68718963932E+02 -0.31639257328E+01  0.46677853595E+04  0.46682922433E+04  0.00000000000E+00 0. -1.
         22    1    3    3    0    0  0.85574081337E+02  0.32085281239E+02  0.77269442302E+01  0.91717470178E+02  0.00000000000E+00 0. -1.
         22    1    3    3    0    0  0.66226522538E+01 -0.42632513108E+02  0.70178270192E+02  0.82379489582E+02  0.00000000000E+00 0. -1.
</event>
<event>
 7    1  0.7527776E-006  0.8030413E+02  0.7818608E-02  0.1338415E+00
          2   -1    0    0  502    0  0.00000000000E+00  0.00000000000E+00  0.51628682704E+03  0.51628682704E+03  0.00000000000E+00 0. -1.
          1   -1    0    0  501    0 -0.00000000000E+00 -0.00000000000E+00 -0.56688098105E+03  0.56688098105E+03  0.00000000000E+00 0. -1.
         25    2    1    2    0    0  0.12910551285E+03  0.80971805460E+02  0.11412052973E+03  0.22777322326E+03  0.12502991322E+03 0.  0.
          2    1    1    2  501    0 -0.66003535162E+02 -0.43419438985E+02 -0.50303289830E+03  0.50919918608E+03  0.00000000000E+00 0. -1.
          1    1    1    2  502    0 -0.63101977692E+02 -0.37552366475E+02  0.33831821456E+03  0.34619539876E+03  0.00000000000E+00 0. -1.
         22    1    3    3    0    0  0.75221352998E+02  0.11187444269E+03  0.82777930700E+02  0.15819711971E+03  0.00000000000E+00 0. -1.
         22    1    3    3    0    0  0.53884159856E+02 -0.30902637227E+02  0.31342599029E+02  0.69576103547E+02  0.00000000000E+00 0. -1.
</event>
<event>
 7    1  0.7527776E-006  0.4934683E+02  0.7818608E-02  0.1546133E+00
          2   -1    0    0  502    0  0.00000000000E+00  0.00000000000E+00  0.86439667859E+03  0.86439667859E+03  0.00000000000E+00 0. -1.
          1   -1    0    0  501    0 -0.00000000000E+00 -0.00000000000E+00 -0.92647857303E+02  0.92647857303E+02  0.00000000000E+00 0. -1.
         25    2    1    2    0    0 -0.39766587752E+01 -0.32171315808E+02  0.18420476212E+03  0.22495937582E+03  0.12499807601E+03 0.  0.
          2    1    1    2  501    0  0.27090158067E+02  0.42267181271E+02 -0.63278107949E+02  0.80774440403E+02  0.00000000000E+00 0. -1.
          1    1    1    2  502    0 -0.23113499292E+02 -0.10095865463E+02  0.65082216711E+03  0.65131071967E+03  0.00000000000E+00 0. -1.
         22    1    3    3    0    0  0.13137833443E+02  0.39358919061E+02  0.22241962947E+02  0.47078998428E+02  0.00000000000E+00 0.  1.
         22    1    3    3    0    0 -0.17114492218E+02 -0.71530234870E+02  0.16196279917E+03  0.17788037739E+03  0.00000000000E+00 0.  1.
</event>
<event>
 7    1  0.7527776E-006  0.1133929E+03  0.7818608E-02  0.1367060E+00
          2   -1    0    0  502    0  0.00000000000E+00  0.00000000000E+00  0.16650688020E+03  0.16650688020E+03  0.00000000000E+00 0. -1.
          1   -1    0    0  501    0 -0.00000000000E+00 -0.00000000000E+00 -0.72074102779E+03  0.72074102779E+03  0.00000000000E+00 0. -1.
         25    2    1    2    0    0 -0.87556191311E+02  0.72091086626E+02 -0.64622293727E+02  0.18073172773E+03  0.12499882061E+03 0.  0.
          2    1    1    2  501    0  0.56808129524E+02 -0.98860710178E+02 -0.58855778217E+03  0.59950051422E+03  0.00000000000E+00 0. -1.
          1    1    1    2  502    0  0.30748061786E+02  0.26769623552E+02  0.98945928307E+02  0.10701566604E+03  0.00000000000E+00 0. -1.
         22    1    3    3    0    0 -0.18236437386E+02 -0.35502608220E+02 -0.76744048880E+01  0.40643564427E+02  0.00000000000E+00 0.  1.
         22    1    3    3    0    0 -0.69319753924E+02  0.10759369485E+03 -0.56947888839E+02  0.14008816330E+03  0.00000000000E+00 0.  1.
</event>
<event>
 7    1  0.7527776E-006  0.1933316E+03  0.7818608E-02  0.1218046E+00
          2   -1    0    0  502    0  0.00000000000E+00  0.00000000000E+00  0.41025374920E+03  0.41025374920E+03  0.00000000000E+00 0. -1.
          1   -1    0    0  501    0 -0.00000000000E+00 -0.00000000000E+00 -0.13505991663E+04  0.13505991663E+04  0.00000000000E+00 0. -1.
         25    2    1    2    0    0 -0.26908944695E+03 -0.45505657647E+02 -0.48652743708E+03  0.57167757057E+03  0.12500560919E+03 0.  0.
          2    1    1    2  501    0  0.92997561864E+02 -0.25563383966E+02 -0.79386373651E+03  0.79970098490E+03  0.00000000000E+00 0. -1.
          1    1    1    2  502    0  0.17609188508E+03  0.71069041613E+02  0.34004575645E+03  0.38947436006E+03  0.00000000000E+00 0. -1.
         22    1    3    3    0    0 -0.16663779168E+03  0.31246986515E+02 -0.31396054815E+03  0.35681333155E+03  0.00000000000E+00 0. -1.
         22    1    3    3    0    0 -0.10245165527E+03 -0.76752644162E+02 -0.17256688893E+03  0.21486423902E+03  0.00000000000E+00 0. -1.
</event>
<event>
 7    1  0.7527776E-006  0.3433808E+03  0.7818608E-02  0.1199373E+00
          2   -1    0    0  502    0  0.00000000000E+00  0.00000000000E+00  0.17353397777E+04  0.17353397777E+04  0.00000000000E+00 0. -1.
          1   -1    0    0  501    0 -0.00000000000E+00 -0.00000000000E+00 -0.30064983622E+04  0.30064983622E+04  0.00000000000E+00 0. -1.
         25    2    1    2    0    0 -0.14842037429E+03 -0.27015653678E+03 -0.12629836365E+03  0.35579349935E+03  0.12499830259E+03 0.  0.
          2    1    1    2  501    0  0.11504707975E+03  0.32745905594E+03 -0.27538765990E+04  0.27756623690E+04  0.00000000000E+00 0. -1.
          1    1    1    2  502    0  0.33373294537E+02 -0.57302519154E+02  0.16090163781E+04  0.16103822715E+04  0.00000000000E+00 0. -1.
         22    1    3    3    0    0 -0.10429760730E+03 -0.26055642455E+03 -0.81649302725E+02  0.29229137842E+03  0.00000000000E+00 0. -1.
         22    1    3    3    0    0 -0.44122766986E+02 -0.96001122309E+01 -0.44649060926E+02  0.63502120932E+02  0.00000000000E+00 0. -1.
</event>
<event>
 7    1  0.7527776E-006  0.8970138E+02  0.7818608E-02  0.1480805E+00
          2   -1    0    0  502    0  0.00000000000E+00  0.00000000000E+00  0.79718307372E+03  0.79718307372E+03  0.00000000000E+00 0. -1.
          1   -1    0    0  501    0 -0.00000000000E+00 -0.00000000000E+00 -0.10839024623E+04  0.10839024623E+04  0.00000000000E+00 0. -1.
         25    2    1    2    0    0 -0.55766958018E+02 -0.90627152212E+02  0.30583008867E+03  0.34710182609E+03  0.12499760083E+03 0.  0.
          2    1    1    2  501    0  0.57053030698E+02  0.69101436625E+02 -0.10611301263E+04  0.10649071329E+04  0.00000000000E+00 0. -1.
          1    1    1    2  502    0 -0.12860726798E+01  0.21525715587E+02  0.46858064905E+03  0.46907657699E+03  0.00000000000E+00 0. -1.
         22    1    3    3    0    0 -0.15614946185E+02 -0.86886541841E+01  0.22346594028E+03  0.22417927139E+03  0.00000000000E+00 0.  1.
         22    1    3    3    0    0 -0.40152011833E+02 -0.81938498028E+02  0.82364148389E+02  0.12292255470E+03  0.00000000000E+00 0.  1.
</event>
<event>
 7    1  0.7527776E-006  0.9488449E+02  0.7818608E-02  0.1376443E+00
          2   -1    0    0  502    0  0.00000000000E+00  0.00000000000E+00  0.86745476217E+02  0.86745476217E+02  0.00000000000E+00 0. -1.
          1   -1    0    0  501    0 -0.00000000000E+00 -0.00000000000E+00 -0.23172630608E+04  0.23172630608E+04  0.00000000000E+00 0. -1.
         25    2    1    2    0    0  0.63106737531E+02  0.16870161906E+02 -0.45363732091E+03  0.47505706767E+03  0.12500134373E+03 0.  0.
          2    1    1    2  501    0  0.33126585838E+02 -0.30588075995E+02 -0.18214546653E+04  0.18220126506E+04  0.00000000000E+00 0. -1.
          1    1    1    2  502    0 -0.96233323369E+02  0.13717914089E+02  0.44574401589E+02  0.10693881882E+03  0.00000000000E+00 0. -1.
         22    1    3    3    0    0  0.92518719078E+02 -0.15989690000E+02 -0.25919262462E+03  0.27567408334E+03  0.00000000000E+00 0.  1.
         22    1    3    3    0    0 -0.29411981547E+02  0.32859851906E+02 -0.19444469628E+03  0.19938298433E+03  0.00000000000E+00 0.  1.
</event>
<event>
 7    1  0.7527776E-006  0.1290466E+03  0.7818608E-02  0.1316883E+00
          2   -1    0    0  502    0  0.00000000000E+00  0.00000000000E+00  0.17516969394E+04  0.17516969394E+04  0.00000000000E+00 0. -1.
          1   -1    0    0  501    0 -0.00000000000E+00 -0.00000000000E+00 -0.80340904715E+03  0.80340904715E+03  0.00000000000E+00 0. -1.
         25    2    1    2    0    0  0.63354494066E+02 -0.78685286445E+02  0.27941070528E+03  0.32235122946E+03  0.12503922059E+03 0.  0.
          2    1    1    2  501    0  0.53646042103E+02  0.13267166899E+02 -0.77786011342E+03  0.77982066630E+03  0.00000000000E+00 0. -1.
          1    1    1    2  502    0 -0.11700053617E+03  0.65418119547E+02  0.14467373004E+04  0.14529340908E+04  0.00000000000E+00 0. -1.
         22    1    3    3    0    0  0.50580224331E+02 -0.10956584018E+03  0.25094103757E+03  0.27845006152E+03  0.00000000000E+00 0. -1.
         22    1    3    3    0    0  0.12774269735E+02  0.30880553734E+02  0.28469667714E+02  0.43901167933E+02  0.00000000000E+00 0. -1.
</event>
<event>
 7    1  0.7527776E-006  0.4041011E+02  0.7818608E-02  0.1568058E+00
          2   -1    0    0  502    0  0.00000000000E+00  0.00000000000E+00  0.35586306210E+02  0.35586306210E+02  0.00000000000E+00 0. -1.
          1   -1    0    0  501    0 -0.00000000000E+00 -0.00000000000E+00 -0.13880989878E+04  0.13880989878E+04  0.00000000000E+00 0. -1.
         25    2    1    2    0    0  0.53516823484E+01 -0.38677001606E+02 -0.16286602265E+03  0.20898583255E+03  0.12500074367E+03 0.  0.
          2    1    1    2  501    0 -0.29737032924E+02  0.27585053515E+02 -0.11870960684E+04  0.11877888288E+04  0.00000000000E+00 0. -1.
          1    1    1    2  502    0  0.24385350576E+02  0.11091948091E+02 -0.25505905289E+01  0.26910632605E+02  0.00000000000E+00 0. -1.
         22    1    3    3    0    0  0.13735633085E+02 -0.62526584938E+02 -0.24846454967E+02  0.68670137357E+02  0.00000000000E+00 0. -1.
         22    1    3    3    0    0 -0.83839507369E+01  0.23849583332E+02 -0.13801956768E+03  0.14031569519E+03  0.00000000000E+00 0. -1.
</event>
<event>
 7    1  0.7527776E-006  0.1162119E+03  0.7818608E-02  0.1419659E+00
          2   -1    0    0  502    0  0.00000000000E+00  0.00000000000E+00  0.18400940282E+04  0.18400940282E+04  0.00000000000E+00 0. -1.
          1   -1    0    0  501    0 -0.00000000000E+00 -0.00000000000E+00 -0.76253019326E+02  0.76253019326E+02  0.00000000000E+00 0. -1.
         25    2    1    2    0    0 -0.66763930713E+02  0.11349812761E+03  0.40599163136E+03  0.44473965945E+03  0.12499965014E+03 0.  0.
          2    1    1    2  501    0 -0.63501360263E+01 -0.25334551056E+02 -0.51429675456E+02  0.57681671459E+02  0.00000000000E+00 0. -1.
          1    1    1    2  502    0  0.73114066739E+02 -0.88163576550E+02  0.14092790530E+04  0.14139257166E+04  0.00000000000E+00 0. -1.
         22    1    3    3    0    0 -0.71510441812E+02  0.85388507985E+02  0.40051232863E+03  0.41571031496E+03  0.00000000000E+00 0. -1.
         22    1    3    3    0    0  0.47465110992E+01  0.28109619621E+02  0.54793027362E+01  0.29029344487E+02  0.00000000000E+00 0. -1.
</event>
<event>
 7    1  0.7527776E-006  0.1195792E+03  0.7818608E-02  0.1247383E+00
          2   -1    0    0  502    0  0.00000000000E+00  0.00000000000E+00  0.24232762194E+04  0.24232762194E+04  0.00000000000E+00 0. -1.
          1   -1    0    0  501    0 -0.00000000000E+00 -0.00000000000E+00 -0.35444863328E+03  0.35444863328E+03  0.00000000000E+00 0. -1.
         25    2    1    2    0    0  0.20737211575E+02  0.15566454533E+02  0.18226621291E+03  0.22252822219E+03  0.12500196340E+03 0.  0.
          2    1    1    2  501    0  0.80482059965E+02 -0.88441081910E+02 -0.32180860403E+03  0.34330739079E+03  0.00000000000E+00 0. -1.
          1    1    1    2  502    0 -0.10121927154E+03  0.72874627377E+02  0.22083699773E+04  0.22118892397E+04  0.00000000000E+00 0. -1.
         22    1    3    3    0    0  0.43734999415E+02  0.33170620892E+02  0.21142394286E+02  0.58822114042E+02  0.00000000000E+00 0.  1.
         22    1    3    3    0    0 -0.22997787840E+02 -0.17604166359E+02  0.16112381862E+03  0.16370610815E+03  0.00000000000E+00 0.  1.
</event>
<event>
 7    1  0.7527776E-006  0.4522797E+02  0.7818608E-02  0.1496963E+00
          2   -1    0    0  502    0  0.00000000000E+00  0.00000000000E+00  0.47062980591E+03  0.47062980591E+03  0.00000000000E+00 0. -1.
          1   -1    0    0  501    0 -0.00000000000E+00 -0.00000000000E+00 -0.20928840781E+03  0.20928840781E+03  0.00000000000E+00 0. -1.
         25    2    1    2    0    0 -0.51591346210E+02  0.64305979210E+02  0.57676182155E+02  0.16046445492E+03  0.12500149334E+03 0.  0.
          2    1    1    2  501    0  0.23491022141E+02 -0.30134304518E+02 -0.15420045413E+03  0.15886372929E+03  0.00000000000E+00 0. -1.
          1    1    1    2  502    0  0.28100324069E+02 -0.34171674693E+02  0.35786567007E+03  0.36059002951E+03  0.00000000000E+00 0. -1.
         22    1    3    3    0    0  0.30677678148E+02  0.47720950309E+02  0.50983314303E+02  0.76273897057E+02  0.00000000000E+00 0. -1.
         22    1    3    3    0    0 -0.82269024358E+02  0.16585028902E+02  0.66928678518E+01  0.84190557859E+02  0.00000000000E+00 0. -1.
</event>
<event>
 7    1  0.7527776E-006  0.1205134E+03  0.7818608E-02  0.1250550E+00
          2   -1    0    0  502    0  0.00000000000E+00  0.00000000000E+00  0.13186365688E+03  0.13186365688E+03  0.00000000000E+00 0. -1.
          1   -1    0    0  501    0 -0.00000000000E+00 -0.00000000000E+00 -0.28109511058E+04  0.28109511058E+04  0.00000000000E+00 0. -1.
         25    2    1    2    0    0 -0.17648565044E+03  0.11937139117E+03 -0.95600629587E+03  0.98740590449E+03  0.12500267448E+03 0.  0.
          2    1    1    2  501    0  0.10596848441E+03 -0.33813179140E+02 -0.18106879470E+04  0.18141012905E+04  0.00000000000E+00 0. -1.
          1    1    1    2  502    0  0.70517166035E+02 -0.85558212029E+02  0.87606793931E+02  0.14130756772E+03  0.00000000000E+00 0. -1.
         22    1    3    3    0    0 -0.41228027881E+02  0.36708623476E+02 -0.52993224910E+03  0.53279964523E+03  0.00000000000E+00 0.  1.
         22    1    3    3    0    0 -0.13525762256E+03  0.82662767692E+02 -0.42607404677E+03  0.45460625926E+03  0.00000000000E+00 0.  1.
</event>
<event>
 7    1  0.7527776E-006  0.3721892E+02  0.7818608E-02  0.1533461E+00
          2   -1    0    0  502    0  0.00000000000E+00  0.00000000000E+00  0.12109745309E+04  0.12109745309E+04  0.00000000000E+00 0. -1.
          1   -1    0    0  501    0 -0.00000000000E+00 -0.00000000000E+00 -0.14839912936E+04  0.14839912936E+04  0.00000000000E+00 0. -1.
         25    2    1    2    0    0  0.15152843604E+01  0.41469456064E+00  0.22292754745E+03  0.25558744196E+03  0.12500312402E+03 0.  0.
          2    1    1    2  501    0 -0.29724167738E+02  0.22458642814E+02 -0.14670854628E+04  0.14675584049E+04  0.00000000000E+00 0. -1.
          1    1    1    2  502    0  0.28208883378E+02 -0.22873337374E+02  0.97114115259E+03  0.97181997763E+03  0.00000000000E+00 0. -1.
         22    1    3    3    0    0 -0.18683837125E+01 -0.59913483282E+02  0.14557164494E+03  0.15743004843E+03  0.00000000000E+00 0.  1.
         22    1    3    3    0    0  0.33836680729E+01  0.60328177843E+02  0.77355902514E+02  0.98157393533E+02  0.00000000000E+00 0.  1.
</event>
<event>
 7    1  0.7527776E-006  0.4567407E+02  0.7818608E-02  0.1567190E+00
          2   -1    0    0  502    0  0.00000000000E+00  0.00000000000E+00  0.27185099781E+04  0.27185099781E+04  0.00000000000E+00 0. -1.
          1   -1    0    0  501    0 -0.00000000000E+00 -0.00000000000E+00 -0.43129878290E+03  0.43129878290E+03  0.00000000000E+00 0. -1.
         25    2    1    2    0    0 -0.55497476335E+02  0.26556045844E+02  0.82027566597E+03  0.83202299347E+03  0.12499960011E+03 0.  0.
          2    1    1    2  501    0  0.10714872393E+02 -0.21286799573E+02 -0.42482250203E+03  0.42549041653E+03  0.00000000000E+00 0. -1.
          1    1    1    2  502    0  0.44782603942E+02 -0.52692462708E+01  0.18917580312E+04  0.18922953510E+04  0.00000000000E+00 0. -1.
         22    1    3    3    0    0 -0.48510675564E+02  0.38298780534E+02  0.81505569223E+03  0.81739578154E+03  0.00000000000E+00 0.  1.
         22    1    3    3    0    0 -0.69868007713E+01 -0.11742734691E+02  0.52199737363E+01  0.14627211930E+02  0.00000000000E+00 0.  1.
</event>
<event>
 7    1  0.7527776E-006  0.9506684E+02  0.7818608E-02  0.1402609E+00
          2   -1    0    0  502    0  0.00000000000E+00  0.00000000000E+00  0.13253657268E+04  0.13253657268E+04  0.00000000000E+00 0. -1.
          1   -1    0    0  501    0 -0.00000000000E+00 -0.00000000000E+00 -0.10251963237E+04  0.10251963237E+04  0.00000000000E+00 0. -1.
         25    2    1    2    0    0  0.54652348897E+02 -0.45908556770E+02 -0.81448091935E+02  0.16538725470E+03  0.12499871004E+03 0.  0.
          2    1    1    2  501    0 -0.51026085659E+02  0.82190720181E+02 -0.89892380114E+03  0.90411447071E+03  0.00000000000E+00 0. -1.
          1    1    1    2  502    0 -0.36262632376E+01 -0.36282163411E+02  0.12805412962E+04  0.12810603250E+04  0.00000000000E+00 0. -1.
         22    1    3    3    0    0 -0.22982183576E+02 -0.28939829994E+02  0.15463404166E+02  0.40060097234E+02  0.00000000000E+00 0.  1.
         22    1    3    3    0    0  0.77634532472E+02 -0.16968726776E+02 -0.96911496102E+02  0.12532715746E+03  0.00000000000E+00 0.  1.
</event>
<event>
 7    1  0.7527776E-006  0.1355237E+03  0.7818608E-02  0.1245999E+00
          2   -1    0    0  502    0  0.00000000000E+00  0.00000000000E+00  0.20089073728E+04  0.20089073728E+04  0.00000000000E+00 0. -1.
          1   -1    0    0  501    0 -0.00000000000E+00 -0.00000000000E+00 -0.45634353418E+03  0.45634353418E+03  0.00000000000E+00 0. -1.
         25    2    1    2    0    0  0.17052993119E+03 -0.13502731420E+03 -0.14506466073E+03  0.28979595126E+03  0.12500041823E+03 0.  0.
          2    1    1    2  501    0 -0.10601641132E+03  0.54488921646E+02 -0.22257327467E+03  0.25248244424E+03  0.00000000000E+00 0. -1.
          1    1    1    2  502    0 -0.64513519875E+02  0.80538392559E+02  0.19202017741E+04  0.19229725115E+04  0.00000000000E+00 0. -1.
         22    1    3    3    0    0  0.15520322180E+03 -0.13470984716E+03 -0.76100536017E+02  0.21914852170E+03  0.00000000000E+00 0. -1.
         22    1    3    3    0    0  0.15326709390E+02 -0.31746704639E+00 -0.68964124717E+02  0.70647429564E+02  0.00000000000E+00 0. -1.
</event>
<event>
 7    1  0.7527776E-006  0.8168290E+02  0.7818608E-02  0.1354219E+00
          2   -1    0    0  502    0  0.00000000000E+00  0.00000000000E+00  0.12245149893E+03  0.12245149893E+03  0.00000000000E+00 0. -1.
          1   -1    0    0  501    0 -0.00000000000E+00 -0.00000000000E+00 -0.17620212231E+04  0.17620212231E+04  0.00000000000E+00 0. -1.
         25    2    1    2    0    0 -0.27115807682E+00  0.31237523939E+02 -0.13257194909E+03  0.18486896876E+03  0.12500142998E+03 0.  0.
          2    1    1    2  501    0  0.53623091107E+02 -0.64811087216E+02 -0.15917544621E+04  0.15939755897E+04  0.00000000000E+00 0. -1.
          1    1    1    2  502    0 -0.53351933030E+02  0.33573563277E+02  0.84756687119E+02  0.10562816348E+03  0.00000000000E+00 0. -1.
         22    1    3    3    0    0  0.20918826345E+02 -0.44935387614E+02 -0.45946590909E+02  0.67586060484E+02  0.00000000000E+00 0.  1.
         22    1    3    3    0    0 -0.21189984422E+02  0.76172911553E+02 -0.86625358182E+02  0.11728290828E+03  0.00000000000E+00 0.  1.
</event>
<event>
 7    1  0.7527776E-006  0.6723479E+02  0.7818608E-02  0.1450299E+00
          2   -1    0    0  502    0  0.00000000000E+00  0.00000000000E+00  0.67409105376E+03  0.67409105376E+03  0.00000000000E+00 0. -1.
          1   -1    0    0  501    0 -0.00000000000E+00 -0.00000000000E+00 -0.19834273808E+04  0.19834273808E+04  0.00000000000E+00 0. -1.
         25    2    1    2    0    0  0.15804788325E+01  0.46753288059E+02 -0.15829082125E+04  0.15885249785E+04  0.12499932051E+03 0.  0.
          2    1    1    2  501    0  0.34399742850E+02  0.10077927846E+02 -0.39521264735E+03  0.39683490719E+03  0.00000000000E+00 0. -1.
          1    1    1    2  502    0 -0.35980221683E+02 -0.56831215904E+02  0.66878453285E+03  0.67215854888E+03  0.00000000000E+00 0. -1.
         22    1    3    3    0    0 -0.36903160762E+02 -0.21341852816E+02 -0.92529129611E+03  0.92627280032E+03  0.00000000000E+00 0. -1.
         22    1    3    3    0    0  0.38483639595E+02  0.68095140874E+02 -0.65761691644E+03  0.66225217818E+03  0.00000000000E+00 0. -1.
</event>
<event>
 7    1  0.7527776E-006  0.1926699E+03  0.7818608E-02  0.1249290E+00
          2   -1    0    0  502    0  0.00000000000E+00  0.00000000000E+00  0.44699885833E+03  0.44699885833E+03  0.00000000000E+00 0. -1.
          1   -1    0    0  501    0 -0.00000000000E+00 -0.00000000000E+00 -0.94709002425E+03  0.94709002425E+03  0.00000000000E+00 0. -1.
         25    2    1    2    0    0 -0.78283580296E+02 -0.12782455711E+03 -0.14623016476E+03  0.24388644319E+03  0.12501959744E+03 0.  0.
          2    1    1    2  501    0  0.62808764731E+02  0.19632718643E+03 -0.73463519920E+03  0.76300601633E+03  0.00000000000E+00 0. -1.
          1    1    1    2  502    0  0.15474815565E+02 -0.68502629325E+02  0.38077419804E+03  0.38719642306E+03  0.00000000000E+00 0. -1.
         22    1    3    3    0    0 -0.41643762815E+01 -0.10868144019E+03 -0.12233725924E+03  0.16369301289E+03  0.00000000000E+00 0. -1.
         22    1    3    3    0    0 -0.74119204014E+02 -0.19143116924E+02 -0.23892905519E+02  0.80193430301E+02  0.00000000000E+00 0. -1.
</event>
<event>
 7    1  0.7527776E-006  0.7913301E+02  0.7818608E-02  0.1421375E+00
          2   -1    0    0  502    0  0.00000000000E+00  0.00000000000E+00  0.24204319403E+04  0.24204319403E+04  0.00000000000E+00 0. -1.
          1   -1    0    0  501    0 -0.00000000000E+00 -0.00000000000E+00 -0.53137242356E+03  0.53137242356E+03  0.00000000000E+00 0. -1.
         25    2    1    2    0    0 -0.61812391579E+02  0.47692531754E+02  0.11965388183E+04  0.12055808827E+04  0.12499908707E+03 0.  0.
          2    1    1    2  501    0  0.32821631085E+02 -0.72032819737E+02 -0.52358191095E+03  0.52953187256E+03  0.00000000000E+00 0. -1.
          1    1    1    2  502    0  0.28990760494E+02  0.24340287982E+02  0.12161026094E+04  0.12166916086E+04  0.00000000000E+00 0. -1.
         22    1    3    3    0    0  0.38408993742E+01  0.24775122573E+02  0.92303622354E+03  0.92337664534E+03  0.00000000000E+00 0. -1.
         22    1    3    3    0    0 -0.65653290953E+02  0.22917409182E+02  0.27350259476E+03  0.28220423738E+03  0.00000000000E+00 0. -1.
</event>
<event>
 7    1  0.7527776E-006  0.4379202E+02  0.7818608E-02  0.1483582E+00
          2   -1    0    0  502    0  0.00000000000E+00  0.00000000000E+00  0.15579322882E+04  0.15579322882E+04  0.00000000000E+00 0. -1.
          1   -1    0    0  501    0 -0.00000000000E+00 -0.00000000000E+00 -0.12228297076E+04  0.12228297076E+04  0.00000000000E+00 0. -1.
         25    2    1    2    0    0  0.71384684916E+02  0.86414019594E+01  0.27488806714E+02  0.14680222260E+03  0.12499924398E+03 0.  0.
          2    1    1    2  501    0 -0.38402888989E+02  0.20035998223E+02 -0.11624448537E+04  0.11632515897E+04  0.00000000000E+00 0. -1.
          1    1    1    2  502    0 -0.32981795926E+02 -0.28677400182E+02  0.14700586276E+04  0.14707081834E+04  0.00000000000E+00 0. -1.
         22    1    3    3    0    0 -0.33067946631E+02  0.15731623232E+02  0.20283438690E+02  0.41861568879E+02  0.00000000000E+00 0. -1.
         22    1    3    3    0    0  0.10445263155E+03 -0.70902212723E+01  0.72053680245E+01  0.10494065372E+03  0.00000000000E+00 0. -1.
</event>
<event>
 7    1  0.7527776E-006  0.2572704E+03  0.7818608E-02  0.1288164E+00
          2   -1    0    0  502    0  0.00000000000E+00  0.00000000000E+00  0.22400950589E+03  0.22400950589E+03  0.00000000000E+00 0. -1.
          1   -1    0    0  501    0 -0.00000000000E+00 -0.00000000000E+00 -0.11039662307E+04  0.11039662307E+04  0.00000000000E+00 0. -1.
         25    2    1    2    0    0 -0.48456210544E+02 -0.23582317232E+03 -0.33286347077E+03  0.42939882544E+03  0.12499875270E+03 0.  0.
          2    1    1    2  501    0  0.26883303474E+02  0.26474846437E+03 -0.69611677918E+03  0.74524696017E+03  0.00000000000E+00 0. -1.
          1    1    1    2  502    0  0.21572907071E+02 -0.28925292054E+02  0.14902352510E+03  0.15332995100E+03  0.00000000000E+00 0. -1.
         22    1    3    3    0    0 -0.57119400270E+02 -0.97842411649E+02 -0.72212146194E+02  0.13435161876E+03  0.00000000000E+00 0.  1.
         22    1    3    3    0    0  0.86631897259E+01 -0.13798076067E+03 -0.26065132458E+03  0.29504720669E+03  0.00000000000E+00 0.  1.
</event>
<event>
 7    1  0.7527776E-006  0.1513345E+03  0.7818608E-02  0.1355436E+00
          2   -1    0    0  502    0  0.00000000000E+00  0.00000000000E+00  0.27781238668E+04  0.27781238668E+04  0.00000000000E+00 0. -1.
          1   -1    0    0  501    0 -0.00000000000E+00 -0.00000000000E+00 -0.14088496967E+04  0.14088496967E+04  0.00000000000E+00 0. -1.
         25    2    1    2    0    0  0.82823219106E+02 -0.98022979096E+02  0.22169706175E+03  0.28503058249E+03  0.12499862284E+03 0.  0.
          2    1    1    2  501    0  0.33645772477E+02 -0.14075122263E+01 -0.13746543942E+04  0.13750668066E+04  0.00000000000E+00 0. -1.
          1    1    1    2  502    0 -0.11646899158E+03  0.99430491322E+02  0.25222315025E+04  0.25268761744E+04  0.00000000000E+00 0. -1.
         22    1    3    3    0    0  0.12135763229E+02 -0.87181097712E+02  0.18449959451E+03  0.20442094051E+03  0.00000000000E+00 0.  1.
         22    1    3    3    0    0  0.70687455877E+02 -0.10841881384E+02  0.37197467239E+02  0.80609641975E+02  0.00000000000E+00 0.  1.
</event>
<event>
 7    1  0.7527776E-006  0.4043118E+02  0.7818608E-02  0.1517679E+00
          2   -1    0    0  502    0  0.00000000000E+00  0.00000000000E+00  0.33168565645E+03  0.33168565645E+03  0.00000000000E+00 0. -1.
          1   -1    0    0  501    0 -0.00000000000E+00 -0.00000000000E+00 -0.15006484940E+03  0.15006484940E+03  0.00000000000E+00 0. -1.
         25    2    1    2    0    0  0.87213180599E+01  0.44227905465E+01  0.42689641684E+02  0.13244877463E+03  0.12499859971E+03 0.  0.
          2    1    1    2  501    0 -0.37699086519E+02  0.18781082697E+02 -0.99474154324E+02  0.10802341214E+03  0.00000000000E+00 0. -1.
          1    1    1    2  502    0  0.28977768459E+02 -0.23203873244E+02  0.23840531969E+03  0.24127831907E+03  0.00000000000E+00 0. -1.
         22    1    3    3    0    0  0.62966315531E+02  0.16984634393E+02  0.40410043602E+02  0.76721615734E+02  0.00000000000E+00 0.  1.
         22    1    3    3    0    0 -0.54244997471E+02 -0.12561843846E+02  0.22795980816E+01  0.55727158898E+02  0.00000000000E+00 0.  1.
</event>
<event>
 7    1  0.7527776E-006  0.3002644E+02  0.7818608E-02  0.1643718E+00
          2   -1    0    0  502    0  0.00000000000E+00  0.00000000000E+00  0.16441107120E+03  0.16441107120E+03  0.00000000000E+00 0. -1.
          1   -1    0    0  501    0 -0.00000000000E+00 -0.00000000000E+00 -0.22488520702E+03  0.22488520702E+03  0.00000000000E+00 0. -1.
         25    2    1    2    0    0  0.50778405269E+02 -0.30112091373E+01 -0.61769082744E+02  0.14841910219E+03  0.12500118595E+03 0.  0.
          2    1    1    2  501    0 -0.28254273800E+02  0.73719780465E+01 -0.11689203011E+03  0.12048401035E+03  0.00000000000E+00 0. -1.
          1    1    1    2  502    0 -0.22524131469E+02 -0.43607689092E+01  0.11818697703E+03  0.12039316568E+03  0.00000000000E+00 0. -1.
         22    1    3    3    0    0  0.61242548048E+02  0.40583531442E+02 -0.71526687486E+02  0.10253652880E+03  0.00000000000E+00 0. -1.
         22    1    3    3    0    0 -0.10464142779E+02 -0.43594740579E+02  0.97576047422E+01  0.45882573387E+02  0.00000000000E+00 0. -1.
</event>
<event>
 7    1  0.7527776E-006  0.1043121E+03  0.7818608E-02  0.1337405E+00
          2   -1    0    0  502    0  0.00000000000E+00  0.00000000000E+00  0.21634664925E+03  0.21634664925E+03  0.00000000000E+00 0. -1.
          1   -1    0    0  501    0 -0.00000000000E+00 -0.00000000000E+00 -0.73484593039E+03  0.73484593039E+03  0.00000000000E+00 0. -1.
         25    2    1    2    0    0  0.38685586852E+02 -0.59614529791E+02  0.17099219999E+02  0.14480036511E+03  0.12499718245E+03 0.  0.
          2    1    1    2  501    0 -0.95733072727E+01 -0.56218851022E+02 -0.64314685752E+03  0.64567026241E+03  0.00000000000E+00 0. -1.
          1    1    1    2  502    0 -0.29112279579E+02  0.11583338081E+03  0.10754835638E+03  0.16072195212E+03  0.00000000000E+00 0. -1.
         22    1    3    3    0    0  0.23661322312E+02  0.10560660478E+02  0.57054072387E+02  0.62662212690E+02  0.00000000000E+00 0. -1.
         22    1    3    3    0    0  0.15024264540E+02 -0.70175190269E+02 -0.39954852387E+02  0.82138152423E+02  0.00000000000E+00 0. -1.
</event>
<event>
 7    1  0.7527776E-006  0.8208340E+02  0.7818608E-02  0.1394647E+00
          2   -1    0    0  502    0  0.00000000000E+00  0.00000000000E+00  0.21516860325E+04  0.21516860325E+04  0.00000000000E+00 0. -1.
          1   -1    0    0  501    0 -0.00000000000E+00 -0.00000000000E+00 -0.11612347687E+03  0.11612347687E+03  0.00000000000E+00 0. -1.
         25    2    1    2    0    0 -0.68153966184E+02 -0.10038243311E+03  0.52777903428E+03  0.55578573613E+03  0.12500191787E+03 0.  0.
          2    1    1    2  501    0  0.13230349437E+02  0.42994327170E+02 -0.96135196907E+02  0.10613920293E+03  0.00000000000E+00 0. -1.
          1    1    1    2  502    0  0.54923616747E+02  0.57388105941E+02  0.16039187182E+04  0.16058845703E+04  0.00000000000E+00 0. -1.
         22    1    3    3    0    0  0.23168374396E+01  0.24837745807E+02  0.38758001441E+02  0.46091908489E+02  0.00000000000E+00 0. -1.
         22    1    3    3    0    0 -0.70470803623E+02 -0.12522017892E+03  0.48902103284E+03  0.50969382764E+03  0.00000000000E+00 0. -1.
</event>
<event>
 7    1  0.7527776E-006  0.1691802E+03  0.7818608E-02  0.1349772E+00
          2   -1    0    0  502    0  0.00000000000E+00  0.00000000000E+00  0.23369626945E+04  0.23369626945E+04  0.00000000000E+00 0. -1.
          1   -1    0    0  501    0 -0.00000000000E+00 -0.00000000000E+00 -0.60981712508E+02  0.60981712508E+02  0.00000000000E+00 0. -1.
         25    2    1    2    0    0  0.17178698530E+03  0.83094347336E+02  0.10381761810E+04  0.10629441559E+04  0.12500022793E+03 0.  0.
          2    1    1    2  501    0 -0.31018442979E+02 -0.60779489270E+01 -0.37839149285E+02  0.49304020998E+02  0.00000000000E+00 0. -1.
          1    1    1    2  502    0 -0.14076854232E+03 -0.77016398409E+02  0.12756439503E+04  0.12856962301E+04  0.00000000000E+00 0. -1.
         22    1    3    3    0    0  0.14933485145E+03  0.10931703360E+03  0.74066331536E+03  0.76343516975E+03  0.00000000000E+00 0.  1.
         22    1    3    3    0    0  0.22452133847E+02 -0.26222686263E+02  0.29751286560E+03  0.29950898615E+03  0.00000000000E+00 0.  1.
</event>
<event>
 7    1  0.7527776E-006  0.5679184E+02  0.7818608E-02  0.1522006E+00
          2   -1    0    0  502    0  0.00000000000E+00  0.00000000000E+00  0.29730239134E+04  0.29730239134E+04  0.00000000000E+00 0. -1.
          1   -1    0    0  501    0 -0.00000000000E+00 -0.00000000000E+00 -0.19846066594E+02  0.19846066594E+02  0.00000000000E+00 0. -1.
         25    2    1    2    0    0 -0.19024768247E+02 -0.25680515439E+02  0.33100429933E+03  0.35526113584E+03  0.12500079111E+03 0.  0.
          2    1    1    2  501    0 -0.11694152898E+02 -0.22857091185E+02  0.14865006791E+02  0.29667629773E+02  0.00000000000E+00 0. -1.
          1    1    1    2  502    0  0.30718921145E+02  0.48537606625E+02  0.26073085407E+04  0.26079412144E+04  0.00000000000E+00 0. -1.
         22    1    3    3    0    0  0.17617553525E+01 -0.50339822644E+02  0.45306327720E+02  0.67748541366E+02  0.00000000000E+00 0. -1.
         22    1    3    3    0    0 -0.20786523599E+02  0.24659307205E+02  0.28569797161E+03  0.28751259447E+03  0.00000000000E+00 0. -1.
</event>
<event>
 7    1  0.7527776E-006  0.1679787E+03  0.7818608E-02  0.1301669E+00
          2   -1    0    0  502    0  0.00000000000E+00  0.00000000000E+00  0.17435291902E+04  0.17435291902E+04  0.00000000000E+00 0. -1.
          1   -1    0    0  501    0 -0.00000000000E+00 -0.00000000000E+00 -0.36485157075E+04  0.36485157075E+04  0.00000000000E+00 0. -1.
         25    2    1    2    0    0  0.68904952119E+02  0.13012487087E+03 -0.51612227656E+03  0.55107900774E+03  0.12500197583E+03 0.  0.
          2    1    1    2  501    0 -0.37359395988E+02 -0.16728895799E+03 -0.31122120374E+04  0.31169287906E+04  0.00000000000E+00 0. -1.
          1    1    1    2  502    0 -0.31545556131E+02  0.37164087115E+02  0.17233477967E+04  0.17240370993E+04  0.00000000000E+00 0. -1.
         22    1    3    3    0    0 -0.13799793388E+02  0.84214408185E+01 -0.19709679235E+01  0.16286180571E+02  0.00000000000E+00 0.  1.
         22    1    3    3    0    0  0.82704745507E+02  0.12170343005E+03 -0.51415130864E+03  0.53479282717E+03  0.00000000000E+00 0.  1.
</event>
<event>
 7    1  0.7527776E-006  0.6126626E+02  0.7818608E-02  0.1428921E+00
          2   -1    0    0  502    0  0.00000000000E+00  0.00000000000E+00  0.64943460620E+03  0.64943460620E+03  0.00000000000E+00 0. -1.
          1   -1    0    0  501    0 -0.00000000000E+00 -0.00000000000E+00 -0.48701488226E+02  0.48701488226E+02  0.00000000000E+00 0. -1.
         25    2    1    2    0    0  0.33663902610E+02 -0.32322763028E+02  0.24260331811E+03  0.27687638765E+03  0.12500457884E+03 0.  0.
          2    1    1    2  501    0  0.32148107299E+02  0.33119186149E+02 -0.10054882236E+02  0.47238564234E+02  0.00000000000E+00 0. -1.
          1    1    1    2  502    0 -0.65812009909E+02 -0.79642312117E+00  0.36818468210E+03  0.37402114254E+03  0.00000000000E+00 0. -1.
         22    1    3    3    0    0  0.71783197635E+02 -0.36974577993E+02  0.21477293499E+03  0.22945012635E+03  0.00000000000E+00 0.  1.
         22    1    3    3    0    0 -0.38119295026E+02  0.46518149645E+01  0.27830383127E+02  0.47426261298E+02  0.00000000000E+00 0.  1.
</event>
<event>
 7    1  0.7527776E-006  0.1008828E+03  0.7818608E-02  0.1299528E+00
          2   -1    0    0  502    0  0.00000000000E+00  0.00000000000E+00  0.13627109594E+04  0.13627109594E+04  0.00000000000E+00 0. -1.
          1   -1    0    0  501    0 -0.00000000000E+00 -0.00000000000E+00 -0.35907211025E+03  0.35907211025E+03  0.00000000000E+00 0. -1.
         25    2    1    2    0    0 -0.85724800521E+02  0.84088538577E+01  0.27492732334E+03  0.31405273578E+03  0.12499854992E+03 0.  0.
          2    1    1    2  501    0  0.88022764733E+01 -0.82314964630E+02 -0.33174703233E+03  0.34192005927E+03  0.00000000000E+00 0. -1.
          1    1    1    2  502    0  0.76922524048E+02  0.73906110772E+02  0.10604585581E+04  0.10658102746E+04  0.00000000000E+00 0. -1.
         22    1    3    3    0    0  0.11781907836E+02  0.45784490529E+02  0.80414618345E+02  0.93282065634E+02  0.00000000000E+00 0.  1.
         22    1    3    3    0    0 -0.97506708357E+02 -0.37375636671E+02  0.19451270500E+03  0.22077067015E+03  0.00000000000E+00 0.  1.
</event>
<event>
 7    1  0.7527776E-006  0.1123687E+03  0.7818608E-02  0.1298928E+00
          2   -1    0    0  502    0  0.00000000000E+00  0.00000000000E+00  0.60291520170E+03  0.60291520170E+03  0.00000000000E+00 0. -1.
          1   -1    0    0  501    0 -0.00000000000E+00 -0.00000000000E+00 -0.14767695143E+03  0.14767695143E+03  0.00000000000E+00 0. -1.
         25    2    1    2    0    0  0.39884889467E+02 -0.13306852462E+03 -0.38329884049E+02  0.19076409639E+03  0.12499489513E+03 0.  0.
          2    1    1    2  501    0  0.22323993816E+02  0.91650562183E+02  0.43994845593E+02  0.10408521839E+03  0.00000000000E+00 0. -1.
          1    1    1    2  502    0 -0.62208883283E+02  0.41417962436E+02  0.44957328873E+03  0.45574283835E+03  0.00000000000E+00 0. -1.
         22    1    3    3    0    0  0.52241275714E+02 -0.12827740738E+03  0.11707789166E+02  0.13900113834E+03  0.00000000000E+00 0.  1.
         22    1    3    3    0    0 -0.12356386247E+02 -0.47911172404E+01 -0.50037673215E+02  0.51762958052E+02  0.00000000000E+00 0.  1.
</event>
<event>
 7    1  0.7527776E-006  0.1190023E+03  0.7818608E-02  0.1386004E+00
          2   -1    0    0  502    0  0.00000000000E+00  0.00000000000E+00  0.90513704676E+03  0.90513704676E+03  0.00000000000E+00 0. -1.
          1   -1    0    0  501    0 -0.00000000000E+00 -0.00000000000E+00 -0.89533536797E+03  0.89533536797E+03  0.00000000000E+00 0. -1.
         25    2    1    2    0    0  0.94214966974E+02 -0.44533447254E+01  0.39532440555E+02  0.16149518440E+03  0.12498635305E+03 0.  0.
          2    1    1    2  501    0 -0.11656842379E+03  0.29079970054E+02 -0.82968180557E+03  0.83833510041E+03  0.00000000000E+00 0. -1.
          1    1    1    2  502    0  0.22353456815E+02 -0.24626625328E+02  0.79995104381E+03  0.80064212992E+03  0.00000000000E+00 0. -1.
         22    1    3    3    0    0  0.12441100829E+03 -0.51403929093E+01  0.21622694126E+02  0.12638062954E+03  0.00000000000E+00 0. -1.
         22    1    3    3    0    0 -0.30196041311E+02  0.68704818388E+00  0.17909746428E+02  0.35114554863E+02  0.00000000000E+00 0. -1.
</event>
<event>
 7    1  0.7527776E-006  0.1305350E+03  0.7818608E-02  0.1360736E+00
          2   -1    0    0  502    0  0.00000000000E+00  0.00000000000E+00  0.51410180293E+03  0.51410180293E+03  0.00000000000E+00 0. -1.
          1   -1    0    0  501    0 -0.00000000000E+00 -0.00000000000E+00 -0.71473237691E+03  0.71473237691E+03  0.00000000000E+00 0. -1.
         25    2    1    2    0    0 -0.94459514046E+02 -0.11108772766E+03  0.69064081213E+02  0.20410235061E+03  0.12499935672E+03 0.  0.
          2    1    1    2  501    0 -0.99742905346E+01  0.35978817239E+02 -0.63569133776E+03  0.63678680786E+03  0.00000000000E+00 0. -1.
          1    1    1    2  502    0  0.10443380458E+03  0.75108910423E+02  0.36599668256E+03  0.38794502137E+03  0.00000000000E+00 0. -1.
         22    1    3    3    0    0 -0.64220216543E+02  0.55584321089E+01  0.51122940831E+02  0.82272033278E+02  0.00000000000E+00 0. -1.
         22    1    3    3    0    0 -0.30239297502E+02 -0.11664615977E+03  0.17941140382E+02  0.12183031733E+03  0.00000000000E+00 0. -1.
</event>
<event>
 7    1  0.7527776E-006  0.2050939E+03  0.7818608E-02  0.1269684E+00
          2   -1    0    0  502    0  0.00000000000E+00  0.00000000000E+00  0.14462490765E+04  0.14462490765E+04  0.00000000000E+00 0. -1.
          1   -1    0    0  501    0 -0.00000000000E+00 -0.00000000000E+00 -0.23127739460E+03  0.23127739460E+03  0.00000000000E+00 0. -1.
         25    2    1    2    0    0  0.17515375583E+03  0.50019989111E+02  0.66894603817E+02  0.23082830882E+03  0.12500393050E+03 0.  0.
          2    1    1    2  501    0 -0.21814785160E+03 -0.17375822646E+02 -0.68203130240E+02  0.22922057356E+03  0.00000000000E+00 0. -1.
          1    1    1    2  502    0  0.42994095763E+02 -0.32644166465E+02  0.12162802083E+04  0.12174775887E+04  0.00000000000E+00 0. -1.
         22    1    3    3    0    0  0.19254493755E+03  0.45049894180E+02  0.45685105171E+02  0.20295362716E+03  0.00000000000E+00 0.  1.
         22    1    3    3    0    0 -0.17391181718E+02  0.49700949307E+01  0.21209498645E+02  0.27874681666E+02  0.00000000000E+00 0.  1.
</event>
<event>
 7    1  0.7527776E-006  0.1082658E+03  0.7818608E-02  0.1325411E+00
          2   -1    0    0  502    0  0.00000000000E+00  0.00000000000E+00  0.16123478278E+04  0.16123478278E+04  0.00000000000E+00 0. -1.
          1   -1    0    0  501    0 -0.00000000000E+00 -0.00000000000E+00 -0.62347051097E+03  0.62347051097E+03  0.00000000000E+00 0. -1.
         25    2    1    2    0    0 -0.84063912908E+02 -0.92194640840E+01  0.64871333991E+03  0.66603735655E+03  0.12500009190E+03 0.  0.
          2    1    1    2  501    0 -0.30049509570E+02  0.53137850853E+02 -0.60936325829E+03  0.61241341002E+03  0.00000000000E+00 0. -1.
          1    1    1    2  502    0  0.11411342248E+03 -0.43918386769E+02  0.94952723524E+03  0.95736757222E+03  0.00000000000E+00 0. -1.
         22    1    3    3    0    0 -0.10320512961E+02  0.46280474385E+02  0.11482865820E+03  0.12423371539E+03  0.00000000000E+00 0.  1.
         22    1    3    3    0    0 -0.73743399947E+02 -0.55499938469E+02  0.53388468171E+03  0.54180364116E+03  0.00000000000E+00 0.  1.
</event>
<event>
 7    1  0.7527776E-006  0.1036474E+03  0.7818608E-02  0.1463676E+00
          2   -1    0    0  502    0  0.00000000000E+00  0.00000000000E+00  0.32840874031E+03  0.32840874031E+03  0.00000000000E+00 0. -1.
          1   -1    0    0  501    0 -0.00000000000E+00 -0.00000000000E+00 -0.55562822908E+03  0.55562822908E+03  0.00000000000E+00 0. -1.
         25    2    1    2    0    0  0.20031154479E+02 -0.11961555986E+03 -0.72728617812E+02  0.18874131849E+03  0.12499881657E+03 0.  0.
          2    1    1    2  501    0 -0.94276306429E+01  0.10138413522E+03 -0.41836632174E+03  0.43057868301E+03  0.00000000000E+00 0. -1.
          1    1    1    2  502    0 -0.10603523836E+02  0.18231424642E+02  0.26387545079E+03  0.26471696789E+03  0.00000000000E+00 0. -1.
         22    1    3    3    0    0  0.93711409687E+01 -0.53605528418E+02 -0.10210982385E+03  0.11570560525E+03  0.00000000000E+00 0.  1.
         22    1    3    3    0    0  0.10660013510E+02 -0.66010031447E+02  0.29381206039E+02  0.73035713236E+02  0.00000000000E+00 0.  1.
</event>
<event>
 7    1  0.7527776E-006  0.1046812E+03  0.7818608E-02  0.1379303E+00
          2   -1    0    0  502    0  0.00000000000E+00  0.00000000000E+00  0.53008904410E+03  0.53008904410E+03  0.00000000000E+00 0. -1.
          1   -1    0    0  501    0 -0.00000000000E+00 -0.00000000000E+00 -0.27072745584E+03  0.27072745584E+03  0.00000000000E+00 0. -1.
         25    2    1    2    0    0  0.10683007738E+03  0.62373876913E+02  0.15273319053E+03  0.23292799058E+03  0.12499942140E+03 0.  0.
          2    1    1    2  501    0 -0.10130896610E+03 -0.22833643379E+02 -0.21765281503E+03  0.24115893053E+03  0.00000000000E+00 0. -1.
          1    1    1    2  502    0 -0.55211112764E+01 -0.39540233535E+02  0.32428121276E+03  0.32672957884E+03  0.00000000000E+00 0. -1.
         22    1    3    3    0    0  0.28926366384E+01  0.12409609599E+02 -0.20904928976E+02  0.24482275479E+02  0.00000000000E+00 0. -1.
         22    1    3    3    0    0  0.10393744074E+03  0.49964267314E+02  0.17363811951E+03  0.20844571510E+03  0.00000000000E+00 0. -1.
</event>
<event>
 7    1  0.7527776E-006  0.7352154E+02  0.7818608E-02  0.1376649E+00
          2   -1    0    0  502    0  0.00000000000E+00  0.00000000000E+00  0.98024875229E+03  0.98024875229E+03  0.00000000000E+00 0. -1.
          1   -1    0    0  501    0 -0.00000000000E+00 -0.00000000000E+00 -0.31547635764E+03  0.31547635764E+03  0.00000000000E+00 0. -1.
         25    2    1    2    0    0 -0.10060530334E+03  0.52086093800E+02  0.10039443934E+03  0.19631048483E+03  0.12499749907E+03 0.  0.
          2    1    1    2  501    0  0.28037841582E+02 -0.50877870456E+02 -0.26275676288E+03  0.26910182961E+03  0.00000000000E+00 0. -1.
          1    1    1    2  502    0  0.72567461761E+02 -0.12082233436E+01  0.82713471818E+03  0.83031279548E+03  0.00000000000E+00 0. -1.
         22    1    3    3    0    0 -0.59269563176E+00  0.22853457390E+02 -0.24599349132E+02  0.33582134841E+02  0.00000000000E+00 0.  1.
         22    1    3    3    0    0 -0.10001260771E+03  0.29232636410E+02  0.12499378848E+03  0.16272834999E+03  0.00000000000E+00 0.  1.
</event>
<event>
 7    1  0.7527776E-006  0.4060255E+02  0.7818608E-02  0.1518594E+00
          2   -1    0    0  502    0  0.00000000000E+00  0.00000000000E+00  0.95132286943E+03  0.95132286943E+03  0.00000000000E+00 0. -1.
          1   -1    0    0  501    0 -0.00000000000E+00 -0.00000000000E+00 -0.32293875106E+03  0.32293875106E+03  0.00000000000E+00 0. -1.
         25    2    1    2    0    0 -0.29322100574E+01  0.32474729214E+01  0.23710446370E+03  0.26806732891E+03  0.12498968832E+03 0.  0.
          2    1    1    2  501    0  0.14820250279E+02 -0.38011547419E+02 -0.30561782537E+03  0.30832900081E+03  0.00000000000E+00 0. -1.
          1    1    1    2  502    0 -0.11888040221E+02  0.34764074498E+02  0.69689748003E+03  0.69786529076E+03  0.00000000000E+00 0. -1.
         22    1    3    3    0    0 -0.62147537645E+02 -0.33765358217E+01  0.15131843878E+03  0.16361841995E+03  0.00000000000E+00 0. -1.
         22    1    3    3    0    0  0.59215327588E+02  0.66240087431E+01  0.85786024920E+02  0.10444890897E+03  0.00000000000E+00 0. -1.
</event>
<event>
 7    1  0.7527776E-006  0.7885690E+02  0.7818608E-02  0.1456745E+00
          2   -1    0    0  502    0  0.00000000000E+00  0.00000000000E+00  0.13552593523E+04  0.13552593523E+04  0.00000000000E+00 0. -1.
          1   -1    0    0  501    0 -0.00000000000E+00 -0.00000000000E+00 -0.20749296123E+03  0.20749296123E+03  0.00000000000E+00 0. -1.
         25    2    1    2    0    0 -0.94538503358E+02 -0.84028700332E+01 -0.13397852669E+03  0.20635808555E+03  0.12500110806E+03 0.  0.
          2    1    1    2  501    0  0.65386548923E+02  0.83335557958E+01 -0.79292023364E+01  0.66390670895E+02  0.00000000000E+00 0. -1.
          1    1    1    2  502    0  0.29151954436E+02  0.69314237407E-01  0.12896741201E+04  0.12900035571E+04  0.00000000000E+00 0. -1.
         22    1    3    3    0    0 -0.41689453071E+02  0.17884198402E+02 -0.13986684800E+03  0.14703941723E+03  0.00000000000E+00 0. -1.
         22    1    3    3    0    0 -0.52849050287E+02 -0.26287068435E+02  0.58883213129E+01  0.59318668318E+02  0.00000000000E+00 0. -1.
</event>
<event>
 7    1  0.7527776E-006  0.7711122E+02  0.7818608E-02  0.1452626E+00
          2   -1    0    0  502    0  0.00000000000E+00  0.00000000000E+00  0.11749413929E+04  0.11749413929E+04  0.00000000000E+00 0. -1.
          1   -1    0    0  501    0 -0.00000000000E+00 -0.00000000000E+00 -0.26543294945E+03  0.26543294945E+03  0.00000000000E+00 0. -1.
         25    2    1    2    0    0  0.31564104094E+02 -0.52741047923E+02  0.60115329808E+02  0.15171531542E+03  0.12500309297E+03 0.  0.
          2    1    1    2  501    0  0.30214601332E+02  0.55736864651E+01 -0.21713723507E+03  0.21930017548E+03  0.00000000000E+00 0. -1.
          1    1    1    2  502    0 -0.61778705426E+02  0.47167361458E+02  0.10665303487E+04  0.10693588514E+04  0.00000000000E+00 0. -1.
         22    1    3    3    0    0 -0.29460382866E+02 -0.32674117036E+02  0.73908997115E+02  0.86011929041E+02  0.00000000000E+00 0. -1.
         22    1    3    3    0    0  0.61024486960E+02 -0.20066930887E+02 -0.13793667307E+02  0.65703386380E+02  0.00000000000E+00 0. -1.
</event>
<event>
 7    1  0.7527776E-006  0.1174899E+03  0.7818608E-02  0.1260202E+00
          2   -1    0    0  502    0  0.00000000000E+00  0.00000000000E+00  0.10644487118E+03  0.10644487118E+03  0.00000000000E+00 0. -1.
          1   -1    0    0  501    0 -0.00000000000E+00 -0.00000000000E+00 -0.61380873203E+03  0.61380873203E+03  0.00000000000E+00 0. -1.
         25    2    1    2    0    0 -0.27631399952E+02 -0.43548603546E+01 -0.91117550098E+02  0.15719551964E+03  0.12500225753E+03 0.  0.
          2    1    1    2  501    0  0.81279702093E+02 -0.10017141737E+03 -0.42605861559E+03  0.44515912520E+03  0.00000000000E+00 0. -1.
          1    1    1    2  502    0 -0.53648302141E+02  0.10452627772E+03  0.98123048392E+01  0.11789895837E+03  0.00000000000E+00 0. -1.
         22    1    3    3    0    0  0.30276123766E+02 -0.16015177562E+01 -0.94380663493E+02  0.99130813428E+02  0.00000000000E+00 0. -1.
         22    1    3    3    0    0 -0.57907523719E+02 -0.27533425985E+01  0.32631133953E+01  0.58064706214E+02  0.00000000000E+00 0. -1.
</event>
<event>
 7    1  0.7527776E-006  0.6936493E+02  0.7818608E-02  0.1458697E+00
          2   -1    0    0  502    0  0.00000000000E+00  0.00000000000E+00  0.81853137338E+03  0.81853137338E+03  0.00000000000E+00 0. -1.
          1   -1    0    0  501    0 -0.00000000000E+00 -0.00000000000E+00 -0.86792692542E+02  0.86792692542E+02  0.00000000000E+00 0. -1.
         25    2    1    2    0    0 -0.47231956063E+02  0.71120382263E+01  0.21390444139E+03  0.25231234328E+03  0.12499987905E+03 0.  0.
          2    1    1    2  501    0 -0.15460856080E+02  0.28783582547E+02 -0.61260148238E+02  0.69428657319E+02  0.00000000000E+00 0. -1.
          1    1    1    2  502    0  0.62692812143E+02 -0.35895620773E+02  0.57909438768E+03  0.58358306532E+03  0.00000000000E+00 0. -1.
         22    1    3    3    0    0  0.36936345932E+02  0.13912358523E+02  0.11852474861E+03  0.12492383041E+03  0.00000000000E+00 0. -1.
         22    1    3    3    0    0 -0.84168301995E+02 -0.68003202967E+01  0.95379692778E+02  0.12738851287E+03  0.00000000000E+00 0. -1.
</event>
<event>
 7    1  0.7527776E-006  0.6061800E+02  0.7818608E-02  0.1412231E+00
          2   -1    0    0  502    0  0.00000000000E+00  0.00000000000E+00  0.51204184010E+03  0.51204184010E+03  0.00000000000E+00 0. -1.
          1   -1    0    0  501    0 -0.00000000000E+00 -0.00000000000E+00 -0.49747558650E+03  0.49747558650E+03  0.00000000000E+00 0. -1.
         25    2    1    2    0    0  0.95319562153E+02  0.17980608598E+02 -0.16298443039E+03  0.22715149750E+03  0.12499902821E+03 0.  0.
          2    1    1    2  501    0 -0.38008725837E+02 -0.36984779429E+02 -0.29815947118E+03  0.30283924350E+03  0.00000000000E+00 0. -1.
          1    1    1    2  502    0 -0.57310836317E+02  0.19004170831E+02  0.47571015517E+03  0.47952668559E+03  0.00000000000E+00 0. -1.
         22    1    3    3    0    0 -0.21806006864E+02  0.33126612839E+02 -0.33686901782E+02  0.52035389545E+02  0.00000000000E+00 0. -1.
         22    1    3    3    0    0  0.11712556902E+03 -0.15146004241E+02 -0.12929752861E+03  0.17511610796E+03  0.00000000000E+00 0. -1.
</event>
<event>
 7    1  0.7527776E-006  0.1236336E+03  0.7818608E-02  0.1337587E+00
          2   -1    0    0  502    0  0.00000000000E+00  0.00000000000E+00  0.52594395056E+03  0.52594395056E+03  0.00000000000E+00 0. -1.
          1   -1    0    0  501    0 -0.00000000000E+00 -0.00000000000E+00 -0.48809340854E+03  0.48809340854E+03  0.00000000000E+00 0. -1.
         25    2    1    2    0    0 -0.66131295644E+02  0.12590358770E+03 -0.28783441558E+03  0.34452568085E+03  0.12499692923E+03 0.  0.
          2    1    1    2  501    0  0.47881632985E+02 -0.38922171637E+01 -0.16069890418E+03  0.16772578196E+03  0.00000000000E+00 0. -1.
          1    1    1    2  502    0  0.18249662659E+02 -0.12201137054E+03  0.48638386176E+03  0.50178589629E+03  0.00000000000E+00 0. -1.
         22    1    3    3    0    0 -0.86095395106E+02  0.69639247398E+02 -0.25108871210E+03  0.27442227165E+03  0.00000000000E+00 0.  1.
         22    1    3    3    0    0  0.19964099462E+02  0.56264340303E+02 -0.36745703480E+02  0.70103409199E+02  0.00000000000E+00 0.  1.
</event>
<event>
 7    1  0.7527776E-006  0.1484939E+03  0.7818608E-02  0.1415216E+00
          2   -1    0    0  502    0  0.00000000000E+00  0.00000000000E+00  0.16597737765E+04  0.16597737765E+04  0.00000000000E+00 0. -1.
          1   -1    0    0  501    0 -0.00000000000E+00 -0.00000000000E+00 -0.32189843138E+03  0.32189843138E+03  0.00000000000E+00 0. -1.
         25    2    1    2    0    0  0.68688550755E+02  0.13868883548E+03  0.97875941901E+03  0.99877330059E+03  0.12500158234E+03 0.  0.
          2    1    1    2  501    0 -0.47617962037E+02 -0.14055907619E+03 -0.29405673618E+03  0.32938380091E+03  0.00000000000E+00 0. -1.
          1    1    1    2  502    0 -0.21070588718E+02  0.18702407147E+01  0.65317266233E+03  0.65351510643E+03  0.00000000000E+00 0. -1.
         22    1    3    3    0    0  0.64894591011E+02  0.56649189460E+01  0.28288768898E+03  0.29029096408E+03  0.00000000000E+00 0. -1.
         22    1    3    3    0    0  0.37939597435E+01  0.13302391653E+03  0.69587173003E+03  0.70848233652E+03  0.00000000000E+00 0. -1.
</event>
<event>
 7    1  0.7527776E-006  0.8343372E+02  0.7818608E-02  0.1389073E+00
          2   -1    0    0  502    0  0.00000000000E+00  0.00000000000E+00  0.31655761445E+04  0.31655761445E+04  0.00000000000E+00 0. -1.
          1   -1    0    0  501    0 -0.00000000000E+00 -0.00000000000E+00 -0.61015591978E+02  0.61015591978E+02  0.00000000000E+00 0. -1.
         25    2    1    2    0    0 -0.10301134072E+03  0.47905035941E+02  0.58388285688E+03  0.60782449493E+03  0.12500078914E+03 0.  0.
          2    1    1    2  501    0  0.81782159397E+02 -0.67839086231E+01 -0.14357608765E+02  0.83309566926E+02  0.00000000000E+00 0. -1.
          1    1    1    2  502    0  0.21229181319E+02 -0.41121127318E+02  0.25350353044E+04  0.25354576746E+04  0.00000000000E+00 0. -1.
         22    1    3    3    0    0 -0.35853076325E+02  0.53407239700E+02  0.97573525098E+02  0.11686902556E+03  0.00000000000E+00 0.  1.
         22    1    3    3    0    0 -0.67158264392E+02 -0.55022037592E+01  0.48630933179E+03  0.49095546937E+03  0.00000000000E+00 0.  1.
</event>
<event>
 7    1  0.7527776E-006  0.1451210E+03  0.7818608E-02  0.1384939E+00
          2   -1    0    0  502    0  0.00000000000E+00  0.00000000000E+00  0.21510240134E+04  0.21510240134E+04  0.00000000000E+00 0. -1.
          1   -1    0    0  501    0 -0.00000000000E+00 -0.00000000000E+00 -0.14216861303E+03  0.14216861303E+03  0.00000000000E+00 0. -1.
         25    2    1    2    0    0 -0.77189339784E+02 -0.14446173029E+03  0.69901325681E+02  0.21757422174E+03  0.12499984376E+03 0.  0.
          2    1    1    2  501    0  0.64074796416E+02  0.12028017383E+03 -0.18666333071E+00  0.13628255426E+03  0.00000000000E+00 0. -1.
          1    1    1    2  502    0  0.13114543368E+02  0.24181556459E+02  0.19391407380E+04  0.19393358505E+04  0.00000000000E+00 0. -1.
         22    1    3    3    0    0  0.29495864002E+02 -0.59297263827E+02  0.41455873442E+02  0.78132969568E+02  0.00000000000E+00 0.  1.
         22    1    3    3    0    0 -0.10668520379E+03 -0.85164466459E+02  0.28445452239E+02  0.13944125217E+03  0.00000000000E+00 0.  1.
</event>
<event>
 7    1  0.7527776E-006  0.9496838E+02  0.7818608E-02  0.1368615E+00
          2   -1    0    0  502    0  0.00000000000E+00  0.00000000000E+00  0.14666221208E+04  0.14666221208E+04  0.00000000000E+00 0. -1.
          1   -1    0    0  501    0 -0.00000000000E+00 -0.00000000000E+00 -0.39173410895E+03  0.39173410895E+03  0.00000000000E+00 0. -1.
         25    2    1    2    0    0  0.80246821609E+00 -0.48780450932E+02 -0.44406358974E+02  0.14134143260E+03  0.12500119800E+03 0.  0.
          2    1    1    2  501    0  0.14761792975E+02 -0.45729273140E+02 -0.29529860024E+03  0.29918278737E+03  0.00000000000E+00 0. -1.
          1    1    1    2  502    0 -0.15564261191E+02  0.94509724071E+02  0.14145929711E+04  0.14178320098E+04  0.00000000000E+00 0. -1.
         22    1    3    3    0    0 -0.47389868717E+00 -0.22606634494E+01  0.42604556922E+02  0.42667123757E+02  0.00000000000E+00 0.  1.
         22    1    3    3    0    0  0.12763669033E+01 -0.46519787482E+02 -0.87010915896E+02  0.98674308839E+02  0.00000000000E+00 0.  1.
</event>
<event>
 7    1  0.7527776E-006  0.6026579E+02  0.7818608E-02  0.1413418E+00
          2   -1    0    0  502    0  0.00000000000E+00  0.00000000000E+00  0.32648786892E+03  0.32648786892E+03  0.00000000000E+00 0. -1.
          1   -1    0    0  501    0 -0.00000000000E+00 -0.00000000000E+00 -0.11561979521E+04  0.11561979521E+04  0.00000000000E+00 0. -1.
         25    2    1    2    0    0  0.23040341038E+02  0.81335218455E+01 -0.59978259987E+02  0.14076438700E+03  0.12498083646E+03 0.  0.
          2    1    1    2  501    0 -0.89911548286E+01  0.52083070200E+02 -0.10518142708E+04  0.10531413710E+04  0.00000000000E+00 0. -1.
          1    1    1    2  502    0 -0.14049186210E+02 -0.60216592045E+02  0.28208244757E+03  0.28878006305E+03  0.00000000000E+00 0. -1.
         22    1    3    3    0    0 -0.43651550298E+00 -0.56618734273E+02 -0.39041289649E+02  0.68775678214E+02  0.00000000000E+00 0.  1.
         22    1    3    3    0    0  0.23476856541E+02  0.64752256118E+02 -0.20936970338E+02  0.71988708784E+02  0.00000000000E+00 0.  1.
</event>
<event>
 7    1  0.7527776E-006  0.2042539E+03  0.7818608E-02  0.1180841E+00
          2   -1    0    0  502    0  0.00000000000E+00  0.00000000000E+00  0.22305966666E+04  0.22305966666E+04  0.00000000000E+00 0. -1.
          1   -1    0    0  501    0 -0.00000000000E+00 -0.00000000000E+00 -0.12511546322E+03  0.12511546322E+03  0.00000000000E+00 0. -1.
         25    2    1    2    0    0 -0.46428197428E+02  0.11019769077E+03  0.60629206560E+03  0.63048842280E+03  0.12500589550E+03 0.  0.
          2    1    1    2  501    0  0.18201862825E+03 -0.12838211580E+03  0.29655744066E+01  0.22275893544E+03  0.00000000000E+00 0. -1.
          1    1    1    2  502    0 -0.13559043082E+03  0.18184425032E+02  0.14962235633E+04  0.15024647715E+04  0.00000000000E+00 0. -1.
         22    1    3    3    0    0 -0.15052350408E+02 -0.26255497477E+02  0.15681496945E+03  0.15970866928E+03  0.00000000000E+00 0. -1.
         22    1    3    3    0    0 -0.31375847020E+02  0.13645318825E+03  0.44947709615E+03  0.47077975352E+03  0.00000000000E+00 0. -1.
</event>
<event>
 7    1  0.7527776E-006  0.2753697E+02  0.7818608E-02  0.1638076E+00
          2   -1    0    0  502    0  0.00000000000E+00  0.00000000000E+00  0.90950584419E+03  0.90950584419E+03  0.00000000000E+00 0. -1.
          1   -1    0    0  501    0 -0.00000000000E+00 -0.00000000000E+00 -0.48197896780E+02  0.48197896780E+02  0.00000000000E+00 0. -1.
         25    2    1    2    0    0  0.42943772514E+02 -0.30540807205E+02  0.32645572085E+03  0.35351825098E+03  0.12499963038E+03 0.  0.
          2    1    1    2  501    0 -0.20421647185E+02  0.17882372821E+02 -0.29011485713E+02  0.39730205572E+02  0.00000000000E+00 0. -1.
          1    1    1    2  502    0 -0.22522125329E+02  0.12658434384E+02  0.56386371227E+03  0.56445528441E+03  0.00000000000E+00 0. -1.
         22    1    3    3    0    0 -0.32412448215E+01  0.33839072832E+02  0.26017053134E+02  0.42807424262E+02  0.00000000000E+00 0. -1.
         22    1    3    3    0    0  0.46185017336E+02 -0.64379880037E+02  0.30043866772E+03  0.31071082672E+03  0.00000000000E+00 0. -1.
</event>
<event>
 7    1  0.7527776E-006  0.7899012E+02  0.7818608E-02  0.1365010E+00
          2   -1    0    0  502    0  0.00000000000E+00  0.00000000000E+00  0.57750890546E+03  0.57750890546E+03  0.00000000000E+00 0. -1.
          1   -1    0    0  501    0 -0.00000000000E+00 -0.00000000000E+00 -0.61268469606E+03  0.61268469606E+03  0.00000000000E+00 0. -1.
         25    2    1    2    0    0  0.50346383926E+02  0.15622769374E+02  0.53836159007E+02  0.14595371567E+03  0.12500130321E+03 0.  0.
          2    1    1    2  501    0 -0.69015395285E+02  0.40905943733E+02 -0.56191053041E+03  0.56760890163E+03  0.00000000000E+00 0. -1.
          1    1    1    2  502    0  0.18669011359E+02 -0.56528713107E+02  0.47289858081E+03  0.47663098422E+03  0.00000000000E+00 0. -1.
         22    1    3    3    0    0  0.62496956252E+02  0.50218458815E+02 -0.77218788480E+00  0.80177050461E+02  0.00000000000E+00 0.  1.
         22    1    3    3    0    0 -0.12150572325E+02 -0.34595689440E+02  0.54608346892E+02  0.65776665209E+02  0.00000000000E+00 0.  1.
</event>
<event>
 7    1  0.7527776E-006  0.6564826E+02  0.7818608E-02  0.1425262E+00
          2   -1    0    0  502    0  0.00000000000E+00  0.00000000000E+00  0.98082222666E+03  0.98082222666E+03  0.00000000000E+00 0. -1.
          1   -1    0    0  501    0 -0.00000000000E+00 -0.00000000000E+00 -0.14499121776E+04  0.14499121776E+04  0.00000000000E+00 0. -1.
         25    2    1    2    0    0  0.94162725340E+02 -0.22050656784E+02 -0.11263011933E+03  0.19407238347E+03  0.12500278372E+03 0.  0.
          2    1    1    2  501    0 -0.29602986940E+02  0.32946124424E+02 -0.12950419176E+04  0.12957991172E+04  0.00000000000E+00 0. -1.
          1    1    1    2  502    0 -0.64559738400E+02 -0.10895467640E+02  0.93858208601E+03  0.94086290351E+03  0.00000000000E+00 0. -1.
         22    1    3    3    0    0  0.48800372857E+02 -0.53781367511E+02 -0.47005254430E+01  0.72773668464E+02  0.00000000000E+00 0. -1.
         22    1    3    3    0    0  0.45362352483E+02  0.31730710727E+02 -0.10792959389E+03  0.12129871501E+03  0.00000000000E+00 0. -1.
</event>
<event>
 7    1  0.7527776E-006  0.8479688E+02  0.7818608E-02  0.1488184E+00
          2   -1    0    0  502    0  0.00000000000E+00  0.00000000000E+00  0.10512299660E+04  0.10512299660E+04  0.00000000000E+00 0. -1.
          1   -1    0    0  501    0 -0.00000000000E+00 -0.00000000000E+00 -0.55141988220E+03  0.55141988220E+03  0.00000000000E+00 0. -1.
         25    2    1    2    0    0  0.76401674712E+02  0.68690346507E+02 -0.32059369887E+03  0.35911101148E+03  0.12499927684E+03 0.  0.
          2    1    1    2  501    0 -0.66589728948E+01 -0.20610898705E+02 -0.20926927223E+03  0.21038721293E+03  0.00000000000E+00 0. -1.
          1    1    1    2  502    0 -0.69742701818E+02 -0.48079447801E+02  0.10296730549E+04  0.10331516238E+04  0.00000000000E+00 0. -1.
         22    1    3    3    0    0  0.92774683149E+02  0.93648592506E+02 -0.26685816111E+03  0.29764152745E+03  0.00000000000E+00 0.  1.
         22    1    3    3    0    0 -0.16373008437E+02 -0.24958246000E+02 -0.53735537762E+02  0.61469484033E+02  0.00000000000E+00 0.  1.
</event>
<event>
 7    1  0.7527776E-006  0.1052945E+03  0.7818608E-02  0.1338268E+00
          2   -1    0    0  502    0  0.00000000000E+00  0.00000000000E+00  0.16514029537E+04  0.16514029537E+04  0.00000000000E+00 0. -1.
          1   -1    0    0  501    0 -0.00000000000E+00 -0.00000000000E+00 -0.25735536130E+03  0.25735536130E+03  0.00000000000E+00 0. -1.
         25    2    1    2    0    0  0.67233767430E+02 -0.10766449091E+03  0.73322644436E+03  0.75455818860E+03  0.12500007675E+03 0.  0.
          2    1    1    2  501    0 -0.11246307341E+02  0.10455293839E+03 -0.23456626599E+03  0.25705861101E+03  0.00000000000E+00 0. -1.
          1    1    1    2  502    0 -0.55987460089E+02  0.31115525161E+01  0.89538741403E+03  0.89714151540E+03  0.00000000000E+00 0. -1.
         22    1    3    3    0    0  0.61002420440E+02 -0.82026344527E+02  0.71551485603E+03  0.72278013649E+03  0.00000000000E+00 0.  1.
         22    1    3    3    0    0  0.62313469901E+01 -0.25638146378E+02  0.17711588330E+02  0.31778052114E+02  0.00000000000E+00 0.  1.
</event>
<event>
 7    1  0.7527776E-006  0.9460063E+02  0.7818608E-02  0.1385141E+00
          2   -1    0    0  502    0  0.00000000000E+00  0.00000000000E+00  0.10077631802E+04  0.10077631802E+04  0.00000000000E+00 0. -1.
          1   -1    0    0  501    0 -0.00000000000E+00 -0.00000000000E+00 -0.55016479603E+03  0.55016479603E+03  0.00000000000E+00 0. -1.
         25    2    1    2    0    0  0.10269778952E+02 -0.66014068743E+02 -0.14829310548E+02  0.14250758874E+03  0.12500071506E+03 0.  0.
          2    1    1    2  501    0  0.20350427399E+02  0.94952031770E+02 -0.46601865697E+03  0.47602879837E+03  0.00000000000E+00 0. -1.
          1    1    1    2  502    0 -0.30620206352E+02 -0.28937963026E+02  0.93844635171E+03  0.93939158916E+03  0.00000000000E+00 0. -1.
         22    1    3    3    0    0  0.24729647150E+02 -0.21578347393E+02  0.51681518963E+02  0.61222217590E+02  0.00000000000E+00 0. -1.
         22    1    3    3    0    0 -0.14459868198E+02 -0.44435721350E+02 -0.66510829511E+02  0.81285371146E+02  0.00000000000E+00 0. -1.
</event>
<event>
 7    1  0.7527776E-006  0.1130906E+03  0.7818608E-02  0.1290121E+00
          2   -1    0    0  502    0  0.00000000000E+00  0.00000000000E+00  0.20508444178E+04  0.20508444178E+04  0.00000000000E+00 0. -1.
          1   -1    0    0  501    0 -0.00000000000E+00 -0.00000000000E+00 -0.56066196174E+03  0.56066196174E+03  0.00000000000E+00 0. -1.
         25    2    1    2    0    0  0.71362942222E+02  0.24476455116E+01  0.22384911891E+03  0.26614227973E+03  0.12499849812E+03 0.  0.
          2    1    1    2  501    0 -0.79434019585E+02 -0.82637294864E+02 -0.53251471265E+03  0.54471148800E+03  0.00000000000E+00 0. -1.
          1    1    1    2  502    0  0.80710773630E+01  0.80189649352E+02  0.17988480498E+04  0.18006526118E+04  0.00000000000E+00 0. -1.
         22    1    3    3    0    0  0.84283871315E+02  0.31422285183E+02  0.21522517507E+03  0.23326595755E+03  0.00000000000E+00 0.  1.
         22    1    3    3    0    0 -0.12920929093E+02 -0.28974639672E+02  0.86239438423E+01  0.32876322181E+02  0.00000000000E+00 0.  1.
</event>
<event>
 7    1  0.7527776E-006  0.1250817E+03  0.7818608E-02  0.1322704E+00
          2   -1    0    0  502    0  0.00000000000E+00  0.00000000000E+00  0.61088994160E+03  0.61088994160E+03  0.00000000000E+00 0. -1.
          1   -1    0    0  501    0 -0.00000000000E+00 -0.00000000000E+00 -0.11957660943E+04  0.11957660943E+04  0.00000000000E+00 0. -1.
         25    2    1    2    0    0  0.33395381656E+00 -0.78251254621E+02 -0.31268111595E+03  0.34571168948E+03  0.12499488628E+03 0.  0.
          2    1    1    2  501    0  0.32070787094E+02 -0.43598874281E+02 -0.85902174359E+03  0.86072513219E+03  0.00000000000E+00 0. -1.
          1    1    1    2  502    0 -0.32404740910E+02  0.12185012890E+03  0.58682670689E+03  0.60021921417E+03  0.00000000000E+00 0. -1.
         22    1    3    3    0    0  0.57730615767E+02 -0.11425785010E+02 -0.13976981472E+03  0.15165412512E+03  0.00000000000E+00 0. -1.
         22    1    3    3    0    0 -0.57396661950E+02 -0.66825469611E+02 -0.17291130124E+03  0.19405756436E+03  0.00000000000E+00 0. -1.
</event>
<event>
 7    1  0.7527776E-006  0.1025666E+03  0.7818608E-02  0.1348717E+00
          2   -1    0    0  502    0  0.00000000000E+00  0.00000000000E+00  0.14326408426E+03  0.14326408426E+03  0.00000000000E+00 0. -1.
          1   -1    0    0  501    0 -0.00000000000E+00 -0.00000000000E+00 -0.14621408455E+04  0.14621408455E+04  0.00000000000E+00 0. -1.
         25    2    1    2    0    0  0.57063327203E+02 -0.94270779990E+02  0.35477090806E+02  0.17037179931E+03  0.12499889102E+03 0.  0.
          2    1    1    2  501    0 -0.51082865448E+01  0.10253856117E+03 -0.13747726581E+04  0.13786007807E+04  0.00000000000E+00 0. -1.
          1    1    1    2  502    0 -0.51955040658E+02 -0.82677811835E+01  0.20418806067E+02  0.56432349736E+02  0.00000000000E+00 0. -1.
         22    1    3    3    0    0 -0.59410947464E+01  0.17842538682E+02  0.37280711538E+02  0.41755290038E+02  0.00000000000E+00 0.  1.
         22    1    3    3    0    0  0.63004421949E+02 -0.11211331867E+03 -0.18036207318E+01  0.12861650927E+03  0.00000000000E+00 0.  1.
</event>
<event>
 7    1  0.7527776E-006  0.8247274E+02  0.7818608E-02  0.1348356E+00
          2   -1    0    0  502    0  0.00000000000E+00  0.00000000000E+00  0.22450675687E+04  0.22450675687E+04  0.00000000000E+00 0. -1.
          1   -1    0    0  501    0 -0.00000000000E+00 -0.00000000000E+00 -0.11055525778E+03  0.11055525778E+03  0.00000000000E+00 0. -1.
         25    2    1    2    0    0 -0.17374894336E+02  0.17551277593E+02  0.15252931461E+03  0.19874833778E+03  0.12500310259E+03 0.  0.
          2    1    1    2  501    0 -0.65628924757E+02 -0.13444032258E+00 -0.74133341519E+02  0.99009727622E+02  0.00000000000E+00 0. -1.
          1    1    1    2  502    0  0.83003819093E+02 -0.17416837270E+02  0.20561163379E+04  0.20578647611E+04  0.00000000000E+00 0. -1.
         22    1    3    3    0    0  0.40850715815E+02  0.45688577955E+02  0.59252022522E+02  0.85246872735E+02  0.00000000000E+00 0. -1.
         22    1    3    3    0    0 -0.58225610150E+02 -0.28137300362E+02  0.93277292083E+02  0.11350146505E+03  0.00000000000E+00 0. -1.
</event>
<event>
 7    1  0.7527776E-006  0.3647431E+02  0.7818608E-02  0.1566435E+00
          2   -1    0    0  502    0  0.00000000000E+00  0.00000000000E+00  0.13586303263E+03  0.13586303263E+03  0.00000000000E+00 0. -1.
          1   -1    0    0  501    0 -0.00000000000E+00 -0.00000000000E+00 -0.70491066654E+03  0.70491066654E+03  0.00000000000E+00 0. -1.
         25    2    1    2    0    0 -0.49039593463E+01 -0.79909265344E+01 -0.47479714132E+02  0.13404092527E+03  0.12499897067E+03 0.  0.
          2    1    1    2  501    0  0.42503928057E+01 -0.29681479499E+02 -0.60993331174E+03  0.61066987877E+03  0.00000000000E+00 0. -1.
          1    1    1    2  502    0  0.65356654057E+00  0.37672406033E+02  0.88365391956E+02  0.96062895132E+02  0.00000000000E+00 0. -1.
         22    1    3    3    0    0  0.25591270504E+02 -0.68101838187E+01  0.36267301120E+02  0.44906668327E+02  0.00000000000E+00 0.  1.
         22    1    3    3    0    0 -0.30495229850E+02 -0.11807427157E+01 -0.83747015252E+02  0.89134256942E+02  0.00000000000E+00 0.  1.
</event>
<event>
 7    1  0.7527776E-006  0.7177450E+02  0.7818608E-02  0.1430935E+00
          2   -1    0    0  502    0  0.00000000000E+00  0.00000000000E+00  0.33234843613E+03  0.33234843613E+03  0.00000000000E+00 0. -1.
          1   -1    0    0  501    0 -0.00000000000E+00 -0.00000000000E+00 -0.11199196049E+04  0.11199196049E+04  0.00000000000E+00 0. -1.
         25    2    1    2    0    0  0.32377797436E+02  0.27214668343E+02 -0.15473778824E+03  0.20337052753E+03  0.12500731346E+03 0.  0.
          2    1    1    2  501    0 -0.32837897272E+02 -0.66013504439E+02 -0.93819143183E+03  0.94108409455E+03  0.00000000000E+00 0. -1.
          1    1    1    2  502    0  0.46009983621E+00  0.38798836096E+02  0.30535805131E+03  0.30781341893E+03  0.00000000000E+00 0. -1.
         22    1    3    3    0    0 -0.58614288252E+01  0.14356838852E+02  0.19277131347E+02  0.24740310481E+02  0.00000000000E+00 0. -1.
         22    1    3    3    0    0  0.38239226261E+02  0.12857829491E+02 -0.17401491959E+03  0.17863021705E+03  0.00000000000E+00 0. -1.
</event>
<event>
 7    1  0.7527776E-006  0.7970239E+02  0.7818608E-02  0.1359539E+00
          2   -1    0    0  502    0  0.00000000000E+00  0.00000000000E+00  0.14207454861E+04  0.14207454861E+04  0.00000000000E+00 0. -1.
          1   -1    0    0  501    0 -0.00000000000E+00 -0.00000000000E+00 -0.14029639038E+03  0.14029639038E+03  0.00000000000E+00 0. -1.
         25    2    1    2    0    0  0.91763418032E+02 -0.98212052250E+02  0.31290105507E+03  0.36276426603E+03  0.12499884139E+03 0.  0.
          2    1    1    2  501    0 -0.28267591886E+02  0.54917341671E+02 -0.10562383205E+03  0.12235752966E+03  0.00000000000E+00 0. -1.
          1    1    1    2  502    0 -0.63495826145E+02  0.43294710579E+02  0.10731718727E+04  0.10759200808E+04  0.00000000000E+00 0. -1.
         22    1    3    3    0    0 -0.41894545354E+01 -0.15682793950E+02  0.17437002192E+03  0.17512397351E+03  0.00000000000E+00 0. -1.
         22    1    3    3    0    0  0.95952872567E+02 -0.82529258300E+02  0.13853103315E+03  0.18764029252E+03  0.00000000000E+00 0. -1.
</event>
<event>
 7    1  0.7527776E-006  0.5578505E+02  0.7818608E-02  0.1432209E+00
          2   -1    0    0  502    0  0.00000000000E+00  0.00000000000E+00  0.49677286159E+03  0.49677286159E+03  0.00000000000E+00 0. -1.
          1   -1    0    0  501    0 -0.00000000000E+00 -0.00000000000E+00 -0.22823913870E+03  0.22823913870E+03  0.00000000000E+00 0. -1.
         25    2    1    2    0    0 -0.14098712213E+02 -0.14957823703E+02  0.23444900268E+03  0.26648412830E+03  0.12499978240E+03 0.  0.
          2    1    1    2  501    0 -0.49158415512E+02 -0.53096446626E+01 -0.20474622852E+03  0.21063181202E+03  0.00000000000E+00 0. -1.
          1    1    1    2  502    0  0.63257127724E+02  0.20267468366E+02  0.23883094872E+03  0.24789605997E+03  0.00000000000E+00 0. -1.
         22    1    3    3    0    0 -0.15217390835E+02 -0.16916735753E+02 -0.79287708981E+01  0.24095857327E+02  0.00000000000E+00 0. -1.
         22    1    3    3    0    0  0.11186786229E+01  0.19589120496E+01  0.24237777358E+03  0.24238827097E+03  0.00000000000E+00 0. -1.
</event>
<event>
 7    1  0.7527776E-006  0.9226688E+02  0.7818608E-02  0.1458286E+00
          2   -1    0    0  502    0  0.00000000000E+00  0.00000000000E+00  0.75655597920E+03  0.75655597920E+03  0.00000000000E+00 0. -1.
          1   -1    0    0  501    0 -0.00000000000E+00 -0.00000000000E+00 -0.10134614145E+04  0.10134614145E+04  0.00000000000E+00 0. -1.
         25    2    1    2    0    0  0.57874391480E+02  0.99246331897E+02  0.83423953930E+02  0.18916065619E+03  0.12499167242E+03 0.  0.
          2    1    1    2  501    0 -0.52982879318E+02 -0.75100083448E+02 -0.95814855416E+03  0.96254654945E+03  0.00000000000E+00 0. -1.
          1    1    1    2  502    0 -0.48915121611E+01 -0.24146248449E+02  0.61781916488E+03  0.61831018809E+03  0.00000000000E+00 0. -1.
         22    1    3    3    0    0  0.24309245920E+02  0.10471051908E+03  0.96519102160E+01  0.10792771477E+03  0.00000000000E+00 0. -1.
         22    1    3    3    0    0  0.33565145560E+02 -0.54641871865E+01  0.73772043714E+02  0.81232941420E+02  0.00000000000E+00 0. -1.
</event>
<event>
 7    1  0.7651050E-006  0.6608852E+02  0.7818608E-02  0.1424567E+00
          2   -1    0    0  502    0  0.00000000000E+00  0.00000000000E+00  0.41421984894E+03  0.41421984894E+03  0.00000000000E+00 0. -1.
          1   -1    0    0  501    0 -0.00000000000E+00 -0.00000000000E+00 -0.19877716241E+04  0.19877716241E+04  0.00000000000E+00 0. -1.
         25    2    1    2    0    0  0.21796468295E+02  0.45443565743E+01 -0.37810603113E+03  0.39885150196E+03  0.12499045016E+03 0.  0.
          2    1    1    2  501    0  0.41967639476E+02  0.13968109476E+02 -0.15962553313E+04  0.15968680201E+04  0.00000000000E+00 0. -1.
          1    1    1    2  502    0 -0.63764107771E+02 -0.18512466050E+02  0.40080958732E+03  0.40627195095E+03  0.00000000000E+00 0. -1.
         22    1    3    3    0    0 -0.39438933197E+02  0.28349111990E+02 -0.25220257531E+03  0.25683699227E+03  0.00000000000E+00 0. -1.
         22    1    3    3    0    0  0.61235401492E+02 -0.23804755415E+02 -0.12590345582E+03  0.14201450969E+03  0.00000000000E+00 0. -1.
</event>
<event>
 7    1  0.7527776E-006  0.5677359E+02  0.7818608E-02  0.1494672E+00
          2   -1    0    0  502    0  0.00000000000E+00  0.00000000000E+00  0.10389353887E+04  0.10389353887E+04  0.00000000000E+00 0. -1.
          1   -1    0    0  501    0 -0.00000000000E+00 -0.00000000000E+00 -0.61012204640E+02  0.61012204640E+02  0.00000000000E+00 0. -1.
         25    2    1    2    0    0 -0.73118810913E+02 -0.41273102812E+02  0.15154781544E+03  0.21363544969E+03  0.12499414176E+03 0.  0.
          2    1    1    2  501    0  0.30534614988E+02  0.48930584109E+01 -0.20812110536E+02  0.37275309228E+02  0.00000000000E+00 0. -1.
          1    1    1    2  502    0  0.42584195925E+02  0.36380044401E+02  0.84718747912E+03  0.84903683439E+03  0.00000000000E+00 0. -1.
         22    1    3    3    0    0 -0.71732881843E+02 -0.82048773485E+02  0.10014349415E+03  0.14800786124E+03  0.00000000000E+00 0. -1.
         22    1    3    3    0    0 -0.13859290699E+01  0.40775670673E+02  0.51404321297E+02  0.65627588454E+02  0.00000000000E+00 0. -1.
</event>
<event>
 7    1  0.7527776E-006  0.7140456E+02  0.7818608E-02  0.1423506E+00
          2   -1    0    0  502    0  0.00000000000E+00  0.00000000000E+00  0.23255750811E+04  0.23255750811E+04  0.00000000000E+00 0. -1.
          1   -1    0    0  501    0 -0.00000000000E+00 -0.00000000000E+00 -0.14467495841E+02  0.14467495841E+02  0.00000000000E+00 0. -1.
         25    2    1    2    0    0  0.29620981044E+02 -0.30352409759E+02  0.65315384190E+03  0.66636059549E+03  0.12501132241E+03 0.  0.
          2    1    1    2  501    0 -0.68764677488E+02  0.43433382935E+02  0.21089525209E+03  0.22603505696E+03  0.00000000000E+00 0. -1.
          1    1    1    2  502    0  0.39143696445E+02 -0.13080973176E+02  0.14470584912E+04  0.14476469244E+04  0.00000000000E+00 0. -1.
         22    1    3    3    0    0 -0.14344762563E+02 -0.19890706351E+02  0.57900854302E+03  0.57952765706E+03  0.00000000000E+00 0. -1.
         22    1    3    3    0    0  0.43965743606E+02 -0.10461703408E+02  0.74145298885E+02  0.86832938427E+02  0.00000000000E+00 0. -1.
</event>
<event>
 7    1  0.7527776E-006  0.1625923E+03  0.7818608E-02  0.1332652E+00
          2   -1    0    0  502    0  0.00000000000E+00  0.00000000000E+00  0.15305011123E+04  0.15305011123E+04  0.00000000000E+00 0. -1.
          1   -1    0    0  501    0 -0.00000000000E+00 -0.00000000000E+00 -0.12575943104E+04  0.12575943104E+04  0.00000000000E+00 0. -1.
         25    2    1    2    0    0  0.18931459941E+03 -0.34109543790E+02 -0.45398789755E+03  0.50865875697E+03  0.12500096554E+03 0.  0.
          2    1    1    2  501    0 -0.15199261569E+03  0.26268629786E+02 -0.76836324447E+03  0.78369245983E+03  0.00000000000E+00 0. -1.
          1    1    1    2  502    0 -0.37321983720E+02  0.78409140047E+01  0.14952579440E+04  0.14957442059E+04  0.00000000000E+00 0. -1.
         22    1    3    3    0    0  0.10135988528E+03 -0.12816793855E+02 -0.98804554905E+02  0.14212824005E+03  0.00000000000E+00 0. -1.
         22    1    3    3    0    0  0.87954714131E+02 -0.21292749935E+02 -0.35518334265E+03  0.36653051692E+03  0.00000000000E+00 0. -1.
</event>
<event>
 7    1  0.7527776E-006  0.7790674E+02  0.7818608E-02  0.1420022E+00
          2   -1    0    0  502    0  0.00000000000E+00  0.00000000000E+00  0.12396115925E+04  0.12396115925E+04  0.00000000000E+00 0. -1.
          1   -1    0    0  501    0 -0.00000000000E+00 -0.00000000000E+00 -0.21828028211E+03  0.21828028211E+03  0.00000000000E+00 0. -1.
         25    2    1    2    0    0  0.15801812573E+02  0.49284262001E+02  0.58407519387E+03  0.59953884866E+03  0.12499745278E+03 0.  0.
          2    1    1    2  501    0  0.26571317599E+02  0.28344150834E+02 -0.20570303710E+03  0.20933983204E+03  0.00000000000E+00 0. -1.
          1    1    1    2  502    0 -0.42373130172E+02 -0.77628412835E+02  0.64295915360E+03  0.64901319388E+03  0.00000000000E+00 0. -1.
         22    1    3    3    0    0 -0.22857535168E+02  0.40205509178E+02  0.69793368060E+02  0.83726125596E+02  0.00000000000E+00 0.  1.
         22    1    3    3    0    0  0.38659347741E+02  0.90787528231E+01  0.51428182580E+03  0.51581272306E+03  0.00000000000E+00 0.  1.
</event>
<event>
 7    1  0.7527776E-006  0.1675777E+03  0.7818608E-02  0.1378444E+00
          2   -1    0    0  502    0  0.00000000000E+00  0.00000000000E+00  0.65984903381E+03  0.65984903381E+03  0.00000000000E+00 0. -1.
          1   -1    0    0  501    0 -0.00000000000E+00 -0.00000000000E+00 -0.15743757486E+03  0.15743757486E+03  0.00000000000E+00 0. -1.
         25    2    1    2    0    0  0.24192891993E+02 -0.15836344268E+03  0.28141496592E+03  0.34710671245E+03  0.12499764313E+03 0.  0.
          2    1    1    2  501    0 -0.15262271826E+01  0.16917936506E+03 -0.66354779962E+02  0.18173316636E+03  0.00000000000E+00 0. -1.
          1    1    1    2  502    0 -0.22666664810E+02 -0.10815922372E+02  0.28735127300E+03  0.28844672986E+03  0.00000000000E+00 0. -1.
         22    1    3    3    0    0  0.49091334459E+02 -0.16311527982E+03  0.27014509798E+03  0.31936644719E+03  0.00000000000E+00 0.  1.
         22    1    3    3    0    0 -0.24898442466E+02  0.47518371406E+01  0.11269867939E+02  0.27740265262E+02  0.00000000000E+00 0.  1.
</event>
<event>
 7    1  0.7527776E-006  0.1697804E+03  0.7818608E-02  0.1247575E+00
          2   -1    0    0  502    0  0.00000000000E+00  0.00000000000E+00  0.21242810149E+04  0.21242810149E+04  0.00000000000E+00 0. -1.
          1   -1    0    0  501    0 -0.00000000000E+00 -0.00000000000E+00 -0.15670701836E+04  0.15670701836E+04  0.00000000000E+00 0. -1.
         25    2    1    2    0    0  0.19978512740E+03  0.12415017281E+03 -0.96622922397E+03  0.10022775884E+04  0.12503634806E+03 0.  0.
          2    1    1    2  501    0 -0.38667054595E+02 -0.71262739890E+02 -0.57656264494E+03  0.58223534997E+03  0.00000000000E+00 0. -1.
          1    1    1    2  502    0 -0.16111807281E+03 -0.52887432922E+02  0.21000027002E+04  0.21068382603E+04  0.00000000000E+00 0. -1.
         22    1    3    3    0    0  0.18708516064E+03  0.14083791288E+03 -0.93982238954E+03  0.96855681243E+03  0.00000000000E+00 0.  1.
         22    1    3    3    0    0  0.12699966761E+02 -0.16687740068E+02 -0.26406834430E+02  0.33720775924E+02  0.00000000000E+00 0.  1.
</event>
<event>
 7    1  0.7527776E-006  0.1015900E+03  0.7818608E-02  0.1277783E+00
          2   -1    0    0  502    0  0.00000000000E+00  0.00000000000E+00  0.18814611812E+04  0.18814611812E+04  0.00000000000E+00 0. -1.
          1   -1    0    0  501    0 -0.00000000000E+00 -0.00000000000E+00 -0.28584877853E+03  0.28584877853E+03  0.00000000000E+00 0. -1.
         25    2    1    2    0    0  0.10677428410E+03  0.86934833876E+02 -0.12832405047E+03  0.22594183808E+03  0.12499695669E+03 0.  0.
          2    1    1    2  501    0 -0.99776656485E+02  0.14471330105E+02 -0.83602123915E+02  0.13097372140E+03  0.00000000000E+00 0. -1.
          1    1    1    2  502    0 -0.69976276123E+01 -0.10140616398E+03  0.18075385771E+04  0.18103944003E+04  0.00000000000E+00 0. -1.
         22    1    3    3    0    0  0.13494162180E+03  0.69017311477E+02 -0.95621291288E+02  0.17920954753E+03  0.00000000000E+00 0.  1.
         22    1    3    3    0    0 -0.28167337704E+02  0.17917522398E+02 -0.32702759186E+02  0.46732290556E+02  0.00000000000E+00 0.  1.
</event>
<event>
 7    1  0.7527776E-006  0.1350813E+03  0.7818608E-02  0.1267940E+00
          2   -1    0    0  502    0  0.00000000000E+00  0.00000000000E+00  0.10255983347E+04  0.10255983347E+04  0.00000000000E+00 0. -1.
          1   -1    0    0  501    0 -0.00000000000E+00 -0.00000000000E+00 -0.16890112043E+03  0.16890112043E+03  0.00000000000E+00 0. -1.
         25    2    1    2    0    0  0.89388650114E+02 -0.28804701630E+02  0.19084884312E+03  0.24671576019E+03  0.12500137519E+03 0.  0.
          2    1    1    2  501    0  0.78886850636E+01 -0.82984524653E+02 -0.12109327155E+03  0.14701103054E+03  0.00000000000E+00 0. -1.
          1    1    1    2  502    0 -0.97277335177E+02  0.11178922628E+03  0.78694164274E+03  0.80077266445E+03  0.00000000000E+00 0. -1.
         22    1    3    3    0    0  0.60248301396E+02 -0.66108514292E+01  0.19998178112E+03  0.20896476727E+03  0.00000000000E+00 0. -1.
         22    1    3    3    0    0  0.29140348717E+02 -0.22193850200E+02 -0.91329379994E+01  0.37750992922E+02  0.00000000000E+00 0. -1.
</event>
<event>
 7    1  0.7527776E-006  0.1130378E+03  0.7818608E-02  0.1267656E+00
          2   -1    0    0  502    0  0.00000000000E+00  0.00000000000E+00  0.32103561296E+04  0.32103561296E+04  0.00000000000E+00 0. -1.
          1   -1    0    0  501    0 -0.00000000000E+00 -0.00000000000E+00 -0.66803115178E+03  0.66803115178E+03  0.00000000000E+00 0. -1.
         25    2    1    2    0    0  0.46222308276E+02  0.41724230905E+02  0.13342490491E+03  0.19314165698E+03  0.12499632468E+03 0.  0.
          2    1    1    2  501    0  0.64565013921E+02 -0.76217939532E+02 -0.63315118671E+03  0.64098224668E+03  0.00000000000E+00 0. -1.
          1    1    1    2  502    0 -0.11078732220E+03  0.34493708627E+02  0.30420512596E+04  0.30442633777E+04  0.00000000000E+00 0. -1.
         22    1    3    3    0    0  0.73773345428E+02  0.19195181229E+02  0.13760350590E+03  0.15730761683E+03  0.00000000000E+00 0. -1.
         22    1    3    3    0    0 -0.27551037151E+02  0.22529049676E+02 -0.41786009827E+01  0.35834040151E+02  0.00000000000E+00 0. -1.
</event>
<event>
 7    1  0.7527776E-006  0.7921361E+02  0.7818608E-02  0.1394961E+00
          2   -1    0    0  502    0  0.00000000000E+00  0.00000000000E+00  0.13434560926E+03  0.13434560926E+03  0.00000000000E+00 0. -1.
          1   -1    0    0  501    0 -0.00000000000E+00 -0.00000000000E+00 -0.60393174301E+03  0.60393174301E+03  0.00000000000E+00 0. -1.
         25    2    1    2    0    0  0.35971465317E+02 -0.41063403843E+02 -0.37233681674E+02  0.14138779729E+03  0.12499605081E+03 0.  0.
          2    1    1    2  501    0 -0.15918161264E+02 -0.43687582907E+02 -0.49015924395E+03  0.49235970305E+03  0.00000000000E+00 0. -1.
          1    1    1    2  502    0 -0.20053304054E+02  0.84750986750E+02  0.57806791875E+02  0.10452985193E+03  0.00000000000E+00 0. -1.
         22    1    3    3    0    0 -0.13650666997E+02 -0.20438100707E+02 -0.72872915926E+02  0.76905907092E+02  0.00000000000E+00 0.  1.
         22    1    3    3    0    0  0.49622132315E+02 -0.20625303136E+02  0.35639234252E+02  0.64481890194E+02  0.00000000000E+00 0.  1.
</event>
<event>
 7    1  0.7527776E-006  0.1531565E+03  0.7818608E-02  0.1315830E+00
          2   -1    0    0  502    0  0.00000000000E+00  0.00000000000E+00  0.14450865115E+04  0.14450865115E+04  0.00000000000E+00 0. -1.
          1   -1    0    0  501    0 -0.00000000000E+00 -0.00000000000E+00 -0.26020468072E+03  0.26020468072E+03  0.00000000000E+00 0. -1.
         25    2    1    2    0    0  0.90502254754E+02 -0.79110821893E+02  0.19328437849E+02  0.17449592534E+03  0.12500423671E+03 0.  0.
          2    1    1    2  501    0 -0.11699158853E+03  0.11794184530E+03 -0.14433245626E+03  0.22006628226E+03  0.00000000000E+00 0. -1.
          1    1    1    2  502    0  0.26489333780E+02 -0.38831023408E+02  0.13098858492E+04  0.13107289846E+04  0.00000000000E+00 0. -1.
         22    1    3    3    0    0  0.76270636414E+02 -0.21819335575E+02 -0.41671060638E+02  0.89608987711E+02  0.00000000000E+00 0.  1.
         22    1    3    3    0    0  0.14231618340E+02 -0.57291486317E+02  0.60999498487E+02  0.84886937633E+02  0.00000000000E+00 0.  1.
</event>
<event>
 7    1  0.7527776E-006  0.8683730E+02  0.7818608E-02  0.1391918E+00
          2   -1    0    0  502    0  0.00000000000E+00  0.00000000000E+00  0.11660284283E+04  0.11660284283E+04  0.00000000000E+00 0. -1.
          1   -1    0    0  501    0 -0.00000000000E+00 -0.00000000000E+00 -0.32221856878E+02  0.32221856878E+02  0.00000000000E+00 0. -1.
         25    2    1    2    0    0  0.20689745915E+02 -0.71477583496E+02  0.59005784733E+03  0.60772435717E+03  0.12499408219E+03 0.  0.
          2    1    1    2  501    0  0.19594094482E+02  0.87785864771E+02  0.67901656295E+02  0.11269836520E+03  0.00000000000E+00 0. -1.
          1    1    1    2  502    0 -0.40283840398E+02 -0.16308281275E+02  0.47584706782E+03  0.47782756281E+03  0.00000000000E+00 0. -1.
         22    1    3    3    0    0 -0.17486146030E+02  0.26374510116E+02  0.65371322092E+02  0.72627748408E+02  0.00000000000E+00 0. -1.
         22    1    3    3    0    0  0.38175891945E+02 -0.97852093612E+02  0.52468652524E+03  0.53509660877E+03  0.00000000000E+00 0. -1.
</event>
<event>
 7    1  0.7527776E-006  0.1143303E+03  0.7818608E-02  0.1332131E+00
          2   -1    0    0  502    0  0.00000000000E+00  0.00000000000E+00  0.78017671043E+02  0.78017671043E+02  0.00000000000E+00 0. -1.
          1   -1    0    0  501    0 -0.00000000000E+00 -0.00000000000E+00 -0.82768855491E+03  0.82768855491E+03  0.00000000000E+00 0. -1.
         25    2    1    2    0    0  0.62117691195E+02  0.36363449892E+02 -0.25733127226E+03  0.29500297288E+03  0.12500584896E+03 0.  0.
          2    1    1    2  501    0  0.35838424528E+02  0.41037467689E+02 -0.48239570250E+03  0.48546274854E+03  0.00000000000E+00 0. -1.
          1    1    1    2  502    0 -0.97956115722E+02 -0.77400917581E+02 -0.99439091077E+01  0.12524050454E+03  0.00000000000E+00 0. -1.
         22    1    3    3    0    0 -0.15964287906E+00 -0.28214425163E+02 -0.16065028677E+03  0.16310914724E+03  0.00000000000E+00 0.  1.
         22    1    3    3    0    0  0.62277334074E+02  0.64577875055E+02 -0.96680985492E+02  0.13189382564E+03  0.00000000000E+00 0.  1.
</event>
<event>
 7    1  0.7527776E-006  0.7018700E+02  0.7818608E-02  0.1379996E+00
          2   -1    0    0  502    0  0.00000000000E+00  0.00000000000E+00  0.54951618122E+03  0.54951618122E+03  0.00000000000E+00 0. -1.
          1   -1    0    0  501    0 -0.00000000000E+00 -0.00000000000E+00 -0.21274362396E+04  0.21274362396E+04  0.00000000000E+00 0. -1.
         25    2    1    2    0    0 -0.85318959267E+02  0.99913894320E+01  0.13521519429E+02  0.15227889355E+03  0.12500750882E+03 0.  0.
          2    1    1    2  501    0  0.45329280608E+02 -0.53655440699E+02 -0.20555770073E+04  0.20567767217E+04  0.00000000000E+00 0. -1.
          1    1    1    2  502    0  0.39989678659E+02  0.43664051267E+02  0.46413542948E+03  0.46789680558E+03  0.00000000000E+00 0. -1.
         22    1    3    3    0    0 -0.14004220938E+02 -0.19438890928E+02 -0.47971427237E+02  0.53621325195E+02  0.00000000000E+00 0. -1.
         22    1    3    3    0    0 -0.71314738329E+02  0.29430280360E+02  0.61492946666E+02  0.98657568359E+02  0.00000000000E+00 0. -1.
</event>
<event>
 7    1  0.7527776E-006  0.1257518E+03  0.7818608E-02  0.1346940E+00
          2   -1    0    0  502    0  0.00000000000E+00  0.00000000000E+00  0.10434523283E+03  0.10434523283E+03  0.00000000000E+00 0. -1.
          1   -1    0    0  501    0 -0.00000000000E+00 -0.00000000000E+00 -0.76747487856E+03  0.76747487856E+03  0.00000000000E+00 0. -1.
         25    2    1    2    0    0 -0.60604306039E+02 -0.13398074639E+03 -0.44801879662E+02  0.19810859931E+03  0.12496434046E+03 0.  0.
          2    1    1    2  501    0  0.80259002862E+02  0.95099035316E+02 -0.61773089557E+03  0.63014029660E+03  0.00000000000E+00 0. -1.
          1    1    1    2  502    0 -0.19654696823E+02  0.38881711073E+02 -0.59687049494E+00  0.43571215470E+02  0.00000000000E+00 0. -1.
         22    1    3    3    0    0 -0.87009180595E+02 -0.12883815590E+03 -0.12349621945E+02  0.15595634352E+03  0.00000000000E+00 0. -1.
         22    1    3    3    0    0  0.26404874555E+02 -0.51425904927E+01 -0.32452257717E+02  0.42152255790E+02  0.00000000000E+00 0. -1.
</event>
<event>
 7    1  0.7527776E-006  0.6373324E+02  0.7818608E-02  0.1523488E+00
          2   -1    0    0  502    0  0.00000000000E+00  0.00000000000E+00  0.17267484097E+04  0.17267484097E+04  0.00000000000E+00 0. -1.
          1   -1    0    0  501    0 -0.00000000000E+00 -0.00000000000E+00 -0.57292618241E+02  0.57292618241E+02  0.00000000000E+00 0. -1.
         25    2    1    2    0    0  0.26187508863E+02  0.39355399570E+02  0.42847916958E+03  0.44883484513E+03  0.12499474525E+03 0.  0.
          2    1    1    2  501    0 -0.46583676339E+01  0.22169668975E+02 -0.43516638075E+02  0.49060089695E+02  0.00000000000E+00 0. -1.
          1    1    1    2  502    0 -0.21529141229E+02 -0.61525068544E+02  0.12844932599E+04  0.12861460931E+04  0.00000000000E+00 0. -1.
         22    1    3    3    0    0  0.63968768207E+02  0.62414139656E+02  0.28659040363E+03  0.30020257758E+03  0.00000000000E+00 0.  1.
         22    1    3    3    0    0 -0.37781259343E+02 -0.23058740087E+02  0.14188876595E+03  0.14863226755E+03  0.00000000000E+00 0.  1.
</event>
<event>
 7    1  0.7527776E-006  0.1125563E+03  0.7818608E-02  0.1373998E+00
          2   -1    0    0  502    0  0.00000000000E+00  0.00000000000E+00  0.20414180475E+04  0.20414180475E+04  0.00000000000E+00 0. -1.
          1   -1    0    0  501    0 -0.00000000000E+00 -0.00000000000E+00 -0.94433700041E+02  0.94433700041E+02  0.00000000000E+00 0. -1.
         25    2    1    2    0    0 -0.24583735776E+02 -0.14510761529E+03  0.49502973231E+03  0.53135630894E+03  0.12499804438E+03 0.  0.
          2    1    1    2  501    0  0.11519558099E+02  0.37030059664E+02 -0.69266617457E+02  0.79383813409E+02  0.00000000000E+00 0. -1.
          1    1    1    2  502    0  0.13064177677E+02  0.10807755562E+03  0.15212212326E+04  0.15251116252E+04  0.00000000000E+00 0. -1.
         22    1    3    3    0    0 -0.49580521507E+02 -0.94800852672E+02  0.43962770384E+03  0.45245767510E+03  0.00000000000E+00 0.  1.
         22    1    3    3    0    0  0.24996785731E+02 -0.50306762616E+02  0.55402028472E+02  0.78898633832E+02  0.00000000000E+00 0.  1.
</event>
<event>
 7    1  0.7527776E-006  0.8120846E+02  0.7818608E-02  0.1455236E+00
          2   -1    0    0  502    0  0.00000000000E+00  0.00000000000E+00  0.11109592716E+03  0.11109592716E+03  0.00000000000E+00 0. -1.
          1   -1    0    0  501    0 -0.00000000000E+00 -0.00000000000E+00 -0.38048472684E+03  0.38048472684E+03  0.00000000000E+00 0. -1.
         25    2    1    2    0    0 -0.72189815474E+02  0.29126123017E+02 -0.11124489291E+03  0.18455440844E+03  0.12500081190E+03 0.  0.
          2    1    1    2  501    0  0.11241868991E+02  0.26321434670E+02 -0.20850383837E+03  0.21045913655E+03  0.00000000000E+00 0. -1.
          1    1    1    2  502    0  0.60947946483E+02 -0.55447557687E+02  0.50359931589E+02  0.96567109015E+02  0.00000000000E+00 0. -1.
         22    1    3    3    0    0 -0.90113882971E+02 -0.21960981020E+02 -0.76448702195E+02  0.12019650851E+03  0.00000000000E+00 0.  1.
         22    1    3    3    0    0  0.17924067496E+02  0.51087104037E+02 -0.34796190714E+02  0.64357899925E+02  0.00000000000E+00 0.  1.
</event>
<event>
 7    1  0.7527776E-006  0.4832619E+02  0.7818608E-02  0.1552545E+00
          2   -1    0    0  502    0  0.00000000000E+00  0.00000000000E+00  0.10135510107E+04  0.10135510107E+04  0.00000000000E+00 0. -1.
          1   -1    0    0  501    0 -0.00000000000E+00 -0.00000000000E+00 -0.26657796390E+04  0.26657796390E+04  0.00000000000E+00 0. -1.
         25    2    1    2    0    0  0.30132591367E+02 -0.95734498998E+01 -0.60378550560E+03  0.61739948648E+03  0.12500226046E+03 0.  0.
          2    1    1    2  501    0 -0.35905296055E+02  0.33604666840E+02 -0.20547412038E+04  0.20553296277E+04  0.00000000000E+00 0. -1.
          1    1    1    2  502    0  0.57727046886E+01 -0.24031216940E+02  0.10062980810E+04  0.10066015356E+04  0.00000000000E+00 0. -1.
         22    1    3    3    0    0  0.23976016142E+02  0.49141318443E+02 -0.14746157221E+03  0.15727248268E+03  0.00000000000E+00 0. -1.
         22    1    3    3    0    0  0.61565752242E+01 -0.58714768343E+02 -0.45632393339E+03  0.46012700380E+03  0.00000000000E+00 0. -1.
</event>
<event>
 7    1  0.7527776E-006  0.7881389E+02  0.7818608E-02  0.1372072E+00
          2   -1    0    0  502    0  0.00000000000E+00  0.00000000000E+00  0.24234313299E+03  0.24234313299E+03  0.00000000000E+00 0. -1.
          1   -1    0    0  501    0 -0.00000000000E+00 -0.00000000000E+00 -0.62867378081E+03  0.62867378081E+03  0.00000000000E+00 0. -1.
         25    2    1    2    0    0  0.74365062873E+02  0.51524576022E+02 -0.18040508099E+03  0.23738973047E+03  0.12499178522E+03 0.  0.
          2    1    1    2  501    0  0.45597646613E+01 -0.56084700967E+02 -0.41048438871E+03  0.41432320537E+03  0.00000000000E+00 0. -1.
          1    1    1    2  502    0 -0.78924827534E+02  0.45601249450E+01  0.20455882188E+03  0.21930397796E+03  0.00000000000E+00 0. -1.
         22    1    3    3    0    0  0.10941816342E+03  0.31869132361E+02 -0.13781792357E+03  0.17883443779E+03  0.00000000000E+00 0. -1.
         22    1    3    3    0    0 -0.35053100543E+02  0.19655443661E+02 -0.42587157422E+02  0.58555292677E+02  0.00000000000E+00 0. -1.
</event>
<event>
 7    1  0.7527776E-006  0.8624984E+02  0.7818608E-02  0.1420068E+00
          2   -1    0    0  502    0  0.00000000000E+00  0.00000000000E+00  0.51083072196E+03  0.51083072196E+03  0.00000000000E+00 0. -1.
          1   -1    0    0  501    0 -0.00000000000E+00 -0.00000000000E+00 -0.81899503174E+03  0.81899503174E+03  0.00000000000E+00 0. -1.
         25    2    1    2    0    0 -0.60954971158E+02  0.16995322267E+02 -0.45155615147E+03  0.47279163262E+03  0.12499848181E+03 0.  0.
          2    1    1    2  501    0 -0.89293750685E+01  0.33925384140E+02 -0.35220645647E+03  0.35394922434E+03  0.00000000000E+00 0. -1.
          1    1    1    2  502    0  0.69884346227E+02 -0.50920706407E+02  0.49559829817E+03  0.50308489675E+03  0.00000000000E+00 0. -1.
         22    1    3    3    0    0 -0.69749171204E+02  0.93938111267E+01 -0.10719287828E+03  0.12823222576E+03  0.00000000000E+00 0.  1.
         22    1    3    3    0    0  0.87942000455E+01  0.76015111408E+01 -0.34436327320E+03  0.34455940686E+03  0.00000000000E+00 0.  1.
</event>
<event>
 7    1  0.7527776E-006  0.5492978E+02  0.7818608E-02  0.1525947E+00
          2   -1    0    0  502    0  0.00000000000E+00  0.00000000000E+00  0.52990007983E+03  0.52990007983E+03  0.00000000000E+00 0. -1.
          1   -1    0    0  501    0 -0.00000000000E+00 -0.00000000000E+00 -0.52673631388E+03  0.52673631388E+03  0.00000000000E+00 0. -1.
         25    2    1    2    0    0  0.73914712572E+02  0.90151243619E+01  0.32859002898E+03  0.35936187052E+03  0.12499955855E+03 0.  0.
          2    1    1    2  501    0 -0.54295482821E+02  0.78297465989E+01 -0.50897023443E+03  0.51191796601E+03  0.00000000000E+00 0. -1.
          1    1    1    2  502    0 -0.19619229751E+02 -0.16844870961E+02  0.18354397140E+03  0.18535655718E+03  0.00000000000E+00 0. -1.
         22    1    3    3    0    0 -0.48384143444E+01  0.15733130898E+02 -0.44662504641E+01  0.17055469927E+02  0.00000000000E+00 0. -1.
         22    1    3    3    0    0  0.78753126917E+02 -0.67180065361E+01  0.33305627944E+03  0.34230640060E+03  0.00000000000E+00 0. -1.
</event>
<event>
 7    1  0.7527776E-006  0.1351358E+03  0.7818608E-02  0.1255417E+00
          2   -1    0    0  502    0  0.00000000000E+00  0.00000000000E+00  0.19182258592E+03  0.19182258592E+03  0.00000000000E+00 0. -1.
          1   -1    0    0  501    0 -0.00000000000E+00 -0.00000000000E+00 -0.13995342917E+04  0.13995342917E+04  0.00000000000E+00 0. -1.
         25    2    1    2    0    0  0.43946768987E+01 -0.13876838976E+03 -0.37548914555E+03  0.41939581154E+03  0.12499907652E+03 0.  0.
          2    1    1    2  501    0 -0.92503176028E+02  0.10542525930E+03 -0.98366210952E+03  0.99361082350E+03  0.00000000000E+00 0. -1.
          1    1    1    2  502    0  0.88108499130E+02  0.33343130458E+02  0.15143954924E+03  0.17835024262E+03  0.00000000000E+00 0. -1.
         22    1    3    3    0    0  0.39625841899E+02 -0.89728052633E+01 -0.36176052031E+02  0.54400600374E+02  0.00000000000E+00 0. -1.
         22    1    3    3    0    0 -0.35231165000E+02 -0.12979558450E+03 -0.33931309352E+03  0.36499521117E+03  0.00000000000E+00 0. -1.
</event>
<event>
 7    1  0.7527776E-006  0.5467916E+02  0.7818608E-02  0.1524227E+00
          2   -1    0    0  502    0  0.00000000000E+00  0.00000000000E+00  0.24385897711E+04  0.24385897711E+04  0.00000000000E+00 0. -1.
          1   -1    0    0  501    0 -0.00000000000E+00 -0.00000000000E+00 -0.29217282412E+02  0.29217282412E+02  0.00000000000E+00 0. -1.
         25    2    1    2    0    0  0.33657295979E+02  0.66991357877E+02  0.65738147351E+03  0.67334700457E+03  0.12500052498E+03 0.  0.
          2    1    1    2  501    0 -0.21877784941E+02 -0.14552168799E+02 -0.12537335063E+02  0.29113362245E+02  0.00000000000E+00 0. -1.
          1    1    1    2  502    0 -0.11779511038E+02 -0.52439189078E+02  0.17645283503E+04  0.17653466867E+04  0.00000000000E+00 0. -1.
         22    1    3    3    0    0 -0.36840196867E+02  0.48153472836E+02  0.16904918275E+03  0.17959282625E+03  0.00000000000E+00 0. -1.
         22    1    3    3    0    0  0.70497492846E+02  0.18837885041E+02  0.48833229076E+03  0.49375417832E+03  0.00000000000E+00 0. -1.
</event>
<event>
 7    1  0.7527776E-006  0.9352051E+02  0.7818608E-02  0.1344475E+00
          2   -1    0    0  502    0  0.00000000000E+00  0.00000000000E+00  0.27111491775E+04  0.27111491775E+04  0.00000000000E+00 0. -1.
          1   -1    0    0  501    0 -0.00000000000E+00 -0.00000000000E+00 -0.65240359636E+02  0.65240359636E+02  0.00000000000E+00 0. -1.
         25    2    1    2    0    0 -0.83537267455E+02  0.31659422583E+02  0.23060013817E+04  0.23111135386E+04  0.12499048661E+03 0.  0.
          2    1    1    2  501    0 -0.34994631014E+02 -0.48534980322E+02 -0.36633319788E+02  0.70158881358E+02  0.00000000000E+00 0. -1.
          1    1    1    2  502    0  0.11853189847E+03  0.16875557739E+02  0.37654075593E+03  0.39511711717E+03  0.00000000000E+00 0. -1.
         22    1    3    3    0    0 -0.34829721577E+02  0.38480307313E+02  0.20364878527E+04  0.20371491398E+04  0.00000000000E+00 0.  1.
         22    1    3    3    0    0 -0.48707545878E+02 -0.68208847301E+01  0.26951352906E+03  0.27396439885E+03  0.00000000000E+00 0.  1.
</event>
<event>
 7    1  0.7527776E-006  0.8393580E+02  0.7818608E-02  0.1372153E+00
          2   -1    0    0  502    0  0.00000000000E+00  0.00000000000E+00  0.27362720754E+04  0.27362720754E+04  0.00000000000E+00 0. -1.
          1   -1    0    0  501    0 -0.00000000000E+00 -0.00000000000E+00 -0.17398197079E+03  0.17398197079E+03  0.00000000000E+00 0. -1.
         25    2    1    2    0    0 -0.87551960331E+02  0.36799535119E+02  0.52990746063E+02  0.16568562881E+03  0.12499662748E+03 0.  0.
          2    1    1    2  501    0  0.82834813899E+02  0.15790088175E+02 -0.10222096633E+03  0.13251437369E+03  0.00000000000E+00 0. -1.
          1    1    1    2  502    0  0.47171464324E+01 -0.52589623294E+02  0.26115203249E+04  0.26120540437E+04  0.00000000000E+00 0. -1.
         22    1    3    3    0    0 -0.55758206323E+02  0.76423535988E+01  0.91786994598E+02  0.10766724441E+03  0.00000000000E+00 0.  1.
         22    1    3    3    0    0 -0.31793754008E+02  0.29157181520E+02 -0.38796248534E+02  0.58018384400E+02  0.00000000000E+00 0.  1.
</event>
<event>
 7    1  0.7527776E-006  0.1221859E+03  0.7818608E-02  0.1270652E+00
          2   -1    0    0  502    0  0.00000000000E+00  0.00000000000E+00  0.16753149902E+04  0.16753149902E+04  0.00000000000E+00 0. -1.
          1   -1    0    0  501    0 -0.00000000000E+00 -0.00000000000E+00 -0.27955347357E+03  0.27955347357E+03  0.00000000000E+00 0. -1.
         25    2    1    2    0    0 -0.50899440471E+02 -0.38496209495E+02  0.11310093162E+03  0.18025262640E+03  0.12500590948E+03 0.  0.
          2    1    1    2  501    0  0.23571478638E+02 -0.86618636611E+02 -0.23499983374E+03  0.25156177108E+03  0.00000000000E+00 0. -1.
          1    1    1    2  502    0  0.27327961833E+02  0.12511484611E+03  0.15176604188E+04  0.15230540663E+04  0.00000000000E+00 0. -1.
         22    1    3    3    0    0 -0.69202925458E+02 -0.50441792298E+02  0.24608622865E+02  0.89101086534E+02  0.00000000000E+00 0. -1.
         22    1    3    3    0    0  0.18303484987E+02  0.11945582803E+02  0.88492308753E+02  0.91151539864E+02  0.00000000000E+00 0. -1.
</event>
<event>
 7    1  0.7527776E-006  0.9466488E+02  0.7818608E-02  0.1391608E+00
          2   -1    0    0  502    0  0.00000000000E+00  0.00000000000E+00  0.60542810483E+03  0.60542810483E+03  0.00000000000E+00 0. -1.
          1   -1    0    0  501    0 -0.00000000000E+00 -0.00000000000E+00 -0.78591848000E+02  0.78591848000E+02  0.00000000000E+00 0. -1.
         25    2    1    2    0    0 -0.17988691181E+02 -0.79474675840E+02  0.19225509644E+03  0.24336498590E+03  0.12499870856E+03 0.  0.
          2    1    1    2  501    0 -0.17887391966E+02  0.97085294014E+02 -0.48890184272E+01  0.98840354139E+02  0.00000000000E+00 0. -1.
          1    1    1    2  502    0  0.35876083147E+02 -0.17610618174E+02  0.33947017881E+03  0.34181461279E+03  0.00000000000E+00 0. -1.
         22    1    3    3    0    0  0.25360374764E+01 -0.76994031800E+02  0.34753364884E+02  0.84512181310E+02  0.00000000000E+00 0. -1.
         22    1    3    3    0    0 -0.20524728657E+02 -0.24806440398E+01  0.15750173156E+03  0.15885280459E+03  0.00000000000E+00 0. -1.
</event>
<event>
 7    1  0.7527776E-006  0.5352039E+02  0.7818608E-02  0.1478738E+00
          2   -1    0    0  502    0  0.00000000000E+00  0.00000000000E+00  0.17997358191E+04  0.17997358191E+04  0.00000000000E+00 0. -1.
          1   -1    0    0  501    0 -0.00000000000E+00 -0.00000000000E+00 -0.44354650721E+03  0.44354650721E+03  0.00000000000E+00 0. -1.
         25    2    1    2    0    0  0.70396439967E+02  0.34070600961E+02 -0.26598134962E+02  0.14983066249E+03  0.12500120811E+03 0.  0.
          2    1    1    2  501    0 -0.34264140297E+02 -0.40348668084E+02 -0.35316593581E+03  0.35711094150E+03  0.00000000000E+00 0. -1.
          1    1    1    2  502    0 -0.36132299670E+02  0.62780671230E+01  0.17359533827E+04  0.17363407223E+04  0.00000000000E+00 0. -1.
         22    1    3    3    0    0  0.36271157308E+01 -0.21840746289E+02  0.36220373110E+02  0.42451025844E+02  0.00000000000E+00 0. -1.
         22    1    3    3    0    0  0.66769324236E+02  0.55911347250E+02 -0.62818508072E+02  0.10737963665E+03  0.00000000000E+00 0. -1.
</event>
<event>
 7    1  0.7527776E-006  0.9939875E+02  0.7818608E-02  0.1449164E+00
          2   -1    0    0  502    0  0.00000000000E+00  0.00000000000E+00  0.13636334419E+04  0.13636334419E+04  0.00000000000E+00 0. -1.
          1   -1    0    0  501    0 -0.00000000000E+00 -0.00000000000E+00 -0.81441780036E+02  0.81441780036E+02  0.00000000000E+00 0. -1.
         25    2    1    2    0    0 -0.13239905472E+02  0.88687618856E+02  0.67255834979E+03  0.68992807843E+03  0.12500092282E+03 0.  0.
          2    1    1    2  501    0  0.37345911255E+02 -0.92775422683E+02 -0.38049088774E+02  0.10700340788E+03  0.00000000000E+00 0. -1.
          1    1    1    2  502    0 -0.24106005784E+02  0.40878038271E+01  0.64768240090E+03  0.64814373567E+03  0.00000000000E+00 0. -1.
         22    1    3    3    0    0  0.19065752548E+02  0.11179109772E+03  0.46743541626E+03  0.48099544782E+03  0.00000000000E+00 0. -1.
         22    1    3    3    0    0 -0.32305658020E+02 -0.23103478863E+02  0.20512293353E+03  0.20893263062E+03  0.00000000000E+00 0. -1.
</event>
<event>
 7    1  0.7527776E-006  0.3666242E+02  0.7818608E-02  0.1612344E+00
          2   -1    0    0  502    0  0.00000000000E+00  0.00000000000E+00  0.29222524644E+04  0.29222524644E+04  0.00000000000E+00 0. -1.
          1   -1    0    0  501    0 -0.00000000000E+00 -0.00000000000E+00 -0.31706760396E+03  0.31706760396E+03  0.00000000000E+00 0. -1.
         25    2    1    2    0    0 -0.31151098786E+02 -0.50283681071E+02  0.18711666730E+04  0.18762696764E+04  0.12499736275E+03 0.  0.
          2    1    1    2  501    0  0.18370995319E+02  0.31712785774E+02 -0.31332672817E+03  0.31546288662E+03  0.00000000000E+00 0. -1.
          1    1    1    2  502    0  0.12780103468E+02  0.18570895297E+02  0.10473449156E+04  0.10475875054E+04  0.00000000000E+00 0. -1.
         22    1    3    3    0    0 -0.68726397543E+02 -0.53871909132E+02  0.16125735904E+04  0.16149362479E+04  0.00000000000E+00 0. -1.
         22    1    3    3    0    0  0.37575298756E+02  0.35882280611E+01  0.25859308259E+03  0.26133342844E+03  0.00000000000E+00 0. -1.
</event>
<event>
 7    1  0.7527776E-006  0.3831171E+02  0.7818608E-02  0.1550742E+00
          2   -1    0    0  502    0  0.00000000000E+00  0.00000000000E+00  0.12260059213E+04  0.12260059213E+04  0.00000000000E+00 0. -1.
          1   -1    0    0  501    0 -0.00000000000E+00 -0.00000000000E+00 -0.12492304848E+03  0.12492304848E+03  0.00000000000E+00 0. -1.
         25    2    1    2    0    0 -0.38167290140E+02  0.50589612923E+02  0.11443071115E+03  0.18092146716E+03  0.12498855408E+03 0.  0.
          2    1    1    2  501    0  0.32274548326E+02 -0.19607358758E+02 -0.87547514937E+02  0.95344965042E+02  0.00000000000E+00 0. -1.
          1    1    1    2  502    0  0.58927418138E+01 -0.30982254165E+02  0.10741996766E+04  0.10746625376E+04  0.00000000000E+00 0. -1.
         22    1    3    3    0    0 -0.34408204248E+02  0.76546016418E+02  0.12669385743E+03  0.15196891346E+03  0.00000000000E+00 0.  1.
         22    1    3    3    0    0 -0.37590858925E+01 -0.25956403495E+02 -0.12263146273E+02  0.28952553698E+02  0.00000000000E+00 0.  1.
</event>
<event>
 7    1  0.7527776E-006  0.4252682E+02  0.7818608E-02  0.1501070E+00
          2   -1    0    0  502    0  0.00000000000E+00  0.00000000000E+00  0.25920120532E+04  0.25920120532E+04  0.00000000000E+00 0. -1.
          1   -1    0    0  501    0 -0.00000000000E+00 -0.00000000000E+00 -0.30991867912E+02  0.30991867912E+02  0.00000000000E+00 0. -1.
         25    2    1    2    0    0 -0.19391706567E+02  0.67694100274E+02  0.16015571281E+04  0.16079706644E+04  0.12500357345E+03 0.  0.
          2    1    1    2  501    0  0.30176052693E+02 -0.29691241806E+02 -0.11021420397E+02  0.43745122055E+02  0.00000000000E+00 0. -1.
          1    1    1    2  502    0 -0.10784346126E+02 -0.38002858469E+02  0.97048447761E+03  0.97128813472E+03  0.00000000000E+00 0. -1.
         22    1    3    3    0    0 -0.54146092101E+02  0.52317859633E+02  0.48880933742E+03  0.49457408553E+03  0.00000000000E+00 0. -1.
         22    1    3    3    0    0  0.34754385534E+02  0.15376240641E+02  0.11127477907E+04  0.11133965788E+04  0.00000000000E+00 0. -1.
</event>
<event>
 7    1  0.7527776E-006  0.1039665E+03  0.7818608E-02  0.1438938E+00
          2   -1    0    0  502    0  0.00000000000E+00  0.00000000000E+00  0.25144652418E+03  0.25144652418E+03  0.00000000000E+00 0. -1.
          1   -1    0    0  501    0 -0.00000000000E+00 -0.00000000000E+00 -0.75134878453E+03  0.75134878453E+03  0.00000000000E+00 0. -1.
         25    2    1    2    0    0 -0.69212543373E+02 -0.96310287731E+02 -0.13543908336E+02  0.17284198265E+03  0.12499946333E+03 0.  0.
          2    1    1    2  501    0  0.44159679144E+02  0.93401130613E+02 -0.65314746265E+03  0.66126806699E+03  0.00000000000E+00 0. -1.
          1    1    1    2  502    0  0.25052864229E+02  0.29091571183E+01  0.16678911063E+03  0.16868525906E+03  0.00000000000E+00 0. -1.
         22    1    3    3    0    0 -0.77649021904E+02 -0.20766413420E+01 -0.46956267346E+01  0.77818583593E+02  0.00000000000E+00 0.  1.
         22    1    3    3    0    0  0.84364785316E+01 -0.94233646389E+02 -0.88482816018E+01  0.95023399061E+02  0.00000000000E+00 0.  1.
</event>
<event>
 7    1  0.7527776E-006  0.7641753E+02  0.7818608E-02  0.1399035E+00
          2   -1    0    0  502    0  0.00000000000E+00  0.00000000000E+00  0.78345934700E+03  0.78345934700E+03  0.00000000000E+00 0. -1.
          1   -1    0    0  501    0 -0.00000000000E+00 -0.00000000000E+00 -0.12041133864E+04  0.12041133864E+04  0.00000000000E+00 0. -1.
         25    2    1    2    0    0  0.30633273563E+02 -0.31690104816E+02 -0.98919330671E+01  0.13291285275E+03  0.12500126357E+03 0.  0.
          2    1    1    2  501    0  0.44718543069E+02  0.13325503469E+02 -0.11301452059E+04  0.11311080865E+04  0.00000000000E+00 0. -1.
          1    1    1    2  502    0 -0.75351816632E+02  0.18364601347E+02  0.71938309953E+03  0.72355179409E+03  0.00000000000E+00 0. -1.
         22    1    3    3    0    0 -0.33306084077E+02  0.12695936217E+02  0.28954353538E+02  0.45922071184E+02  0.00000000000E+00 0. -1.
         22    1    3    3    0    0  0.63939357640E+02 -0.44386041034E+02 -0.38846286605E+02  0.86990781564E+02  0.00000000000E+00 0. -1.
</event>
<event>
 7    1  0.7527776E-006  0.6544755E+02  0.7818608E-02  0.1439480E+00
          2   -1    0    0  502    0  0.00000000000E+00  0.00000000000E+00  0.20618859545E+03  0.20618859545E+03  0.00000000000E+00 0. -1.
          1   -1    0    0  501    0 -0.00000000000E+00 -0.00000000000E+00 -0.27280064525E+03  0.27280064525E+03  0.00000000000E+00 0. -1.
         25    2    1    2    0    0 -0.35812004820E+01  0.37787711908E+02  0.11459529658E+02  0.13113365336E+03  0.12499591216E+03 0.  0.
          2    1    1    2  501    0  0.39413298846E+02 -0.55346489222E+02 -0.20438824502E+03  0.21538615716E+03  0.00000000000E+00 0. -1.
          1    1    1    2  502    0 -0.35832098364E+02  0.17558777314E+02  0.12631666556E+03  0.13246943018E+03  0.00000000000E+00 0. -1.
         22    1    3    3    0    0  0.36282514265E+02  0.67706181602E+02 -0.88284900802E+01  0.77320696490E+02  0.00000000000E+00 0. -1.
         22    1    3    3    0    0 -0.39863714747E+02 -0.29918469695E+02  0.20288019738E+02  0.53812956871E+02  0.00000000000E+00 0. -1.
</event>
<event>
 7    1  0.7527776E-006  0.1037931E+03  0.7818608E-02  0.1300087E+00
          2   -1    0    0  502    0  0.00000000000E+00  0.00000000000E+00  0.29833930587E+04  0.29833930587E+04  0.00000000000E+00 0. -1.
          1   -1    0    0  501    0 -0.00000000000E+00 -0.00000000000E+00 -0.10354617379E+03  0.10354617379E+03  0.00000000000E+00 0. -1.
         25    2    1    2    0    0  0.29066082261E+02  0.16231027840E+02  0.13550285237E+04  0.13611891472E+04  0.12500124378E+03 0.  0.
          2    1    1    2  501    0 -0.47184878294E+02 -0.94202681243E+02 -0.71561765600E+02  0.12736421864E+03  0.00000000000E+00 0. -1.
          1    1    1    2  502    0  0.18118796033E+02  0.77971653403E+02  0.15963801268E+04  0.15983858667E+04  0.00000000000E+00 0. -1.
         22    1    3    3    0    0  0.28318204904E+02  0.58663369805E+02  0.11484753882E+04  0.11503212721E+04  0.00000000000E+00 0. -1.
         22    1    3    3    0    0  0.74787735705E+00 -0.42432341965E+02  0.20655313551E+03  0.21086787511E+03  0.00000000000E+00 0. -1.
</event>
<event>
 7    1  0.7527776E-006  0.2600255E+03  0.7818608E-02  0.1146464E+00
          2   -1    0    0  502    0  0.00000000000E+00  0.00000000000E+00  0.88787089488E+03  0.88787089488E+03  0.00000000000E+00 0. -1.
          1   -1    0    0  501    0 -0.00000000000E+00 -0.00000000000E+00 -0.16280915565E+03  0.16280915565E+03  0.00000000000E+00 0. -1.
         25    2    1    2    0    0 -0.22011228894E+03  0.19759240040E+02  0.15759102693E+03  0.29883106617E+03  0.12500090812E+03 0.  0.
          2    1    1    2  501    0 -0.16509414895E+02  0.15908310932E+03  0.74292991146E+02  0.17635034728E+03  0.00000000000E+00 0. -1.
          1    1    1    2  502    0  0.23662170383E+03 -0.17884234936E+03  0.49317772116E+03  0.57549863709E+03  0.00000000000E+00 0. -1.
         22    1    3    3    0    0 -0.86838808525E+02 -0.53286831360E+02  0.65731241955E+02  0.12124793290E+03  0.00000000000E+00 0.  1.
         22    1    3    3    0    0 -0.13327348041E+03  0.73046071400E+02  0.91859784972E+02  0.17758313327E+03  0.00000000000E+00 0.  1.
</event>
<event>
 7    1  0.7527776E-006  0.9709799E+02  0.7818608E-02  0.1328622E+00
          2   -1    0    0  502    0  0.00000000000E+00  0.00000000000E+00  0.33980930044E+04  0.33980930044E+04  0.00000000000E+00 0. -1.
          1   -1    0    0  501    0 -0.00000000000E+00 -0.00000000000E+00 -0.44977644865E+03  0.44977644865E+03  0.00000000000E+00 0. -1.
         25    2    1    2    0    0  0.61187585538E+02 -0.68391338535E+02  0.19541736424E+03  0.24946853035E+03  0.12500122231E+03 0.  0.
          2    1    1    2  501    0 -0.59251227465E+02 -0.29441419727E+02 -0.41940313655E+03  0.42458979745E+03  0.00000000000E+00 0. -1.
          1    1    1    2  502    0 -0.19363580728E+01  0.97832758261E+02  0.31723023281E+04  0.31738111252E+04  0.00000000000E+00 0. -1.
         22    1    3    3    0    0 -0.41093480886E+01 -0.57969521132E+02  0.16821054027E+03  0.17796667660E+03  0.00000000000E+00 0. -1.
         22    1    3    3    0    0  0.65296933626E+02 -0.10421817403E+02  0.27206823962E+02  0.71501853746E+02  0.00000000000E+00 0. -1.
</event>
<event>
 7    1  0.7527776E-006  0.5159459E+02  0.7818608E-02  0.1476661E+00
          2   -1    0    0  502    0  0.00000000000E+00  0.00000000000E+00  0.70509127411E+03  0.70509127411E+03  0.00000000000E+00 0. -1.
          1   -1    0    0  501    0 -0.00000000000E+00 -0.00000000000E+00 -0.44839502240E+03  0.44839502240E+03  0.00000000000E+00 0. -1.
         25    2    1    2    0    0 -0.73022437559E+02  0.59110492106E+01 -0.10741740811E+03  0.18036330533E+03  0.12500082181E+03 0.  0.
          2    1    1    2  501    0  0.26515139632E+02 -0.28060789808E+02 -0.30228298388E+03  0.30473835154E+03  0.00000000000E+00 0. -1.
          1    1    1    2  502    0  0.46507297928E+02  0.22149740598E+02  0.66639664370E+03  0.66838463964E+03  0.00000000000E+00 0. -1.
         22    1    3    3    0    0 -0.42321216549E+02 -0.17435555090E+02  0.17973488542E+02  0.49174487713E+02  0.00000000000E+00 0. -1.
         22    1    3    3    0    0 -0.30701221010E+02  0.23346604301E+02 -0.12539089665E+03  0.13118881762E+03  0.00000000000E+00 0. -1.
</event>
<event>
 7    1  0.7527776E-006  0.9271942E+02  0.7818608E-02  0.1410238E+00
          2   -1    0    0  502    0  0.00000000000E+00  0.00000000000E+00  0.30258524930E+04  0.30258524930E+04  0.00000000000E+00 0. -1.
          1   -1    0    0  501    0 -0.00000000000E+00 -0.00000000000E+00 -0.91149949637E+02  0.91149949637E+02  0.00000000000E+00 0. -1.
         25    2    1    2    0    0 -0.10832672500E+02  0.10899781840E+03  0.58731443132E+03  0.61037641008E+03  0.12499299795E+03 0.  0.
          2    1    1    2  501    0 -0.25222577156E+02 -0.24573835379E+02 -0.74812766234E+02  0.82686164352E+02  0.00000000000E+00 0. -1.
          1    1    1    2  502    0  0.36055249655E+02 -0.84423983024E+02  0.24222008783E+04  0.24239398682E+04  0.00000000000E+00 0. -1.
         22    1    3    3    0    0 -0.34363920865E+02  0.12983210288E+03  0.45702002169E+03  0.47634499495E+03  0.00000000000E+00 0. -1.
         22    1    3    3    0    0  0.23531248365E+02 -0.20834284476E+02  0.13029440964E+03  0.13403141513E+03  0.00000000000E+00 0. -1.
</event>
<event>
 7    1  0.7527776E-006  0.3753006E+02  0.7818608E-02  0.1617460E+00
          2   -1    0    0  502    0  0.00000000000E+00  0.00000000000E+00  0.58436886484E+03  0.58436886484E+03  0.00000000000E+00 0. -1.
          1   -1    0    0  501    0 -0.00000000000E+00 -0.00000000000E+00 -0.87219425435E+02  0.87219425435E+02  0.00000000000E+00 0. -1.
         25    2    1    2    0    0 -0.19176167096E+02 -0.45808617062E+02  0.40221603212E+03  0.42410894338E+03  0.12499801829E+03 0.  0.
          2    1    1    2  501    0 -0.62766198101E+01  0.20424653982E+02 -0.72834225121E+02  0.75903799612E+02  0.00000000000E+00 0. -1.
          1    1    1    2  502    0  0.25452786906E+02  0.25383963080E+02  0.16776763241E+03  0.17157554729E+03  0.00000000000E+00 0. -1.
         22    1    3    3    0    0  0.14514043503E+02 -0.82595872900E+02  0.22988997687E+03  0.24470826947E+03  0.00000000000E+00 0. -1.
         22    1    3    3    0    0 -0.33690210599E+02  0.36787255838E+02  0.17232605525E+03  0.17940067391E+03  0.00000000000E+00 0. -1.
</event>
<event>
 7    1  0.7527776E-006  0.9441656E+02  0.7818608E-02  0.1356660E+00
          2   -1    0    0  502    0  0.00000000000E+00  0.00000000000E+00  0.25271307561E+02  0.25271307561E+02  0.00000000000E+00 0. -1.
          1   -1    0    0  501    0 -0.00000000000E+00 -0.00000000000E+00 -0.11697940780E+04  0.11697940780E+04  0.00000000000E+00 0. -1.
         25    2    1    2    0    0  0.64238227666E+01  0.10214433531E+03 -0.71853623968E+03  0.73647436510E+03  0.12500172792E+03 0.  0.
          2    1    1    2  501    0 -0.50443776360E+02 -0.17582554498E+02 -0.27415559568E+03  0.27931167437E+03  0.00000000000E+00 0. -1.
          1    1    1    2  502    0  0.44019953593E+02 -0.84561780811E+02 -0.15183093509E+03  0.17927934610E+03  0.00000000000E+00 0. -1.
         22    1    3    3    0    0 -0.26444626805E+02 -0.21192313758E+02 -0.15616930135E+03  0.15980388960E+03  0.00000000000E+00 0. -1.
         22    1    3    3    0    0  0.32868449572E+02  0.12333664907E+03 -0.56236693833E+03  0.57667047550E+03  0.00000000000E+00 0. -1.
</event>
<event>
 7    1  0.7527776E-006  0.4316238E+02  0.7818608E-02  0.1576297E+00
          2   -1    0    0  502    0  0.00000000000E+00  0.00000000000E+00  0.26368472573E+02  0.26368472573E+02  0.00000000000E+00 0. -1.
          1   -1    0    0  501    0 -0.00000000000E+00 -0.00000000000E+00 -0.18711214310E+04  0.18711214310E+04  0.00000000000E+00 0. -1.
         25    2    1    2    0    0  0.26091619948E+02  0.37785973749E+02 -0.60573327883E+03  0.62019847106E+03  0.12499914393E+03 0.  0.
          2    1    1    2  501    0 -0.39409756975E+02 -0.18031274061E+02 -0.12502160002E+04  0.12509669472E+04  0.00000000000E+00 0. -1.
          1    1    1    2  502    0  0.13318137027E+02 -0.19754699688E+02  0.11196320590E+02  0.26324485339E+02  0.00000000000E+00 0. -1.
         22    1    3    3    0    0 -0.23646687631E+02 -0.28480022146E+02 -0.82216811522E+02  0.90165856033E+02  0.00000000000E+00 0.  1.
         22    1    3    3    0    0  0.49738307579E+02  0.66265995895E+02 -0.52351646730E+03  0.53003261502E+03  0.00000000000E+00 0.  1.
</event>
<event>
 7    1  0.7527776E-006  0.7924229E+02  0.7818608E-02  0.1371029E+00
          2   -1    0    0  502    0  0.00000000000E+00  0.00000000000E+00  0.57171213380E+03  0.57171213380E+03  0.00000000000E+00 0. -1.
          1   -1    0    0  501    0 -0.00000000000E+00 -0.00000000000E+00 -0.97320190460E+03  0.97320190460E+03  0.00000000000E+00 0. -1.
         25    2    1    2    0    0  0.18112598580E+02  0.15102605597E+02 -0.19451677134E+03  0.23241930543E+03  0.12500321709E+03 0.  0.
          2    1    1    2  501    0  0.40958450060E+02  0.38845620351E+02 -0.75578127231E+03  0.75788647463E+03  0.00000000000E+00 0. -1.
          1    1    1    2  502    0 -0.59071048640E+02 -0.53948225947E+02  0.54880827285E+03  0.55460825834E+03  0.00000000000E+00 0. -1.
         22    1    3    3    0    0  0.44727750208E+02  0.16361644598E+02 -0.19967786947E+03  0.20527914314E+03  0.00000000000E+00 0. -1.
         22    1    3    3    0    0 -0.26615151627E+02 -0.12590390009E+01  0.51610981307E+01  0.27140162293E+02  0.00000000000E+00 0. -1.
</event>
<event>
 7    1  0.7527776E-006  0.1447237E+03  0.7818608E-02  0.1274786E+00
          2   -1    0    0  502    0  0.00000000000E+00  0.00000000000E+00  0.50070089189E+03  0.50070089189E+03  0.00000000000E+00 0. -1.
          1   -1    0    0  501    0 -0.00000000000E+00 -0.00000000000E+00 -0.25915458679E+03  0.25915458679E+03  0.00000000000E+00 0. -1.
         25    2    1    2    0    0 -0.66037444900E+02  0.70820756535E+02  0.16482544139E+02  0.15897699377E+03  0.12500194640E+03 0.  0.
          2    1    1    2  501    0  0.13372864833E+03 -0.97697596831E+02 -0.14718834824E+03  0.22156845820E+03  0.00000000000E+00 0. -1.
          1    1    1    2  502    0 -0.67691203430E+02  0.26876840296E+02  0.37225210920E+03  0.37931002672E+03  0.00000000000E+00 0. -1.
         22    1    3    3    0    0 -0.94000690462E+02  0.14358311281E+02  0.86227909652E+01  0.95481115590E+02  0.00000000000E+00 0.  1.
         22    1    3    3    0    0  0.27963245562E+02  0.56462445255E+02  0.78597531736E+01  0.63495878185E+02  0.00000000000E+00 0.  1.
</event>
<event>
 7    1  0.7527776E-006  0.1815172E+03  0.7818608E-02  0.1222954E+00
          2   -1    0    0  502    0  0.00000000000E+00  0.00000000000E+00  0.36654726066E+03  0.36654726066E+03  0.00000000000E+00 0. -1.
          1   -1    0    0  501    0 -0.00000000000E+00 -0.00000000000E+00 -0.25177208230E+03  0.25177208230E+03  0.00000000000E+00 0. -1.
         25    2    1    2    0    0 -0.29295401112E+02  0.61121815865E+02  0.99093149289E+02  0.17331709601E+03  0.12500106653E+03 0.  0.
          2    1    1    2  501    0 -0.15173357757E+03 -0.99626408126E+02 -0.11817037924E+03  0.21659348625E+03  0.00000000000E+00 0. -1.
          1    1    1    2  502    0  0.18102897868E+03  0.38504592261E+02  0.13385240832E+03  0.22840876069E+03  0.00000000000E+00 0. -1.
         22    1    3    3    0    0 -0.49296252057E+02  0.14388862752E+02 -0.10583901657E+02  0.52432612107E+02  0.00000000000E+00 0. -1.
         22    1    3    3    0    0  0.20000850945E+02  0.46732953113E+02  0.10967705095E+03  0.12088448391E+03  0.00000000000E+00 0. -1.
</event>
<event>
 7    1  0.7527776E-006  0.6832069E+02  0.7818608E-02  0.1452206E+00
          2   -1    0    0  502    0  0.00000000000E+00  0.00000000000E+00  0.10795630012E+03  0.10795630012E+03  0.00000000000E+00 0. -1.
          1   -1    0    0  501    0 -0.00000000000E+00 -0.00000000000E+00 -0.83630233521E+03  0.83630233521E+03  0.00000000000E+00 0. -1.
         25    2    1    2    0    0  0.65143054013E+02 -0.37451511337E+02 -0.59267324083E+02  0.15743823215E+03  0.12501179165E+03 0.  0.
          2    1    1    2  501    0  0.31776965915E+01  0.34638975406E+02 -0.70752164159E+03  0.70837619221E+03  0.00000000000E+00 0. -1.
          1    1    1    2  502    0 -0.68320750604E+02  0.28125359312E+01  0.38442930589E+02  0.78444210964E+02  0.00000000000E+00 0. -1.
         22    1    3    3    0    0  0.47823708955E+02  0.29168217318E+02 -0.67945049048E+02  0.88059194465E+02  0.00000000000E+00 0. -1.
         22    1    3    3    0    0  0.17319345058E+02 -0.66619728655E+02  0.86777249646E+01  0.69379037684E+02  0.00000000000E+00 0. -1.
</event>
<event>
 7    1  0.7527776E-006  0.1448590E+03  0.7818608E-02  0.1309039E+00
          2   -1    0    0  502    0  0.00000000000E+00  0.00000000000E+00  0.26702461657E+03  0.26702461657E+03  0.00000000000E+00 0. -1.
          1   -1    0    0  501    0 -0.00000000000E+00 -0.00000000000E+00 -0.17744115796E+04  0.17744115796E+04  0.00000000000E+00 0. -1.
         25    2    1    2    0    0 -0.90386285459E+01 -0.11144037745E+03 -0.21407830327E+03  0.27194899056E+03  0.12500431594E+03 0.  0.
          2    1    1    2  501    0  0.53776973723E+02  0.13956525976E+03 -0.15247608600E+04  0.15320790139E+04  0.00000000000E+00 0. -1.
          1    1    1    2  502    0 -0.44738345177E+02 -0.28124882313E+02  0.23145220020E+03  0.23740819175E+03  0.00000000000E+00 0. -1.
         22    1    3    3    0    0  0.39237121862E+02  0.56931907606E+01 -0.66766274059E+02  0.77651139751E+02  0.00000000000E+00 0.  1.
         22    1    3    3    0    0 -0.48275750407E+02 -0.11713356821E+03 -0.14731202921E+03  0.19429785081E+03  0.00000000000E+00 0.  1.
</event>
<event>
 7    1  0.7527776E-006  0.7432079E+02  0.7818608E-02  0.1356062E+00
          2   -1    0    0  502    0  0.00000000000E+00  0.00000000000E+00  0.70305181280E+03  0.70305181280E+03  0.00000000000E+00 0. -1.
          1   -1    0    0  501    0 -0.00000000000E+00 -0.00000000000E+00 -0.20155014167E+03  0.20155014167E+03  0.00000000000E+00 0. -1.
         25    2    1    2    0    0 -0.33248363188E+01 -0.19008037418E+02  0.74078406308E+02  0.14657760327E+03  0.12500009391E+03 0.  0.
          2    1    1    2  501    0 -0.48720061314E+02  0.63096357089E+02 -0.15357709429E+03  0.17303386530E+03  0.00000000000E+00 0. -1.
          1    1    1    2  502    0  0.52044897633E+02 -0.44088319671E+02  0.58100035911E+03  0.58499048589E+03  0.00000000000E+00 0. -1.
         22    1    3    3    0    0 -0.54591694618E+02 -0.36889683513E+02  0.63006652798E+02  0.91164357990E+02  0.00000000000E+00 0.  1.
         22    1    3    3    0    0  0.51266858299E+02  0.17881646095E+02  0.11071753510E+02  0.55413245283E+02  0.00000000000E+00 0.  1.
</event>
<event>
 7    1  0.7527776E-006  0.4219930E+02  0.7818608E-02  0.1532887E+00
          2   -1    0    0  502    0  0.00000000000E+00  0.00000000000E+00  0.10016351800E+03  0.10016351800E+03  0.00000000000E+00 0. -1.
          1   -1    0    0  501    0 -0.00000000000E+00 -0.00000000000E+00 -0.10407514908E+04  0.10407514908E+04  0.00000000000E+00 0. -1.
         25    2    1    2    0    0  0.62569324092E+02  0.37152371219E+02 -0.32675254448E+03  0.35733309031E+03  0.12499797239E+03 0.  0.
          2    1    1    2  501    0 -0.33207966287E+02 -0.24050685407E+02 -0.69503768698E+03  0.69624607059E+03  0.00000000000E+00 0. -1.
          1    1    1    2  502    0 -0.29361357805E+02 -0.13101685811E+02  0.81202258703E+02  0.87335847861E+02  0.00000000000E+00 0. -1.
         22    1    3    3    0    0  0.90277182458E+02  0.59179464938E+02 -0.22395697055E+03  0.24861396462E+03  0.00000000000E+00 0.  1.
         22    1    3    3    0    0 -0.27707858365E+02 -0.22027093719E+02 -0.10279557393E+03  0.10871912570E+03  0.00000000000E+00 0.  1.
</event>
<event>
 7    1  0.7527776E-006  0.9365319E+02  0.7818608E-02  0.1295274E+00
          2   -1    0    0  502    0  0.00000000000E+00  0.00000000000E+00  0.19426935950E+04  0.19426935950E+04  0.00000000000E+00 0. -1.
          1   -1    0    0  501    0 -0.00000000000E+00 -0.00000000000E+00 -0.20320881890E+04  0.20320881890E+04  0.00000000000E+00 0. -1.
         25    2    1    2    0    0 -0.23383576095E+02 -0.10501973226E+02 -0.36205458848E+02  0.13263913090E+03  0.12500088288E+03 0.  0.
          2    1    1    2  501    0 -0.27487928128E+02  0.89528397431E+02 -0.19453730649E+04  0.19476260631E+04  0.00000000000E+00 0. -1.
          1    1    1    2  502    0  0.50871504223E+02 -0.79026424206E+02  0.18921839298E+04  0.18945165900E+04  0.00000000000E+00 0. -1.
         22    1    3    3    0    0 -0.43434832467E+02  0.39901991989E+02 -0.49258407607E+02  0.76844937088E+02  0.00000000000E+00 0.  1.
         22    1    3    3    0    0  0.20051256372E+02 -0.50403965214E+02  0.13052948759E+02  0.55794193808E+02  0.00000000000E+00 0.  1.
</event>
<event>
 7    1  0.7527776E-006  0.9162700E+02  0.7818608E-02  0.1392100E+00
          2   -1    0    0  502    0  0.00000000000E+00  0.00000000000E+00  0.10805255214E+04  0.10805255214E+04  0.00000000000E+00 0. -1.
          1   -1    0    0  501    0 -0.00000000000E+00 -0.00000000000E+00 -0.28188642829E+03  0.28188642829E+03  0.00000000000E+00 0. -1.
         25    2    1    2    0    0  0.15682122314E+02  0.12875617656E+03 -0.22606922342E+02  0.18155291972E+03  0.12500523093E+03 0.  0.
          2    1    1    2  501    0  0.64554257296E+01 -0.40618122078E+02 -0.17535997293E+03  0.18011836238E+03  0.00000000000E+00 0. -1.
          1    1    1    2  502    0 -0.22137548044E+02 -0.88138054485E+02  0.99660598834E+03  0.10007406675E+04  0.00000000000E+00 0. -1.
         22    1    3    3    0    0  0.46313416854E+02  0.13983779901E+03 -0.22237147643E+02  0.14897662014E+03  0.00000000000E+00 0.  1.
         22    1    3    3    0    0 -0.30631294540E+02 -0.11081622449E+02 -0.36977469856E+00  0.32576299584E+02  0.00000000000E+00 0.  1.
</event>
<event>
 7    1  0.7527776E-006  0.1329669E+03  0.7818608E-02  0.1306274E+00
          2   -1    0    0  502    0  0.00000000000E+00  0.00000000000E+00  0.14174524372E+03  0.14174524372E+03  0.00000000000E+00 0. -1.
          1   -1    0    0  501    0 -0.00000000000E+00 -0.00000000000E+00 -0.13446760611E+04  0.13446760611E+04  0.00000000000E+00 0. -1.
         25    2    1    2    0    0  0.18461492643E+03 -0.42259386547E+02 -0.18490344546E+02  0.22767449327E+03  0.12500102091E+03 0.  0.
          2    1    1    2  501    0 -0.12919674932E+03  0.21902115766E+02 -0.11920398777E+04  0.11992208190E+04  0.00000000000E+00 0. -1.
          1    1    1    2  502    0 -0.55418177117E+02  0.20357270781E+02  0.75994049066E+01  0.59525992504E+02  0.00000000000E+00 0. -1.
         22    1    3    3    0    0  0.16710733145E+03 -0.34038536223E+02 -0.60880808806E+02  0.18107996867E+03  0.00000000000E+00 0.  1.
         22    1    3    3    0    0  0.17507594982E+02 -0.82208503239E+01  0.42390464260E+02  0.46594524595E+02  0.00000000000E+00 0.  1.
</event>
<event>
 7    1  0.7527776E-006  0.3826011E+02  0.7818608E-02  0.1538380E+00
          2   -1    0    0  502    0  0.00000000000E+00  0.00000000000E+00  0.16186915286E+04  0.16186915286E+04  0.00000000000E+00 0. -1.
          1   -1    0    0  501    0 -0.00000000000E+00 -0.00000000000E+00 -0.88241237292E+02  0.88241237292E+02  0.00000000000E+00 0. -1.
         25    2    1    2    0    0 -0.18487045304E+02  0.62191955038E+02  0.17545429976E+03  0.22498479403E+03  0.12499734448E+03 0.  0.
          2    1    1    2  501    0 -0.65783621389E+01 -0.33571062865E+02 -0.58592203553E+02  0.67847899212E+02  0.00000000000E+00 0. -1.
          1    1    1    2  502    0  0.25065407442E+02 -0.28620892173E+02  0.14135881951E+04  0.14141000727E+04  0.00000000000E+00 0. -1.
         22    1    3    3    0    0  0.12699063853E+02  0.77974576575E+02  0.47144300986E+02  0.91999380054E+02  0.00000000000E+00 0. -1.
         22    1    3    3    0    0 -0.31186109156E+02 -0.15782621537E+02  0.12830999877E+03  0.13298541398E+03  0.00000000000E+00 0. -1.
</event>
<event>
 7    1  0.7527776E-006  0.5507775E+02  0.7818608E-02  0.1492072E+00
          2   -1    0    0  502    0  0.00000000000E+00  0.00000000000E+00  0.33804459820E+03  0.33804459820E+03  0.00000000000E+00 0. -1.
          1   -1    0    0  501    0 -0.00000000000E+00 -0.00000000000E+00 -0.79630152839E+02  0.79630152839E+02  0.00000000000E+00 0. -1.
         25    2    1    2    0    0 -0.32284192109E+02  0.10988893967E+02  0.48460795797E+02  0.13833738976E+03  0.12500303927E+03 0.  0.
          2    1    1    2  501    0 -0.51254331471E+01  0.32049005501E+02 -0.22823236164E+02  0.39677562016E+02  0.00000000000E+00 0. -1.
          1    1    1    2  502    0  0.37409625256E+02 -0.43037899468E+02  0.23277688573E+03  0.23965979926E+03  0.00000000000E+00 0. -1.
         22    1    3    3    0    0 -0.73071132236E+02  0.23193291942E+02  0.56212131511E+02  0.95063783253E+02  0.00000000000E+00 0. -1.
         22    1    3    3    0    0  0.40786940127E+02 -0.12204397975E+02 -0.77513357147E+01  0.43273606508E+02  0.00000000000E+00 0. -1.
</event>
<event>
 7    1  0.7527776E-006  0.9703923E+02  0.7818608E-02  0.1308591E+00
          2   -1    0    0  502    0  0.00000000000E+00  0.00000000000E+00  0.61348200884E+03  0.61348200884E+03  0.00000000000E+00 0. -1.
          1   -1    0    0  501    0 -0.00000000000E+00 -0.00000000000E+00 -0.15069085711E+04  0.15069085711E+04  0.00000000000E+00 0. -1.
         25    2    1    2    0    0  0.14158169702E+02  0.95506274206E+02 -0.35278994649E+03  0.38653229641E+03  0.12499827053E+03 0.  0.
          2    1    1    2  501    0  0.67184534466E+02 -0.41953637453E+02 -0.11318798489E+04  0.11346479021E+04  0.00000000000E+00 0. -1.
          1    1    1    2  502    0 -0.81342704168E+02 -0.53552636753E+02  0.59124323317E+03  0.59921038141E+03  0.00000000000E+00 0. -1.
         22    1    3    3    0    0 -0.22994515452E+02  0.47975363368E+02 -0.30489976868E+03  0.30950646548E+03  0.00000000000E+00 0.  1.
         22    1    3    3    0    0  0.37152685154E+02  0.47530910837E+02 -0.47890177812E+02  0.77025830927E+02  0.00000000000E+00 0.  1.
</event>
<event>
 7    1  0.7527776E-006  0.3387411E+02  0.7818608E-02  0.1628509E+00
          2   -1    0    0  502    0  0.00000000000E+00  0.00000000000E+00  0.18216686778E+03  0.18216686778E+03  0.00000000000E+00 0. -1.
          1   -1    0    0  501    0 -0.00000000000E+00 -0.00000000000E+00 -0.42884180964E+03  0.42884180964E+03  0.00000000000E+00 0. -1.
         25    2    1    2    0    0 -0.33461204460E+02  0.14810470396E+02 -0.14522490873E+02  0.13105925080E+03  0.12500648880E+03 0.  0.
          2    1    1    2  501    0  0.26250127769E+00 -0.22191960562E+02 -0.35336238381E+03  0.35405864813E+03  0.00000000000E+00 0. -1.
          1    1    1    2  502    0  0.33198703183E+02  0.73814901663E+01  0.12120993283E+03  0.12589077848E+03  0.00000000000E+00 0. -1.
         22    1    3    3    0    0 -0.18446824202E+02  0.47317122703E+02 -0.56443304722E+02  0.75927874144E+02  0.00000000000E+00 0. -1.
         22    1    3    3    0    0 -0.15014380258E+02 -0.32506652308E+02  0.41920813848E+02  0.55131376661E+02  0.00000000000E+00 0. -1.
</event>
<event>
 7    1  0.7527776E-006  0.4904396E+02  0.7818608E-02  0.1522214E+00
          2   -1    0    0  502    0  0.00000000000E+00  0.00000000000E+00  0.60841039335E+03  0.60841039335E+03  0.00000000000E+00 0. -1.
          1   -1    0    0  501    0 -0.00000000000E+00 -0.00000000000E+00 -0.50274346801E+03  0.50274346801E+03  0.00000000000E+00 0. -1.
         25    2    1    2    0    0 -0.34562866926E+01 -0.38054834498E+02  0.15130337958E+03  0.19994544168E+03  0.12500140251E+03 0.  0.
          2    1    1    2  501    0  0.29284158367E+02 -0.48909645585E+01 -0.47650813530E+03  0.47743217997E+03  0.00000000000E+00 0. -1.
          1    1    1    2  502    0 -0.25827871674E+02  0.42945799056E+02  0.43087168105E+03  0.43377623971E+03  0.00000000000E+00 0. -1.
         22    1    3    3    0    0  0.19400163534E+02 -0.74602060608E+02  0.13168100500E+03  0.15258348820E+03  0.00000000000E+00 0.  1.
         22    1    3    3    0    0 -0.22856450226E+02  0.36547226111E+02  0.19622374579E+02  0.47361953480E+02  0.00000000000E+00 0.  1.
</event>
<event>
 7    1  0.7527776E-006  0.5070054E+02  0.7818608E-02  0.1463107E+00
          2   -1    0    0  502    0  0.00000000000E+00  0.00000000000E+00  0.20207652680E+04  0.20207652680E+04  0.00000000000E+00 0. -1.
          1   -1    0    0  501    0 -0.00000000000E+00 -0.00000000000E+00 -0.91081122834E+01  0.91081122834E+01  0.00000000000E+00 0. -1.
         25    2    1    2    0    0 -0.46878297415E+02 -0.34398618766E+01  0.13936661598E+04  0.14000498098E+04  0.12499879022E+03 0.  0.
          2    1    1    2  501    0  0.41656905804E+01  0.43092809055E+02  0.10562279378E+03  0.11415129319E+03  0.00000000000E+00 0. -1.
          1    1    1    2  502    0  0.42712606835E+02 -0.39652947179E+02  0.51236820215E+03  0.51567227730E+03  0.00000000000E+00 0. -1.
         22    1    3    3    0    0 -0.42124522147E+01  0.41046713654E+02  0.17394076784E+03  0.17876791707E+03  0.00000000000E+00 0.  1.
         22    1    3    3    0    0 -0.42665845200E+02 -0.44486575531E+02  0.12197253920E+04  0.12212818927E+04  0.00000000000E+00 0.  1.
</event>
<event>
 7    1  0.7527776E-006  0.7899442E+02  0.7818608E-02  0.1474585E+00
          2   -1    0    0  502    0  0.00000000000E+00  0.00000000000E+00  0.60061283633E+03  0.60061283633E+03  0.00000000000E+00 0. -1.
          1   -1    0    0  501    0 -0.00000000000E+00 -0.00000000000E+00 -0.10833916546E+04  0.10833916546E+04  0.00000000000E+00 0. -1.
         25    2    1    2    0    0  0.91978484810E+02  0.47969700296E+01 -0.16411931329E+03  0.22592701033E+03  0.12499924965E+03 0.  0.
          2    1    1    2  501    0 -0.74745139709E+02 -0.23714633326E+02 -0.88634920545E+03  0.88981129109E+03  0.00000000000E+00 0. -1.
          1    1    1    2  502    0 -0.17233345101E+02  0.18917663296E+02  0.56768970045E+03  0.56826618953E+03  0.00000000000E+00 0. -1.
         22    1    3    3    0    0  0.84741389842E+01 -0.43236860615E+01 -0.13747192099E+03  0.13780070520E+03  0.00000000000E+00 0. -1.
         22    1    3    3    0    0  0.83504345826E+02  0.91206560910E+01 -0.26647392296E+02  0.88126305128E+02  0.00000000000E+00 0. -1.
</event>
<event>
 7    1  0.7527776E-006  0.1135186E+03  0.7818608E-02  0.1427454E+00
          2   -1    0    0  502    0  0.00000000000E+00  0.00000000000E+00  0.86933458362E+03  0.86933458362E+03  0.00000000000E+00 0. -1.
          1   -1    0    0  501    0 -0.00000000000E+00 -0.00000000000E+00 -0.16054633552E+03  0.16054633552E+03  0.00000000000E+00 0. -1.
         25    2    1    2    0    0  0.11009574451E+03  0.34933387601E+02  0.70736600584E+02  0.18430880391E+03  0.12499861602E+03 0.  0.
          2    1    1    2  501    0 -0.11314294387E+03 -0.99285534513E+01 -0.72388974437E+02  0.13468506057E+03  0.00000000000E+00 0. -1.
          1    1    1    2  502    0  0.30471993591E+01 -0.25004834150E+02  0.71044062195E+03  0.71088705465E+03  0.00000000000E+00 0. -1.
         22    1    3    3    0    0  0.79397965978E+01 -0.29592553259E+02 -0.16950671073E+02  0.35015494117E+02  0.00000000000E+00 0. -1.
         22    1    3    3    0    0  0.10215594791E+03  0.64525940860E+02  0.87687271658E+02  0.14929330979E+03  0.00000000000E+00 0. -1.
</event>
<event>
 7    1  0.7527776E-006  0.9268943E+02  0.7818608E-02  0.1328619E+00
          2   -1    0    0  502    0  0.00000000000E+00  0.00000000000E+00  0.16028034504E+03  0.16028034504E+03  0.00000000000E+00 0. -1.
          1   -1    0    0  501    0 -0.00000000000E+00 -0.00000000000E+00 -0.10716571170E+04  0.10716571170E+04  0.00000000000E+00 0. -1.
         25    2    1    2    0    0  0.38088944293E+02 -0.11993528571E+03  0.80532756453E+00  0.17736974178E+03  0.12499654520E+03 0.  0.
          2    1    1    2  501    0 -0.71065891960E+02  0.58971558228E+02 -0.96375818236E+03  0.96817242253E+03  0.00000000000E+00 0. -1.
          1    1    1    2  502    0  0.32976947667E+02  0.60963727483E+02  0.51576082846E+02  0.86395297718E+02  0.00000000000E+00 0. -1.
         22    1    3    3    0    0  0.17309681691E+02 -0.13051926339E+02  0.52527334796E+02  0.56825159588E+02  0.00000000000E+00 0. -1.
         22    1    3    3    0    0  0.20779262602E+02 -0.10688335937E+03 -0.51722007232E+02  0.12054458220E+03  0.00000000000E+00 0. -1.
</event>
<event>
 7    1  0.7527776E-006  0.7452814E+02  0.7818608E-02  0.1455200E+00
          2   -1    0    0  502    0  0.00000000000E+00  0.00000000000E+00  0.47438298475E+03  0.47438298475E+03  0.00000000000E+00 0. -1.
          1   -1    0    0  501    0 -0.00000000000E+00 -0.00000000000E+00 -0.12728322343E+03  0.12728322343E+03  0.00000000000E+00 0. -1.
         25    2    1    2    0    0 -0.47596302690E+02 -0.77407570293E+01  0.78824132748E+02  0.15544110543E+03  0.12499346385E+03 0.  0.
          2    1    1    2  501    0 -0.25563276032E+02 -0.17879114244E+02 -0.81864734706E+02  0.87606955181E+02  0.00000000000E+00 0. -1.
          1    1    1    2  502    0  0.73159578722E+02  0.25619871274E+02  0.35014036329E+03  0.35861814757E+03  0.00000000000E+00 0. -1.
         22    1    3    3    0    0  0.22194506357E+02  0.24229262819E+02  0.71054516687E+02  0.78284082870E+02  0.00000000000E+00 0. -1.
         22    1    3    3    0    0 -0.69790809047E+02 -0.31970019848E+02  0.77696160614E+01  0.77157022560E+02  0.00000000000E+00 0. -1.
</event>
<event>
 7    1  0.7527776E-006  0.1196000E+03  0.7818608E-02  0.1313717E+00
          2   -1    0    0  502    0  0.00000000000E+00  0.00000000000E+00  0.44783859989E+03  0.44783859989E+03  0.00000000000E+00 0. -1.
          1   -1    0    0  501    0 -0.00000000000E+00 -0.00000000000E+00 -0.40229633109E+03  0.40229633109E+03  0.00000000000E+00 0. -1.
         25    2    1    2    0    0 -0.66739468147E+02  0.83343906156E+02  0.37649112497E+03  0.41081677726E+03  0.12499797598E+03 0.  0.
          2    1    1    2  501    0  0.16886713703E+02 -0.11910107364E+03 -0.35392311881E+03  0.37380717071E+03  0.00000000000E+00 0. -1.
          1    1    1    2  502    0  0.49852754444E+02  0.35757167479E+02  0.22974262643E+02  0.65510983016E+02  0.00000000000E+00 0. -1.
         22    1    3    3    0    0 -0.83460739580E+02  0.63349365891E+02  0.36915770724E+03  0.38373982074E+03  0.00000000000E+00 0. -1.
         22    1    3    3    0    0  0.16721271433E+02  0.19994540265E+02  0.73334177282E+01  0.27076956519E+02  0.00000000000E+00 0. -1.
</event>
<event>
 7    1  0.7527776E-006  0.1158815E+03  0.7818608E-02  0.1328021E+00
          2   -1    0    0  502    0  0.00000000000E+00  0.00000000000E+00  0.80514241690E+02  0.80514241690E+02  0.00000000000E+00 0. -1.
          1   -1    0    0  501    0 -0.00000000000E+00 -0.00000000000E+00 -0.13000254467E+04  0.13000254467E+04  0.00000000000E+00 0. -1.
         25    2    1    2    0    0  0.47225065262E+02 -0.15642889514E+03 -0.34627538889E+03  0.40278001976E+03  0.12499957335E+03 0.  0.
          2    1    1    2  501    0 -0.77827872410E+01  0.55186963352E+02 -0.86714629288E+03  0.86893547859E+03  0.00000000000E+00 0. -1.
          1    1    1    2  502    0 -0.39442278021E+02  0.10124193179E+03 -0.60895232556E+01  0.10882419006E+03  0.00000000000E+00 0. -1.
         22    1    3    3    0    0  0.69160900987E+02 -0.10877685313E+03 -0.14157918875E+03  0.19146879821E+03  0.00000000000E+00 0.  1.
         22    1    3    3    0    0 -0.21935835725E+02 -0.47652042014E+02 -0.20469620015E+03  0.21131122155E+03  0.00000000000E+00 0.  1.
</event>
<event>
 7    1  0.7527776E-006  0.1428878E+03  0.7818608E-02  0.1309920E+00
          2   -1    0    0  502    0  0.00000000000E+00  0.00000000000E+00  0.11623240246E+04  0.11623240246E+04  0.00000000000E+00 0. -1.
          1   -1    0    0  501    0 -0.00000000000E+00 -0.00000000000E+00 -0.21269860965E+03  0.21269860965E+03  0.00000000000E+00 0. -1.
         25    2    1    2    0    0  0.70331003306E+02  0.94765809118E+02 -0.13164076541E+02  0.17240791111E+03  0.12499674514E+03 0.  0.
          2    1    1    2  501    0 -0.12250237702E+03 -0.10489961318E+03 -0.64684863475E+02  0.17376677698E+03  0.00000000000E+00 0. -1.
          1    1    1    2  502    0  0.52171373713E+02  0.10133804061E+02  0.10274743550E+04  0.10288479462E+04  0.00000000000E+00 0. -1.
         22    1    3    3    0    0  0.58207803282E+02  0.12551659192E+03 -0.54419448155E+01  0.13846363412E+03  0.00000000000E+00 0.  1.
         22    1    3    3    0    0  0.12123200025E+02 -0.30750782802E+02 -0.77221317252E+01  0.33944276987E+02  0.00000000000E+00 0.  1.
</event>
<event>
 7    1  0.7527776E-006  0.1145256E+03  0.7818608E-02  0.1369323E+00
          2   -1    0    0  502    0  0.00000000000E+00  0.00000000000E+00  0.51986198573E+03  0.51986198573E+03  0.00000000000E+00 0. -1.
          1   -1    0    0  501    0 -0.00000000000E+00 -0.00000000000E+00 -0.24607857561E+04  0.24607857561E+04  0.00000000000E+00 0. -1.
         25    2    1    2    0    0  0.11707794037E+03 -0.97410120743E+02 -0.25125758327E+03  0.31929728032E+03  0.12499761726E+03 0.  0.
          2    1    1    2  501    0 -0.34698002134E+02  0.19112802565E+02 -0.21686782971E+04  0.21690400657E+04  0.00000000000E+00 0. -1.
          1    1    1    2  502    0 -0.82379938232E+02  0.78297318178E+02  0.47901210999E+03  0.49231039576E+03  0.00000000000E+00 0. -1.
         22    1    3    3    0    0  0.44656033272E+01  0.24596828359E+00  0.14181327902E+02  0.14869841107E+02  0.00000000000E+00 0. -1.
         22    1    3    3    0    0  0.11261233704E+03 -0.97656089026E+02 -0.26543891118E+03  0.30442743921E+03  0.00000000000E+00 0. -1.
</event>
<event>
 7    1  0.7527776E-006  0.2105168E+03  0.7818608E-02  0.1324216E+00
          2   -1    0    0  502    0  0.00000000000E+00  0.00000000000E+00  0.20443301591E+04  0.20443301591E+04  0.00000000000E+00 0. -1.
          1   -1    0    0  501    0 -0.00000000000E+00 -0.00000000000E+00 -0.60766029739E+03  0.60766029739E+03  0.00000000000E+00 0. -1.
         25    2    1    2    0    0 -0.14039124992E+03 -0.18359388454E+03  0.49017941968E+03  0.55616280406E+03  0.12499913457E+03 0.  0.
          2    1    1    2  501    0  0.30413883028E+02  0.90412856454E+01 -0.56722793463E+03  0.56811467060E+03  0.00000000000E+00 0. -1.
          1    1    1    2  502    0  0.10997736689E+03  0.17455259890E+03  0.15137183767E+04  0.15277129818E+04  0.00000000000E+00 0. -1.
         22    1    3    3    0    0 -0.54592202346E+02 -0.16486042368E+03  0.35060655208E+03  0.39125978865E+03  0.00000000000E+00 0.  1.
         22    1    3    3    0    0 -0.85799047575E+02 -0.18733460864E+02  0.13957286760E+03  0.16490301540E+03  0.00000000000E+00 0.  1.
</event>
<event>
 7    1  0.7527776E-006  0.1751320E+03  0.7818608E-02  0.1283654E+00
          2   -1    0    0  502    0  0.00000000000E+00  0.00000000000E+00  0.15971201893E+03  0.15971201893E+03  0.00000000000E+00 0. -1.
          1   -1    0    0  501    0 -0.00000000000E+00 -0.00000000000E+00 -0.13793324312E+04  0.13793324312E+04  0.00000000000E+00 0. -1.
         25    2    1    2    0    0  0.12365800723E+03 -0.17198551001E+03 -0.43460387949E+03  0.49937487002E+03  0.12499764132E+03 0.  0.
          2    1    1    2  501    0  0.13719299717E+01  0.55292400573E+02 -0.85361088437E+03  0.85540088477E+03  0.00000000000E+00 0. -1.
          1    1    1    2  502    0 -0.12502993720E+03  0.11669310944E+03  0.68594351639E+02  0.18426869529E+03  0.00000000000E+00 0. -1.
         22    1    3    3    0    0  0.83696933901E+02 -0.89863412627E+02 -0.11968060136E+03  0.17147610917E+03  0.00000000000E+00 0. -1.
         22    1    3    3    0    0  0.39961073326E+02 -0.82122097386E+02 -0.31492327813E+03  0.32789876085E+03  0.00000000000E+00 0. -1.
</event>
<event>
 7    1  0.7527776E-006  0.8427328E+02  0.7818608E-02  0.1415385E+00
          2   -1    0    0  502    0  0.00000000000E+00  0.00000000000E+00  0.21487984556E+04  0.21487984556E+04  0.00000000000E+00 0. -1.
          1   -1    0    0  501    0 -0.00000000000E+00 -0.00000000000E+00 -0.16655578404E+03  0.16655578404E+03  0.00000000000E+00 0. -1.
         25    2    1    2    0    0  0.11620739969E+03 -0.25836022065E+02  0.25233603935E+03  0.30572395609E+03  0.12498800260E+03 0.  0.
          2    1    1    2  501    0 -0.82011068008E+02  0.11129444273E+02 -0.12741532660E+03  0.15193533249E+03  0.00000000000E+00 0. -1.
          1    1    1    2  502    0 -0.34196331685E+02  0.14706577792E+02  0.18573219588E+04  0.18576949511E+04  0.00000000000E+00 0. -1.
         22    1    3    3    0    0  0.89999101552E+02 -0.20823510137E+01  0.25483130036E+03  0.27026499238E+03  0.00000000000E+00 0.  1.
         22    1    3    3    0    0  0.26208298142E+02 -0.23753671051E+02 -0.24952610049E+01  0.35458963710E+02  0.00000000000E+00 0.  1.
</event>
<event>
 7    1  0.7527776E-006  0.1038641E+03  0.7818608E-02  0.1404676E+00
          2   -1    0    0  502    0  0.00000000000E+00  0.00000000000E+00  0.10372105732E+04  0.10372105732E+04  0.00000000000E+00 0. -1.
          1   -1    0    0  501    0 -0.00000000000E+00 -0.00000000000E+00 -0.73172416432E+02  0.73172416432E+02  0.00000000000E+00 0. -1.
         25    2    1    2    0    0 -0.87845106591E+02  0.33377977736E+02  0.30405311937E+03  0.34191302840E+03  0.12500146974E+03 0.  0.
          2    1    1    2  501    0  0.83155280634E+02 -0.65876933057E+02 -0.15713467636E+01  0.10609919951E+03  0.00000000000E+00 0. -1.
          1    1    1    2  502    0  0.46898259568E+01  0.32498955321E+02  0.66155638416E+03  0.66237076173E+03  0.00000000000E+00 0. -1.
         22    1    3    3    0    0 -0.28110078360E+02 -0.47755313023E+02  0.99360000101E+02  0.11376799219E+03  0.00000000000E+00 0.  1.
         22    1    3    3    0    0 -0.59735028231E+02  0.81133290760E+02  0.20469311927E+03  0.22814503620E+03  0.00000000000E+00 0.  1.
</event>
<event>
 7    1  0.7527776E-006  0.4016271E+02  0.7818608E-02  0.1517950E+00
          2   -1    0    0  502    0  0.00000000000E+00  0.00000000000E+00  0.10059954443E+04  0.10059954443E+04  0.00000000000E+00 0. -1.
          1   -1    0    0  501    0 -0.00000000000E+00 -0.00000000000E+00 -0.31416413270E+02  0.31416413270E+02  0.00000000000E+00 0. -1.
         25    2    1    2    0    0 -0.16898218633E+02  0.11978772463E+00  0.38736454806E+03  0.40738383529E+03  0.12499892808E+03 0.  0.
          2    1    1    2  501    0  0.19419947349E+02  0.37098528649E+02  0.24540421924E+00  0.41874758581E+02  0.00000000000E+00 0. -1.
          1    1    1    2  502    0 -0.25217287165E+01 -0.37218316373E+02  0.58696907870E+03  0.58815326365E+03  0.00000000000E+00 0. -1.
         22    1    3    3    0    0 -0.59544408113E+02 -0.17229371563E+02  0.11033962136E+03  0.12655915544E+03  0.00000000000E+00 0. -1.
         22    1    3    3    0    0  0.42646189480E+02  0.17349159287E+02  0.27702492670E+03  0.28082467986E+03  0.00000000000E+00 0. -1.
</event>
<event>
 7    1  0.7527776E-006  0.4837697E+02  0.7818608E-02  0.1555643E+00
          2   -1    0    0  502    0  0.00000000000E+00  0.00000000000E+00  0.24881849779E+04  0.24881849779E+04  0.00000000000E+00 0. -1.
          1   -1    0    0  501    0 -0.00000000000E+00 -0.00000000000E+00 -0.53312357754E+03  0.53312357754E+03  0.00000000000E+00 0. -1.
         25    2    1    2    0    0 -0.16733234169E+02 -0.34939586350E+02  0.12831423509E+04  0.12897986109E+04  0.12500155207E+03 0.  0.
          2    1    1    2  501    0  0.18526829751E+02 -0.15577189949E+02 -0.52898701053E+03  0.52954050797E+03  0.00000000000E+00 0. -1.
          1    1    1    2  502    0 -0.17935955819E+01  0.50516776299E+02  0.12009060600E+04  0.12019694366E+04  0.00000000000E+00 0. -1.
         22    1    3    3    0    0 -0.66164647941E+02 -0.38357794360E+02  0.93872807887E+03  0.94183835507E+03  0.00000000000E+00 0.  1.
         22    1    3    3    0    0  0.49431413772E+02  0.34182080102E+01  0.34441427206E+03  0.34796025579E+03  0.00000000000E+00 0.  1.
</event>
<event>
 7    1  0.7527776E-006  0.1244807E+03  0.7818608E-02  0.1342365E+00
          2   -1    0    0  502    0  0.00000000000E+00  0.00000000000E+00  0.40486178450E+03  0.40486178450E+03  0.00000000000E+00 0. -1.
          1   -1    0    0  501    0 -0.00000000000E+00 -0.00000000000E+00 -0.17240403775E+04  0.17240403775E+04  0.00000000000E+00 0. -1.
         25    2    1    2    0    0 -0.92017753257E+02 -0.30882148951E+02  0.53110005665E+02  0.16693107453E+03  0.12499734759E+03 0.  0.
          2    1    1    2  501    0 -0.18557356722E+02 -0.41848161091E+02 -0.16519442361E+04  0.16525784106E+04  0.00000000000E+00 0. -1.
          1    1    1    2  502    0  0.11057510998E+03  0.72730310042E+02  0.27965563743E+03  0.30939267686E+03  0.00000000000E+00 0. -1.
         22    1    3    3    0    0  0.52696421519E+01  0.13471737656E+02  0.58119584018E+02  0.59892761586E+02  0.00000000000E+00 0. -1.
         22    1    3    3    0    0 -0.97287395409E+02 -0.44353886607E+02 -0.50095783539E+01  0.10703831294E+03  0.00000000000E+00 0. -1.
</event>
<event>
 7    1  0.7527776E-006  0.2079164E+03  0.7818608E-02  0.1165945E+00
          2   -1    0    0  502    0  0.00000000000E+00  0.00000000000E+00  0.11764568978E+04  0.11764568978E+04  0.00000000000E+00 0. -1.
          1   -1    0    0  501    0 -0.00000000000E+00 -0.00000000000E+00 -0.16685321123E+04  0.16685321123E+04  0.00000000000E+00 0. -1.
         25    2    1    2    0    0  0.87648988482E+02  0.33947530321E+02 -0.44305275154E+03  0.46984641025E+03  0.12500051433E+03 0.  0.
          2    1    1    2  501    0  0.10506321484E+03 -0.11960445049E+03 -0.11972100815E+04  0.12077481041E+04  0.00000000000E+00 0. -1.
          1    1    1    2  502    0 -0.19271220332E+03  0.85656920172E+02  0.11481876186E+04  0.11673944958E+04  0.00000000000E+00 0. -1.
         22    1    3    3    0    0  0.51910840075E+01  0.26717901339E+02 -0.10066949597E+02  0.29019598194E+02  0.00000000000E+00 0.  1.
         22    1    3    3    0    0  0.82457904474E+02  0.72296289816E+01 -0.43298580194E+03  0.44082681206E+03  0.00000000000E+00 0.  1.
</event>
<event>
 7    1  0.7527776E-006  0.6323596E+02  0.7818608E-02  0.1401857E+00
          2   -1    0    0  502    0  0.00000000000E+00  0.00000000000E+00  0.84297851399E+03  0.84297851399E+03  0.00000000000E+00 0. -1.
          1   -1    0    0  501    0 -0.00000000000E+00 -0.00000000000E+00 -0.79213394137E+03  0.79213394137E+03  0.00000000000E+00 0. -1.
         25    2    1    2    0    0 -0.24628756817E+02  0.11439655479E+03 -0.89904899879E+01  0.17145810412E+03  0.12499562052E+03 0.  0.
          2    1    1    2  501    0  0.17346772259E+02 -0.52343817641E+02 -0.69954166549E+03  0.70171171254E+03  0.00000000000E+00 0. -1.
          1    1    1    2  502    0  0.72819845579E+01 -0.62052737148E+02  0.75937672810E+03  0.76194263870E+03  0.00000000000E+00 0. -1.
         22    1    3    3    0    0 -0.33135655196E+02  0.36507156501E-01  0.35401581285E+02  0.48489637403E+02  0.00000000000E+00 0.  1.
         22    1    3    3    0    0  0.85068983792E+01  0.11436004763E+03 -0.44392071273E+02  0.12296846672E+03  0.00000000000E+00 0.  1.
</event>
<event>
 7    1  0.7527776E-006  0.5762418E+02  0.7818608E-02  0.1415836E+00
          2   -1    0    0  502    0  0.00000000000E+00  0.00000000000E+00  0.66485245112E+02  0.66485245112E+02  0.00000000000E+00 0. -1.
          1   -1    0    0  501    0 -0.00000000000E+00 -0.00000000000E+00 -0.79960249181E+03  0.79960249181E+03  0.00000000000E+00 0. -1.
         25    2    1    2    0    0 -0.58574221765E+00 -0.97761278799E+01 -0.15055555611E+03  0.19592779819E+03  0.12499924343E+03 0.  0.
          2    1    1    2  501    0  0.44090157891E+02  0.42186406000E+02 -0.60742597157E+03  0.61048337063E+03  0.00000000000E+00 0. -1.
          1    1    1    2  502    0 -0.43504415674E+02 -0.32410278121E+02  0.24864280988E+02  0.59676568098E+02  0.00000000000E+00 0. -1.
         22    1    3    3    0    0 -0.44631217962E+02 -0.14441195228E+02 -0.14363195312E+03  0.15109808634E+03  0.00000000000E+00 0.  1.
         22    1    3    3    0    0  0.44045475744E+02  0.46650673485E+01 -0.69236029890E+01  0.44829711858E+02  0.00000000000E+00 0.  1.
</event>
<event>
 7    1  0.7527776E-006  0.8699950E+02  0.7818608E-02  0.1381498E+00
          2   -1    0    0  502    0  0.00000000000E+00  0.00000000000E+00  0.66587770559E+03  0.66587770559E+03  0.00000000000E+00 0. -1.
          1   -1    0    0  501    0 -0.00000000000E+00 -0.00000000000E+00 -0.25103524508E+03  0.25103524508E+03  0.00000000000E+00 0. -1.
         25    2    1    2    0    0  0.29714144941E+02  0.49780924897E+02 -0.31595068709E+02  0.14137422513E+03  0.12500940874E+03 0.  0.
          2    1    1    2  501    0 -0.76337329384E+02 -0.57049430610E+02 -0.14974153811E+03  0.17749522141E+03  0.00000000000E+00 0. -1.
          1    1    1    2  502    0  0.46623184443E+02  0.72685057128E+01  0.59617906733E+03  0.59804350412E+03  0.00000000000E+00 0. -1.
         22    1    3    3    0    0 -0.44452685654E+02 -0.60584649523E+01 -0.78081593271E+01  0.45538045759E+02  0.00000000000E+00 0. -1.
         22    1    3    3    0    0  0.74166830595E+02  0.55839389850E+02 -0.23786909382E+02  0.95836179375E+02  0.00000000000E+00 0. -1.
</event>
<event>
 7    1  0.1768762E-005  0.5808003E+02  0.7818608E-02  0.1443332E+00
          2   -1    0    0  502    0  0.00000000000E+00  0.00000000000E+00  0.11460591384E+04  0.11460591384E+04  0.00000000000E+00 0. -1.
          1   -1    0    0  501    0 -0.00000000000E+00 -0.00000000000E+00 -0.19879251367E+04  0.19879251367E+04  0.00000000000E+00 0. -1.
         25    2    1    2    0    0 -0.60389322988E+01  0.25007545570E+02 -0.48575258798E+03  0.50223471110E+03  0.12498912860E+03 0.  0.
          2    1    1    2  501    0  0.47839452433E+02 -0.37721443317E+02 -0.14928905569E+04  0.14941331050E+04  0.00000000000E+00 0. -1.
          1    1    1    2  502    0 -0.41800520134E+02  0.12713897748E+02  0.11367771467E+04  0.11376164590E+04  0.00000000000E+00 0. -1.
         22    1    3    3    0    0 -0.38564463445E+02  0.57695479449E+01 -0.43692057671E+02  0.58561945219E+02  0.00000000000E+00 0.  1.
         22    1    3    3    0    0  0.32525531146E+02  0.19237997625E+02 -0.44206053031E+03  0.44367276588E+03  0.00000000000E+00 0.  1.
</event>
<event>
 7    1  0.7527776E-006  0.1129766E+03  0.7818608E-02  0.1262343E+00
          2   -1    0    0  502    0  0.00000000000E+00  0.00000000000E+00  0.75214242126E+03  0.75214242126E+03  0.00000000000E+00 0. -1.
          1   -1    0    0  501    0 -0.00000000000E+00 -0.00000000000E+00 -0.24499684399E+03  0.24499684399E+03  0.00000000000E+00 0. -1.
         25    2    1    2    0    0 -0.56182328475E+01  0.10673470014E+03  0.15560487017E+03  0.22641013446E+03  0.12499925044E+03 0.  0.
          2    1    1    2  501    0  0.10238297694E+03 -0.47764461983E+02 -0.18804481455E+03  0.21937312979E+03  0.00000000000E+00 0. -1.
          1    1    1    2  502    0 -0.96764744088E+02 -0.58970238154E+02  0.53958552164E+03  0.55135600101E+03  0.00000000000E+00 0. -1.
         22    1    3    3    0    0 -0.14505089909E+02  0.19109624552E+02  0.13345329054E+03  0.13559261093E+03  0.00000000000E+00 0.  1.
         22    1    3    3    0    0  0.88868570620E+01  0.87625075585E+02  0.22151579639E+02  0.90817523530E+02  0.00000000000E+00 0.  1.
</event>
<event>
 7    1  0.1091633E-005  0.5344299E+02  0.7818608E-02  0.1495410E+00
          2   -1    0    0  502    0  0.00000000000E+00  0.00000000000E+00  0.18165440297E+04  0.18165440297E+04  0.00000000000E+00 0. -1.
          1   -1    0    0  501    0 -0.00000000000E+00 -0.00000000000E+00 -0.10774051092E+04  0.10774051092E+04  0.00000000000E+00 0. -1.
         25    2    1    2    0    0  0.17429446018E+02 -0.38320548343E+02 -0.54925284690E+02  0.14288074361E+03  0.12500347988E+03 0.  0.
          2    1    1    2  501    0  0.29870290423E+02  0.13267316046E+02 -0.97782492337E+03  0.97837101178E+03  0.00000000000E+00 0. -1.
          1    1    1    2  502    0 -0.47299736441E+02  0.25053232297E+02  0.17718891285E+04  0.17726973835E+04  0.00000000000E+00 0. -1.
         22    1    3    3    0    0  0.57358859308E+02 -0.55733761868E+02 -0.58625467430E+02  0.99162676368E+02  0.00000000000E+00 0.  1.
         22    1    3    3    0    0 -0.39929413290E+02  0.17413213525E+02  0.37001827399E+01  0.43718067240E+02  0.00000000000E+00 0.  1.
</event>
<event>
 7    1  0.7527776E-006  0.6909133E+02  0.7818608E-02  0.1524889E+00
          2   -1    0    0  502    0  0.00000000000E+00  0.00000000000E+00  0.13939376384E+04  0.13939376384E+04  0.00000000000E+00 0. -1.
          1   -1    0    0  501    0 -0.00000000000E+00 -0.00000000000E+00 -0.32621910193E+03  0.32621910193E+03  0.00000000000E+00 0. -1.
         25    2    1    2    0    0 -0.33912444125E+02 -0.57554517928E+02  0.19471339845E+03  0.24083317836E+03  0.12499894345E+03 0.  0.
          2    1    1    2  501    0  0.15691726912E+02  0.67384378320E+02 -0.29911910816E+03  0.30701649077E+03  0.00000000000E+00 0. -1.
          1    1    1    2  502    0  0.18220717213E+02 -0.98298603916E+01  0.11721242462E+04  0.11723070712E+04  0.00000000000E+00 0. -1.
         22    1    3    3    0    0  0.42828143026E+02 -0.45955165723E+02  0.10346614898E+03  0.12104284810E+03  0.00000000000E+00 0.  1.
         22    1    3    3    0    0 -0.76740587151E+02 -0.11599352205E+02  0.91247249464E+02  0.11979033026E+03  0.00000000000E+00 0.  1.
</event>
<event>
 7    1  0.7527776E-006  0.8916608E+02  0.7818608E-02  0.1317177E+00
          2   -1    0    0  502    0  0.00000000000E+00  0.00000000000E+00  0.18183810003E+04  0.18183810003E+04  0.00000000000E+00 0. -1.
          1   -1    0    0  501    0 -0.00000000000E+00 -0.00000000000E+00 -0.45044609832E+02  0.45044609832E+02  0.00000000000E+00 0. -1.
         25    2    1    2    0    0  0.87676115892E+02  0.11423914078E+02  0.15250761004E+03  0.21610377285E+03  0.12499864964E+03 0.  0.
          2    1    1    2  501    0 -0.24088914062E+02 -0.76044002464E+02  0.12205999425E+03  0.14581360803E+03  0.00000000000E+00 0. -1.
          1    1    1    2  502    0 -0.63587201830E+02  0.64620088387E+02  0.14987687862E+04  0.15015082292E+04  0.00000000000E+00 0. -1.
         22    1    3    3    0    0  0.10713936593E+03 -0.25349432712E+02  0.96990860872E+02  0.14672649578E+03  0.00000000000E+00 0. -1.
         22    1    3    3    0    0 -0.19463250041E+02  0.36773346789E+02  0.55516749166E+02  0.69377277074E+02  0.00000000000E+00 0. -1.
</event>
<event>
 7    1  0.7527776E-006  0.3804148E+02  0.7818608E-02  0.1604877E+00
          2   -1    0    0  502    0  0.00000000000E+00  0.00000000000E+00  0.10185409883E+04  0.10185409883E+04  0.00000000000E+00 0. -1.
          1   -1    0    0  501    0 -0.00000000000E+00 -0.00000000000E+00 -0.18442465753E+02  0.18442465753E+02  0.00000000000E+00 0. -1.
         25    2    1    2    0    0 -0.33802222287E+01 -0.36156399223E+02  0.56821763761E+03  0.58293641921E+03  0.12499949616E+03 0.  0.
          2    1    1    2  501    0  0.22599775242E+02  0.22690870790E+01  0.24416047528E+01  0.22844255972E+02  0.00000000000E+00 0. -1.
          1    1    1    2  502    0 -0.19219553013E+02  0.33887312144E+02  0.42943928022E+03  0.43120277891E+03  0.00000000000E+00 0. -1.
         22    1    3    3    0    0 -0.35890135636E+02 -0.63483374408E+02  0.47415850894E+03  0.47973381397E+03  0.00000000000E+00 0. -1.
         22    1    3    3    0    0  0.32509913407E+02  0.27326975185E+02  0.94059128672E+02  0.10320260524E+03  0.00000000000E+00 0. -1.
</event>
<event>
 7    1  0.7527776E-006  0.5327694E+02  0.7818608E-02  0.1534346E+00
          2   -1    0    0  502    0  0.00000000000E+00  0.00000000000E+00  0.31237252851E+03  0.31237252851E+03  0.00000000000E+00 0. -1.
          1   -1    0    0  501    0 -0.00000000000E+00 -0.00000000000E+00 -0.90734714360E+02  0.90734714360E+02  0.00000000000E+00 0. -1.
         25    2    1    2    0    0 -0.31169803670E+02 -0.98396349226E+01  0.11787535405E+03  0.17489604636E+03  0.12500261143E+03 0.  0.
          2    1    1    2  501    0 -0.19654888641E+02 -0.15809205640E+02 -0.54481967029E+02  0.60037741145E+02  0.00000000000E+00 0. -1.
          1    1    1    2  502    0  0.50824692312E+02  0.25648840562E+02  0.15824442713E+03  0.16817345536E+03  0.00000000000E+00 0. -1.
         22    1    3    3    0    0 -0.77276215211E+02  0.95686984808E+01  0.59360260200E+02  0.97912276651E+02  0.00000000000E+00 0.  1.
         22    1    3    3    0    0  0.46106411541E+02 -0.19408333403E+02  0.58515093849E+02  0.76983769710E+02  0.00000000000E+00 0.  1.
</event>
<event>
 7    1  0.7527776E-006  0.4877728E+02  0.7818608E-02  0.1486256E+00
          2   -1    0    0  502    0  0.00000000000E+00  0.00000000000E+00  0.87344790146E+03  0.87344790146E+03  0.00000000000E+00 0. -1.
          1   -1    0    0  501    0 -0.00000000000E+00 -0.00000000000E+00 -0.25173149021E+03  0.25173149021E+03  0.00000000000E+00 0. -1.
         25    2    1    2    0    0 -0.39975101015E+02  0.67568767883E+01  0.61169978008E+03  0.62565573128E+03  0.12499923618E+03 0.  0.
          2    1    1    2  501    0  0.37502172635E+02  0.31328597274E+02 -0.24085672131E+03  0.24576381784E+03  0.00000000000E+00 0. -1.
          1    1    1    2  502    0  0.24729283800E+01 -0.38085474063E+02  0.25087335247E+03  0.25375984254E+03  0.00000000000E+00 0. -1.
         22    1    3    3    0    0 -0.66022892807E+02  0.34095992254E+01  0.15902269685E+03  0.17221749579E+03  0.00000000000E+00 0.  1.
         22    1    3    3    0    0  0.26047791792E+02  0.33472775628E+01  0.45267708323E+03  0.45343823549E+03  0.00000000000E+00 0.  1.
</event>
<event>
 7    1  0.7527776E-006  0.3576654E+02  0.7818608E-02  0.1583368E+00
          2   -1    0    0  502    0  0.00000000000E+00  0.00000000000E+00  0.15052042442E+04  0.15052042442E+04  0.00000000000E+00 0. -1.
          1   -1    0    0  501    0 -0.00000000000E+00 -0.00000000000E+00 -0.47330046837E+02  0.47330046837E+02  0.00000000000E+00 0. -1.
         25    2    1    2    0    0  0.35560228301E+02  0.10166843235E+02  0.97430330757E+03  0.98298109861E+03  0.12496803805E+03 0.  0.
          2    1    1    2  501    0 -0.28645699699E+01 -0.27373263359E+02 -0.37864501940E+02  0.46810488304E+02  0.00000000000E+00 0. -1.
          1    1    1    2  502    0 -0.32695658331E+02  0.17206420124E+02  0.52143539171E+03  0.52274270410E+03  0.00000000000E+00 0. -1.
         22    1    3    3    0    0 -0.25020032166E+02  0.51238338226E+02  0.44724372487E+03  0.45086396923E+03  0.00000000000E+00 0.  1.
         22    1    3    3    0    0  0.60580260467E+02 -0.41071494991E+02  0.52705958270E+03  0.53211712938E+03  0.00000000000E+00 0.  1.
</event>
<event>
 7    1  0.7527776E-006  0.3739029E+02  0.7818608E-02  0.1567800E+00
          2   -1    0    0  502    0  0.00000000000E+00  0.00000000000E+00  0.11555547848E+04  0.11555547848E+04  0.00000000000E+00 0. -1.
          1   -1    0    0  501    0 -0.00000000000E+00 -0.00000000000E+00 -0.44237426656E+02  0.44237426656E+02  0.00000000000E+00 0. -1.
         25    2    1    2    0    0  0.49766244694E+02 -0.41405594356E+02  0.52318144188E+03  0.54178903555E+03  0.12500174225E+03 0.  0.
          2    1    1    2  501    0 -0.23517945255E+02  0.16967699429E+02 -0.28302769506E+02  0.40522133886E+02  0.00000000000E+00 0. -1.
          1    1    1    2  502    0 -0.26248299438E+02  0.24437894928E+02  0.61643868574E+03  0.61748104198E+03  0.00000000000E+00 0. -1.
         22    1    3    3    0    0  0.46416836935E+02 -0.74904823928E+02  0.22385034651E+03  0.24057064042E+03  0.00000000000E+00 0.  1.
         22    1    3    3    0    0  0.33494077588E+01  0.33499229572E+02  0.29933109536E+03  0.30121839513E+03  0.00000000000E+00 0.  1.
</event>
<event>
 7    1  0.7527776E-006  0.9846765E+02  0.7818608E-02  0.1400502E+00
          2   -1    0    0  502    0  0.00000000000E+00  0.00000000000E+00  0.21162192028E+04  0.21162192028E+04  0.00000000000E+00 0. -1.
          1   -1    0    0  501    0 -0.00000000000E+00 -0.00000000000E+00 -0.42591991544E+02  0.42591991544E+02  0.00000000000E+00 0. -1.
         25    2    1    2    0    0 -0.11073095058E+03 -0.89020323763E+01  0.69493154088E+03  0.71476584409E+03  0.12497910131E+03 0.  0.
          2    1    1    2  501    0  0.89960526084E+02  0.38053902314E+02  0.41102998028E+02  0.10597382781E+03  0.00000000000E+00 0. -1.
          1    1    1    2  502    0  0.20770424501E+02 -0.29151869938E+02  0.13375926723E+04  0.13380715224E+04  0.00000000000E+00 0. -1.
         22    1    3    3    0    0 -0.38294998873E+02  0.56881301446E+02  0.25267673506E+03  0.26181581662E+03  0.00000000000E+00 0. -1.
         22    1    3    3    0    0 -0.72435951711E+02 -0.65783333823E+02  0.44225480582E+03  0.45295002747E+03  0.00000000000E+00 0. -1.
</event>
<event>
 7    1  0.7527776E-006  0.6915475E+02  0.7818608E-02  0.1368761E+00
          2   -1    0    0  502    0  0.00000000000E+00  0.00000000000E+00  0.16969496913E+04  0.16969496913E+04  0.00000000000E+00 0. -1.
          1   -1    0    0  501    0 -0.00000000000E+00 -0.00000000000E+00 -0.82275561293E+02  0.82275561293E+02  0.00000000000E+00 0. -1.
         25    2    1    2    0    0 -0.40299496154E+02 -0.28805492790E+02  0.26715234310E+03  0.29908223188E+03  0.12500400473E+03 0.  0.
          2    1    1    2  501    0  0.64656277556E+02 -0.32438524445E+02 -0.45568962148E+02  0.85493990472E+02  0.00000000000E+00 0. -1.
          1    1    1    2  502    0 -0.24356781403E+02  0.61244017235E+02  0.13930907490E+04  0.13946490302E+04  0.00000000000E+00 0. -1.
         22    1    3    3    0    0 -0.49976864698E+02 -0.61135218506E+02  0.24802534477E+03  0.26029170866E+03  0.00000000000E+00 0. -1.
         22    1    3    3    0    0  0.96773685446E+01  0.32329725716E+02  0.19126998326E+02  0.38790523221E+02  0.00000000000E+00 0. -1.
</event>
<event>
 7    1  0.7527776E-006  0.9196648E+02  0.7818608E-02  0.1308630E+00
          2   -1    0    0  502    0  0.00000000000E+00  0.00000000000E+00  0.10256054205E+04  0.10256054205E+04  0.00000000000E+00 0. -1.
          1   -1    0    0  501    0 -0.00000000000E+00 -0.00000000000E+00 -0.37221371051E+03  0.37221371051E+03  0.00000000000E+00 0. -1.
         25    2    1    2    0    0 -0.35277253189E+02  0.25339600598E+02  0.85522213908E+02  0.15756121104E+03  0.12499962480E+03 0.  0.
          2    1    1    2  501    0 -0.53665974445E+02 -0.64031419820E+02 -0.32834628390E+03  0.33880870958E+03  0.00000000000E+00 0. -1.
          1    1    1    2  502    0  0.88943227634E+02  0.38691819221E+02  0.89621577999E+03  0.90144921040E+03  0.00000000000E+00 0. -1.
         22    1    3    3    0    0 -0.27456927593E+02 -0.17580449038E+02  0.10488150442E+03  0.10983207651E+03  0.00000000000E+00 0. -1.
         22    1    3    3    0    0 -0.78203255961E+01  0.42920049636E+02 -0.19359290514E+02  0.47729134524E+02  0.00000000000E+00 0. -1.
</event>
<event>
 7    1  0.7527776E-006  0.6720763E+02  0.7818608E-02  0.1457397E+00
          2   -1    0    0  502    0  0.00000000000E+00  0.00000000000E+00  0.12596656017E+03  0.12596656017E+03  0.00000000000E+00 0. -1.
          1   -1    0    0  501    0 -0.00000000000E+00 -0.00000000000E+00 -0.92641596057E+03  0.92641596057E+03  0.00000000000E+00 0. -1.
         25    2    1    2    0    0 -0.59749521452E+02  0.46253896344E+02 -0.17986670728E+03  0.23170397877E+03  0.12500109259E+03 0.  0.
          2    1    1    2  501    0  0.65935816070E+02 -0.12778015788E+02 -0.71611723886E+03  0.71925983436E+03  0.00000000000E+00 0. -1.
          1    1    1    2  502    0 -0.61862946179E+01 -0.33475880556E+02  0.95534545746E+02  0.10141870760E+03  0.00000000000E+00 0. -1.
         22    1    3    3    0    0 -0.75494923250E+02  0.36224073909E+01 -0.16877178410E+03  0.18492301204E+03  0.00000000000E+00 0. -1.
         22    1    3    3    0    0  0.15745401798E+02  0.42631488954E+02 -0.11094923180E+02  0.46780966734E+02  0.00000000000E+00 0. -1.
</event>
<event>
 7    1  0.7527776E-006  0.9716888E+02  0.7818608E-02  0.1433808E+00
          2   -1    0    0  502    0  0.00000000000E+00  0.00000000000E+00  0.13564901945E+04  0.13564901945E+04  0.00000000000E+00 0. -1.
          1   -1    0    0  501    0 -0.00000000000E+00 -0.00000000000E+00 -0.45173730915E+03  0.45173730915E+03  0.00000000000E+00 0. -1.
         25    2    1    2    0    0 -0.25997431711E+02 -0.73008092367E+02 -0.30544621905E+02  0.15022513105E+03  0.12501427144E+03 0.  0.
          2    1    1    2  501    0 -0.26456000683E+02 -0.93081060930E+01 -0.35896778703E+03  0.36006170712E+03  0.00000000000E+00 0. -1.
          1    1    1    2  502    0  0.52453432394E+02  0.82316198460E+02  0.12942652943E+04  0.12979406655E+04  0.00000000000E+00 0. -1.
         22    1    3    3    0    0 -0.56915416085E+02 -0.90874996995E+02 -0.70056397983E+01  0.10745561249E+03  0.00000000000E+00 0. -1.
         22    1    3    3    0    0  0.30917984374E+02  0.17866904628E+02 -0.23538982107E+02  0.42769518554E+02  0.00000000000E+00 0. -1.
</event>
<event>
 7    1  0.7527776E-006  0.1326236E+03  0.7818608E-02  0.1346739E+00
          2   -1    0    0  502    0  0.00000000000E+00  0.00000000000E+00  0.27783368067E+03  0.27783368067E+03  0.00000000000E+00 0. -1.
          1   -1    0    0  501    0 -0.00000000000E+00 -0.00000000000E+00 -0.74417185125E+03  0.74417185125E+03  0.00000000000E+00 0. -1.
         25    2    1    2    0    0 -0.25445680691E+02 -0.13926628955E+03  0.97460781118E+02  0.21252306934E+03  0.12499947628E+03 0.  0.
          2    1    1    2  501    0  0.60782302213E+02  0.11773264284E+03 -0.67653720813E+03  0.68938962672E+03  0.00000000000E+00 0. -1.
          1    1    1    2  502    0 -0.35336621522E+02  0.21533646713E+02  0.11273825643E+03  0.12009283586E+03  0.00000000000E+00 0. -1.
         22    1    3    3    0    0  0.18142349194E+02 -0.18558827691E+01 -0.19636808116E+02  0.26799129988E+02  0.00000000000E+00 0.  1.
         22    1    3    3    0    0 -0.43588029884E+02 -0.13741040679E+03  0.11709758923E+03  0.18572393935E+03  0.00000000000E+00 0.  1.
</event>
<event>
 7    1  0.7527776E-006  0.1768662E+03  0.7818608E-02  0.1289136E+00
          2   -1    0    0  502    0  0.00000000000E+00  0.00000000000E+00  0.13223711788E+04  0.13223711788E+04  0.00000000000E+00 0. -1.
          1   -1    0    0  501    0 -0.00000000000E+00 -0.00000000000E+00 -0.82062771240E+03  0.82062771240E+03  0.00000000000E+00 0. -1.
         25    2    1    2    0    0 -0.79591491121E+02  0.18290845392E+03  0.35564429300E+03  0.42649520634E+03  0.12499995966E+03 0.  0.
          2    1    1    2  501    0  0.10813264497E+03 -0.13942758347E+03 -0.77454665266E+03  0.79438985208E+03  0.00000000000E+00 0. -1.
          1    1    1    2  502    0 -0.28541153854E+02 -0.43480870443E+02  0.92064582605E+03  0.92211383277E+03  0.00000000000E+00 0. -1.
         22    1    3    3    0    0 -0.58280726008E+02  0.27683071754E+02  0.45280086653E+02  0.78824372710E+02  0.00000000000E+00 0. -1.
         22    1    3    3    0    0 -0.21310765113E+02  0.15522538216E+03  0.31036420634E+03  0.34767083363E+03  0.00000000000E+00 0. -1.
</event>
<event>
 7    1  0.7840704E-006  0.5381491E+02  0.7818608E-02  0.1465273E+00
          2   -1    0    0  502    0  0.00000000000E+00  0.00000000000E+00  0.21579530369E+04  0.21579530369E+04  0.00000000000E+00 0. -1.
          1   -1    0    0  501    0 -0.00000000000E+00 -0.00000000000E+00 -0.83816663761E+03  0.83816663761E+03  0.00000000000E+00 0. -1.
         25    2    1    2    0    0 -0.46442143039E+01 -0.26587896927E+02 -0.60273425281E+03  0.61615184461E+03  0.12500412439E+03 0.  0.
          2    1    1    2  501    0 -0.40002850382E+02 -0.34915707035E+01 -0.22662150356E+03  0.23015152613E+03  0.00000000000E+00 0. -1.
          1    1    1    2  502    0  0.44647064686E+02  0.30079467630E+02  0.21491421556E+04  0.21498163038E+04  0.00000000000E+00 0. -1.
         22    1    3    3    0    0 -0.36488282593E+02 -0.67011602747E+02 -0.37311281979E+03  0.38083477515E+03  0.00000000000E+00 0.  1.
         22    1    3    3    0    0  0.31844068289E+02  0.40423705821E+02 -0.22962143302E+03  0.23531706946E+03  0.00000000000E+00 0.  1.
</event>
<event>
 7    1  0.7527776E-006  0.6549874E+02  0.7818608E-02  0.1507579E+00
          2   -1    0    0  502    0  0.00000000000E+00  0.00000000000E+00  0.15083999156E+04  0.15083999156E+04  0.00000000000E+00 0. -1.
          1   -1    0    0  501    0 -0.00000000000E+00 -0.00000000000E+00 -0.90527032030E+01  0.90527032030E+01  0.00000000000E+00 0. -1.
         25    2    1    2    0    0 -0.67223741615E+02 -0.22149936413E+02  0.87158616852E+03  0.88334435115E+03  0.12500056976E+03 0.  0.
          2    1    1    2  501    0  0.16567932046E+02 -0.18093700881E+02  0.15161235933E+03  0.15358445848E+03  0.00000000000E+00 0. -1.
          1    1    1    2  502    0  0.50655809569E+02  0.40243637294E+02  0.47614868454E+03  0.48052380917E+03  0.00000000000E+00 0. -1.
         22    1    3    3    0    0 -0.49703948842E+02 -0.62566334335E+02  0.31352913323E+03  0.32355145821E+03  0.00000000000E+00 0. -1.
         22    1    3    3    0    0 -0.17519792773E+02  0.40416397922E+02  0.55805703529E+03  0.55979289295E+03  0.00000000000E+00 0. -1.
</event>
<event>
 7    1  0.7527776E-006  0.1806711E+03  0.7818608E-02  0.1313124E+00
          2   -1    0    0  502    0  0.00000000000E+00  0.00000000000E+00  0.35020773616E+04  0.35020773616E+04  0.00000000000E+00 0. -1.
          1   -1    0    0  501    0 -0.00000000000E+00 -0.00000000000E+00 -0.51107844745E+03  0.51107844745E+03  0.00000000000E+00 0. -1.
         25    2    1    2    0    0 -0.18272194099E+02  0.15153615318E+03  0.67629791182E+03  0.70448585964E+03  0.12499752840E+03 0.  0.
          2    1    1    2  501    0  0.52631401415E+02 -0.17359479598E+03 -0.48027795723E+03  0.51339276758E+03  0.00000000000E+00 0. -1.
          1    1    1    2  502    0 -0.34359207316E+02  0.22058642802E+02  0.27949789595E+04  0.27952771818E+04  0.00000000000E+00 0. -1.
         22    1    3    3    0    0  0.45663614824E+02  0.89392535606E+02  0.25905933212E+03  0.27782715616E+03  0.00000000000E+00 0.  1.
         22    1    3    3    0    0 -0.63935808923E+02  0.62143617576E+02  0.41723857969E+03  0.42665870348E+03  0.00000000000E+00 0.  1.
</event>
<event>
 7    1  0.7527776E-006  0.2022203E+03  0.7818608E-02  0.1351368E+00
          2   -1    0    0  502    0  0.00000000000E+00  0.00000000000E+00  0.77940088583E+03  0.77940088583E+03  0.00000000000E+00 0. -1.
          1   -1    0    0  501    0 -0.00000000000E+00 -0.00000000000E+00 -0.74290143012E+03  0.74290143012E+03  0.00000000000E+00 0. -1.
         25    2    1    2    0    0  0.11084742201E+03  0.15704959263E+03  0.21176195825E+03  0.31212177045E+03  0.12500058847E+03 0.  0.
          2    1    1    2  501    0 -0.10754698962E+02  0.23766641173E+02 -0.67182231966E+03  0.67232859970E+03  0.00000000000E+00 0. -1.
          1    1    1    2  502    0 -0.10009272305E+03 -0.18081623381E+03  0.49655981712E+03  0.53785194579E+03  0.00000000000E+00 0. -1.
         22    1    3    3    0    0  0.13559102641E+03  0.14918864063E+03  0.19868898871E+03  0.28305386620E+03  0.00000000000E+00 0.  1.
         22    1    3    3    0    0 -0.24743604401E+02  0.78609520042E+01  0.13072969540E+02  0.29067904255E+02  0.00000000000E+00 0.  1.
</event>
<event>
 7    1  0.7527776E-006  0.7894382E+02  0.7818608E-02  0.1447137E+00
          2   -1    0    0  502    0  0.00000000000E+00  0.00000000000E+00  0.22859539733E+04  0.22859539733E+04  0.00000000000E+00 0. -1.
          1   -1    0    0  501    0 -0.00000000000E+00 -0.00000000000E+00 -0.39022579199E+03  0.39022579199E+03  0.00000000000E+00 0. -1.
         25    2    1    2    0    0 -0.67266399407E+02 -0.37532739241E+02  0.39305988002E+03  0.41958901356E+03  0.12500158403E+03 0.  0.
          2    1    1    2  501    0  0.48416394151E+02  0.62457043277E+02 -0.37268793027E+03  0.38097417609E+03  0.00000000000E+00 0. -1.
          1    1    1    2  502    0  0.18850005255E+02 -0.24924304037E+02  0.18753562316E+04  0.18756165757E+04  0.00000000000E+00 0. -1.
         22    1    3    3    0    0 -0.25934493215E+02 -0.76249458046E+02  0.15259441975E+03  0.17254458766E+03  0.00000000000E+00 0. -1.
         22    1    3    3    0    0 -0.41331906191E+02  0.38716718806E+02  0.24046546027E+03  0.24704442590E+03  0.00000000000E+00 0. -1.
</event>
<event>
 7    1  0.7527776E-006  0.6000860E+02  0.7818608E-02  0.1421610E+00
          2   -1    0    0  502    0  0.00000000000E+00  0.00000000000E+00  0.12598299797E+04  0.12598299797E+04  0.00000000000E+00 0. -1.
          1   -1    0    0  501    0 -0.00000000000E+00 -0.00000000000E+00 -0.81690681639E+03  0.81690681639E+03  0.00000000000E+00 0. -1.
         25    2    1    2    0    0 -0.87332269000E+01 -0.16749685594E+02  0.31345592009E+03  0.33799002040E+03  0.12500327530E+03 0.  0.
          2    1    1    2  501    0 -0.21905510657E+02  0.56044158471E+02 -0.80284857660E+03  0.80510038880E+03  0.00000000000E+00 0. -1.
          1    1    1    2  502    0  0.30638737557E+02 -0.39294472877E+02  0.93231581982E+03  0.93364638688E+03  0.00000000000E+00 0. -1.
         22    1    3    3    0    0  0.14958210737E+02 -0.66059562614E+02  0.21423696829E+03  0.22468887926E+03  0.00000000000E+00 0. -1.
         22    1    3    3    0    0 -0.23691437637E+02  0.49309877020E+02  0.99218951793E+02  0.11330114114E+03  0.00000000000E+00 0. -1.
</event>
<event>
 7    1  0.7527776E-006  0.1063357E+03  0.7818608E-02  0.1278174E+00
          2   -1    0    0  502    0  0.00000000000E+00  0.00000000000E+00  0.17460248560E+03  0.17460248560E+03  0.00000000000E+00 0. -1.
          1   -1    0    0  501    0 -0.00000000000E+00 -0.00000000000E+00 -0.17221604879E+04  0.17221604879E+04  0.00000000000E+00 0. -1.
         25    2    1    2    0    0  0.12549449291E+03  0.13912999956E+03 -0.22130476884E+03  0.31576251447E+03  0.12499656117E+03 0.  0.
          2    1    1    2  501    0 -0.38741393584E+02 -0.87794860403E+02 -0.14318219919E+04  0.14350341632E+04  0.00000000000E+00 0. -1.
          1    1    1    2  502    0 -0.86753099331E+02 -0.51335139161E+02  0.10556875843E+03  0.14596629581E+03  0.00000000000E+00 0. -1.
         22    1    3    3    0    0  0.90946518444E+02  0.11951897771E+03 -0.23038206962E+03  0.27501264199E+03  0.00000000000E+00 0. -1.
         22    1    3    3    0    0  0.34547974471E+02  0.19611021855E+02  0.90773007808E+01  0.40749872487E+02  0.00000000000E+00 0. -1.
</event>
<event>
 7    1  0.7527776E-006  0.5154334E+02  0.7818608E-02  0.1440094E+00
          2   -1    0    0  502    0  0.00000000000E+00  0.00000000000E+00  0.48161004681E+03  0.48161004681E+03  0.00000000000E+00 0. -1.
          1   -1    0    0  501    0 -0.00000000000E+00 -0.00000000000E+00 -0.17660325801E+03  0.17660325801E+03  0.00000000000E+00 0. -1.
         25    2    1    2    0    0  0.25080269666E+02 -0.74351991510E+02  0.30127291863E+03  0.33548110521E+03  0.12499984754E+03 0.  0.
          2    1    1    2  501    0 -0.43504005243E+02  0.27402502323E+02 -0.15124921319E+03  0.15974924131E+03  0.00000000000E+00 0. -1.
          1    1    1    2  502    0  0.18423735577E+02  0.46949489186E+02  0.15498308337E+03  0.16298295830E+03  0.00000000000E+00 0. -1.
         22    1    3    3    0    0  0.50829303126E+02  0.14807440927E+02  0.13590137796E+03  0.14584945284E+03  0.00000000000E+00 0. -1.
         22    1    3    3    0    0 -0.25749033460E+02 -0.89159432437E+02  0.16537154067E+03  0.18963165237E+03  0.00000000000E+00 0. -1.
</event>
<event>
 7    1  0.7527776E-006  0.5136669E+02  0.7818608E-02  0.1445947E+00
          2   -1    0    0  502    0  0.00000000000E+00  0.00000000000E+00  0.25301259680E+03  0.25301259680E+03  0.00000000000E+00 0. -1.
          1   -1    0    0  501    0 -0.00000000000E+00 -0.00000000000E+00 -0.18911203118E+03  0.18911203118E+03  0.00000000000E+00 0. -1.
         25    2    1    2    0    0  0.23512270720E+02 -0.46002962403E+02 -0.54414788439E+02  0.14579480579E+03  0.12500422701E+03 0.  0.
          2    1    1    2  501    0 -0.48450911316E+02  0.26073074024E+00 -0.78767896019E+02  0.92476701018E+02  0.00000000000E+00 0. -1.
          1    1    1    2  502    0  0.24938640596E+02  0.45742231662E+02  0.19708325007E+03  0.20385312117E+03  0.00000000000E+00 0. -1.
         22    1    3    3    0    0 -0.36533791006E+02 -0.60791369012E+02 -0.42905304991E+02  0.82892542655E+02  0.00000000000E+00 0.  1.
         22    1    3    3    0    0  0.60046061725E+02  0.14788406609E+02 -0.11509483449E+02  0.62902263139E+02  0.00000000000E+00 0.  1.
</event>
<event>
 7    1  0.7527776E-006  0.5965567E+02  0.7818608E-02  0.1426739E+00
          2   -1    0    0  502    0  0.00000000000E+00  0.00000000000E+00  0.57678633862E+03  0.57678633862E+03  0.00000000000E+00 0. -1.
          1   -1    0    0  501    0 -0.00000000000E+00 -0.00000000000E+00 -0.45705072073E+03  0.45705072073E+03  0.00000000000E+00 0. -1.
         25    2    1    2    0    0  0.51117222187E+02  0.83572415615E+02  0.38685755090E+03  0.41818658413E+03  0.12499574154E+03 0.  0.
          2    1    1    2  501    0 -0.30691440500E+02 -0.37159709703E+02 -0.43634222756E+03  0.43899584064E+03  0.00000000000E+00 0. -1.
          1    1    1    2  502    0 -0.20425781687E+02 -0.46412705913E+02  0.16922029455E+03  0.17665463457E+03  0.00000000000E+00 0. -1.
         22    1    3    3    0    0  0.71215931836E+02  0.69251204528E+02  0.14915054247E+03  0.17920190455E+03  0.00000000000E+00 0.  1.
         22    1    3    3    0    0 -0.20098709649E+02  0.14321211088E+02  0.23770700844E+03  0.23898467959E+03  0.00000000000E+00 0.  1.
</event>
<event>
 7    1  0.7527776E-006  0.5803132E+02  0.7818608E-02  0.1422976E+00
          2   -1    0    0  502    0  0.00000000000E+00  0.00000000000E+00  0.65419858592E+03  0.65419858592E+03  0.00000000000E+00 0. -1.
          1   -1    0    0  501    0 -0.00000000000E+00 -0.00000000000E+00 -0.10054482282E+04  0.10054482282E+04  0.00000000000E+00 0. -1.
         25    2    1    2    0    0 -0.12513741027E+02 -0.41312203353E+02  0.11471223422E+03  0.17507028174E+03  0.12500965966E+03 0.  0.
          2    1    1    2  501    0  0.50750456106E+02 -0.49237804534E+01 -0.97283221497E+03  0.97416752711E+03  0.00000000000E+00 0. -1.
          1    1    1    2  502    0 -0.38236715079E+02  0.46235983807E+02  0.50687033850E+03  0.51040900524E+03  0.00000000000E+00 0. -1.
         22    1    3    3    0    0  0.22612887754E+02  0.38673032348E+02  0.35772286647E+02  0.57328898607E+02  0.00000000000E+00 0. -1.
         22    1    3    3    0    0 -0.35126628781E+02 -0.79985235702E+02  0.78939947569E+02  0.11774138313E+03  0.00000000000E+00 0. -1.
</event>
<event>
 7    1  0.7527776E-006  0.1042175E+03  0.7818608E-02  0.1287079E+00
          2   -1    0    0  502    0  0.00000000000E+00  0.00000000000E+00  0.76769912835E+03  0.76769912835E+03  0.00000000000E+00 0. -1.
          1   -1    0    0  501    0 -0.00000000000E+00 -0.00000000000E+00 -0.98727970519E+02  0.98727970519E+02  0.00000000000E+00 0. -1.
         25    2    1    2    0    0  0.14608481912E+02  0.48127606655E+02  0.73754190679E+01  0.13494048110E+03  0.12499944947E+03 0.  0.
          2    1    1    2  501    0 -0.80925573137E+02  0.39359454537E+02  0.36971283344E+02  0.97288184489E+02  0.00000000000E+00 0. -1.
          1    1    1    2  502    0  0.66317091225E+02 -0.87487061192E+02  0.62462445542E+03  0.63419843328E+03  0.00000000000E+00 0. -1.
         22    1    3    3    0    0 -0.22865414612E+02 -0.33585559601E+02  0.17961018893E+02  0.44423138102E+02  0.00000000000E+00 0.  1.
         22    1    3    3    0    0  0.37473896524E+02  0.81713166256E+02 -0.10585599825E+02  0.90517343001E+02  0.00000000000E+00 0.  1.
</event>
<event>
 7    1  0.7527776E-006  0.9088918E+02  0.7818608E-02  0.1454916E+00
          2   -1    0    0  502    0  0.00000000000E+00  0.00000000000E+00  0.59175095157E+03  0.59175095157E+03  0.00000000000E+00 0. -1.
          1   -1    0    0  501    0 -0.00000000000E+00 -0.00000000000E+00 -0.12805845979E+03  0.12805845979E+03  0.00000000000E+00 0. -1.
         25    2    1    2    0    0  0.92316989155E+02 -0.57985754879E+02  0.74802235961E+01  0.16603095795E+03  0.12500220397E+03 0.  0.
          2    1    1    2  501    0 -0.70379797246E+02  0.44726563714E+02 -0.12539059655E+02  0.84326801073E+02  0.00000000000E+00 0. -1.
          1    1    1    2  502    0 -0.21937191908E+02  0.13259191165E+02  0.46875132783E+03  0.46945165234E+03  0.00000000000E+00 0. -1.
         22    1    3    3    0    0  0.79497337268E+02 -0.77418310161E+02  0.46723942980E+02  0.12040161223E+03  0.00000000000E+00 0.  1.
         22    1    3    3    0    0  0.12819651887E+02  0.19432555281E+02 -0.39243719383E+02  0.45629345714E+02  0.00000000000E+00 0.  1.
</event>
<event>
 7    1  0.7527776E-006  0.7752683E+02  0.7818608E-02  0.1433464E+00
          2   -1    0    0  502    0  0.00000000000E+00  0.00000000000E+00  0.26931011977E+03  0.26931011977E+03  0.00000000000E+00 0. -1.
          1   -1    0    0  501    0 -0.00000000000E+00 -0.00000000000E+00 -0.13696107174E+03  0.13696107174E+03  0.00000000000E+00 0. -1.
         25    2    1    2    0    0  0.32863421585E+02  0.43376489707E+02  0.43188495103E+02  0.14301694388E+03  0.12500830288E+03 0.  0.
          2    1    1    2  501    0 -0.27797662211E+02 -0.78253125424E+02 -0.64785734730E+02  0.10532546267E+03  0.00000000000E+00 0. -1.
          1    1    1    2  502    0 -0.50657593734E+01  0.34876635717E+02  0.15394628766E+03  0.15792878496E+03  0.00000000000E+00 0. -1.
         22    1    3    3    0    0  0.64238474495E+02  0.24893991637E+02 -0.18543416889E+02  0.71345292311E+02  0.00000000000E+00 0.  1.
         22    1    3    3    0    0 -0.31375052910E+02  0.18482498070E+02  0.61731911993E+02  0.71671651567E+02  0.00000000000E+00 0.  1.
</event>
<event>
 7    1  0.7527776E-006  0.2104087E+03  0.7818608E-02  0.1177901E+00
          2   -1    0    0  502    0  0.00000000000E+00  0.00000000000E+00  0.31774625583E+03  0.31774625583E+03  0.00000000000E+00 0. -1.
          1   -1    0    0  501    0 -0.00000000000E+00 -0.00000000000E+00 -0.10773771029E+04  0.10773771029E+04  0.00000000000E+00 0. -1.
         25    2    1    2    0    0 -0.20176387493E+03  0.18166024775E+03 -0.22853738595E+03  0.37624846776E+03  0.12499786349E+03 0.  0.
          2    1    1    2  501    0  0.81204808461E+00 -0.13726702201E+03 -0.72394206806E+03  0.73684123979E+03  0.00000000000E+00 0. -1.
          1    1    1    2  502    0  0.20095182684E+03 -0.44393225737E+02  0.19284860694E+03  0.28203365118E+03  0.00000000000E+00 0. -1.
         22    1    3    3    0    0 -0.56747020264E+02  0.58848880085E+02 -0.14958453487E+03  0.17046685328E+03  0.00000000000E+00 0.  1.
         22    1    3    3    0    0 -0.14501685466E+03  0.12281136767E+03 -0.78952851087E+02  0.20578161448E+03  0.00000000000E+00 0.  1.
</event>
<event>
 7    1  0.7527776E-006  0.1783893E+03  0.7818608E-02  0.1328095E+00
          2   -1    0    0  502    0  0.00000000000E+00  0.00000000000E+00  0.72152318795E+03  0.72152318795E+03  0.00000000000E+00 0. -1.
          1   -1    0    0  501    0 -0.00000000000E+00 -0.00000000000E+00 -0.17762014338E+04  0.17762014338E+04  0.00000000000E+00 0. -1.
         25    2    1    2    0    0  0.15860247347E+03  0.60278181065E+02 -0.20855716446E+03  0.29648911469E+03  0.12498600152E+03 0.  0.
          2    1    1    2  501    0 -0.73888406504E+01  0.35417865509E+02 -0.15116423429E+04  0.15120752604E+04  0.00000000000E+00 0. -1.
          1    1    1    2  502    0 -0.15121363282E+03 -0.95696046574E+02  0.66552126152E+03  0.68916024669E+03  0.00000000000E+00 0. -1.
         22    1    3    3    0    0  0.13142533104E+02 -0.21005373666E+02  0.53408670743E+01  0.25347125287E+02  0.00000000000E+00 0.  1.
         22    1    3    3    0    0  0.14545994037E+03  0.81283554731E+02 -0.21389803153E+03  0.27114198940E+03  0.00000000000E+00 0.  1.
</event>
<event>
 7    1  0.7527776E-006  0.9558666E+02  0.7818608E-02  0.1369635E+00
          2   -1    0    0  502    0  0.00000000000E+00  0.00000000000E+00  0.79449689069E+03  0.79449689069E+03  0.00000000000E+00 0. -1.
          1   -1    0    0  501    0 -0.00000000000E+00 -0.00000000000E+00 -0.25199402600E+03  0.25199402600E+03  0.00000000000E+00 0. -1.
         25    2    1    2    0    0  0.49286133806E+02 -0.73413270617E+01 -0.46447698928E+02  0.14235862674E+03  0.12500228719E+03 0.  0.
          2    1    1    2  501    0  0.47158170514E+02 -0.41461131489E+01 -0.15078806635E+03  0.15804469068E+03  0.00000000000E+00 0. -1.
          1    1    1    2  502    0 -0.96444304320E+02  0.11487440211E+02  0.73973862996E+03  0.74608759927E+03  0.00000000000E+00 0. -1.
         22    1    3    3    0    0 -0.31293666835E+02 -0.16454463792E+02  0.17155114962E+02  0.39298103416E+02  0.00000000000E+00 0.  1.
         22    1    3    3    0    0  0.80579800641E+02  0.91131367305E+01 -0.63602813890E+02  0.10306052332E+03  0.00000000000E+00 0.  1.
</event>
<event>
 7    1  0.7527776E-006  0.1248729E+03  0.7818608E-02  0.1420626E+00
          2   -1    0    0  502    0  0.00000000000E+00  0.00000000000E+00  0.38477272550E+03  0.38477272550E+03  0.00000000000E+00 0. -1.
          1   -1    0    0  501    0 -0.00000000000E+00 -0.00000000000E+00 -0.16551641142E+03  0.16551641142E+03  0.00000000000E+00 0. -1.
         25    2    1    2    0    0  0.12249750644E+03  0.78059629859E+02 -0.31290800461E+02  0.19417259923E+03  0.12499975680E+03 0.  0.
          2    1    1    2  501    0 -0.23421593981E+02 -0.57903142249E+01 -0.36624021682E+02  0.43856787018E+02  0.00000000000E+00 0. -1.
          1    1    1    2  502    0 -0.99075912457E+02 -0.72269315634E+02  0.28717113622E+03  0.31225975067E+03  0.00000000000E+00 0. -1.
         22    1    3    3    0    0  0.78397172193E+02 -0.45265547110E+01  0.27981520150E+02  0.83364091642E+02  0.00000000000E+00 0.  1.
         22    1    3    3    0    0  0.44100334245E+02  0.82586184570E+02 -0.59272320611E+02  0.11080850758E+03  0.00000000000E+00 0.  1.
</event>
<event>
 7    1  0.7527776E-006  0.5572669E+02  0.7818608E-02  0.1428147E+00
          2   -1    0    0  502    0  0.00000000000E+00  0.00000000000E+00  0.47226215884E+03  0.47226215884E+03  0.00000000000E+00 0. -1.
          1   -1    0    0  501    0 -0.00000000000E+00 -0.00000000000E+00 -0.28154656566E+04  0.28154656566E+04  0.00000000000E+00 0. -1.
         25    2    1    2    0    0 -0.90192508754E+01 -0.28042593866E+01  0.36449018513E+02  0.13055601478E+03  0.12500852486E+03 0.  0.
          2    1    1    2  501    0  0.44310256418E+02 -0.34074067353E+02 -0.27664531195E+04  0.27670177635E+04  0.00000000000E+00 0. -1.
          1    1    1    2  502    0 -0.35291005543E+02  0.36878326740E+02  0.38680060325E+03  0.39015403718E+03  0.00000000000E+00 0. -1.
         22    1    3    3    0    0  0.29776883764E+02  0.17847912857E+02 -0.33306210021E+02  0.48109400599E+02  0.00000000000E+00 0.  1.
         22    1    3    3    0    0 -0.38796134640E+02 -0.20652172244E+02  0.69755228534E+02  0.82446614177E+02  0.00000000000E+00 0.  1.
</event>
<event>
 7    1  0.7527776E-006  0.6315731E+02  0.7818608E-02  0.1479828E+00
          2   -1    0    0  502    0  0.00000000000E+00  0.00000000000E+00  0.65720770456E+03  0.65720770456E+03  0.00000000000E+00 0. -1.
          1   -1    0    0  501    0 -0.00000000000E+00 -0.00000000000E+00 -0.27818712466E+03  0.27818712466E+03  0.00000000000E+00 0. -1.
         25    2    1    2    0    0 -0.37000967747E+02 -0.43746765262E+02  0.16939075806E+03  0.21817711146E+03  0.12500068785E+03 0.  0.
          2    1    1    2  501    0  0.24103706589E+02 -0.19237180693E+02 -0.25061445790E+03  0.25250478075E+03  0.00000000000E+00 0. -1.
          1    1    1    2  502    0  0.12897261157E+02  0.62983945955E+02  0.46024427974E+03  0.46471293701E+03  0.00000000000E+00 0. -1.
         22    1    3    3    0    0 -0.39113533966E+02 -0.76479042366E+01 -0.49185071053E+01  0.40156577178E+02  0.00000000000E+00 0.  1.
         22    1    3    3    0    0  0.21125662194E+01 -0.36098861026E+02  0.17430926516E+03  0.17802053428E+03  0.00000000000E+00 0.  1.
</event>
<event>
 7    1  0.7857172E-006  0.1512432E+03  0.7818608E-02  0.1266774E+00
          2   -1    0    0  502    0  0.00000000000E+00  0.00000000000E+00  0.14241781494E+04  0.14241781494E+04  0.00000000000E+00 0. -1.
          1   -1    0    0  501    0 -0.00000000000E+00 -0.00000000000E+00 -0.14268266297E+04  0.14268266297E+04  0.00000000000E+00 0. -1.
         25    2    1    2    0    0 -0.22337748794E+03 -0.33134626827E+01 -0.48031708253E+03  0.54427735118E+03  0.12499941631E+03 0.  0.
          2    1    1    2  501    0  0.73806301113E+02 -0.14918579063E+02 -0.90889094362E+03  0.91200475957E+03  0.00000000000E+00 0. -1.
          1    1    1    2  502    0  0.14957118683E+03  0.18232041745E+02  0.13865595459E+04  0.13947226683E+04  0.00000000000E+00 0. -1.
         22    1    3    3    0    0 -0.20693072243E+03  0.21620870238E+02 -0.32342141119E+03  0.38456364250E+03  0.00000000000E+00 0.  1.
         22    1    3    3    0    0 -0.16446765510E+02 -0.24934332920E+02 -0.15689567135E+03  0.15971370868E+03  0.00000000000E+00 0.  1.
</event>
<event>
 7    1  0.7527776E-006  0.7265482E+02  0.7818608E-02  0.1370175E+00
          2   -1    0    0  502    0  0.00000000000E+00  0.00000000000E+00  0.80621272379E+03  0.80621272379E+03  0.00000000000E+00 0. -1.
          1   -1    0    0  501    0 -0.00000000000E+00 -0.00000000000E+00 -0.82911306722E+03  0.82911306722E+03  0.00000000000E+00 0. -1.
         25    2    1    2    0    0  0.12308777009E+03 -0.39999939724E+02 -0.22529816767E+03  0.28833519221E+03  0.12500929721E+03 0.  0.
          2    1    1    2  501    0 -0.68017349261E+02  0.11508456185E+02 -0.56896903748E+03  0.57313573434E+03  0.00000000000E+00 0. -1.
          1    1    1    2  502    0 -0.55070420830E+02  0.28491483539E+02  0.77136686173E+03  0.77385486446E+03  0.00000000000E+00 0. -1.
         22    1    3    3    0    0  0.13846042488E+03 -0.26041932396E+02 -0.22735537919E+03  0.26746951218E+03  0.00000000000E+00 0.  1.
         22    1    3    3    0    0 -0.15372654790E+02 -0.13958007328E+02  0.20572115190E+01  0.20865680029E+02  0.00000000000E+00 0.  1.
</event>
<event>
 7    1  0.7527776E-006  0.1139107E+03  0.7818608E-02  0.1354123E+00
          2   -1    0    0  502    0  0.00000000000E+00  0.00000000000E+00  0.31195617984E+04  0.31195617984E+04  0.00000000000E+00 0. -1.
          1   -1    0    0  501    0 -0.00000000000E+00 -0.00000000000E+00 -0.28606021098E+03  0.28606021098E+03  0.00000000000E+00 0. -1.
         25    2    1    2    0    0 -0.57393834758E+02  0.13437776689E+03 -0.39007701469E+00  0.19230073844E+03  0.12501194080E+03 0.  0.
          2    1    1    2  501    0 -0.11207561714E+02 -0.43828910217E+02 -0.18593461581E+03  0.19135899290E+03  0.00000000000E+00 0. -1.
          1    1    1    2  502    0  0.68601396472E+02 -0.90548856669E+02  0.30198262802E+04  0.30219622780E+04  0.00000000000E+00 0. -1.
         22    1    3    3    0    0  0.32092425721E+02  0.34123451130E+02 -0.28743703972E+02  0.54959387039E+02  0.00000000000E+00 0.  1.
         22    1    3    3    0    0 -0.89486260479E+02  0.10025431576E+03  0.28353626958E+02  0.13734135140E+03  0.00000000000E+00 0.  1.
</event>
<event>
 7    1  0.7527776E-006  0.8240302E+02  0.7818608E-02  0.1477919E+00
          2   -1    0    0  502    0  0.00000000000E+00  0.00000000000E+00  0.26037140051E+04  0.26037140051E+04  0.00000000000E+00 0. -1.
          1   -1    0    0  501    0 -0.00000000000E+00 -0.00000000000E+00 -0.28519803788E+03  0.28519803788E+03  0.00000000000E+00 0. -1.
         25    2    1    2    0    0 -0.80531074439E+02  0.65934924213E+02  0.47540754599E+03  0.50246487854E+03  0.12500380475E+03 0.  0.
          2    1    1    2  501    0  0.13989258337E+02 -0.19449376301E+02 -0.27036057211E+03  0.27142000025E+03  0.00000000000E+00 0. -1.
          1    1    1    2  502    0  0.66541816102E+02 -0.46485547912E+02  0.21134689934E+04  0.21150271642E+04  0.00000000000E+00 0. -1.
         22    1    3    3    0    0 -0.31220325892E+01 -0.16560844219E+02  0.35325235890E+01  0.17218808659E+02  0.00000000000E+00 0.  1.
         22    1    3    3    0    0 -0.77409041850E+02  0.82495768432E+02  0.47187502240E+03  0.48524606988E+03  0.00000000000E+00 0.  1.
</event>
<event>
 7    1  0.7527776E-006  0.4191133E+02  0.7818608E-02  0.1586298E+00
          2   -1    0    0  502    0  0.00000000000E+00  0.00000000000E+00  0.18140337427E+04  0.18140337427E+04  0.00000000000E+00 0. -1.
          1   -1    0    0  501    0 -0.00000000000E+00 -0.00000000000E+00 -0.15556091139E+02  0.15556091139E+02  0.00000000000E+00 0. -1.
         25    2    1    2    0    0 -0.19675888591E+02  0.20720319837E+01  0.35625407666E+03  0.37806586761E+03  0.12500159684E+03 0.  0.
          2    1    1    2  501    0 -0.22879799295E+02 -0.29499413657E+01  0.26393863020E+02  0.35054577090E+02  0.00000000000E+00 0. -1.
          1    1    1    2  502    0  0.42555687885E+02  0.87790938206E+00  0.14158297119E+04  0.14164693891E+04  0.00000000000E+00 0. -1.
         22    1    3    3    0    0  0.36021725870E+02  0.26563547633E+02  0.26257144407E+03  0.26635868681E+03  0.00000000000E+00 0. -1.
         22    1    3    3    0    0 -0.55697614461E+02 -0.24491515650E+02  0.93682632584E+02  0.11170718080E+03  0.00000000000E+00 0. -1.
</event>
<event>
 7    1  0.7527776E-006  0.1184098E+03  0.7818608E-02  0.1252844E+00
          2   -1    0    0  502    0  0.00000000000E+00  0.00000000000E+00  0.25445126703E+04  0.25445126703E+04  0.00000000000E+00 0. -1.
          1   -1    0    0  501    0 -0.00000000000E+00 -0.00000000000E+00 -0.12078290402E+03  0.12078290402E+03  0.00000000000E+00 0. -1.
         25    2    1    2    0    0 -0.14752041279E+03  0.16649373827E+03  0.60621954728E+03  0.65773092190E+03  0.12500155617E+03 0.  0.
          2    1    1    2  501    0  0.81117246791E+02 -0.78429706889E+02 -0.59334104995E+02  0.12748240139E+03  0.00000000000E+00 0. -1.
          1    1    1    2  502    0  0.66403166001E+02 -0.88064031382E+02  0.18768443240E+04  0.18800822510E+04  0.00000000000E+00 0. -1.
         22    1    3    3    0    0 -0.72370314314E+02  0.16475904740E+03  0.42229041015E+03  0.45903398197E+03  0.00000000000E+00 0. -1.
         22    1    3    3    0    0 -0.75150098478E+02  0.17346908674E+01  0.18392913713E+03  0.19869693993E+03  0.00000000000E+00 0. -1.
</event>
<event>
 7    1  0.7527776E-006  0.4211555E+02  0.7818608E-02  0.1535281E+00
          2   -1    0    0  502    0  0.00000000000E+00  0.00000000000E+00  0.61033679273E+03  0.61033679273E+03  0.00000000000E+00 0. -1.
          1   -1    0    0  501    0 -0.00000000000E+00 -0.00000000000E+00 -0.11602462426E+04  0.11602462426E+04  0.00000000000E+00 0. -1.
         25    2    1    2    0    0  0.16696940710E+02 -0.27268284714E+02  0.53011104204E+02  0.13948982071E+03  0.12499954293E+03 0.  0.
          2    1    1    2  501    0 -0.28676759278E+02 -0.13543013761E+02 -0.11159014633E+04  0.11163520258E+04  0.00000000000E+00 0. -1.
          1    1    1    2  502    0  0.11979818568E+02  0.40811298475E+02  0.51298090927E+03  0.51474118876E+03  0.00000000000E+00 0. -1.
         22    1    3    3    0    0  0.33302108497E+02 -0.42172477525E+02 -0.24335196020E+02  0.58989406306E+02  0.00000000000E+00 0.  1.
         22    1    3    3    0    0 -0.16605167788E+02  0.14904192811E+02  0.77346300224E+02  0.80500414402E+02  0.00000000000E+00 0.  1.
</event>
<event>
 7    1  0.7527776E-006  0.6229509E+02  0.7818608E-02  0.1474494E+00
          2   -1    0    0  502    0  0.00000000000E+00  0.00000000000E+00  0.11027306725E+04  0.11027306725E+04  0.00000000000E+00 0. -1.
          1   -1    0    0  501    0 -0.00000000000E+00 -0.00000000000E+00 -0.14664707513E+03  0.14664707513E+03  0.00000000000E+00 0. -1.
         25    2    1    2    0    0 -0.47884717375E+01  0.55151058081E+02  0.87818079557E+02  0.16248742059E+03  0.12500231231E+03 0.  0.
          2    1    1    2  501    0 -0.32157781200E+02 -0.45013921854E+01 -0.10587091581E+03  0.11073859417E+03  0.00000000000E+00 0. -1.
          1    1    1    2  502    0  0.36946252937E+02 -0.50649665895E+02  0.97413643361E+03  0.97615173285E+03  0.00000000000E+00 0. -1.
         22    1    3    3    0    0  0.51836838561E+02  0.56861315041E+02  0.33217885615E+02  0.83807487165E+02  0.00000000000E+00 0. -1.
         22    1    3    3    0    0 -0.56625310298E+02 -0.17102569605E+01  0.54600193941E+02  0.78679933425E+02  0.00000000000E+00 0. -1.
</event>
<event>
 7    1  0.7527776E-006  0.1027463E+03  0.7818608E-02  0.1336920E+00
          2   -1    0    0  502    0  0.00000000000E+00  0.00000000000E+00  0.33863526254E+04  0.33863526254E+04  0.00000000000E+00 0. -1.
          1   -1    0    0  501    0 -0.00000000000E+00 -0.00000000000E+00 -0.52944719743E+02  0.52944719743E+02  0.00000000000E+00 0. -1.
         25    2    1    2    0    0 -0.67295006972E+02  0.12577812819E+03  0.22194284602E+03  0.29194708790E+03  0.12500287892E+03 0.  0.
          2    1    1    2  501    0  0.51057201385E+02 -0.69949530343E+02  0.88487512927E+02  0.12381362830E+03  0.00000000000E+00 0. -1.
          1    1    1    2  502    0  0.16237805587E+02 -0.55828597852E+02  0.30229775467E+04  0.30235366289E+04  0.00000000000E+00 0. -1.
         22    1    3    3    0    0  0.77062622918E+01  0.16273679260E+02  0.12818854075E+03  0.12944698179E+03  0.00000000000E+00 0. -1.
         22    1    3    3    0    0 -0.75001269264E+02  0.10950444894E+03  0.93754305267E+02  0.16250010610E+03  0.00000000000E+00 0. -1.
</event>
<event>
 7    1  0.7527776E-006  0.4463260E+02  0.7818608E-02  0.1575477E+00
          2   -1    0    0  502    0  0.00000000000E+00  0.00000000000E+00  0.11292127171E+03  0.11292127171E+03  0.00000000000E+00 0. -1.
          1   -1    0    0  501    0 -0.00000000000E+00 -0.00000000000E+00 -0.15900995071E+04  0.15900995071E+04  0.00000000000E+00 0. -1.
         25    2    1    2    0    0 -0.23017121330E+02  0.10721602852E+02 -0.47581171751E+03  0.49261163765E+03  0.12499877752E+03 0.  0.
          2    1    1    2  501    0 -0.78812173454E+01  0.21775162725E+02 -0.11009510403E+04  0.11011945625E+04  0.00000000000E+00 0. -1.
          1    1    1    2  502    0  0.30898338676E+02 -0.32496765577E+02  0.99584522387E+02  0.10921457872E+03  0.00000000000E+00 0. -1.
         22    1    3    3    0    0  0.31610010980E+01  0.62773483436E+02 -0.16883976697E+03  0.18015928802E+03  0.00000000000E+00 0. -1.
         22    1    3    3    0    0 -0.26178122428E+02 -0.52051880584E+02 -0.30697195054E+03  0.31245234962E+03  0.00000000000E+00 0. -1.
</event>
<event>
 7    1  0.7527776E-006  0.5855989E+02  0.7818608E-02  0.1413314E+00
          2   -1    0    0  502    0  0.00000000000E+00  0.00000000000E+00  0.72759059373E+03  0.72759059373E+03  0.00000000000E+00 0. -1.
          1   -1    0    0  501    0 -0.00000000000E+00 -0.00000000000E+00 -0.16354195999E+04  0.16354195999E+04  0.00000000000E+00 0. -1.
         25    2    1    2    0    0 -0.22655403576E+02  0.15600537366E+02  0.45725082045E+03  0.47482512721E+03  0.12499577814E+03 0.  0.
          2    1    1    2  501    0 -0.51174694923E+02 -0.28467714768E+02 -0.16207244006E+04  0.16217819961E+04  0.00000000000E+00 0. -1.
          1    1    1    2  502    0  0.73830098499E+02  0.12867177402E+02  0.25564457395E+03  0.26640307035E+03  0.00000000000E+00 0. -1.
         22    1    3    3    0    0  0.14887696092E+02  0.44433486883E+02  0.38872148782E+03  0.39153591578E+03  0.00000000000E+00 0. -1.
         22    1    3    3    0    0 -0.37543099668E+02 -0.28832949517E+02  0.68529332625E+02  0.83289211430E+02  0.00000000000E+00 0. -1.
</event>
<event>
 7    1  0.7527776E-006  0.1743919E+03  0.7818608E-02  0.1248685E+00
          2   -1    0    0  502    0  0.00000000000E+00  0.00000000000E+00  0.32863233773E+03  0.32863233773E+03  0.00000000000E+00 0. -1.
          1   -1    0    0  501    0 -0.00000000000E+00 -0.00000000000E+00 -0.27808697109E+04  0.27808697109E+04  0.00000000000E+00 0. -1.
         25    2    1    2    0    0  0.23819918118E+03 -0.55437021442E+02 -0.17102371027E+03  0.32355243437E+03  0.12499982020E+03 0.  0.
          2    1    1    2  501    0 -0.76603729822E+02  0.15007877288E+02 -0.25054201509E+04  0.25066358930E+04  0.00000000000E+00 0. -1.
          1    1    1    2  502    0 -0.16159545136E+03  0.40429144154E+02  0.22420648800E+03  0.27931372121E+03  0.00000000000E+00 0. -1.
         22    1    3    3    0    0  0.19100063033E+03 -0.77825319247E+01 -0.72670640794E+02  0.20450630949E+03  0.00000000000E+00 0.  1.
         22    1    3    3    0    0  0.47198550857E+02 -0.47654489517E+02 -0.98353069475E+02  0.11904612488E+03  0.00000000000E+00 0.  1.
</event>
<event>
 7    1  0.7527776E-006  0.2631239E+03  0.7818608E-02  0.1194281E+00
          2   -1    0    0  502    0  0.00000000000E+00  0.00000000000E+00  0.18987359880E+04  0.18987359880E+04  0.00000000000E+00 0. -1.
          1   -1    0    0  501    0 -0.00000000000E+00 -0.00000000000E+00 -0.24370659224E+04  0.24370659224E+04  0.00000000000E+00 0. -1.
         25    2    1    2    0    0 -0.17529208684E+03 -0.30192122006E+03 -0.28189483654E+02  0.37189218347E+03  0.12500164122E+03 0.  0.
          2    1    1    2  501    0  0.11672810362E+03  0.23163542059E+03 -0.22282850377E+04  0.22433311453E+04  0.00000000000E+00 0. -1.
          1    1    1    2  502    0  0.58563983212E+02  0.70285799468E+02  0.17181445870E+04  0.17205785817E+04  0.00000000000E+00 0. -1.
         22    1    3    3    0    0 -0.19117312247E+03 -0.28172055487E+03 -0.10363598369E+02  0.34061861071E+03  0.00000000000E+00 0. -1.
         22    1    3    3    0    0  0.15881035635E+02 -0.20200665188E+02 -0.17825885285E+02  0.31273572759E+02  0.00000000000E+00 0. -1.
</event>
<event>
 7    1  0.7527776E-006  0.2332114E+03  0.7818608E-02  0.1217479E+00
          2   -1    0    0  502    0  0.00000000000E+00  0.00000000000E+00  0.57072815115E+03  0.57072815115E+03  0.00000000000E+00 0. -1.
          1   -1    0    0  501    0 -0.00000000000E+00 -0.00000000000E+00 -0.81231489642E+03  0.81231489642E+03  0.00000000000E+00 0. -1.
         25    2    1    2    0    0  0.17487917093E+03 -0.18735473914E+02  0.90573951056E+02  0.23401424166E+03  0.12500112912E+03 0.  0.
          2    1    1    2  501    0 -0.22700060833E+03  0.79996091891E+02 -0.71676925527E+03  0.75609973958E+03  0.00000000000E+00 0. -1.
          1    1    1    2  502    0  0.52121437392E+02 -0.61260617977E+02  0.38460855894E+03  0.39292906633E+03  0.00000000000E+00 0. -1.
         22    1    3    3    0    0  0.24575371252E+02  0.28387786118E+02 -0.19051091214E+02  0.42104148837E+02  0.00000000000E+00 0. -1.
         22    1    3    3    0    0  0.15030379968E+03 -0.47123260032E+02  0.10962504227E+03  0.19191009282E+03  0.00000000000E+00 0. -1.
</event>
<event>
 7    1  0.7527776E-006  0.2497329E+03  0.7818608E-02  0.1267641E+00
          2   -1    0    0  502    0  0.00000000000E+00  0.00000000000E+00  0.28312565354E+03  0.28312565354E+03  0.00000000000E+00 0. -1.
          1   -1    0    0  501    0 -0.00000000000E+00 -0.00000000000E+00 -0.14791832236E+04  0.14791832236E+04  0.00000000000E+00 0. -1.
         25    2    1    2    0    0  0.60989408091E+02  0.27639014721E+03 -0.22447761472E+03  0.38226479292E+03  0.12499980408E+03 0.  0.
          2    1    1    2  501    0  0.81190455809E+01 -0.44485081025E+02 -0.11035078771E+04  0.11044340071E+04  0.00000000000E+00 0. -1.
          1    1    1    2  502    0 -0.69108453671E+02 -0.23190506619E+03  0.13192792170E+03  0.27561007713E+03  0.00000000000E+00 0. -1.
         22    1    3    3    0    0 -0.22165723421E+02  0.12727794922E+03 -0.51090205175E+02  0.13892877570E+03  0.00000000000E+00 0.  1.
         22    1    3    3    0    0  0.83155131511E+02  0.14911219799E+03 -0.17338740955E+03  0.24333601722E+03  0.00000000000E+00 0.  1.
</event>
<event>
 7    1  0.7527776E-006  0.5495071E+02  0.7818608E-02  0.1500351E+00
          2   -1    0    0  502    0  0.00000000000E+00  0.00000000000E+00  0.96733129750E+03  0.96733129750E+03  0.00000000000E+00 0. -1.
          1   -1    0    0  501    0 -0.00000000000E+00 -0.00000000000E+00 -0.63174603540E+03  0.63174603540E+03  0.00000000000E+00 0. -1.
         25    2    1    2    0    0  0.81050861455E+02  0.18534729773E+02 -0.41870919430E+02  0.15585494722E+03  0.12499924932E+03 0.  0.
          2    1    1    2  501    0 -0.50375270382E+02 -0.20242950255E+02 -0.53124003215E+03  0.53400694439E+03  0.00000000000E+00 0. -1.
          1    1    1    2  502    0 -0.30675591073E+02  0.17082204823E+01  0.90869621369E+03  0.90921544128E+03  0.00000000000E+00 0. -1.
         22    1    3    3    0    0  0.45024795723E+02  0.65511128840E+02 -0.53104667916E+02  0.95598357655E+02  0.00000000000E+00 0.  1.
         22    1    3    3    0    0  0.36026065732E+02 -0.46976399067E+02  0.11233748486E+02  0.60256589569E+02  0.00000000000E+00 0.  1.
</event>
<event>
 7    1  0.7527776E-006  0.1471125E+03  0.7818608E-02  0.1295758E+00
          2   -1    0    0  502    0  0.00000000000E+00  0.00000000000E+00  0.12966625031E+04  0.12966625031E+04  0.00000000000E+00 0. -1.
          1   -1    0    0  501    0 -0.00000000000E+00 -0.00000000000E+00 -0.30033173579E+03  0.30033173579E+03  0.00000000000E+00 0. -1.
         25    2    1    2    0    0  0.19491802934E+03 -0.22524669887E+02  0.13806244730E+03  0.27053156257E+03  0.12500275227E+03 0.  0.
          2    1    1    2  501    0 -0.14204829615E+03 -0.31740160393E+01 -0.21165657522E+03  0.25492410371E+03  0.00000000000E+00 0. -1.
          1    1    1    2  502    0 -0.52869733181E+02  0.25698685926E+02  0.10699248952E+04  0.10715385726E+04  0.00000000000E+00 0. -1.
         22    1    3    3    0    0  0.15986593771E+03 -0.26495546517E+02  0.16101917386E+03  0.22844322353E+03  0.00000000000E+00 0.  1.
         22    1    3    3    0    0  0.35052091630E+02  0.39708766304E+01 -0.22956726559E+02  0.42088339040E+02  0.00000000000E+00 0.  1.
</event>
<event>
 7    1  0.7527776E-006  0.5469775E+02  0.7818608E-02  0.1517516E+00
          2   -1    0    0  502    0  0.00000000000E+00  0.00000000000E+00  0.81797993132E+03  0.81797993132E+03  0.00000000000E+00 0. -1.
          1   -1    0    0  501    0 -0.00000000000E+00 -0.00000000000E+00 -0.14263222362E+03  0.14263222362E+03  0.00000000000E+00 0. -1.
         25    2    1    2    0    0  0.26710267999E+02  0.18020355603E+02  0.97850927878E+01  0.12945585526E+03  0.12499959515E+03 0.  0.
          2    1    1    2  501    0 -0.53953014171E+02 -0.21550406041E+02 -0.72318042564E+02  0.92764470672E+02  0.00000000000E+00 0. -1.
          1    1    1    2  502    0  0.27242746173E+02  0.35300504384E+01  0.73788065747E+03  0.73839182901E+03  0.00000000000E+00 0. -1.
         22    1    3    3    0    0  0.65755174026E+02  0.46554938722E+02  0.30140538890E+01  0.80623754263E+02  0.00000000000E+00 0.  1.
         22    1    3    3    0    0 -0.39044906027E+02 -0.28534583119E+02  0.67710388989E+01  0.48832101001E+02  0.00000000000E+00 0.  1.
</event>
<event>
 7    1  0.7527776E-006  0.8192099E+02  0.7818608E-02  0.1425603E+00
          2   -1    0    0  502    0  0.00000000000E+00  0.00000000000E+00  0.30686850450E+03  0.30686850450E+03  0.00000000000E+00 0. -1.
          1   -1    0    0  501    0 -0.00000000000E+00 -0.00000000000E+00 -0.64477482576E+03  0.64477482576E+03  0.00000000000E+00 0. -1.
         25    2    1    2    0    0  0.53141071267E+02 -0.60869827064E+02  0.15608748991E+03  0.21567858429E+03  0.12499935164E+03 0.  0.
          2    1    1    2  501    0 -0.28820523836E+02 -0.20558155059E+02 -0.59946909693E+03  0.60051349569E+03  0.00000000000E+00 0. -1.
          1    1    1    2  502    0 -0.24320547430E+02  0.81427982123E+02  0.10547528575E+03  0.13545125029E+03  0.00000000000E+00 0. -1.
         22    1    3    3    0    0  0.54637005280E+02 -0.56957890542E+01  0.15048824463E+03  0.16020098668E+03  0.00000000000E+00 0. -1.
         22    1    3    3    0    0 -0.14959340137E+01 -0.55174038010E+02  0.55992452794E+01  0.55477597610E+02  0.00000000000E+00 0. -1.
</event>
<event>
 7    1  0.7527776E-006  0.1770573E+03  0.7818608E-02  0.1389898E+00
          2   -1    0    0  502    0  0.00000000000E+00  0.00000000000E+00  0.12792095827E+04  0.12792095827E+04  0.00000000000E+00 0. -1.
          1   -1    0    0  501    0 -0.00000000000E+00 -0.00000000000E+00 -0.11160207576E+04  0.11160207576E+04  0.00000000000E+00 0. -1.
         25    2    1    2    0    0 -0.79117330919E+02  0.15797747721E+03  0.46511641231E+03  0.51300580007E+03  0.12500095420E+03 0.  0.
          2    1    1    2  501    0 -0.19185010602E+02 -0.10060594783E+02 -0.10819862661E+04  0.10822031049E+04  0.00000000000E+00 0. -1.
          1    1    1    2  502    0  0.98302341521E+02 -0.14791688243E+03  0.78005867893E+03  0.80002143536E+03  0.00000000000E+00 0. -1.
         22    1    3    3    0    0 -0.99434291425E+01 -0.18832774373E+02  0.91141096687E+02  0.93596178763E+02  0.00000000000E+00 0.  1.
         22    1    3    3    0    0 -0.69173901776E+02  0.17681025159E+03  0.37397531562E+03  0.41940962131E+03  0.00000000000E+00 0.  1.
</event>
<event>
 7    1  0.7527776E-006  0.1117350E+03  0.7818608E-02  0.1273560E+00
          2   -1    0    0  502    0  0.00000000000E+00  0.00000000000E+00  0.90142347735E+03  0.90142347735E+03  0.00000000000E+00 0. -1.
          1   -1    0    0  501    0 -0.00000000000E+00 -0.00000000000E+00 -0.11498502233E+04  0.11498502233E+04  0.00000000000E+00 0. -1.
         25    2    1    2    0    0  0.11573747820E+03 -0.12857616229E+02  0.11632221366E+03  0.20668024925E+03  0.12500154352E+03 0.  0.
          2    1    1    2  501    0 -0.49958842051E+02 -0.81333771424E+02 -0.10981288318E+04  0.11022694768E+04  0.00000000000E+00 0. -1.
          1    1    1    2  502    0 -0.65778636150E+02  0.94191387653E+02  0.73337987213E+03  0.74232397464E+03  0.00000000000E+00 0. -1.
         22    1    3    3    0    0 -0.37859312711E+01 -0.14758301217E+02  0.80443170014E+02  0.81873343234E+02  0.00000000000E+00 0.  1.
         22    1    3    3    0    0  0.11952340947E+03  0.19006849877E+01  0.35879043649E+02  0.12480690601E+03  0.00000000000E+00 0.  1.
</event>
<event>
 7    1  0.7527776E-006  0.1296933E+03  0.7818608E-02  0.1266695E+00
          2   -1    0    0  502    0  0.00000000000E+00  0.00000000000E+00  0.38452943986E+03  0.38452943986E+03  0.00000000000E+00 0. -1.
          1   -1    0    0  501    0 -0.00000000000E+00 -0.00000000000E+00 -0.82655168831E+03  0.82655168831E+03  0.00000000000E+00 0. -1.
         25    2    1    2    0    0  0.16975723971E+03 -0.12601763138E+03 -0.22639333836E+03  0.33403217731E+03  0.12500235186E+03 0.  0.
          2    1    1    2  501    0 -0.79181283533E+02  0.38116612905E+02 -0.53054881872E+03  0.53777746409E+03  0.00000000000E+00 0. -1.
          1    1    1    2  502    0 -0.90575956178E+02  0.87901018475E+02  0.31491990862E+03  0.33927148677E+03  0.00000000000E+00 0. -1.
         22    1    3    3    0    0 -0.87980960587E+01 -0.11527497098E+02  0.90828131981E+01  0.17111025077E+02  0.00000000000E+00 0.  1.
         22    1    3    3    0    0  0.17855533577E+03 -0.11449013428E+03 -0.23547615156E+03  0.31692115224E+03  0.00000000000E+00 0.  1.
</event>
<event>
 7    1  0.7527776E-006  0.1783489E+03  0.7818608E-02  0.1340657E+00
          2   -1    0    0  502    0  0.00000000000E+00  0.00000000000E+00  0.66008988448E+03  0.66008988448E+03  0.00000000000E+00 0. -1.
          1   -1    0    0  501    0 -0.00000000000E+00 -0.00000000000E+00 -0.45478488798E+03  0.45478488798E+03  0.00000000000E+00 0. -1.
         25    2    1    2    0    0 -0.18860348913E+03 -0.20453294051E+01  0.10903962509E+02  0.22653637789E+03  0.12499749847E+03 0.  0.
          2    1    1    2  501    0  0.14106194235E+02 -0.29197688445E+02 -0.33164470381E+03  0.33322619838E+03  0.00000000000E+00 0. -1.
          1    1    1    2  502    0  0.17449729490E+03  0.31243017851E+02  0.52604573780E+03  0.55511219618E+03  0.00000000000E+00 0. -1.
         22    1    3    3    0    0 -0.14429147991E+03  0.21787253294E+02 -0.43656889205E+02  0.15231756155E+03  0.00000000000E+00 0. -1.
         22    1    3    3    0    0 -0.44312009217E+02 -0.23832582699E+02  0.54560851714E+02  0.74218816339E+02  0.00000000000E+00 0. -1.
</event>
<event>
 7    1  0.7527776E-006  0.4160762E+02  0.7818608E-02  0.1532342E+00
          2   -1    0    0  502    0  0.00000000000E+00  0.00000000000E+00  0.16223769829E+04  0.16223769829E+04  0.00000000000E+00 0. -1.
          1   -1    0    0  501    0 -0.00000000000E+00 -0.00000000000E+00 -0.39742085245E+02  0.39742085245E+02  0.00000000000E+00 0. -1.
         25    2    1    2    0    0  0.12234764764E+02 -0.13779743604E+02  0.41640992749E+03  0.43515735436E+03  0.12500049814E+03 0.  0.
          2    1    1    2  501    0  0.34828209196E+01  0.42484527603E+02 -0.15070759904E+02  0.45212751866E+02  0.00000000000E+00 0. -1.
          1    1    1    2  502    0 -0.15717585684E+02 -0.28704784000E+02  0.11812957301E+04  0.11817489620E+04  0.00000000000E+00 0. -1.
         22    1    3    3    0    0 -0.46895428192E+02 -0.39544805534E+01  0.30533936621E+03  0.30894489421E+03  0.00000000000E+00 0.  1.
         22    1    3    3    0    0  0.59130192956E+02 -0.98252630501E+01  0.11107056128E+03  0.12621246015E+03  0.00000000000E+00 0.  1.
</event>
<event>
 7    1  0.8921519E-006  0.8997708E+02  0.7818608E-02  0.1318184E+00
          2   -1    0    0  502    0  0.00000000000E+00  0.00000000000E+00  0.27534332771E+04  0.27534332771E+04  0.00000000000E+00 0. -1.
          1   -1    0    0  501    0 -0.00000000000E+00 -0.00000000000E+00 -0.16545718561E+04  0.16545718561E+04  0.00000000000E+00 0. -1.
         25    2    1    2    0    0 -0.77651454697E+02 -0.42866417707E+02 -0.96245698514E+02  0.18098203423E+03  0.12499593612E+03 0.  0.
          2    1    1    2  501    0  0.63300700582E+02 -0.46151525780E+02 -0.15141954338E+04  0.15162205492E+04  0.00000000000E+00 0. -1.
          1    1    1    2  502    0  0.14350754116E+02  0.89017943487E+02  0.27093025533E+04  0.27108025498E+04  0.00000000000E+00 0. -1.
         22    1    3    3    0    0 -0.28823201589E+02  0.19901073849E+02  0.19851556138E+02  0.40260575894E+02  0.00000000000E+00 0.  1.
         22    1    3    3    0    0 -0.48828253108E+02 -0.62767491555E+02 -0.11609725465E+03  0.14072145833E+03  0.00000000000E+00 0.  1.
</event>
<event>
 7    1  0.1427922E-005  0.6651638E+02  0.7818608E-02  0.1387560E+00
          2   -1    0    0  502    0  0.00000000000E+00  0.00000000000E+00  0.16453378520E+04  0.16453378520E+04  0.00000000000E+00 0. -1.
          1   -1    0    0  501    0 -0.00000000000E+00 -0.00000000000E+00 -0.45027568952E+03  0.45027568952E+03  0.00000000000E+00 0. -1.
         25    2    1    2    0    0  0.50465901049E+02  0.39329556456E+02 -0.13384952064E+03  0.19400461316E+03  0.12501389750E+03 0.  0.
          2    1    1    2  501    0 -0.52039334239E+02  0.27287140890E+02 -0.28263843021E+03  0.28868176700E+03  0.00000000000E+00 0. -1.
          1    1    1    2  502    0  0.15734331895E+01 -0.66616697346E+02  0.16115501133E+04  0.16129271613E+04  0.00000000000E+00 0. -1.
         22    1    3    3    0    0  0.31478686431E+02 -0.37242613245E+02 -0.93364073040E+02  0.10533171448E+03  0.00000000000E+00 0.  1.
         22    1    3    3    0    0  0.18987214618E+02  0.76572169701E+02 -0.40485447604E+02  0.88672898675E+02  0.00000000000E+00 0.  1.
</event>
<event>
 7    1  0.7527776E-006  0.1795571E+03  0.7818608E-02  0.1249706E+00
          2   -1    0    0  502    0  0.00000000000E+00  0.00000000000E+00  0.19363720723E+04  0.19363720723E+04  0.00000000000E+00 0. -1.
          1   -1    0    0  501    0 -0.00000000000E+00 -0.00000000000E+00 -0.35593129564E+03  0.35593129564E+03  0.00000000000E+00 0. -1.
         25    2    1    2    0    0 -0.27942539245E+02 -0.23785289475E+03  0.13848772556E+03  0.30357681755E+03  0.12500099594E+03 0.  0.
          2    1    1    2  501    0 -0.26844726995E+02  0.70079010951E+02 -0.26359578971E+03  0.27407015068E+03  0.00000000000E+00 0. -1.
          1    1    1    2  502    0  0.54787266240E+02  0.16777388380E+03  0.17055488408E+04  0.17146563997E+04  0.00000000000E+00 0. -1.
         22    1    3    3    0    0 -0.32092092890E+02 -0.14889534640E+03  0.15000791569E+03  0.21378049811E+03  0.00000000000E+00 0. -1.
         22    1    3    3    0    0  0.41495536452E+01 -0.88957548352E+02 -0.11520190130E+02  0.89796319439E+02  0.00000000000E+00 0. -1.
</event>
<event>
 7    1  0.7527776E-006  0.7755534E+02  0.7818608E-02  0.1392156E+00
          2   -1    0    0  502    0  0.00000000000E+00  0.00000000000E+00  0.35882985354E+03  0.35882985354E+03  0.00000000000E+00 0. -1.
          1   -1    0    0  501    0 -0.00000000000E+00 -0.00000000000E+00 -0.15151524964E+04  0.15151524964E+04  0.00000000000E+00 0. -1.
         25    2    1    2    0    0 -0.10774928510E+03  0.64258724325E+02  0.52712248460E+02  0.18477873645E+03  0.12500203285E+03 0.  0.
          2    1    1    2  501    0  0.68164106349E+02 -0.36118175824E+02 -0.14456239998E+04  0.14476807717E+04  0.00000000000E+00 0. -1.
          1    1    1    2  502    0  0.39585178755E+02 -0.28140548501E+02  0.23658910847E+03  0.24152284177E+03  0.00000000000E+00 0. -1.
         22    1    3    3    0    0 -0.89454642753E+01 -0.33335229960E+02  0.26346814878E+02  0.43421348917E+02  0.00000000000E+00 0.  1.
         22    1    3    3    0    0 -0.98803820829E+02  0.97593954285E+02  0.26365433582E+02  0.14135738754E+03  0.00000000000E+00 0.  1.
</event>
<event>
 7    1  0.7527776E-006  0.1202705E+03  0.7818608E-02  0.1413757E+00
          2   -1    0    0  502    0  0.00000000000E+00  0.00000000000E+00  0.20839589132E+04  0.20839589132E+04  0.00000000000E+00 0. -1.
          1   -1    0    0  501    0 -0.00000000000E+00 -0.00000000000E+00 -0.28253184980E+03  0.28253184980E+03  0.00000000000E+00 0. -1.
         25    2    1    2    0    0 -0.10351555791E+03  0.68337619606E+02  0.13227175722E+04  0.13343882081E+04  0.12499845247E+03 0.  0.
          2    1    1    2  501    0  0.11216485478E+03 -0.43379415176E+02 -0.26338312758E+03  0.28953998032E+03  0.00000000000E+00 0. -1.
          1    1    1    2  502    0 -0.86492968677E+01 -0.24958204429E+02  0.74209261874E+03  0.74256257453E+03  0.00000000000E+00 0. -1.
         22    1    3    3    0    0 -0.13164572912E+03  0.58921908627E+02  0.11661334978E+04  0.11750190313E+04  0.00000000000E+00 0. -1.
         22    1    3    3    0    0  0.28130171211E+02  0.94157109783E+01  0.15658407443E+03  0.15936917679E+03  0.00000000000E+00 0. -1.
</event>
<event>
 7    1  0.7527776E-006  0.1111621E+03  0.7818608E-02  0.1400613E+00
          2   -1    0    0  502    0  0.00000000000E+00  0.00000000000E+00  0.39884278394E+03  0.39884278394E+03  0.00000000000E+00 0. -1.
          1   -1    0    0  501    0 -0.00000000000E+00 -0.00000000000E+00 -0.51479100304E+03  0.51479100304E+03  0.00000000000E+00 0. -1.
         25    2    1    2    0    0 -0.28441908693E+02 -0.13600777206E+03 -0.22465729318E+03  0.29223492980E+03  0.12499319415E+03 0.  0.
          2    1    1    2  501    0 -0.57513788296E+01  0.31152594631E+02 -0.24697992095E+03  0.24900330091E+03  0.00000000000E+00 0. -1.
          1    1    1    2  502    0  0.34193287523E+02  0.10485517742E+03  0.35568899503E+03  0.37239555627E+03  0.00000000000E+00 0. -1.
         22    1    3    3    0    0  0.30470915717E+02 -0.82191684654E+02 -0.51724151005E+02  0.10178083085E+03  0.00000000000E+00 0. -1.
         22    1    3    3    0    0 -0.58912824410E+02 -0.53816087402E+02 -0.17293314218E+03  0.19045409895E+03  0.00000000000E+00 0. -1.
</event>
<event>
 7    1  0.7527776E-006  0.5642587E+02  0.7818608E-02  0.1557368E+00
          2   -1    0    0  502    0  0.00000000000E+00  0.00000000000E+00  0.36808646262E+02  0.36808646262E+02  0.00000000000E+00 0. -1.
          1   -1    0    0  501    0 -0.00000000000E+00 -0.00000000000E+00 -0.28272689527E+04  0.28272689527E+04  0.00000000000E+00 0. -1.
         25    2    1    2    0    0 -0.50034941224E+02  0.51293135533E+02 -0.74521779906E+03  0.75901867797E+03  0.12500121747E+03 0.  0.
          2    1    1    2  501    0  0.29981877877E+02 -0.46913588989E+02 -0.20712103659E+04  0.20719585366E+04  0.00000000000E+00 0. -1.
          1    1    1    2  502    0  0.20053063347E+02 -0.43795465443E+01  0.25967858432E+02  0.33100384425E+02  0.00000000000E+00 0. -1.
         22    1    3    3    0    0 -0.31022551707E+02  0.78943580710E+02 -0.68372334986E+03  0.68896451780E+03  0.00000000000E+00 0. -1.
         22    1    3    3    0    0 -0.19012389517E+02 -0.27650445177E+02 -0.61494449207E+02  0.70054160168E+02  0.00000000000E+00 0. -1.
</event>
<event>
 7    1  0.7527776E-006  0.7090157E+02  0.7818608E-02  0.1382233E+00
          2   -1    0    0  502    0  0.00000000000E+00  0.00000000000E+00  0.53814873823E+03  0.53814873823E+03  0.00000000000E+00 0. -1.
          1   -1    0    0  501    0 -0.00000000000E+00 -0.00000000000E+00 -0.60705883175E+03  0.60705883175E+03  0.00000000000E+00 0. -1.
         25    2    1    2    0    0  0.26818561808E+02  0.12065871120E+03  0.12021997706E+03  0.21296978912E+03  0.12500211338E+03 0.  0.
          2    1    1    2  501    0  0.93765042679E+00 -0.70239437178E+02 -0.55623274302E+03  0.56065080231E+03  0.00000000000E+00 0. -1.
          1    1    1    2  502    0 -0.27756212234E+02 -0.50419274022E+02  0.36710267245E+03  0.37158697855E+03  0.00000000000E+00 0. -1.
         22    1    3    3    0    0  0.47792424085E+01  0.14849221819E+02 -0.26493010670E+02  0.30744433008E+02  0.00000000000E+00 0. -1.
         22    1    3    3    0    0  0.22039319399E+02  0.10580948938E+03  0.14671298773E+03  0.18222535611E+03  0.00000000000E+00 0. -1.
</event>
<event>
 7    1  0.7527776E-006  0.7581896E+02  0.7818608E-02  0.1465528E+00
          2   -1    0    0  502    0  0.00000000000E+00  0.00000000000E+00  0.43557714981E+03  0.43557714981E+03  0.00000000000E+00 0. -1.
          1   -1    0    0  501    0 -0.00000000000E+00 -0.00000000000E+00 -0.49939001891E+02  0.49939001891E+02  0.00000000000E+00 0. -1.
         25    2    1    2    0    0  0.73990380500E+02  0.12190892900E+02  0.21718888620E+03  0.26157123723E+03  0.12500122232E+03 0.  0.
          2    1    1    2  501    0 -0.66106483695E+02 -0.39525601425E+02  0.30089243839E+02  0.82690404215E+02  0.00000000000E+00 0. -1.
          1    1    1    2  502    0 -0.78838968052E+01  0.27334708526E+02  0.13836001788E+03  0.14125451025E+03  0.00000000000E+00 0. -1.
         22    1    3    3    0    0  0.74982537032E+02 -0.23739616778E+02  0.21089042592E+03  0.22507936825E+03  0.00000000000E+00 0. -1.
         22    1    3    3    0    0 -0.99215653177E+00  0.35930509678E+02  0.62984602791E+01  0.36491868987E+02  0.00000000000E+00 0. -1.
</event>
<event>
 7    1  0.7527776E-006  0.2214360E+03  0.7818608E-02  0.1236700E+00
          2   -1    0    0  502    0  0.00000000000E+00  0.00000000000E+00  0.41439749937E+03  0.41439749937E+03  0.00000000000E+00 0. -1.
          1   -1    0    0  501    0 -0.00000000000E+00 -0.00000000000E+00 -0.10798499973E+04  0.10798499973E+04  0.00000000000E+00 0. -1.
         25    2    1    2    0    0  0.23592291924E+03 -0.45032569359E+02  0.53998031936E+02  0.27609667146E+03  0.12500411357E+03 0.  0.
          2    1    1    2  501    0 -0.20646542137E+02  0.66252774069E+02 -0.92033113768E+03  0.92294372134E+03  0.00000000000E+00 0. -1.
          1    1    1    2  502    0 -0.21527637711E+03 -0.21220204710E+02  0.20088060777E+03  0.29520710392E+03  0.00000000000E+00 0. -1.
         22    1    3    3    0    0 -0.10321733718E+02 -0.48732128214E+01  0.21697399262E+02  0.24516596927E+02  0.00000000000E+00 0.  1.
         22    1    3    3    0    0  0.24624465296E+03 -0.40159356537E+02  0.32300632674E+02  0.25158007453E+03  0.00000000000E+00 0.  1.
</event>
<event>
 7    1  0.7527776E-006  0.4511739E+02  0.7818608E-02  0.1492735E+00
          2   -1    0    0  502    0  0.00000000000E+00  0.00000000000E+00  0.41255789220E+02  0.41255789220E+02  0.00000000000E+00 0. -1.
          1   -1    0    0  501    0 -0.00000000000E+00 -0.00000000000E+00 -0.17004474099E+04  0.17004474099E+04  0.00000000000E+00 0. -1.
         25    2    1    2    0    0  0.27570352995E+02  0.69867058332E+02 -0.64897422445E+03  0.66514885976E+03  0.12495571786E+03 0.  0.
          2    1    1    2  501    0 -0.31253951839E+02 -0.30600128025E+02 -0.10310320149E+04  0.10319593950E+04  0.00000000000E+00 0. -1.
          1    1    1    2  502    0  0.36835988444E+01 -0.39266930308E+02  0.20814618590E+02  0.44594944369E+02  0.00000000000E+00 0. -1.
         22    1    3    3    0    0  0.48248605325E+02  0.98845974108E+02 -0.47487936495E+03  0.48745139836E+03  0.00000000000E+00 0. -1.
         22    1    3    3    0    0 -0.20678252330E+02 -0.28978915776E+02 -0.17409485951E+03  0.17769746139E+03  0.00000000000E+00 0. -1.
</event>
<event>
 7    1  0.7527776E-006  0.6824408E+02  0.7818608E-02  0.1395563E+00
          2   -1    0    0  502    0  0.00000000000E+00  0.00000000000E+00  0.15216872903E+04  0.15216872903E+04  0.00000000000E+00 0. -1.
          1   -1    0    0  501    0 -0.00000000000E+00 -0.00000000000E+00 -0.34537242455E+03  0.34537242455E+03  0.00000000000E+00 0. -1.
         25    2    1    2    0    0  0.88501553133E+00 -0.10095318947E+03  0.53046256548E+03  0.55426309715E+03  0.12499887105E+03 0.  0.
          2    1    1    2  501    0  0.31735898351E+02  0.43334330594E+02 -0.33018034763E+03  0.33452069206E+03  0.00000000000E+00 0. -1.
          1    1    1    2  502    0 -0.32620913882E+02  0.57618858873E+02  0.97603264788E+03  0.97827592562E+03  0.00000000000E+00 0. -1.
         22    1    3    3    0    0 -0.24120728832E+02 -0.10496261698E+03  0.51126167214E+03  0.52248201684E+03  0.00000000000E+00 0.  1.
         22    1    3    3    0    0  0.25005744363E+02  0.40094275183E+01  0.19200893345E+02  0.31781080306E+02  0.00000000000E+00 0.  1.
</event>
<event>
 7    1  0.7527776E-006  0.5965356E+02  0.7818608E-02  0.1421352E+00
          2   -1    0    0  502    0  0.00000000000E+00  0.00000000000E+00  0.69434828183E+03  0.69434828183E+03  0.00000000000E+00 0. -1.
          1   -1    0    0  501    0 -0.00000000000E+00 -0.00000000000E+00 -0.24612114863E+03  0.24612114863E+03  0.00000000000E+00 0. -1.
         25    2    1    2    0    0  0.59241793673E+01 -0.11359053859E+02 -0.80999699621E+02  0.14951175397E+03  0.12501475605E+03 0.  0.
          2    1    1    2  501    0  0.47324818004E+02 -0.16815757660E+02 -0.12461043084E+03  0.13435091209E+03  0.00000000000E+00 0. -1.
          1    1    1    2  502    0 -0.53248997372E+02  0.28174811520E+02  0.65383726366E+03  0.65660676441E+03  0.00000000000E+00 0. -1.
         22    1    3    3    0    0  0.31898319541E+02 -0.59640176978E+02 -0.61224352493E+02  0.91229791394E+02  0.00000000000E+00 0.  1.
         22    1    3    3    0    0 -0.25974140174E+02  0.48281123118E+02 -0.19775347128E+02  0.58281962573E+02  0.00000000000E+00 0.  1.
</event>
<event>
 7    1  0.7527776E-006  0.2498747E+02  0.7818608E-02  0.1688415E+00
          2   -1    0    0  502    0  0.00000000000E+00  0.00000000000E+00  0.36067254837E+02  0.36067254837E+02  0.00000000000E+00 0. -1.
          1   -1    0    0  501    0 -0.00000000000E+00 -0.00000000000E+00 -0.69138598398E+03  0.69138598398E+03  0.00000000000E+00 0. -1.
         25    2    1    2    0    0 -0.24692976841E+02  0.26190653098E+02 -0.15569500019E+03  0.20288113499E+03  0.12499651369E+03 0.  0.
          2    1    1    2  501    0  0.48378205202E+00 -0.21520335835E+02 -0.49945228914E+03  0.49991594096E+03  0.00000000000E+00 0. -1.
          1    1    1    2  502    0  0.24209194789E+02 -0.46703172626E+01 -0.17143981108E+00  0.24656162866E+02  0.00000000000E+00 0. -1.
         22    1    3    3    0    0 -0.17849897482E+02  0.76488520545E+02 -0.83600241745E+02  0.11470881847E+03  0.00000000000E+00 0. -1.
         22    1    3    3    0    0 -0.68430793585E+01 -0.50297867447E+02 -0.72094758449E+02  0.88172316521E+02  0.00000000000E+00 0. -1.
</event>
<event>
 7    1  0.7527776E-006  0.9889066E+02  0.7818608E-02  0.1371188E+00
          2   -1    0    0  502    0  0.00000000000E+00  0.00000000000E+00  0.67057479555E+03  0.67057479555E+03  0.00000000000E+00 0. -1.
          1   -1    0    0  501    0 -0.00000000000E+00 -0.00000000000E+00 -0.22050373208E+03  0.22050373208E+03  0.00000000000E+00 0. -1.
         25    2    1    2    0    0 -0.76222183728E+02 -0.11632116423E+03  0.51529581005E+02  0.19396030503E+03  0.12499947067E+03 0.  0.
          2    1    1    2  501    0  0.13172320605E+02  0.43211182836E+02 -0.14148927779E+03  0.14852586334E+03  0.00000000000E+00 0. -1.
          1    1    1    2  502    0  0.63049863123E+02  0.73109981392E+02  0.54003076025E+03  0.54859235926E+03  0.00000000000E+00 0. -1.
         22    1    3    3    0    0 -0.78986388608E+02 -0.12267675216E+03  0.78798704843E+02  0.16582421714E+03  0.00000000000E+00 0.  1.
         22    1    3    3    0    0  0.27642048803E+01  0.63555879307E+01 -0.27269123838E+02  0.28136087884E+02  0.00000000000E+00 0.  1.
</event>
<event>
 7    1  0.7527776E-006  0.2961593E+03  0.7818608E-02  0.1134037E+00
          2   -1    0    0  502    0  0.00000000000E+00  0.00000000000E+00  0.55573428999E+03  0.55573428999E+03  0.00000000000E+00 0. -1.
          1   -1    0    0  501    0 -0.00000000000E+00 -0.00000000000E+00 -0.30060887593E+04  0.30060887593E+04  0.00000000000E+00 0. -1.
         25    2    1    2    0    0 -0.21368695238E+03 -0.35261934158E+03 -0.27712340749E+03  0.51227411237E+03  0.12499947820E+03 0.  0.
          2    1    1    2  501    0  0.21870735027E+03  0.18957666672E+03 -0.25878557757E+04  0.26039911162E+04  0.00000000000E+00 0. -1.
          1    1    1    2  502    0 -0.50203978859E+01  0.16304267487E+03  0.41462471388E+03  0.44555782069E+03  0.00000000000E+00 0. -1.
         22    1    3    3    0    0 -0.15055538148E+03 -0.16537905129E+03 -0.20043074270E+03  0.30031589388E+03  0.00000000000E+00 0.  1.
         22    1    3    3    0    0 -0.63131570899E+02 -0.18724029029E+03 -0.76692664792E+02  0.21195821849E+03  0.00000000000E+00 0.  1.
</event>
<event>
 7    1  0.7527776E-006  0.1009119E+03  0.7818608E-02  0.1328366E+00
          2   -1    0    0  502    0  0.00000000000E+00  0.00000000000E+00  0.34371844091E+04  0.34371844091E+04  0.00000000000E+00 0. -1.
          1   -1    0    0  501    0 -0.00000000000E+00 -0.00000000000E+00 -0.97348425707E+03  0.97348425707E+03  0.00000000000E+00 0. -1.
         25    2    1    2    0    0 -0.13484984714E+03 -0.30191298661E+02  0.32634424511E+02  0.18917298816E+03  0.12500167198E+03 0.  0.
          2    1    1    2  501    0  0.79239206425E+02  0.61474699542E+02 -0.89209894847E+03  0.89771851066E+03  0.00000000000E+00 0. -1.
          1    1    1    2  502    0  0.55610640714E+02 -0.31283400881E+02  0.33231646760E+04  0.33237771674E+04  0.00000000000E+00 0. -1.
         22    1    3    3    0    0 -0.58333943989E+02  0.46607576325E+02 -0.39103176208E+01  0.74769016151E+02  0.00000000000E+00 0. -1.
         22    1    3    3    0    0 -0.76515903149E+02 -0.76798874986E+02  0.36544742132E+02  0.11440397201E+03  0.00000000000E+00 0. -1.
</event>
<event>
 7    1  0.7527776E-006  0.9387409E+02  0.7818608E-02  0.1406779E+00
          2   -1    0    0  502    0  0.00000000000E+00  0.00000000000E+00  0.78312589414E+03  0.78312589414E+03  0.00000000000E+00 0. -1.
          1   -1    0    0  501    0 -0.00000000000E+00 -0.00000000000E+00 -0.25865322787E+03  0.25865322787E+03  0.00000000000E+00 0. -1.
         25    2    1    2    0    0  0.60270425041E+02  0.22356459766E+02  0.22632302268E+03  0.26641836110E+03  0.12499718840E+03 0.  0.
          2    1    1    2  501    0 -0.94363311044E+02 -0.11648405681E+02 -0.22850415391E+03  0.24749599629E+03  0.00000000000E+00 0. -1.
          1    1    1    2  502    0  0.34092886002E+02 -0.10708054085E+02  0.52665379750E+03  0.52786476461E+03  0.00000000000E+00 0. -1.
         22    1    3    3    0    0  0.54660475678E+02  0.46332114840E+01  0.18687332408E+02  0.57952140966E+02  0.00000000000E+00 0.  1.
         22    1    3    3    0    0  0.56099493632E+01  0.17723248282E+02  0.20763569027E+03  0.20846622013E+03  0.00000000000E+00 0.  1.
</event>
<event>
 7    1  0.7527776E-006  0.4424383E+02  0.7818608E-02  0.1537912E+00
          2   -1    0    0  502    0  0.00000000000E+00  0.00000000000E+00  0.81884444746E+02  0.81884444746E+02  0.00000000000E+00 0. -1.
          1   -1    0    0  501    0 -0.00000000000E+00 -0.00000000000E+00 -0.57732532784E+03  0.57732532784E+03  0.00000000000E+00 0. -1.
         25    2    1    2    0    0  0.53932353434E+02  0.11985952708E+01 -0.45030526360E+03  0.47042784041E+03  0.12496954521E+03 0.  0.
          2    1    1    2  501    0 -0.35227663052E+02 -0.24234344584E+02 -0.10969266709E+03  0.11773178379E+03  0.00000000000E+00 0. -1.
          1    1    1    2  502    0 -0.18704690382E+02  0.23035749313E+02  0.64557047605E+02  0.71050148375E+02  0.00000000000E+00 0. -1.
         22    1    3    3    0    0  0.38724868770E+02  0.30872734538E+02 -0.42672309861E+03  0.42958741147E+03  0.00000000000E+00 0.  1.
         22    1    3    3    0    0  0.15207484665E+02 -0.29674139267E+02 -0.23582164990E+02  0.40840428948E+02  0.00000000000E+00 0.  1.
</event>
<event>
 7    1  0.7527776E-006  0.9623995E+02  0.7818608E-02  0.1464316E+00
          2   -1    0    0  502    0  0.00000000000E+00  0.00000000000E+00  0.16201371150E+04  0.16201371150E+04  0.00000000000E+00 0. -1.
          1   -1    0    0  501    0 -0.00000000000E+00 -0.00000000000E+00 -0.73805518612E+03  0.73805518612E+03  0.00000000000E+00 0. -1.
         25    2    1    2    0    0 -0.10322381654E+03  0.35484596643E+02  0.16608052845E+02  0.16677041295E+03  0.12498892078E+03 0.  0.
          2    1    1    2  501    0  0.19478243386E+02  0.11479217809E+02 -0.66127272858E+03  0.66165912369E+03  0.00000000000E+00 0. -1.
          1    1    1    2  502    0  0.83745573151E+02 -0.46963814452E+02  0.15267466046E+04  0.15297627645E+04  0.00000000000E+00 0. -1.
         22    1    3    3    0    0 -0.19605529436E+02 -0.35691567626E+02  0.37073890614E+02  0.55070301882E+02  0.00000000000E+00 0.  1.
         22    1    3    3    0    0 -0.83618287100E+02  0.71176164269E+02 -0.20465837769E+02  0.11170011107E+03  0.00000000000E+00 0.  1.
</event>
<event>
 7    1  0.7527776E-006  0.7905420E+02  0.7818608E-02  0.1376354E+00
          2   -1    0    0  502    0  0.00000000000E+00  0.00000000000E+00  0.55333126931E+03  0.55333126931E+03  0.00000000000E+00 0. -1.
          1   -1    0    0  501    0 -0.00000000000E+00 -0.00000000000E+00 -0.96392321019E+03  0.96392321019E+03  0.00000000000E+00 0. -1.
         25    2    1    2    0    0  0.79687758766E+01 -0.26143099049E+02 -0.71072629443E+02  0.14637305604E+03  0.12500715925E+03 0.  0.
          2    1    1    2  501    0 -0.11999054033E+01 -0.54143535597E+02 -0.85118736563E+03  0.85290849077E+03  0.00000000000E+00 0. -1.
          1    1    1    2  502    0 -0.67688704734E+01  0.80286634645E+02  0.51166805420E+03  0.51797293269E+03  0.00000000000E+00 0. -1.
         22    1    3    3    0    0 -0.11873122684E+02 -0.64071464155E+02 -0.79451926869E+02  0.10275569203E+03  0.00000000000E+00 0.  1.
         22    1    3    3    0    0  0.19841898560E+02  0.37928365107E+02  0.83792974261E+01  0.43617364014E+02  0.00000000000E+00 0.  1.
</event>
<event>
 7    1  0.7527776E-006  0.1309537E+03  0.7818608E-02  0.1334455E+00
          2   -1    0    0  502    0  0.00000000000E+00  0.00000000000E+00  0.38239828028E+03  0.38239828028E+03  0.00000000000E+00 0. -1.
          1   -1    0    0  501    0 -0.00000000000E+00 -0.00000000000E+00 -0.85997980608E+03  0.85997980608E+03  0.00000000000E+00 0. -1.
         25    2    1    2    0    0  0.80134068476E+02  0.12385483495E+03 -0.42607205652E+03  0.46789836058E+03  0.12501995607E+03 0.  0.
          2    1    1    2  501    0 -0.46544664836E+02  0.24558349699E+01 -0.39978205149E+03  0.40248990751E+03  0.00000000000E+00 0. -1.
          1    1    1    2  502    0 -0.33589403640E+02 -0.12631066992E+03  0.34827258222E+03  0.37198981827E+03  0.00000000000E+00 0. -1.
         22    1    3    3    0    0 -0.95486156268E+00  0.11032650627E+03 -0.22248164734E+03  0.24833633071E+03  0.00000000000E+00 0. -1.
         22    1    3    3    0    0  0.81088930039E+02  0.13528328682E+02 -0.20359040918E+03  0.21956202987E+03  0.00000000000E+00 0. -1.
</event>
<event>
 7    1  0.7527776E-006  0.7470004E+02  0.7818608E-02  0.1375345E+00
          2   -1    0    0  502    0  0.00000000000E+00  0.00000000000E+00  0.11386823642E+04  0.11386823642E+04  0.00000000000E+00 0. -1.
          1   -1    0    0  501    0 -0.00000000000E+00 -0.00000000000E+00 -0.13405012449E+04  0.13405012449E+04  0.00000000000E+00 0. -1.
         25    2    1    2    0    0  0.10581576135E+03  0.73836797280E+02  0.28928927786E+03  0.34053224559E+03  0.12500030409E+03 0.  0.
          2    1    1    2  501    0 -0.45356212730E+02 -0.35812443884E+02 -0.13126947052E+04  0.13139661739E+04  0.00000000000E+00 0. -1.
          1    1    1    2  502    0 -0.60459548625E+02 -0.38024353396E+02  0.82158654660E+03  0.82468518965E+03  0.00000000000E+00 0. -1.
         22    1    3    3    0    0 -0.59601555886E+01 -0.15700139223E+01 -0.10297860796E+02  0.12001430554E+02  0.00000000000E+00 0. -1.
         22    1    3    3    0    0  0.11177591694E+03  0.75406811202E+02  0.29958713865E+03  0.32853081504E+03  0.00000000000E+00 0. -1.
</event>
<event>
 7    1  0.7527776E-006  0.5478533E+02  0.7818608E-02  0.1488355E+00
          2   -1    0    0  502    0  0.00000000000E+00  0.00000000000E+00  0.64211470921E+02  0.64211470921E+02  0.00000000000E+00 0. -1.
          1   -1    0    0  501    0 -0.00000000000E+00 -0.00000000000E+00 -0.90007994740E+03  0.90007994740E+03  0.00000000000E+00 0. -1.
         25    2    1    2    0    0  0.68029330392E+02 -0.52859735209E+02 -0.28929898875E+03  0.32671464892E+03  0.12500566199E+03 0.  0.
          2    1    1    2  501    0 -0.23314486032E+02  0.24035027932E+02 -0.57586903077E+03  0.57684173603E+03  0.00000000000E+00 0. -1.
          1    1    1    2  502    0 -0.44714844359E+02  0.28824707277E+02  0.29299543041E+02  0.60735033367E+02  0.00000000000E+00 0. -1.
         22    1    3    3    0    0  0.20196552493E+02 -0.50523219504E+02 -0.26942596827E+03  0.27486514661E+03  0.00000000000E+00 0.  1.
         22    1    3    3    0    0  0.47832777898E+02 -0.23365157051E+01 -0.19873020476E+02  0.51849502312E+02  0.00000000000E+00 0.  1.
</event>
<event>
 7    1  0.7527776E-006  0.6625860E+02  0.7818608E-02  0.1531573E+00
          2   -1    0    0  502    0  0.00000000000E+00  0.00000000000E+00  0.11905989372E+04  0.11905989372E+04  0.00000000000E+00 0. -1.
          1   -1    0    0  501    0 -0.00000000000E+00 -0.00000000000E+00 -0.46656230747E+03  0.46656230747E+03  0.00000000000E+00 0. -1.
         25    2    1    2    0    0 -0.40089139977E+02  0.23122792001E+02  0.35492026114E+03  0.37912394417E+03  0.12499908248E+03 0.  0.
          2    1    1    2  501    0  0.54491236148E+02 -0.37928433926E+02 -0.45190510891E+03  0.45675604908E+03  0.00000000000E+00 0. -1.
          1    1    1    2  502    0 -0.14402096171E+02  0.14805641925E+02  0.82102147750E+03  0.82128125142E+03  0.00000000000E+00 0. -1.
         22    1    3    3    0    0 -0.55824516059E+02  0.29425849581E+02  0.72179961205E+02  0.95875982479E+02  0.00000000000E+00 0. -1.
         22    1    3    3    0    0  0.15735376081E+02 -0.63030575800E+01  0.28274029994E+03  0.28324796170E+03  0.00000000000E+00 0. -1.
</event>
<event>
 7    1  0.7527776E-006  0.2076779E+03  0.7818608E-02  0.1184228E+00
          2   -1    0    0  502    0  0.00000000000E+00  0.00000000000E+00  0.19779037467E+04  0.19779037467E+04  0.00000000000E+00 0. -1.
          1   -1    0    0  501    0 -0.00000000000E+00 -0.00000000000E+00 -0.51069487360E+03  0.51069487360E+03  0.00000000000E+00 0. -1.
         25    2    1    2    0    0  0.14989409481E+03 -0.99454774947E+02  0.42494333833E+02  0.22313664468E+03  0.12499880748E+03 0.  0.
          2    1    1    2  501    0 -0.21999732799E+03 -0.94822055634E+01 -0.38906754506E+03  0.44705960583E+03  0.00000000000E+00 0. -1.
          1    1    1    2  502    0  0.70103233176E+02  0.10893698051E+03  0.18137820844E+04  0.18184023698E+04  0.00000000000E+00 0. -1.
         22    1    3    3    0    0 -0.21449975922E+02 -0.59640228118E+01 -0.36628691936E+01  0.22562970679E+02  0.00000000000E+00 0.  1.
         22    1    3    3    0    0  0.17134407073E+03 -0.93490752135E+02  0.46157203026E+02  0.20057367400E+03  0.00000000000E+00 0.  1.
</event>
<event>
 7    1  0.7527776E-006  0.7379626E+02  0.7818608E-02  0.1429810E+00
          2   -1    0    0  502    0  0.00000000000E+00  0.00000000000E+00  0.69358401586E+03  0.69358401586E+03  0.00000000000E+00 0. -1.
          1   -1    0    0  501    0 -0.00000000000E+00 -0.00000000000E+00 -0.16034066764E+03  0.16034066764E+03  0.00000000000E+00 0. -1.
         25    2    1    2    0    0 -0.14005565964E+02  0.10502707908E+03  0.18156588774E+03  0.24457675153E+03  0.12499909031E+03 0.  0.
          2    1    1    2  501    0  0.17323889444E+02 -0.33890658146E+02 -0.12331057038E+03  0.12905111632E+03  0.00000000000E+00 0. -1.
          1    1    1    2  502    0 -0.33183234806E+01 -0.71136420937E+02  0.47498803087E+03  0.48029681565E+03  0.00000000000E+00 0. -1.
         22    1    3    3    0    0 -0.20607179016E+01  0.86770719184E+02  0.30582872089E+02  0.92025628665E+02  0.00000000000E+00 0. -1.
         22    1    3    3    0    0 -0.11944848062E+02  0.18256359899E+02  0.15098301565E+03  0.15255112286E+03  0.00000000000E+00 0. -1.
</event>
<event>
 7    1  0.7527776E-006  0.4000630E+02  0.7818608E-02  0.1517734E+00
          2   -1    0    0  502    0  0.00000000000E+00  0.00000000000E+00  0.48144407190E+03  0.48144407190E+03  0.00000000000E+00 0. -1.
          1   -1    0    0  501    0 -0.00000000000E+00 -0.00000000000E+00 -0.97563585597E+03  0.97563585597E+03  0.00000000000E+00 0. -1.
         25    2    1    2    0    0 -0.64114222017E+02 -0.27741286328E+02  0.11209308805E+03  0.18185209587E+03  0.12500044780E+03 0.  0.
          2    1    1    2  501    0  0.26663450822E+02  0.29734569858E+02 -0.93927934778E+03  0.94012806437E+03  0.00000000000E+00 0. -1.
          1    1    1    2  502    0  0.37450771195E+02 -0.19932835301E+01  0.33299447566E+03  0.33509976762E+03  0.00000000000E+00 0. -1.
         22    1    3    3    0    0 -0.67399190905E+02  0.19986002121E+01  0.16725789654E+01  0.67449557877E+02  0.00000000000E+00 0. -1.
         22    1    3    3    0    0  0.32849688879E+01 -0.29739886540E+02  0.11042050909E+03  0.11440253799E+03  0.00000000000E+00 0. -1.
</event>
<event>
 7    1  0.7527776E-006  0.1315124E+03  0.7818608E-02  0.1271004E+00
          2   -1    0    0  502    0  0.00000000000E+00  0.00000000000E+00  0.13811360544E+03  0.13811360544E+03  0.00000000000E+00 0. -1.
          1   -1    0    0  501    0 -0.00000000000E+00 -0.00000000000E+00 -0.17075824182E+04  0.17075824182E+04  0.00000000000E+00 0. -1.
         25    2    1    2    0    0 -0.73020612764E+02  0.11857647921E+03 -0.90153205114E+03  0.92074897770E+03  0.12500499747E+03 0.  0.
          2    1    1    2  501    0  0.12538285280E+03 -0.54024397218E+02 -0.77639171774E+03  0.78830425259E+03  0.00000000000E+00 0. -1.
          1    1    1    2  502    0 -0.52362240032E+02 -0.64552081995E+02  0.10845495611E+03  0.13664279336E+03  0.00000000000E+00 0. -1.
         22    1    3    3    0    0  0.50674223284E+01  0.18807856601E+02 -0.13439919998E+02  0.23665284459E+02  0.00000000000E+00 0. -1.
         22    1    3    3    0    0 -0.78088035093E+02  0.99768622612E+02 -0.88809213114E+03  0.89708369324E+03  0.00000000000E+00 0. -1.
</event>
<event>
 7    1  0.7527776E-006  0.1967652E+03  0.7818608E-02  0.1217980E+00
          2   -1    0    0  502    0  0.00000000000E+00  0.00000000000E+00  0.14432506939E+04  0.14432506939E+04  0.00000000000E+00 0. -1.
          1   -1    0    0  501    0 -0.00000000000E+00 -0.00000000000E+00 -0.14823691208E+04  0.14823691208E+04  0.00000000000E+00 0. -1.
         25    2    1    2    0    0  0.12685167655E+03  0.93295233391E+02  0.42392252492E+03  0.46918126806E+03  0.12500162697E+03 0.  0.
          2    1    1    2  501    0  0.88068142489E+02 -0.35167563529E+02 -0.14457335759E+04  0.14488403390E+04  0.00000000000E+00 0. -1.
          1    1    1    2  502    0 -0.21491981904E+03 -0.58127669861E+02  0.98269262411E+03  0.10075982077E+04  0.00000000000E+00 0. -1.
         22    1    3    3    0    0 -0.20902588901E+02  0.21629942895E+01  0.17902632925E+02  0.27606177437E+02  0.00000000000E+00 0.  1.
         22    1    3    3    0    0  0.14775426545E+03  0.91132239101E+02  0.40601989199E+03  0.44157509062E+03  0.00000000000E+00 0.  1.
</event>
<event>
 7    1  0.7527776E-006  0.6976234E+02  0.7818608E-02  0.1500684E+00
          2   -1    0    0  502    0  0.00000000000E+00  0.00000000000E+00  0.10902883134E+04  0.10902883134E+04  0.00000000000E+00 0. -1.
          1   -1    0    0  501    0 -0.00000000000E+00 -0.00000000000E+00 -0.33560373431E+03  0.33560373431E+03  0.00000000000E+00 0. -1.
         25    2    1    2    0    0 -0.45139653846E+02  0.82997477114E+01  0.38693940674E+03  0.40921182157E+03  0.12500294500E+03 0.  0.
          2    1    1    2  501    0  0.69162936543E+02 -0.10720978942E+02 -0.32047913509E+03  0.32803250938E+03  0.00000000000E+00 0. -1.
          1    1    1    2  502    0 -0.24023282697E+02  0.24212312310E+01  0.68822430739E+03  0.68864771673E+03  0.00000000000E+00 0. -1.
         22    1    3    3    0    0 -0.27405813495E+02  0.15730436488E+02  0.38862759337E+03  0.38991015834E+03  0.00000000000E+00 0.  1.
         22    1    3    3    0    0 -0.17733840350E+02 -0.74306887770E+01 -0.16881866293E+01  0.19301663228E+02  0.00000000000E+00 0.  1.
</event>
<event>
 7    1  0.7527776E-006  0.1538592E+03  0.7818608E-02  0.1233997E+00
          2   -1    0    0  502    0  0.00000000000E+00  0.00000000000E+00  0.59200832831E+03  0.59200832831E+03  0.00000000000E+00 0. -1.
          1   -1    0    0  501    0 -0.00000000000E+00 -0.00000000000E+00 -0.18004932005E+04  0.18004932005E+04  0.00000000000E+00 0. -1.
         25    2    1    2    0    0  0.10798049964E+02 -0.12455450778E+03  0.87746301747E+01  0.17700939946E+03  0.12499964028E+03 0.  0.
          2    1    1    2  501    0  0.10235867546E+03  0.80644343644E+01 -0.17015766914E+04  0.17046716899E+04  0.00000000000E+00 0. -1.
          1    1    1    2  502    0 -0.11315672543E+03  0.11649007342E+03  0.48431718907E+03  0.51082043943E+03  0.00000000000E+00 0. -1.
         22    1    3    3    0    0  0.98242686304E+01 -0.78617476793E+02  0.66353907235E+02  0.10334439954E+03  0.00000000000E+00 0.  1.
         22    1    3    3    0    0  0.97378133331E+00 -0.45937030991E+02 -0.57579277060E+02  0.73664999920E+02  0.00000000000E+00 0.  1.
</event>
<event>
 7    1  0.7527776E-006  0.8270643E+02  0.7818608E-02  0.1367642E+00
          2   -1    0    0  502    0  0.00000000000E+00  0.00000000000E+00  0.10509303696E+04  0.10509303696E+04  0.00000000000E+00 0. -1.
          1   -1    0    0  501    0 -0.00000000000E+00 -0.00000000000E+00 -0.74260028123E+02  0.74260028123E+02  0.00000000000E+00 0. -1.
         25    2    1    2    0    0 -0.33010913433E+02  0.59611069399E+02  0.26892855538E+03  0.30428582113E+03  0.12499637210E+03 0.  0.
          2    1    1    2  501    0 -0.47934848364E+02 -0.28219802184E+02 -0.39762596205E+02  0.68375221974E+02  0.00000000000E+00 0. -1.
          1    1    1    2  502    0  0.80945761797E+02 -0.31391267215E+02  0.74750438232E+03  0.75252935465E+03  0.00000000000E+00 0. -1.
         22    1    3    3    0    0 -0.80870385231E+02  0.39091108436E+02  0.15812440464E+03  0.18185560566E+03  0.00000000000E+00 0. -1.
         22    1    3    3    0    0  0.47859471797E+02  0.20519960963E+02  0.11080415074E+03  0.12243021547E+03  0.00000000000E+00 0. -1.
</event>
<event>
 7    1  0.7527776E-006  0.3640496E+02  0.7818608E-02  0.1579969E+00
          2   -1    0    0  502    0  0.00000000000E+00  0.00000000000E+00  0.12859525753E+04  0.12859525753E+04  0.00000000000E+00 0. -1.
          1   -1    0    0  501    0 -0.00000000000E+00 -0.00000000000E+00 -0.76232222858E+02  0.76232222858E+02  0.00000000000E+00 0. -1.
         25    2    1    2    0    0  0.93551224023E+01  0.60848369288E+02  0.62431312179E+03  0.63967303769E+03  0.12499871500E+03 0.  0.
          2    1    1    2  501    0  0.29090113033E+01 -0.36109123758E+02 -0.63452170787E+02  0.73065102086E+02  0.00000000000E+00 0. -1.
          1    1    1    2  502    0 -0.12264133706E+02 -0.24739245530E+02  0.64885940148E+03  0.64944665843E+03  0.00000000000E+00 0. -1.
         22    1    3    3    0    0 -0.46841339069E+01  0.71567262166E+02  0.61598245245E+03  0.62014368968E+03  0.00000000000E+00 0.  1.
         22    1    3    3    0    0  0.14039256309E+02 -0.10718892878E+02  0.83306693468E+01  0.19529348018E+02  0.00000000000E+00 0.  1.
</event>
<event>
 7    1  0.7527776E-006  0.4825520E+02  0.7818608E-02  0.1498974E+00
          2   -1    0    0  502    0  0.00000000000E+00  0.00000000000E+00  0.15344522820E+04  0.15344522820E+04  0.00000000000E+00 0. -1.
          1   -1    0    0  501    0 -0.00000000000E+00 -0.00000000000E+00 -0.61202986217E+03  0.61202986217E+03  0.00000000000E+00 0. -1.
         25    2    1    2    0    0  0.13912676676E+02  0.48870887503E+02  0.15582461688E+03  0.20612468928E+03  0.12499660030E+03 0.  0.
          2    1    1    2  501    0 -0.40764592389E+02 -0.25927548165E+02 -0.58565461852E+03  0.58764387339E+03  0.00000000000E+00 0. -1.
          1    1    1    2  502    0  0.26851915713E+02 -0.22943339339E+02  0.13522524215E+04  0.13527135815E+04  0.00000000000E+00 0. -1.
         22    1    3    3    0    0 -0.34159774522E+02  0.60418704085E+02  0.39806712203E+02  0.80011776228E+02  0.00000000000E+00 0.  1.
         22    1    3    3    0    0  0.48072451198E+02 -0.11547816582E+02  0.11601790468E+03  0.12611291305E+03  0.00000000000E+00 0.  1.
</event>
<event>
 7    1  0.7527776E-006  0.9374338E+02  0.7818608E-02  0.1415807E+00
          2   -1    0    0  502    0  0.00000000000E+00  0.00000000000E+00  0.33135380524E+04  0.33135380524E+04  0.00000000000E+00 0. -1.
          1   -1    0    0  501    0 -0.00000000000E+00 -0.00000000000E+00 -0.29228041793E+02  0.29228041793E+02  0.00000000000E+00 0. -1.
         25    2    1    2    0    0 -0.67285243801E+02  0.90452714532E+02  0.18140957762E+04  0.18218873893E+04  0.12498470477E+03 0.  0.
          2    1    1    2  501    0  0.26024005573E+00 -0.33354157166E+02 -0.12449560627E+02  0.35602796027E+02  0.00000000000E+00 0. -1.
          1    1    1    2  502    0  0.67025003745E+02 -0.57098557366E+02  0.14826637950E+04  0.14852759089E+04  0.00000000000E+00 0. -1.
         22    1    3    3    0    0  0.34635106978E+02  0.43786400214E+02  0.66302125981E+03  0.66536759046E+03  0.00000000000E+00 0.  1.
         22    1    3    3    0    0 -0.10192035078E+03  0.46666314318E+02  0.11510745164E+04  0.11565197988E+04  0.00000000000E+00 0.  1.
</event>
<event>
 7    1  0.7527776E-006  0.3289353E+02  0.7818608E-02  0.1583739E+00
          2   -1    0    0  502    0  0.00000000000E+00  0.00000000000E+00  0.17776075826E+03  0.17776075826E+03  0.00000000000E+00 0. -1.
          1   -1    0    0  501    0 -0.00000000000E+00 -0.00000000000E+00 -0.23522409542E+03  0.23522409542E+03  0.00000000000E+00 0. -1.
         25    2    1    2    0    0 -0.63442438197E+01 -0.11429727119E+02 -0.83240724002E+02  0.15074448546E+03  0.12499597463E+03 0.  0.
          2    1    1    2  501    0 -0.16394587407E+02  0.30781097965E+02 -0.11404873863E+03  0.11926178463E+03  0.00000000000E+00 0. -1.
          1    1    1    2  502    0  0.22738831227E+02 -0.19351370847E+02  0.13982612548E+03  0.14297858359E+03  0.00000000000E+00 0. -1.
         22    1    3    3    0    0  0.29311714584E+02 -0.20143304955E+01 -0.10424356987E+03  0.10830492140E+03  0.00000000000E+00 0. -1.
         22    1    3    3    0    0 -0.35655958403E+02 -0.94153966233E+01  0.21002845870E+02  0.42439564063E+02  0.00000000000E+00 0. -1.
</event>
<event>
 7    1  0.7527776E-006  0.7382919E+02  0.7818608E-02  0.1349267E+00
          2   -1    0    0  502    0  0.00000000000E+00  0.00000000000E+00  0.10184268590E+03  0.10184268590E+03  0.00000000000E+00 0. -1.
          1   -1    0    0  501    0 -0.00000000000E+00 -0.00000000000E+00 -0.13709449974E+04  0.13709449974E+04  0.00000000000E+00 0. -1.
         25    2    1    2    0    0  0.59374782513E+02 -0.13828713842E+02 -0.22830177847E+03  0.26732428158E+03  0.12499588530E+03 0.  0.
          2    1    1    2  501    0 -0.11630600138E+02  0.72907330491E+02 -0.11041128133E+04  0.11065784447E+04  0.00000000000E+00 0. -1.
          1    1    1    2  502    0 -0.47744182374E+02 -0.59078616650E+02  0.63312280278E+02  0.98884957045E+02  0.00000000000E+00 0. -1.
         22    1    3    3    0    0  0.59434336047E+02 -0.64875296472E+02 -0.14139346911E+03  0.16653335252E+03  0.00000000000E+00 0.  1.
         22    1    3    3    0    0 -0.59553534592E-01  0.51046582630E+02 -0.86908309365E+02  0.10079092906E+03  0.00000000000E+00 0.  1.
</event>
<event>
 7    1  0.7527776E-006  0.2758715E+03  0.7818608E-02  0.1193960E+00
          2   -1    0    0  502    0  0.00000000000E+00  0.00000000000E+00  0.28666281278E+04  0.28666281278E+04  0.00000000000E+00 0. -1.
          1   -1    0    0  501    0 -0.00000000000E+00 -0.00000000000E+00 -0.22383090017E+03  0.22383090017E+03  0.00000000000E+00 0. -1.
         25    2    1    2    0    0  0.26614675848E+03  0.11497297485E+03  0.92622751486E+03  0.97855812567E+03  0.12500285617E+03 0.  0.
          2    1    1    2  501    0 -0.58983903867E+02  0.64721549909E+02 -0.17758278898E+03  0.19799905777E+03  0.00000000000E+00 0. -1.
          1    1    1    2  502    0 -0.20716285461E+03 -0.17969452476E+03  0.18941525017E+04  0.19139018445E+04  0.00000000000E+00 0. -1.
         22    1    3    3    0    0  0.27088983723E+03  0.92915304943E+02  0.78641207588E+03  0.83693399435E+03  0.00000000000E+00 0.  1.
         22    1    3    3    0    0 -0.47430787478E+01  0.22057669905E+02  0.13981543897E+03  0.14162413132E+03  0.00000000000E+00 0.  1.
</event>
<event>
 7    1  0.7527776E-006  0.7093396E+02  0.7818608E-02  0.1482321E+00
          2   -1    0    0  502    0  0.00000000000E+00  0.00000000000E+00  0.14500821626E+04  0.14500821626E+04  0.00000000000E+00 0. -1.
          1   -1    0    0  501    0 -0.00000000000E+00 -0.00000000000E+00 -0.73882750179E+03  0.73882750179E+03  0.00000000000E+00 0. -1.
         25    2    1    2    0    0  0.55539736739E+02 -0.48135626802E+02  0.75248941224E+03  0.76633378790E+03  0.12500183209E+03 0.  0.
          2    1    1    2  501    0 -0.22411761552E+02 -0.15020270660E+02 -0.72981438011E+03  0.73031289528E+03  0.00000000000E+00 0. -1.
          1    1    1    2  502    0 -0.33127975187E+02  0.63155897462E+02  0.68857962871E+03  0.69226298125E+03  0.00000000000E+00 0. -1.
         22    1    3    3    0    0 -0.24492203051E+02  0.20224541338E+01  0.35656895038E+02  0.43305571175E+02  0.00000000000E+00 0.  1.
         22    1    3    3    0    0  0.80031939790E+02 -0.50158080936E+02  0.71683251720E+03  0.72302821673E+03  0.00000000000E+00 0.  1.
</event>
<event>
 7    1  0.7527776E-006  0.7531153E+02  0.7818608E-02  0.1466971E+00
          2   -1    0    0  502    0  0.00000000000E+00  0.00000000000E+00  0.28221730440E+03  0.28221730440E+03  0.00000000000E+00 0. -1.
          1   -1    0    0  501    0 -0.00000000000E+00 -0.00000000000E+00 -0.36513463892E+03  0.36513463892E+03  0.00000000000E+00 0. -1.
         25    2    1    2    0    0 -0.17109672216E+02  0.92262249790E+02 -0.12465601541E+03  0.19992369986E+03  0.12500119986E+03 0.  0.
          2    1    1    2  501    0  0.28845880415E+02 -0.66461570756E+02 -0.19550463926E+03  0.20849769585E+03  0.00000000000E+00 0. -1.
          1    1    1    2  502    0 -0.11736208199E+02 -0.25800679034E+02  0.23724332015E+03  0.23893054760E+03  0.00000000000E+00 0. -1.
         22    1    3    3    0    0 -0.64600397303E+02  0.24733676410E+02 -0.81062112986E+02  0.10656468572E+03  0.00000000000E+00 0.  1.
         22    1    3    3    0    0  0.47490725087E+02  0.67528573380E+02 -0.43593902425E+02  0.93359014138E+02  0.00000000000E+00 0.  1.
</event>
<event>
 7    1  0.7527776E-006  0.6431451E+02  0.7818608E-02  0.1403242E+00
          2   -1    0    0  502    0  0.00000000000E+00  0.00000000000E+00  0.19194478558E+04  0.19194478558E+04  0.00000000000E+00 0. -1.
          1   -1    0    0  501    0 -0.00000000000E+00 -0.00000000000E+00 -0.72683835792E+03  0.72683835792E+03  0.00000000000E+00 0. -1.
         25    2    1    2    0    0  0.18423425093E+02  0.11542699164E+03  0.11706088525E+03  0.20734630838E+03  0.12500571089E+03 0.  0.
          2    1    1    2  501    0 -0.43070639953E+01 -0.63688754469E+02 -0.67979085467E+03  0.68278138107E+03  0.00000000000E+00 0. -1.
          1    1    1    2  502    0 -0.14116361098E+02 -0.51738237172E+02  0.17553394673E+04  0.17561585242E+04  0.00000000000E+00 0. -1.
         22    1    3    3    0    0  0.27508477444E+02 -0.85756808891E+00  0.80556953389E+02  0.85128576246E+02  0.00000000000E+00 0. -1.
         22    1    3    3    0    0 -0.90850523512E+01  0.11628455973E+03  0.36503931859E+02  0.12221773214E+03  0.00000000000E+00 0. -1.
</event>
<event>
 7    1  0.7527776E-006  0.8072245E+02  0.7818608E-02  0.1335201E+00
          2   -1    0    0  502    0  0.00000000000E+00  0.00000000000E+00  0.29458577671E+03  0.29458577671E+03  0.00000000000E+00 0. -1.
          1   -1    0    0  501    0 -0.00000000000E+00 -0.00000000000E+00 -0.10410455613E+04  0.10410455613E+04  0.00000000000E+00 0. -1.
         25    2    1    2    0    0 -0.70562432749E+02 -0.93003802439E+02 -0.89145878436E+02  0.19287589723E+03  0.12500143962E+03 0.  0.
          2    1    1    2  501    0  0.78258063092E+02  0.18276434864E+02 -0.89237279228E+03  0.89598412537E+03  0.00000000000E+00 0. -1.
          1    1    1    2  502    0 -0.76956303427E+01  0.74727367575E+02  0.23505888610E+03  0.24677131545E+03  0.00000000000E+00 0. -1.
         22    1    3    3    0    0 -0.64714670331E+01 -0.92904120603E+02 -0.88951713606E+02  0.12878455988E+03  0.00000000000E+00 0.  1.
         22    1    3    3    0    0 -0.64090965716E+02 -0.99681835736E-01 -0.19416483030E+00  0.64091337346E+02  0.00000000000E+00 0.  1.
</event>
<event>
 7    1  0.7527776E-006  0.1775964E+03  0.7818608E-02  0.1386943E+00
          2   -1    0    0  502    0  0.00000000000E+00  0.00000000000E+00  0.89062485171E+02  0.89062485171E+02  0.00000000000E+00 0. -1.
          1   -1    0    0  501    0 -0.00000000000E+00 -0.00000000000E+00 -0.16010758512E+04  0.16010758512E+04  0.00000000000E+00 0. -1.
         25    2    1    2    0    0  0.14176852778E+03  0.97494532942E+02 -0.13746112705E+03  0.25322868802E+03  0.12500283024E+03 0.  0.
          2    1    1    2  501    0 -0.13357100417E+03 -0.11803657810E+03 -0.13952666191E+04  0.14066068340E+04  0.00000000000E+00 0. -1.
          1    1    1    2  502    0 -0.81975236050E+01  0.20542045161E+02  0.20714380162E+02  0.30302814360E+02  0.00000000000E+00 0. -1.
         22    1    3    3    0    0 -0.13037824706E+02  0.47080927143E+02 -0.21668944748E+02  0.53442882971E+02  0.00000000000E+00 0. -1.
         22    1    3    3    0    0  0.15480635248E+03  0.50413605799E+02 -0.11579218230E+03  0.19978580505E+03  0.00000000000E+00 0. -1.
</event>
<event>
 7    1  0.7527776E-006  0.8549252E+02  0.7818608E-02  0.1401799E+00
          2   -1    0    0  502    0  0.00000000000E+00  0.00000000000E+00  0.28411157771E+04  0.28411157771E+04  0.00000000000E+00 0. -1.
          1   -1    0    0  501    0 -0.00000000000E+00 -0.00000000000E+00 -0.96421645714E+03  0.96421645714E+03  0.00000000000E+00 0. -1.
         25    2    1    2    0    0 -0.57810272941E+02 -0.42126479118E+02  0.60095034245E+01  0.14414261291E+03  0.12499724326E+03 0.  0.
          2    1    1    2  501    0 -0.27106158852E+02  0.30502934242E+02 -0.89402045399E+03  0.89495125286E+03  0.00000000000E+00 0. -1.
          1    1    1    2  502    0  0.84916431793E+02  0.11623544877E+02  0.27649102706E+04  0.27662383685E+04  0.00000000000E+00 0. -1.
         22    1    3    3    0    0 -0.30228123563E+02 -0.86574931930E+02  0.44551639109E+01  0.91808533254E+02  0.00000000000E+00 0.  1.
         22    1    3    3    0    0 -0.27582149378E+02  0.44448452812E+02  0.15543395136E+01  0.52334079652E+02  0.00000000000E+00 0.  1.
</event>
<event>
 7    1  0.7527776E-006  0.5431848E+02  0.7818608E-02  0.1473352E+00
          2   -1    0    0  502    0  0.00000000000E+00  0.00000000000E+00  0.92305100387E+03  0.92305100387E+03  0.00000000000E+00 0. -1.
          1   -1    0    0  501    0 -0.00000000000E+00 -0.00000000000E+00 -0.54904529849E+03  0.54904529849E+03  0.00000000000E+00 0. -1.
         25    2    1    2    0    0 -0.12219333278E+02 -0.23069321122E+02  0.31816420575E+01  0.12773293348E+03  0.12499629501E+03 0.  0.
          2    1    1    2  501    0 -0.83504127251E+01  0.54476846614E+02 -0.48479667421E+03  0.48791932892E+03  0.00000000000E+00 0. -1.
          1    1    1    2  502    0  0.20569746003E+02 -0.31407525492E+02  0.85562073753E+03  0.85644403997E+03  0.00000000000E+00 0. -1.
         22    1    3    3    0    0 -0.45657318603E+02  0.36463687077E+02 -0.64101623674E+01  0.58781641682E+02  0.00000000000E+00 0.  1.
         22    1    3    3    0    0  0.33437985326E+02 -0.59533008199E+02  0.95918044249E+01  0.68951291793E+02  0.00000000000E+00 0.  1.
</event>
<event>
 7    1  0.7527776E-006  0.1061980E+03  0.7818608E-02  0.1434764E+00
          2   -1    0    0  502    0  0.00000000000E+00  0.00000000000E+00  0.38989873448E+03  0.38989873448E+03  0.00000000000E+00 0. -1.
          1   -1    0    0  501    0 -0.00000000000E+00 -0.00000000000E+00 -0.45062640118E+03  0.45062640118E+03  0.00000000000E+00 0. -1.
         25    2    1    2    0    0  0.11972312906E+03  0.43366770245E+02 -0.34891469414E+02  0.18181514526E+03  0.12500011206E+03 0.  0.
          2    1    1    2  501    0 -0.18381688293E+02 -0.17640691514E+02 -0.33313668163E+03  0.33410945678E+03  0.00000000000E+00 0. -1.
          1    1    1    2  502    0 -0.10134144077E+03 -0.25726078731E+02  0.30730048435E+03  0.32460053362E+03  0.00000000000E+00 0. -1.
         22    1    3    3    0    0  0.26094855968E+01  0.56852884444E+02 -0.28763710609E+02  0.63768416420E+02  0.00000000000E+00 0.  1.
         22    1    3    3    0    0  0.11711364347E+03 -0.13486114199E+02 -0.61277588057E+01  0.11804672884E+03  0.00000000000E+00 0.  1.
</event>
<event>
 7    1  0.7527776E-006  0.1234637E+03  0.7818608E-02  0.1251367E+00
          2   -1    0    0  502    0  0.00000000000E+00  0.00000000000E+00  0.51727353955E+03  0.51727353955E+03  0.00000000000E+00 0. -1.
          1   -1    0    0  501    0 -0.00000000000E+00 -0.00000000000E+00 -0.15877844918E+03  0.15877844918E+03  0.00000000000E+00 0. -1.
         25    2    1    2    0    0  0.87862930482E+01  0.15328998453E+03  0.27848461906E+03  0.34169000065E+03  0.12499342060E+03 0.  0.
          2    1    1    2  501    0 -0.87350406716E+02 -0.62392512192E+02 -0.80279260246E+02  0.13404357037E+03  0.00000000000E+00 0. -1.
          1    1    1    2  502    0  0.78564113668E+02 -0.90897472337E+02  0.16028973156E+03  0.20031841772E+03  0.00000000000E+00 0. -1.
         22    1    3    3    0    0  0.38420168678E+02  0.15976649872E+03  0.25486554624E+03  0.30324559376E+03  0.00000000000E+00 0.  1.
         22    1    3    3    0    0 -0.29633875630E+02 -0.64765141873E+01  0.23619072821E+02  0.38444406899E+02  0.00000000000E+00 0.  1.
</event>
<event>
 7    1  0.7527776E-006  0.1072273E+03  0.7818608E-02  0.1285866E+00
          2   -1    0    0  502    0  0.00000000000E+00  0.00000000000E+00  0.29203968562E+03  0.29203968562E+03  0.00000000000E+00 0. -1.
          1   -1    0    0  501    0 -0.00000000000E+00 -0.00000000000E+00 -0.23275871914E+04  0.23275871914E+04  0.00000000000E+00 0. -1.
         25    2    1    2    0    0 -0.11090313233E+03 -0.41372340251E+01  0.53278831845E+02  0.17544236760E+03  0.12499907584E+03 0.  0.
          2    1    1    2  501    0  0.34932020767E+02 -0.81279691745E+02 -0.22471579162E+04  0.22488986938E+04  0.00000000000E+00 0. -1.
          1    1    1    2  502    0  0.75971111563E+02  0.85416925770E+02  0.15833157862E+03  0.19528581563E+03  0.00000000000E+00 0. -1.
         22    1    3    3    0    0 -0.10106884774E+03  0.34022144929E+02 -0.30651489502E+01  0.10668558228E+03  0.00000000000E+00 0. -1.
         22    1    3    3    0    0 -0.98342845926E+01 -0.38159378954E+02  0.56343980795E+02  0.68756785319E+02  0.00000000000E+00 0. -1.
</event>
<event>
 7    1  0.7527776E-006  0.9205086E+02  0.7818608E-02  0.1319916E+00
          2   -1    0    0  502    0  0.00000000000E+00  0.00000000000E+00  0.23138634188E+04  0.23138634188E+04  0.00000000000E+00 0. -1.
          1   -1    0    0  501    0 -0.00000000000E+00 -0.00000000000E+00 -0.69873839451E+03  0.69873839451E+03  0.00000000000E+00 0. -1.
         25    2    1    2    0    0 -0.25089184999E+02  0.16343907114E+03  0.18804202031E+03  0.27986858436E+03  0.12499930371E+03 0.  0.
          2    1    1    2  501    0  0.48739190455E+01 -0.75239038975E+02 -0.64965967404E+03  0.65402015271E+03  0.00000000000E+00 0. -1.
          1    1    1    2  502    0  0.20215265953E+02 -0.88200032168E+02  0.20767426780E+04  0.20787130763E+04  0.00000000000E+00 0. -1.
         22    1    3    3    0    0 -0.37497151257E+02  0.35124434343E+02 -0.60430947344E+00  0.51382170354E+02  0.00000000000E+00 0.  1.
         22    1    3    3    0    0  0.12407966259E+02  0.12831463680E+03  0.18864632979E+03  0.22848641401E+03  0.00000000000E+00 0.  1.
</event>
<event>
 7    1  0.7527776E-006  0.5905360E+02  0.7818608E-02  0.1444056E+00
          2   -1    0    0  502    0  0.00000000000E+00  0.00000000000E+00  0.79169624773E+02  0.79169624773E+02  0.00000000000E+00 0. -1.
          1   -1    0    0  501    0 -0.00000000000E+00 -0.00000000000E+00 -0.89603802940E+03  0.89603802940E+03  0.00000000000E+00 0. -1.
         25    2    1    2    0    0 -0.50437958125E+02  0.59559403141E+02 -0.30817915494E+03  0.34160327650E+03  0.12500838714E+03 0.  0.
          2    1    1    2  501    0 -0.57278669921E+01 -0.42354843619E+02 -0.55633169667E+03  0.55797105477E+03  0.00000000000E+00 0. -1.
          1    1    1    2  502    0  0.56165825117E+02 -0.17204559522E+02  0.47642446980E+02  0.75633322905E+02  0.00000000000E+00 0. -1.
         22    1    3    3    0    0 -0.73457570741E+02 -0.94938688391E+01 -0.14117032020E+03  0.15942147769E+03  0.00000000000E+00 0.  1.
         22    1    3    3    0    0  0.23019612616E+02  0.69053271980E+02 -0.16700883474E+03  0.18218179881E+03  0.00000000000E+00 0.  1.
</event>
<event>
 7    1  0.7527776E-006  0.4220969E+02  0.7818608E-02  0.1550929E+00
          2   -1    0    0  502    0  0.00000000000E+00  0.00000000000E+00  0.23529891303E+03  0.23529891303E+03  0.00000000000E+00 0. -1.
          1   -1    0    0  501    0 -0.00000000000E+00 -0.00000000000E+00 -0.19775496729E+03  0.19775496729E+03  0.00000000000E+00 0. -1.
         25    2    1    2    0    0 -0.47050192180E+02  0.29663217105E+02  0.14330106620E+02  0.13756605282E+03  0.12500175958E+03 0.  0.
          2    1    1    2  501    0  0.27596371296E+02  0.74752093814E+01 -0.13182012465E+03  0.13488507600E+03  0.00000000000E+00 0. -1.
          1    1    1    2  502    0  0.19453820883E+02 -0.37138426487E+02  0.15503396377E+03  0.16060275150E+03  0.00000000000E+00 0. -1.
         22    1    3    3    0    0 -0.36056821614E+02 -0.24729798645E+02  0.53904765309E+02  0.69407355871E+02  0.00000000000E+00 0.  1.
         22    1    3    3    0    0 -0.10993370566E+02  0.54393015751E+02 -0.39574658690E+02  0.68158696945E+02  0.00000000000E+00 0.  1.
</event>
<event>
 7    1  0.7527776E-006  0.1659405E+03  0.7818608E-02  0.1221484E+00
          2   -1    0    0  502    0  0.00000000000E+00  0.00000000000E+00  0.40101926135E+03  0.40101926135E+03  0.00000000000E+00 0. -1.
          1   -1    0    0  501    0 -0.00000000000E+00 -0.00000000000E+00 -0.11872257871E+04  0.11872257871E+04  0.00000000000E+00 0. -1.
         25    2    1    2    0    0  0.97588720487E+01 -0.63674715160E+02  0.47765976897E+02  0.14851313050E+03  0.12499942579E+03 0.  0.
          2    1    1    2  501    0 -0.24022894150E+02  0.17111461493E+03 -0.11203159712E+04  0.11335630490E+04  0.00000000000E+00 0. -1.
          1    1    1    2  502    0  0.14264022101E+02 -0.10743989977E+03  0.28634346847E+03  0.30616886897E+03  0.00000000000E+00 0. -1.
         22    1    3    3    0    0 -0.18679555568E+01 -0.87907036330E+02  0.70977910979E+02  0.11300000063E+03  0.00000000000E+00 0. -1.
         22    1    3    3    0    0  0.11626827605E+02  0.24232321170E+02 -0.23211934082E+02  0.35513129872E+02  0.00000000000E+00 0. -1.
</event>
<event>
 7    1  0.7527776E-006  0.4309744E+02  0.7818608E-02  0.1589872E+00
          2   -1    0    0  502    0  0.00000000000E+00  0.00000000000E+00  0.12530265173E+03  0.12530265173E+03  0.00000000000E+00 0. -1.
          1   -1    0    0  501    0 -0.00000000000E+00 -0.00000000000E+00 -0.99152027874E+03  0.99152027874E+03  0.00000000000E+00 0. -1.
         25    2    1    2    0    0  0.24297233468E+01 -0.23619987205E+02 -0.45041407649E+02  0.13497181956E+03  0.12499942528E+03 0.  0.
          2    1    1    2  501    0 -0.78039627341E+01 -0.20515453051E+02 -0.89521720982E+03  0.89548625808E+03  0.00000000000E+00 0. -1.
          1    1    1    2  502    0  0.53742393873E+01  0.44135440256E+02  0.74040990466E+02  0.86364852832E+02  0.00000000000E+00 0. -1.
         22    1    3    3    0    0  0.17141679695E+02 -0.71051491884E+02 -0.90672599459E+01  0.73650301321E+02  0.00000000000E+00 0.  1.
         22    1    3    3    0    0 -0.14711956348E+02  0.47431504679E+02 -0.35974147703E+02  0.61321518235E+02  0.00000000000E+00 0.  1.
</event>
<event>
 7    1  0.7527776E-006  0.6468935E+02  0.7818608E-02  0.1486463E+00
          2   -1    0    0  502    0  0.00000000000E+00  0.00000000000E+00  0.56851240572E+02  0.56851240572E+02  0.00000000000E+00 0. -1.
          1   -1    0    0  501    0 -0.00000000000E+00 -0.00000000000E+00 -0.11377230037E+04  0.11377230037E+04  0.00000000000E+00 0. -1.
         25    2    1    2    0    0 -0.28965800981E+02 -0.28504199483E+02 -0.21599366839E+03  0.25284539990E+03  0.12500409773E+03 0.  0.
          2    1    1    2  501    0  0.34489093642E+02  0.56704461952E+02 -0.89652716451E+03  0.89898045045E+03  0.00000000000E+00 0. -1.
          1    1    1    2  502    0 -0.55232926601E+01 -0.28200262469E+02  0.31649069776E+02  0.42748393921E+02  0.00000000000E+00 0. -1.
         22    1    3    3    0    0 -0.22056172606E+02 -0.44412114403E+02 -0.16005368996E+02  0.52106453462E+02  0.00000000000E+00 0.  1.
         22    1    3    3    0    0 -0.69096283759E+01  0.15907914920E+02 -0.19998829940E+03  0.20073894644E+03  0.00000000000E+00 0.  1.
</event>
<event>
 7    1  0.7527776E-006  0.4886067E+02  0.7818608E-02  0.1519626E+00
          2   -1    0    0  502    0  0.00000000000E+00  0.00000000000E+00  0.72274612212E+03  0.72274612212E+03  0.00000000000E+00 0. -1.
          1   -1    0    0  501    0 -0.00000000000E+00 -0.00000000000E+00 -0.27159259235E+03  0.27159259235E+03  0.00000000000E+00 0. -1.
         25    2    1    2    0    0  0.66835872739E+02  0.32871101924E+02  0.28741467776E+03  0.32214835807E+03  0.12499929756E+03 0.  0.
          2    1    1    2  501    0 -0.47791933830E+02 -0.92773186029E+01 -0.25133695001E+03  0.25600859365E+03  0.00000000000E+00 0. -1.
          1    1    1    2  502    0 -0.19043938909E+02 -0.23593783321E+02  0.41507580203E+03  0.41618176275E+03  0.00000000000E+00 0. -1.
         22    1    3    3    0    0 -0.28561441330E+02  0.37398403149E+02  0.66423586479E+02  0.81403251346E+02  0.00000000000E+00 0. -1.
         22    1    3    3    0    0  0.95397314069E+02 -0.45273012254E+01  0.22099109128E+03  0.24074510673E+03  0.00000000000E+00 0. -1.
</event>
<event>
 7    1  0.7527776E-006  0.1307128E+03  0.7818608E-02  0.1390829E+00
          2   -1    0    0  502    0  0.00000000000E+00  0.00000000000E+00  0.21834657807E+04  0.21834657807E+04  0.00000000000E+00 0. -1.
          1   -1    0    0  501    0 -0.00000000000E+00 -0.00000000000E+00 -0.26953881460E+03  0.26953881460E+03  0.00000000000E+00 0. -1.
         25    2    1    2    0    0  0.10132821129E+03  0.28874365935E+02  0.15698114754E+03  0.22664793631E+03  0.12500028376E+03 0.  0.
          2    1    1    2  501    0 -0.12521235487E+03 -0.45542165795E+02 -0.21568021019E+03  0.25351563215E+03  0.00000000000E+00 0. -1.
          1    1    1    2  502    0  0.23884143580E+02  0.16667799860E+02  0.19726260287E+04  0.19728410268E+04  0.00000000000E+00 0. -1.
         22    1    3    3    0    0  0.78202056787E+02  0.54685892663E+02  0.16542740528E+03  0.19097731530E+03  0.00000000000E+00 0. -1.
         22    1    3    3    0    0  0.23126154498E+02 -0.25811526727E+02 -0.84462577337E+01  0.35670621015E+02  0.00000000000E+00 0. -1.
</event>
<event>
 7    1  0.7527776E-006  0.1275125E+03  0.7818608E-02  0.1353084E+00
          2   -1    0    0  502    0  0.00000000000E+00  0.00000000000E+00  0.76747675960E+03  0.76747675960E+03  0.00000000000E+00 0. -1.
          1   -1    0    0  501    0 -0.00000000000E+00 -0.00000000000E+00 -0.65426263422E+03  0.65426263422E+03  0.00000000000E+00 0. -1.
         25    2    1    2    0    0 -0.11148173812E+03  0.70861936322E+02  0.24811948652E+03  0.30763149533E+03  0.12499706144E+03 0.  0.
          2    1    1    2  501    0  0.81306266032E+02 -0.98279790400E+02 -0.61712439264E+03  0.63016834425E+03  0.00000000000E+00 0. -1.
          1    1    1    2  502    0  0.30175472089E+02  0.27417854078E+02  0.48221903149E+03  0.48393955425E+03  0.00000000000E+00 0. -1.
         22    1    3    3    0    0 -0.98046083470E+02 -0.90570907877E+01  0.11121476546E+03  0.14853884823E+03  0.00000000000E+00 0. -1.
         22    1    3    3    0    0 -0.13435654651E+02  0.79919027110E+02  0.13690472106E+03  0.15909264709E+03  0.00000000000E+00 0. -1.
</event>
<event>
 7    1  0.7527776E-006  0.4187455E+02  0.7818608E-02  0.1532954E+00
          2   -1    0    0  502    0  0.00000000000E+00  0.00000000000E+00  0.14327579515E+04  0.14327579515E+04  0.00000000000E+00 0. -1.
          1   -1    0    0  501    0 -0.00000000000E+00 -0.00000000000E+00 -0.36649874695E+02  0.36649874695E+02  0.00000000000E+00 0. -1.
         25    2    1    2    0    0  0.77226099473E+00  0.62619562370E+02  0.26192482496E+03  0.29690296250E+03  0.12499979693E+03 0.  0.
          2    1    1    2  501    0 -0.19783258234E+02 -0.25642555128E+02 -0.48193762495E+01  0.32743615062E+02  0.00000000000E+00 0. -1.
          1    1    1    2  502    0  0.19010997240E+02 -0.36977007241E+02  0.11390026281E+04  0.11397612486E+04  0.00000000000E+00 0. -1.
         22    1    3    3    0    0 -0.58756260256E+02  0.34952790147E+02  0.17571191087E+03  0.18854355274E+03  0.00000000000E+00 0. -1.
         22    1    3    3    0    0  0.59528521251E+02  0.27666772223E+02  0.86212914086E+02  0.10835940976E+03  0.00000000000E+00 0. -1.
</event>
<event>
 7    1  0.7527776E-006  0.1053209E+03  0.7818608E-02  0.1443940E+00
          2   -1    0    0  502    0  0.00000000000E+00  0.00000000000E+00  0.20701704679E+04  0.20701704679E+04  0.00000000000E+00 0. -1.
          1   -1    0    0  501    0 -0.00000000000E+00 -0.00000000000E+00 -0.10547826012E+03  0.10547826012E+03  0.00000000000E+00 0. -1.
         25    2    1    2    0    0 -0.66242146904E+02  0.53282162298E+02  0.51385833026E+03  0.53563404710E+03  0.12500575181E+03 0.  0.
          2    1    1    2  501    0  0.89924589831E+02 -0.57081411740E+02 -0.64481578492E+02  0.12450941084E+03  0.00000000000E+00 0. -1.
          1    1    1    2  502    0 -0.23682442927E+02  0.37992494418E+01  0.15153154560E+04  0.15155052700E+04  0.00000000000E+00 0. -1.
         22    1    3    3    0    0 -0.47261704496E+02  0.39587994128E+02  0.79299777515E+02  0.10044567041E+03  0.00000000000E+00 0.  1.
         22    1    3    3    0    0 -0.18980442408E+02  0.13694168170E+02  0.43455855275E+03  0.43518837669E+03  0.00000000000E+00 0.  1.
</event>
<event>
 7    1  0.7527776E-006  0.3228514E+02  0.7818608E-02  0.1598148E+00
          2   -1    0    0  502    0  0.00000000000E+00  0.00000000000E+00  0.13224617995E+04  0.13224617995E+04  0.00000000000E+00 0. -1.
          1   -1    0    0  501    0 -0.00000000000E+00 -0.00000000000E+00 -0.10993585695E+03  0.10993585695E+03  0.00000000000E+00 0. -1.
         25    2    1    2    0    0 -0.66301019390E+01  0.10674329560E+02 -0.34813910135E+02  0.13036564716E+03  0.12500117622E+03 0.  0.
          2    1    1    2  501    0  0.33282698470E+02 -0.18809728172E+02 -0.13754970648E+02  0.40629338031E+02  0.00000000000E+00 0. -1.
          1    1    1    2  502    0 -0.26652596531E+02  0.81353986117E+01  0.12610948234E+04  0.12614026713E+04  0.00000000000E+00 0. -1.
         22    1    3    3    0    0 -0.18093593687E+01  0.66172506843E+02 -0.31135847858E+01  0.66270422161E+02  0.00000000000E+00 0.  1.
         22    1    3    3    0    0 -0.48207425703E+01 -0.55498177282E+02 -0.31700325350E+02  0.64095225000E+02  0.00000000000E+00 0.  1.
</event>
<event>
 7    1  0.7527776E-006  0.1101624E+03  0.7818608E-02  0.1451889E+00
          2   -1    0    0  502    0  0.00000000000E+00  0.00000000000E+00  0.35087498859E+04  0.35087498859E+04  0.00000000000E+00 0. -1.
          1   -1    0    0  501    0 -0.00000000000E+00 -0.00000000000E+00 -0.63840060778E+03  0.63840060778E+03  0.00000000000E+00 0. -1.
         25    2    1    2    0    0 -0.55083778692E+02  0.76189294139E+02 -0.41549156390E+03  0.44395607150E+03  0.12499889012E+03 0.  0.
          2    1    1    2  501    0 -0.21392292847E+02  0.31502878288E+01 -0.20724542265E+03  0.20837039069E+03  0.00000000000E+00 0. -1.
          1    1    1    2  502    0  0.76476071539E+02 -0.79339581967E+02  0.34930862647E+04  0.34948240315E+04  0.00000000000E+00 0. -1.
         22    1    3    3    0    0  0.44939688618E+01  0.18196697575E+02  0.14558518640E+01  0.18799868707E+02  0.00000000000E+00 0.  1.
         22    1    3    3    0    0 -0.59577747553E+02  0.57992596564E+02 -0.41694741576E+03  0.42515620279E+03  0.00000000000E+00 0.  1.
</event>
<event>
 7    1  0.7527776E-006  0.3149669E+02  0.7818608E-02  0.1584707E+00
          2   -1    0    0  502    0  0.00000000000E+00  0.00000000000E+00  0.18958397673E+03  0.18958397673E+03  0.00000000000E+00 0. -1.
          1   -1    0    0  501    0 -0.00000000000E+00 -0.00000000000E+00 -0.12824269963E+04  0.12824269963E+04  0.00000000000E+00 0. -1.
         25    2    1    2    0    0 -0.59310668032E+02 -0.18315409267E+02 -0.37467504024E+03  0.39982905452E+03  0.12501470913E+03 0.  0.
          2    1    1    2  501    0  0.30386643922E+02  0.61255910385E+01 -0.89351260959E+03  0.89405014093E+03  0.00000000000E+00 0. -1.
          1    1    1    2  502    0  0.28924024110E+02  0.12189818229E+02  0.17534463024E+03  0.17813177760E+03  0.00000000000E+00 0. -1.
         22    1    3    3    0    0 -0.15501175899E+02 -0.69972857264E+02 -0.18260435397E+03  0.19616533154E+03  0.00000000000E+00 0.  1.
         22    1    3    3    0    0 -0.43809492133E+02  0.51657447997E+02 -0.19207068627E+03  0.20366372298E+03  0.00000000000E+00 0.  1.
</event>
<event>
 7    1  0.7527776E-006  0.2395213E+03  0.7818608E-02  0.1272650E+00
          2   -1    0    0  502    0  0.00000000000E+00  0.00000000000E+00  0.21275905933E+04  0.21275905933E+04  0.00000000000E+00 0. -1.
          1   -1    0    0  501    0 -0.00000000000E+00 -0.00000000000E+00 -0.24562898732E+04  0.24562898732E+04  0.00000000000E+00 0. -1.
         25    2    1    2    0    0 -0.19376674365E+02 -0.28186693920E+03 -0.19517207335E+02  0.30956482055E+03  0.12500011927E+03 0.  0.
          2    1    1    2  501    0  0.13836130358E+02  0.23729074621E+03 -0.22853297108E+04  0.22976575515E+04  0.00000000000E+00 0. -1.
          1    1    1    2  502    0  0.55405440066E+01  0.44576192988E+02  0.19761476382E+04  0.19766580945E+04  0.00000000000E+00 0. -1.
         22    1    3    3    0    0 -0.42877049648E+02 -0.26142158967E+03 -0.45756090947E+02  0.26883695578E+03  0.00000000000E+00 0.  1.
         22    1    3    3    0    0  0.23500375283E+02 -0.20445349529E+02  0.26238883612E+02  0.40727864773E+02  0.00000000000E+00 0.  1.
</event>
<event>
 7    1  0.7527776E-006  0.2231841E+03  0.7818608E-02  0.1189925E+00
          2   -1    0    0  502    0  0.00000000000E+00  0.00000000000E+00  0.53159840996E+03  0.53159840996E+03  0.00000000000E+00 0. -1.
          1   -1    0    0  501    0 -0.00000000000E+00 -0.00000000000E+00 -0.80229005467E+03  0.80229005467E+03  0.00000000000E+00 0. -1.
         25    2    1    2    0    0  0.26305173692E+03 -0.41426202867E+02  0.11465318980E+02  0.29439554614E+03  0.12499974986E+03 0.  0.
          2    1    1    2  501    0 -0.18366173597E+03  0.12205779254E+03 -0.63328533360E+03  0.67058187549E+03  0.00000000000E+00 0. -1.
          1    1    1    2  502    0 -0.79390000949E+02 -0.80631589669E+02  0.35112836990E+03  0.36891104301E+03  0.00000000000E+00 0. -1.
         22    1    3    3    0    0  0.26540436054E+03 -0.31626902463E+02 -0.13346548174E+02  0.26761514513E+03  0.00000000000E+00 0. -1.
         22    1    3    3    0    0 -0.23526236224E+01 -0.97993004037E+01  0.24811867154E+02  0.26780401005E+02  0.00000000000E+00 0. -1.
</event>
<event>
 7    1  0.7527776E-006  0.1096982E+03  0.7818608E-02  0.1317914E+00
          2   -1    0    0  502    0  0.00000000000E+00  0.00000000000E+00  0.20722956166E+03  0.20722956166E+03  0.00000000000E+00 0. -1.
          1   -1    0    0  501    0 -0.00000000000E+00 -0.00000000000E+00 -0.39336835456E+03  0.39336835456E+03  0.00000000000E+00 0. -1.
         25    2    1    2    0    0  0.15245123215E+03  0.40572921592E+02  0.38881562136E+02  0.20498240245E+03  0.12497387443E+03 0.  0.
          2    1    1    2  501    0 -0.10634410853E+03  0.44042628107E+01 -0.28707765372E+03  0.30617322910E+03  0.00000000000E+00 0. -1.
          1    1    1    2  502    0 -0.46107123624E+02 -0.44977184402E+02  0.62057298684E+02  0.89442284662E+02  0.00000000000E+00 0. -1.
         22    1    3    3    0    0  0.14807424078E+03  0.19969938305E+01  0.61160828052E+02  0.16022052195E+03  0.00000000000E+00 0.  1.
         22    1    3    3    0    0  0.43769913733E+01  0.38575927761E+02 -0.22279265916E+02  0.44761880500E+02  0.00000000000E+00 0.  1.
</event>
<event>
 7    1  0.7527776E-006  0.1125380E+03  0.7818608E-02  0.1410033E+00
          2   -1    0    0  502    0  0.00000000000E+00  0.00000000000E+00  0.30364256561E+03  0.30364256561E+03  0.00000000000E+00 0. -1.
          1   -1    0    0  501    0 -0.00000000000E+00 -0.00000000000E+00 -0.11309456615E+04  0.11309456615E+04  0.00000000000E+00 0. -1.
         25    2    1    2    0    0 -0.14429539357E+02  0.83123762666E+02 -0.56979903748E+03  0.58941678176E+03  0.12499371174E+03 0.  0.
          2    1    1    2  501    0  0.29260347316E+00  0.29058039963E+02 -0.54005522312E+03  0.54083648113E+03  0.00000000000E+00 0. -1.
          1    1    1    2  502    0  0.14136935884E+02 -0.11218180263E+03  0.28255116468E+03  0.30433496424E+03  0.00000000000E+00 0. -1.
         22    1    3    3    0    0  0.15975794893E+02  0.54495624982E+02 -0.81493616295E+02  0.99328790698E+02  0.00000000000E+00 0. -1.
         22    1    3    3    0    0 -0.30405334250E+02  0.28628137684E+02 -0.48830542119E+03  0.49008799106E+03  0.00000000000E+00 0. -1.
</event>
<event>
 7    1  0.7527776E-006  0.7046635E+02  0.7818608E-02  0.1461920E+00
          2   -1    0    0  502    0  0.00000000000E+00  0.00000000000E+00  0.88567030168E+03  0.88567030168E+03  0.00000000000E+00 0. -1.
          1   -1    0    0  501    0 -0.00000000000E+00 -0.00000000000E+00 -0.79120355943E+03  0.79120355943E+03  0.00000000000E+00 0. -1.
         25    2    1    2    0    0 -0.10209382673E+02 -0.41545645717E+02 -0.27849327150E+03  0.30824355199E+03  0.12500125160E+03 0.  0.
          2    1    1    2  501    0  0.11989745124E+02 -0.29040738946E+02 -0.49590585682E+03  0.49690012813E+03  0.00000000000E+00 0. -1.
          1    1    1    2  502    0 -0.17803624508E+01  0.70586384663E+02  0.86886587058E+03  0.87173018099E+03  0.00000000000E+00 0. -1.
         22    1    3    3    0    0 -0.53087378526E+02  0.83246116980E+00 -0.21174687859E+03  0.21830186289E+03  0.00000000000E+00 0. -1.
         22    1    3    3    0    0  0.42877995852E+02 -0.42378106887E+02 -0.66746392912E+02  0.89941689102E+02  0.00000000000E+00 0. -1.
</event>
<event>
 7    1  0.7527776E-006  0.9007760E+02  0.7818608E-02  0.1319664E+00
          2   -1    0    0  502    0  0.00000000000E+00  0.00000000000E+00  0.20942961589E+04  0.20942961589E+04  0.00000000000E+00 0. -1.
          1   -1    0    0  501    0 -0.00000000000E+00 -0.00000000000E+00 -0.21345480219E+04  0.21345480219E+04  0.00000000000E+00 0. -1.
         25    2    1    2    0    0 -0.21574534701E+02  0.82579045515E+02  0.81154564484E+03  0.82554060042E+03  0.12500475977E+03 0.  0.
          2    1    1    2  501    0 -0.66398038013E+02 -0.39427464854E+02 -0.21249666906E+04  0.21263693612E+04  0.00000000000E+00 0. -1.
          1    1    1    2  502    0  0.87972572715E+02 -0.43151580661E+02  0.12731691827E+04  0.12769342192E+04  0.00000000000E+00 0. -1.
         22    1    3    3    0    0  0.48183532992E+02  0.51866341219E+02  0.29346262278E+03  0.30188090561E+03  0.00000000000E+00 0.  1.
         22    1    3    3    0    0 -0.69758067694E+02  0.30712704295E+02  0.51808302207E+03  0.52365969481E+03  0.00000000000E+00 0.  1.
</event>
<event>
 7    1  0.7527776E-006  0.7818195E+02  0.7818608E-02  0.1336860E+00
          2   -1    0    0  502    0  0.00000000000E+00  0.00000000000E+00  0.17306578353E+04  0.17306578353E+04  0.00000000000E+00 0. -1.
          1   -1    0    0  501    0 -0.00000000000E+00 -0.00000000000E+00 -0.80505832570E+03  0.80505832570E+03  0.00000000000E+00 0. -1.
         25    2    1    2    0    0 -0.11322166545E+03  0.87363470550E+02  0.68802219506E+03  0.71375873179E+03  0.12500185912E+03 0.  0.
          2    1    1    2  501    0  0.39443108602E+02 -0.67329667406E+02 -0.78884344046E+03  0.79269351990E+03  0.00000000000E+00 0. -1.
          1    1    1    2  502    0  0.73778556847E+02 -0.20033803144E+02  0.10264207551E+04  0.10292639094E+04  0.00000000000E+00 0. -1.
         22    1    3    3    0    0 -0.85861652373E+02  0.70328015547E+02  0.23825013991E+03  0.26283337362E+03  0.00000000000E+00 0.  1.
         22    1    3    3    0    0 -0.27360013076E+02  0.17035455003E+02  0.44977205515E+03  0.45092535817E+03  0.00000000000E+00 0.  1.
</event>
<event>
 7    1  0.7527776E-006  0.2952329E+02  0.7818608E-02  0.1662454E+00
          2   -1    0    0  502    0  0.00000000000E+00  0.00000000000E+00  0.87049719124E+03  0.87049719124E+03  0.00000000000E+00 0. -1.
          1   -1    0    0  501    0 -0.00000000000E+00 -0.00000000000E+00 -0.89782728080E+02  0.89782728080E+02  0.00000000000E+00 0. -1.
         25    2    1    2    0    0 -0.10213703292E+02 -0.25016201659E+01  0.19433224239E+03  0.23130143962E+03  0.12499903079E+03 0.  0.
          2    1    1    2  501    0 -0.12638048167E+02 -0.16770558771E+02 -0.69403994124E+02  0.72511283973E+02  0.00000000000E+00 0. -1.
          1    1    1    2  502    0  0.22851751459E+02  0.19272178936E+02  0.65578621489E+03  0.65646719572E+03  0.00000000000E+00 0. -1.
         22    1    3    3    0    0 -0.54621849686E+02  0.36945077189E+02  0.10683091293E+03  0.12554413228E+03  0.00000000000E+00 0.  1.
         22    1    3    3    0    0  0.44408146394E+02 -0.39446697355E+02  0.87501329465E+02  0.10575730734E+03  0.00000000000E+00 0.  1.
</event>
<event>
 7    1  0.7527776E-006  0.1087183E+03  0.7818608E-02  0.1312135E+00
          2   -1    0    0  502    0  0.00000000000E+00  0.00000000000E+00  0.17664025223E+04  0.17664025223E+04  0.00000000000E+00 0. -1.
          1   -1    0    0  501    0 -0.00000000000E+00 -0.00000000000E+00 -0.18467781320E+03  0.18467781320E+03  0.00000000000E+00 0. -1.
         25    2    1    2    0    0 -0.10964350734E+03  0.11989381509E+03  0.70005994861E+02  0.21662548346E+03  0.12501813936E+03 0.  0.
          2    1    1    2  501    0  0.83148323402E+02 -0.56765639025E+02 -0.87731843484E+02  0.13353972375E+03  0.00000000000E+00 0. -1.
          1    1    1    2  502    0  0.26495183940E+02 -0.63128176064E+02  0.15994505577E+04  0.16009151283E+04  0.00000000000E+00 0. -1.
         22    1    3    3    0    0 -0.11998350807E+03  0.12048428156E+03  0.26726950662E+02  0.17212447300E+03  0.00000000000E+00 0.  1.
         22    1    3    3    0    0  0.10340000732E+02 -0.59046646682E+00  0.43279044199E+02  0.44501010467E+02  0.00000000000E+00 0.  1.
</event>
<event>
 7    1  0.7527776E-006  0.7012827E+02  0.7818608E-02  0.1442098E+00
          2   -1    0    0  502    0  0.00000000000E+00  0.00000000000E+00  0.81275007006E+03  0.81275007006E+03  0.00000000000E+00 0. -1.
          1   -1    0    0  501    0 -0.00000000000E+00 -0.00000000000E+00 -0.10879342540E+03  0.10879342540E+03  0.00000000000E+00 0. -1.
         25    2    1    2    0    0 -0.10029188359E+03  0.28678294783E+02  0.74647470106E+02  0.17910249062E+03  0.12499820338E+03 0.  0.
          2    1    1    2  501    0  0.32267836009E+02 -0.17100428444E+02 -0.48732435527E+02  0.60897357628E+02  0.00000000000E+00 0. -1.
          1    1    1    2  502    0  0.68024047581E+02 -0.11577866339E+02  0.67804161009E+03  0.68154364721E+03  0.00000000000E+00 0. -1.
         22    1    3    3    0    0 -0.30291072018E+02  0.52456862566E+02 -0.15491343342E+02  0.62524020926E+02  0.00000000000E+00 0. -1.
         22    1    3    3    0    0 -0.70000811572E+02 -0.23778567783E+02  0.90138813448E+02  0.11657846969E+03  0.00000000000E+00 0. -1.
</event>
<event>
 7    1  0.7527776E-006  0.7675656E+02  0.7818608E-02  0.1445697E+00
          2   -1    0    0  502    0  0.00000000000E+00  0.00000000000E+00  0.76179000085E+03  0.76179000085E+03  0.00000000000E+00 0. -1.
          1   -1    0    0  501    0 -0.00000000000E+00 -0.00000000000E+00 -0.28641490745E+03  0.28641490745E+03  0.00000000000E+00 0. -1.
         25    2    1    2    0    0  0.57663923221E+01 -0.98788825652E+02  0.87355048176E+02  0.18178212100E+03  0.12498540602E+03 0.  0.
          2    1    1    2  501    0  0.18265153352E+02  0.26863346269E+02 -0.23579154112E+03  0.23801870948E+03  0.00000000000E+00 0. -1.
          1    1    1    2  502    0 -0.24031545674E+02  0.71925479383E+02  0.62381158634E+03  0.62840407783E+03  0.00000000000E+00 0. -1.
         22    1    3    3    0    0  0.45140715765E+02 -0.10810669480E+03  0.76401119074E+02  0.13986376470E+03  0.00000000000E+00 0. -1.
         22    1    3    3    0    0 -0.39374323443E+02  0.93178691449E+01  0.10953929103E+02  0.41918356299E+02  0.00000000000E+00 0. -1.
</event>
<event>
 7    1  0.7527776E-006  0.7103713E+02  0.7818608E-02  0.1364307E+00
          2   -1    0    0  502    0  0.00000000000E+00  0.00000000000E+00  0.11534154011E+04  0.11534154011E+04  0.00000000000E+00 0. -1.
          1   -1    0    0  501    0 -0.00000000000E+00 -0.00000000000E+00 -0.81399410189E+03  0.81399410189E+03  0.00000000000E+00 0. -1.
         25    2    1    2    0    0 -0.13682386998E+03  0.96305544198E-02  0.16951140948E+03  0.25115734820E+03  0.12500049649E+03 0.  0.
          2    1    1    2  501    0  0.70391318259E+02  0.45047134868E+01 -0.77038264516E+03  0.77360497031E+03  0.00000000000E+00 0. -1.
          1    1    1    2  502    0  0.66432551726E+02 -0.45143440413E+01  0.94029253487E+03  0.94264718446E+03  0.00000000000E+00 0. -1.
         22    1    3    3    0    0 -0.15148432608E+03 -0.13260930450E+02  0.17379020922E+03  0.23092507474E+03  0.00000000000E+00 0.  1.
         22    1    3    3    0    0  0.14660456092E+02  0.13270561004E+02 -0.42787997436E+01  0.20232273462E+02  0.00000000000E+00 0.  1.
</event>
<event>
 7    1  0.7527776E-006  0.6462306E+02  0.7818608E-02  0.1446084E+00
          2   -1    0    0  502    0  0.00000000000E+00  0.00000000000E+00  0.94243625724E+03  0.94243625724E+03  0.00000000000E+00 0. -1.
          1   -1    0    0  501    0 -0.00000000000E+00 -0.00000000000E+00 -0.13030147321E+03  0.13030147321E+03  0.00000000000E+00 0. -1.
         25    2    1    2    0    0  0.52764677409E+02 -0.39771700329E+01  0.19742672229E+03  0.23958753583E+03  0.12499979034E+03 0.  0.
          2    1    1    2  501    0 -0.55867956409E+02 -0.34370960068E+02 -0.98807501711E+02  0.11859811906E+03  0.00000000000E+00 0. -1.
          1    1    1    2  502    0  0.31032790006E+01  0.38348130101E+02  0.71351556344E+03  0.71455207557E+03  0.00000000000E+00 0. -1.
         22    1    3    3    0    0  0.50111941580E+02 -0.59388457237E+02  0.91742940800E+02  0.12022879326E+03  0.00000000000E+00 0. -1.
         22    1    3    3    0    0  0.26527358293E+01  0.55411287204E+02  0.10568378149E+03  0.11935874257E+03  0.00000000000E+00 0. -1.
</event>
<event>
 7    1  0.7527776E-006  0.7387752E+02  0.7818608E-02  0.1464910E+00
          2   -1    0    0  502    0  0.00000000000E+00  0.00000000000E+00  0.93749990133E+03  0.93749990133E+03  0.00000000000E+00 0. -1.
          1   -1    0    0  501    0 -0.00000000000E+00 -0.00000000000E+00 -0.48243905326E+03  0.48243905326E+03  0.00000000000E+00 0. -1.
         25    2    1    2    0    0  0.70204077318E+00  0.57655191641E+02  0.10202706798E+03  0.17134482147E+03  0.12499964504E+03 0.  0.
          2    1    1    2  501    0  0.26755333482E+02  0.12009415228E+02 -0.44554662215E+03  0.44651076856E+03  0.00000000000E+00 0. -1.
          1    1    1    2  502    0 -0.27457374256E+02 -0.69664606869E+02  0.79858040224E+03  0.80208336456E+03  0.00000000000E+00 0. -1.
         22    1    3    3    0    0  0.11259893348E+02 -0.34297986792E+02  0.36689992782E+01  0.36284964543E+02  0.00000000000E+00 0.  1.
         22    1    3    3    0    0 -0.10557852575E+02  0.91953178433E+02  0.98358068699E+02  0.13505985693E+03  0.00000000000E+00 0.  1.
</event>
<event>
 7    1  0.7527776E-006  0.8527670E+02  0.7818608E-02  0.1379850E+00
          2   -1    0    0  502    0  0.00000000000E+00  0.00000000000E+00  0.46934075711E+03  0.46934075711E+03  0.00000000000E+00 0. -1.
          1   -1    0    0  501    0 -0.00000000000E+00 -0.00000000000E+00 -0.63457627839E+03  0.63457627839E+03  0.00000000000E+00 0. -1.
         25    2    1    2    0    0 -0.65235163638E+02 -0.63274746415E+02 -0.26809113122E+03  0.30944828457E+03  0.12500426422E+03 0.  0.
          2    1    1    2  501    0 -0.18231244386E+02  0.45255759199E+02 -0.33998643525E+03  0.34346941373E+03  0.00000000000E+00 0. -1.
          1    1    1    2  502    0  0.83466408024E+02  0.18018987216E+02  0.44284204520E+03  0.45099933721E+03  0.00000000000E+00 0. -1.
         22    1    3    3    0    0 -0.96401278372E+02 -0.66686653027E+02 -0.17020794168E+03  0.20666654199E+03  0.00000000000E+00 0. -1.
         22    1    3    3    0    0  0.31166114735E+02  0.34119066119E+01 -0.97883189539E+02  0.10278174258E+03  0.00000000000E+00 0. -1.
</event>
<event>
 7    1  0.8373927E-006  0.7769024E+02  0.7818608E-02  0.1361064E+00
          2   -1    0    0  502    0  0.00000000000E+00  0.00000000000E+00  0.71241980693E+03  0.71241980693E+03  0.00000000000E+00 0. -1.
          1   -1    0    0  501    0 -0.00000000000E+00 -0.00000000000E+00 -0.19992746952E+04  0.19992746952E+04  0.00000000000E+00 0. -1.
         25    2    1    2    0    0 -0.11687024140E+03  0.48884151555E+02 -0.36445473326E+03  0.40558454581E+03  0.12499303022E+03 0.  0.
          2    1    1    2  501    0  0.62264150425E+02  0.60653083275E+01 -0.16114776908E+04  0.16126915267E+04  0.00000000000E+00 0. -1.
          1    1    1    2  502    0  0.54606090972E+02 -0.54949459882E+02  0.68907753575E+03  0.69341842966E+03  0.00000000000E+00 0. -1.
         22    1    3    3    0    0 -0.14228221975E+02 -0.13527387230E+02  0.21974571422E+01  0.19755032870E+02  0.00000000000E+00 0. -1.
         22    1    3    3    0    0 -0.10264201942E+03  0.62411538784E+02 -0.36665219041E+03  0.38582951294E+03  0.00000000000E+00 0. -1.
</event>
<event>
 7    1  0.7527776E-006  0.2041858E+03  0.7818608E-02  0.1151116E+00
          2   -1    0    0  502    0  0.00000000000E+00  0.00000000000E+00  0.20032712118E+04  0.20032712118E+04  0.00000000000E+00 0. -1.
          1   -1    0    0  501    0 -0.00000000000E+00 -0.00000000000E+00 -0.21340117134E+04  0.21340117134E+04  0.00000000000E+00 0. -1.
         25    2    1    2    0    0  0.16731574953E+03  0.21482865147E+02  0.12429394068E+03  0.24396641786E+03  0.12495821629E+03 0.  0.
          2    1    1    2  501    0 -0.78100311983E+02 -0.19232217771E+03 -0.20638498392E+04  0.20742621911E+04  0.00000000000E+00 0. -1.
          1    1    1    2  502    0 -0.89215437551E+02  0.17083931256E+03  0.18088153969E+04  0.18190543162E+04  0.00000000000E+00 0. -1.
         22    1    3    3    0    0  0.57046517778E+02 -0.47204990293E+02  0.18230287160E+02  0.76255882849E+02  0.00000000000E+00 0.  1.
         22    1    3    3    0    0  0.11026923176E+03  0.68687855439E+02  0.10606365352E+03  0.16771053501E+03  0.00000000000E+00 0.  1.
</event>
<event>
 7    1  0.7527776E-006  0.7989799E+02  0.7818608E-02  0.1334070E+00
          2   -1    0    0  502    0  0.00000000000E+00  0.00000000000E+00  0.43639795145E+03  0.43639795145E+03  0.00000000000E+00 0. -1.
          1   -1    0    0  501    0 -0.00000000000E+00 -0.00000000000E+00 -0.72633004557E+03  0.72633004557E+03  0.00000000000E+00 0. -1.
         25    2    1    2    0    0  0.27490926452E+02  0.84612615255E+02 -0.48903385541E+03  0.51253679214E+03  0.12499922346E+03 0.  0.
          2    1    1    2  501    0 -0.74131999411E+02 -0.19487780738E+02 -0.21508212194E+03  0.22833231509E+03  0.00000000000E+00 0. -1.
          1    1    1    2  502    0  0.46641072959E+02 -0.65124834516E+02  0.41418388324E+03  0.42185888979E+03  0.00000000000E+00 0. -1.
         22    1    3    3    0    0  0.12140038922E+02  0.11695156628E+03 -0.38032479108E+03  0.39808541308E+03  0.00000000000E+00 0. -1.
         22    1    3    3    0    0  0.15350887530E+02 -0.32338951021E+02 -0.10870906433E+03  0.11445137906E+03  0.00000000000E+00 0. -1.
</event>
<event>
 7    1  0.7527776E-006  0.1086528E+03  0.7818608E-02  0.1385112E+00
          2   -1    0    0  502    0  0.00000000000E+00  0.00000000000E+00  0.37115669217E+03  0.37115669217E+03  0.00000000000E+00 0. -1.
          1   -1    0    0  501    0 -0.00000000000E+00 -0.00000000000E+00 -0.91302536953E+03  0.91302536953E+03  0.00000000000E+00 0. -1.
         25    2    1    2    0    0  0.62101729471E+02  0.81286191392E+02  0.10785851300E+03  0.19422295485E+03  0.12500011059E+03 0.  0.
          2    1    1    2  501    0 -0.26699222985E+02  0.25166376153E+02 -0.85513001830E+03  0.85591678520E+03  0.00000000000E+00 0. -1.
          1    1    1    2  502    0 -0.35402506486E+02 -0.10645256755E+03  0.20540282793E+03  0.23404232165E+03  0.00000000000E+00 0. -1.
         22    1    3    3    0    0 -0.15763418380E+02  0.76969098608E+02  0.78021501634E+02  0.11072525555E+03  0.00000000000E+00 0. -1.
         22    1    3    3    0    0  0.77865147851E+02  0.43170927841E+01  0.29837011371E+02  0.83497699295E+02  0.00000000000E+00 0. -1.
</event>
<event>
 7    1  0.7527776E-006  0.6572964E+02  0.7818608E-02  0.1445748E+00
          2   -1    0    0  502    0  0.00000000000E+00  0.00000000000E+00  0.30484315105E+03  0.30484315105E+03  0.00000000000E+00 0. -1.
          1   -1    0    0  501    0 -0.00000000000E+00 -0.00000000000E+00 -0.21584349333E+03  0.21584349333E+03  0.00000000000E+00 0. -1.
         25    2    1    2    0    0  0.55274834001E+02 -0.17627758911E+02  0.44693070139E+02  0.14487398444E+03  0.12499982277E+03 0.  0.
          2    1    1    2  501    0 -0.13448812010E+02 -0.35455011275E+02 -0.15801563454E+03  0.16250190500E+03  0.00000000000E+00 0. -1.
          1    1    1    2  502    0 -0.41826021991E+02  0.53082770185E+02  0.20232222213E+03  0.21331075494E+03  0.00000000000E+00 0. -1.
         22    1    3    3    0    0  0.93424549052E+02 -0.91644859402E-01  0.18065168827E+02  0.95155163228E+02  0.00000000000E+00 0.  1.
         22    1    3    3    0    0 -0.38149715051E+02 -0.17536114051E+02  0.26627901313E+02  0.49718821213E+02  0.00000000000E+00 0.  1.
</event>
<event>
 7    1  0.7527776E-006  0.3698770E+02  0.7818608E-02  0.1545920E+00
          2   -1    0    0  502    0  0.00000000000E+00  0.00000000000E+00  0.39327435882E+03  0.39327435882E+03  0.00000000000E+00 0. -1.
          1   -1    0    0  501    0 -0.00000000000E+00 -0.00000000000E+00 -0.21750711063E+04  0.21750711063E+04  0.00000000000E+00 0. -1.
         25    2    1    2    0    0 -0.60706939932E+02  0.32044085744E+02 -0.59228306063E+03  0.60920941989E+03  0.12499894954E+03 0.  0.
          2    1    1    2  501    0  0.28382845167E+02 -0.22525403507E+02 -0.15733782007E+04  0.15737953940E+04  0.00000000000E+00 0. -1.
          1    1    1    2  502    0  0.32324094766E+02 -0.95186822371E+01  0.38386451391E+03  0.38534065118E+03  0.00000000000E+00 0. -1.
         22    1    3    3    0    0  0.17287429050E+01 -0.26651729816E+02 -0.37027175671E+03  0.37123372297E+03  0.00000000000E+00 0. -1.
         22    1    3    3    0    0 -0.62435682837E+02  0.58695815560E+02 -0.22201130392E+03  0.23797569692E+03  0.00000000000E+00 0. -1.
</event>
<event>
 7    1  0.7527776E-006  0.1183620E+03  0.7818608E-02  0.1313002E+00
          2   -1    0    0  502    0  0.00000000000E+00  0.00000000000E+00  0.32100929892E+03  0.32100929892E+03  0.00000000000E+00 0. -1.
          1   -1    0    0  501    0 -0.00000000000E+00 -0.00000000000E+00 -0.38236858293E+03  0.38236858293E+03  0.00000000000E+00 0. -1.
         25    2    1    2    0    0  0.64038581902E+02 -0.44868136991E+02 -0.13003124721E+03  0.19658962536E+03  0.12500106343E+03 0.  0.
          2    1    1    2  501    0  0.56719595617E+02  0.25997484828E+02 -0.20113391388E+03  0.21058925200E+03  0.00000000000E+00 0. -1.
          1    1    1    2  502    0 -0.12075817752E+03  0.18870652163E+02  0.26980587708E+03  0.29619900449E+03  0.00000000000E+00 0. -1.
         22    1    3    3    0    0  0.49124639456E+02 -0.69467230816E+02 -0.26465749974E+02  0.89103099164E+02  0.00000000000E+00 0.  1.
         22    1    3    3    0    0  0.14913942445E+02  0.24599093825E+02 -0.10356549724E+03  0.10748652620E+03  0.00000000000E+00 0.  1.
</event>
<event>
 7    1  0.7527776E-006  0.1311934E+03  0.7818608E-02  0.1234058E+00
          2   -1    0    0  502    0  0.00000000000E+00  0.00000000000E+00  0.11268678216E+04  0.11268678216E+04  0.00000000000E+00 0. -1.
          1   -1    0    0  501    0 -0.00000000000E+00 -0.00000000000E+00 -0.10067359376E+04  0.10067359376E+04  0.00000000000E+00 0. -1.
         25    2    1    2    0    0 -0.64039105153E+02  0.20535991572E+03  0.25268192830E+03  0.35461059417E+03  0.12500725831E+03 0.  0.
          2    1    1    2  501    0 -0.25519154629E+02 -0.11760200750E+03 -0.94716784321E+03  0.95478185081E+03  0.00000000000E+00 0. -1.
          1    1    1    2  502    0  0.89558259782E+02 -0.87757908228E+02  0.81461779891E+03  0.82421131432E+03  0.00000000000E+00 0. -1.
         22    1    3    3    0    0 -0.97866360498E+02  0.11113478274E+03  0.16272987811E+03  0.22002222088E+03  0.00000000000E+00 0. -1.
         22    1    3    3    0    0  0.33827255345E+02  0.94225132981E+02  0.89952050190E+02  0.13458837328E+03  0.00000000000E+00 0. -1.
</event>
<event>
 7    1  0.7527776E-006  0.7815707E+02  0.7818608E-02  0.1437385E+00
          2   -1    0    0  502    0  0.00000000000E+00  0.00000000000E+00  0.20148743258E+03  0.20148743258E+03  0.00000000000E+00 0. -1.
          1   -1    0    0  501    0 -0.00000000000E+00 -0.00000000000E+00 -0.12705564362E+04  0.12705564362E+04  0.00000000000E+00 0. -1.
         25    2    1    2    0    0 -0.10659697585E+03  0.25139957024E+02 -0.65697942956E+02  0.17870744916E+03  0.12500079991E+03 0.  0.
          2    1    1    2  501    0  0.32676405477E+02 -0.91836540388E+01 -0.11382222419E+04  0.11387282200E+04  0.00000000000E+00 0. -1.
          1    1    1    2  502    0  0.73920570371E+02 -0.15956302986E+02  0.13485118123E+03  0.15460819968E+03  0.00000000000E+00 0. -1.
         22    1    3    3    0    0  0.28458301587E+02  0.92799398022E+01 -0.15889958528E+02  0.33889275501E+02  0.00000000000E+00 0.  1.
         22    1    3    3    0    0 -0.13505527744E+03  0.15860017222E+02 -0.49807984428E+02  0.14481817366E+03  0.00000000000E+00 0.  1.
</event>
<event>
 7    1  0.7527776E-006  0.1489515E+03  0.7818608E-02  0.1360068E+00
          2   -1    0    0  502    0  0.00000000000E+00  0.00000000000E+00  0.33132432341E+04  0.33132432341E+04  0.00000000000E+00 0. -1.
          1   -1    0    0  501    0 -0.00000000000E+00 -0.00000000000E+00 -0.26908615152E+03  0.26908615152E+03  0.00000000000E+00 0. -1.
         25    2    1    2    0    0  0.12432717721E+03 -0.98544889923E+02  0.10343713181E+04  0.10539058636E+04  0.12500081334E+03 0.  0.
          2    1    1    2  501    0 -0.13298464039E+03  0.66800711880E+02 -0.23783717855E+03  0.28055974976E+03  0.00000000000E+00 0. -1.
          1    1    1    2  502    0  0.86574631791E+01  0.31744178042E+02  0.22476229431E+04  0.22478637723E+04  0.00000000000E+00 0. -1.
         22    1    3    3    0    0  0.14309868129E+03 -0.10337610366E+03  0.82705653769E+03  0.84568692076E+03  0.00000000000E+00 0. -1.
         22    1    3    3    0    0 -0.18771504082E+02  0.48312137347E+01  0.20731478039E+03  0.20821894285E+03  0.00000000000E+00 0. -1.
</event>
<event>
 7    1  0.7527776E-006  0.4746272E+02  0.7818608E-02  0.1574901E+00
          2   -1    0    0  502    0  0.00000000000E+00  0.00000000000E+00  0.96241954466E+03  0.96241954466E+03  0.00000000000E+00 0. -1.
          1   -1    0    0  501    0 -0.00000000000E+00 -0.00000000000E+00 -0.87539399504E+02  0.87539399504E+02  0.00000000000E+00 0. -1.
         25    2    1    2    0    0 -0.48598107658E+02  0.19335901833E+02  0.26925242230E+03  0.30142929461E+03  0.12500839799E+03 0.  0.
          2    1    1    2  501    0  0.32730683666E+02 -0.34364359399E+02 -0.63372541867E+02  0.79172507305E+02  0.00000000000E+00 0. -1.
          1    1    1    2  502    0  0.15867423991E+02  0.15028457566E+02  0.66900026472E+03  0.66935714225E+03  0.00000000000E+00 0. -1.
         22    1    3    3    0    0  0.27781400442E+02 -0.74441455573E+00  0.18049915196E+03  0.18262613236E+03  0.00000000000E+00 0. -1.
         22    1    3    3    0    0 -0.76379508099E+02  0.20080316389E+02  0.88753270337E+02  0.11880316224E+03  0.00000000000E+00 0. -1.
</event>
<event>
 7    1  0.7527776E-006  0.8389106E+02  0.7818608E-02  0.1350347E+00
          2   -1    0    0  502    0  0.00000000000E+00  0.00000000000E+00  0.27233158574E+03  0.27233158574E+03  0.00000000000E+00 0. -1.
          1   -1    0    0  501    0 -0.00000000000E+00 -0.00000000000E+00 -0.69309563647E+03  0.69309563647E+03  0.00000000000E+00 0. -1.
         25    2    1    2    0    0 -0.38214061253E+02  0.11839084403E+02 -0.39231348031E+03  0.41368841636E+03  0.12501104190E+03 0.  0.
          2    1    1    2  501    0 -0.97352394923E+00  0.63424397374E+02 -0.27956724893E+03  0.28667306920E+03  0.00000000000E+00 0. -1.
          1    1    1    2  502    0  0.39187585202E+02 -0.75263481777E+02  0.25111667851E+03  0.26506573665E+03  0.00000000000E+00 0. -1.
         22    1    3    3    0    0 -0.51816779183E+02 -0.40781587449E+02 -0.29447269519E+03  0.30176528079E+03  0.00000000000E+00 0.  1.
         22    1    3    3    0    0  0.13602717930E+02  0.52620671853E+02 -0.97840785119E+02  0.11192313556E+03  0.00000000000E+00 0.  1.
</event>
<event>
 7    1  0.7527776E-006  0.1171774E+03  0.7818608E-02  0.1249056E+00
          2   -1    0    0  502    0  0.00000000000E+00  0.00000000000E+00  0.63058403491E+03  0.63058403491E+03  0.00000000000E+00 0. -1.
          1   -1    0    0  501    0 -0.00000000000E+00 -0.00000000000E+00 -0.45504083996E+03  0.45504083996E+03  0.00000000000E+00 0. -1.
         25    2    1    2    0    0  0.28146519637E+02  0.53890901760E+02 -0.51710954843E+02  0.14833178925E+03  0.12502736097E+03 0.  0.
          2    1    1    2  501    0  0.62830454088E+02 -0.12544450252E+03 -0.33502963665E+03  0.36322010765E+03  0.00000000000E+00 0. -1.
          1    1    1    2  502    0 -0.90976973726E+02  0.71553600755E+02  0.56228378645E+03  0.57407297796E+03  0.00000000000E+00 0. -1.
         22    1    3    3    0    0  0.27922400847E+01 -0.37570796694E+02 -0.36038236937E+02  0.52135553036E+02  0.00000000000E+00 0. -1.
         22    1    3    3    0    0  0.25354279553E+02  0.91461698454E+02 -0.15672717906E+02  0.96196236217E+02  0.00000000000E+00 0. -1.
</event>
<event>
 7    1  0.7527776E-006  0.4467057E+03  0.7818608E-02  0.1245630E+00
          2   -1    0    0  502    0  0.00000000000E+00  0.00000000000E+00  0.16510686957E+04  0.16510686957E+04  0.00000000000E+00 0. -1.
          1   -1    0    0  501    0 -0.00000000000E+00 -0.00000000000E+00 -0.14389280377E+03  0.14389280377E+03  0.00000000000E+00 0. -1.
         25    2    1    2    0    0 -0.87064088012E+02  0.42279222789E+03  0.82912870525E+03  0.94308689525E+03  0.12500023493E+03 0.  0.
          2    1    1    2  501    0  0.11051776174E+03 -0.44370476786E+03  0.52757861462E+03  0.69815993246E+03  0.00000000000E+00 0. -1.
          1    1    1    2  502    0 -0.23453673726E+02  0.20912539973E+02  0.15046857210E+03  0.15371467181E+03  0.00000000000E+00 0. -1.
         22    1    3    3    0    0 -0.78867571821E+02  0.25572733624E+03  0.62003413535E+03  0.67532132603E+03  0.00000000000E+00 0.  1.
         22    1    3    3    0    0 -0.81965161906E+01  0.16706489165E+03  0.20909456990E+03  0.26776556922E+03  0.00000000000E+00 0.  1.
</event>
<event>
 7    1  0.7527776E-006  0.3900783E+02  0.7818608E-02  0.1522587E+00
          2   -1    0    0  502    0  0.00000000000E+00  0.00000000000E+00  0.97828531917E+03  0.97828531917E+03  0.00000000000E+00 0. -1.
          1   -1    0    0  501    0 -0.00000000000E+00 -0.00000000000E+00 -0.18813468728E+03  0.18813468728E+03  0.00000000000E+00 0. -1.
         25    2    1    2    0    0  0.74158818575E+02  0.90123509232E+01  0.18064721294E+03  0.23203208623E+03  0.12499888261E+03 0.  0.
          2    1    1    2  501    0 -0.36983277911E+02 -0.11129241690E+02 -0.15968987668E+03  0.16429388175E+03  0.00000000000E+00 0. -1.
          1    1    1    2  502    0 -0.37175540663E+02  0.21168907671E+01  0.76919329563E+03  0.77009403847E+03  0.00000000000E+00 0. -1.
         22    1    3    3    0    0  0.20055033425E+02  0.13241620784E+02 -0.15446046574E+02  0.28567905794E+02  0.00000000000E+00 0. -1.
         22    1    3    3    0    0  0.54103785149E+02 -0.42292698612E+01  0.19609325952E+03  0.20346418043E+03  0.00000000000E+00 0. -1.
</event>
<event>
 7    1  0.7527776E-006  0.1576387E+03  0.7818608E-02  0.1288410E+00
          2   -1    0    0  502    0  0.00000000000E+00  0.00000000000E+00  0.53721764909E+03  0.53721764909E+03  0.00000000000E+00 0. -1.
          1   -1    0    0  501    0 -0.00000000000E+00 -0.00000000000E+00 -0.33879015201E+03  0.33879015201E+03  0.00000000000E+00 0. -1.
         25    2    1    2    0    0 -0.10627050080E+03  0.13131995490E+03  0.90329942896E+02  0.22874148288E+03  0.12499927004E+03 0.  0.
          2    1    1    2  501    0 -0.28729478732E+02 -0.51250833030E+02 -0.24971905423E+03  0.25653778841E+03  0.00000000000E+00 0. -1.
          1    1    1    2  502    0  0.13499997953E+03 -0.80069121875E+02  0.35781660841E+03  0.39072852981E+03  0.00000000000E+00 0. -1.
         22    1    3    3    0    0 -0.82568744466E+02  0.69598756070E+02  0.11538677451E+03  0.15803699611E+03  0.00000000000E+00 0.  1.
         22    1    3    3    0    0 -0.23701756331E+02  0.61721198835E+02 -0.25056831612E+02  0.70704486769E+02  0.00000000000E+00 0.  1.
</event>
<event>
 7    1  0.7527776E-006  0.3745168E+02  0.7818608E-02  0.1609906E+00
          2   -1    0    0  502    0  0.00000000000E+00  0.00000000000E+00  0.74951631681E+03  0.74951631681E+03  0.00000000000E+00 0. -1.
          1   -1    0    0  501    0 -0.00000000000E+00 -0.00000000000E+00 -0.25119390866E+03  0.25119390866E+03  0.00000000000E+00 0. -1.
         25    2    1    2    0    0 -0.36775230178E+02  0.74307176946E+01  0.25146864237E+03  0.28331727717E+03  0.12499827328E+03 0.  0.
          2    1    1    2  501    0  0.34427978240E+02  0.14835845282E+02 -0.23351379653E+03  0.23650387135E+03  0.00000000000E+00 0. -1.
          1    1    1    2  502    0  0.23472519384E+01 -0.22266562976E+02  0.48036756231E+03  0.48088907696E+03  0.00000000000E+00 0. -1.
         22    1    3    3    0    0  0.37350111185E+02  0.31082674451E+02  0.13284215978E+03  0.14145035480E+03  0.00000000000E+00 0.  1.
         22    1    3    3    0    0 -0.74125341363E+02 -0.23651956756E+02  0.11862648259E+03  0.14186692237E+03  0.00000000000E+00 0.  1.
</event>
<event>
 7    1  0.7527776E-006  0.9971898E+02  0.7818608E-02  0.1306825E+00
          2   -1    0    0  502    0  0.00000000000E+00  0.00000000000E+00  0.47533197696E+03  0.47533197696E+03  0.00000000000E+00 0. -1.
          1   -1    0    0  501    0 -0.00000000000E+00 -0.00000000000E+00 -0.49832368612E+03  0.49832368612E+03  0.00000000000E+00 0. -1.
         25    2    1    2    0    0  0.43447533433E+02  0.15344448868E+02 -0.10298684030E+03  0.16838836216E+03  0.12500084386E+03 0.  0.
          2    1    1    2  501    0 -0.12744747081E+01  0.78318354207E+02 -0.35231710549E+03  0.36091928698E+03  0.00000000000E+00 0. -1.
          1    1    1    2  502    0 -0.42173058725E+02 -0.93662803075E+02  0.43231223662E+03  0.44434801394E+03  0.00000000000E+00 0. -1.
         22    1    3    3    0    0  0.17965564410E+02  0.57348871504E+02 -0.10300987191E+03  0.11925891278E+03  0.00000000000E+00 0. -1.
         22    1    3    3    0    0  0.25481969022E+02 -0.42004422636E+02  0.23031608229E-01  0.49129449383E+02  0.00000000000E+00 0. -1.
</event>
<event>
 7    1  0.7527776E-006  0.6179120E+02  0.7818608E-02  0.1392547E+00
          2   -1    0    0  502    0  0.00000000000E+00  0.00000000000E+00  0.52345808905E+03  0.52345808905E+03  0.00000000000E+00 0. -1.
          1   -1    0    0  501    0 -0.00000000000E+00 -0.00000000000E+00 -0.94622805933E+02  0.94622805933E+02  0.00000000000E+00 0. -1.
         25    2    1    2    0    0 -0.19765397452E+02  0.19813420991E+02  0.14098330948E+03  0.19048784149E+03  0.12500432640E+03 0.  0.
          2    1    1    2  501    0 -0.27472514244E+02 -0.59647227043E+02 -0.51003478775E+02  0.83149777991E+02  0.00000000000E+00 0. -1.
          1    1    1    2  502    0  0.47237911696E+02  0.39833806052E+02  0.33885545242E+03  0.34444327550E+03  0.00000000000E+00 0. -1.
         22    1    3    3    0    0 -0.28527554316E+02 -0.23493844256E+02  0.14155466583E+03  0.14629936942E+03  0.00000000000E+00 0.  1.
         22    1    3    3    0    0  0.87621568638E+01  0.43307265247E+02 -0.57135635691E+00  0.44188472073E+02  0.00000000000E+00 0.  1.
</event>
<event>
 7    1  0.7527776E-006  0.4688707E+02  0.7818608E-02  0.1543713E+00
          2   -1    0    0  502    0  0.00000000000E+00  0.00000000000E+00  0.61227606240E+02  0.61227606240E+02  0.00000000000E+00 0. -1.
          1   -1    0    0  501    0 -0.00000000000E+00 -0.00000000000E+00 -0.77878210087E+03  0.77878210087E+03  0.00000000000E+00 0. -1.
         25    2    1    2    0    0  0.61063273114E+02 -0.37091409436E+02 -0.17215842465E+03  0.22442931869E+03  0.12500199971E+03 0.  0.
          2    1    1    2  501    0 -0.20349334877E+02  0.17690794121E+02 -0.56554267041E+03  0.56618510372E+03  0.00000000000E+00 0. -1.
          1    1    1    2  502    0 -0.40713938237E+02  0.19400615314E+02  0.20146600431E+02  0.49395284697E+02  0.00000000000E+00 0. -1.
         22    1    3    3    0    0 -0.23137870032E+02 -0.53410605089E+02 -0.68764143622E+02  0.90091959761E+02  0.00000000000E+00 0.  1.
         22    1    3    3    0    0  0.84201143146E+02  0.16319195653E+02 -0.10339428103E+03  0.13433735893E+03  0.00000000000E+00 0.  1.
</event>
<event>
 7    1  0.7527776E-006  0.5768546E+02  0.7818608E-02  0.1522646E+00
          2   -1    0    0  502    0  0.00000000000E+00  0.00000000000E+00  0.10143506960E+04  0.10143506960E+04  0.00000000000E+00 0. -1.
          1   -1    0    0  501    0 -0.00000000000E+00 -0.00000000000E+00 -0.36709380644E+03  0.36709380644E+03  0.00000000000E+00 0. -1.
         25    2    1    2    0    0  0.30927688911E+02 -0.37576004497E+02 -0.31590000512E+03  0.34319946977E+03  0.12499833904E+03 0.  0.
          2    1    1    2  501    0 -0.17104416673E+02 -0.18464739884E+02 -0.32393645408E+02  0.41022627311E+02  0.00000000000E+00 0. -1.
          1    1    1    2  502    0 -0.13823272238E+02  0.56040744380E+02  0.99555054010E+03  0.99722240537E+03  0.00000000000E+00 0. -1.
         22    1    3    3    0    0  0.29925876582E+02  0.33191505604E+02 -0.21718104869E+03  0.22173146381E+03  0.00000000000E+00 0.  1.
         22    1    3    3    0    0  0.10018123292E+01 -0.70767510101E+02 -0.98718956431E+02  0.12146800596E+03  0.00000000000E+00 0.  1.
</event>
<event>
 7    1  0.7527776E-006  0.1014312E+03  0.7818608E-02  0.1328311E+00
          2   -1    0    0  502    0  0.00000000000E+00  0.00000000000E+00  0.55171794197E+03  0.55171794197E+03  0.00000000000E+00 0. -1.
          1   -1    0    0  501    0 -0.00000000000E+00 -0.00000000000E+00 -0.10274351675E+03  0.10274351675E+03  0.00000000000E+00 0. -1.
         25    2    1    2    0    0  0.49160853665E+02 -0.84049631749E+02  0.39704899386E+03  0.42749825867E+03  0.12500291002E+03 0.  0.
          2    1    1    2  501    0  0.57285049159E+02  0.27421306731E+02 -0.40253556196E+02  0.75192111996E+02  0.00000000000E+00 0. -1.
          1    1    1    2  502    0 -0.10644590282E+03  0.56628325017E+02  0.92178987549E+02  0.15177108805E+03  0.00000000000E+00 0. -1.
         22    1    3    3    0    0 -0.27476270327E+02  0.13449154583E+02  0.12212979335E+03  0.12590278636E+03  0.00000000000E+00 0. -1.
         22    1    3    3    0    0  0.76637123992E+02 -0.97498786331E+02  0.27491920051E+03  0.30159547231E+03  0.00000000000E+00 0. -1.
</event>
<event>
 7    1  0.7527776E-006  0.1337909E+03  0.7818608E-02  0.1368788E+00
          2   -1    0    0  502    0  0.00000000000E+00  0.00000000000E+00  0.42407372646E+03  0.42407372646E+03  0.00000000000E+00 0. -1.
          1   -1    0    0  501    0 -0.00000000000E+00 -0.00000000000E+00 -0.17076355247E+03  0.17076355247E+03  0.00000000000E+00 0. -1.
         25    2    1    2    0    0 -0.10757100152E+03  0.38603605971E+02  0.15594506884E+03  0.23023057685E+03  0.12500198101E+03 0.  0.
          2    1    1    2  501    0 -0.25108776024E+02  0.23014105324E+02 -0.10755951505E+03  0.11282353014E+03  0.00000000000E+00 0. -1.
          1    1    1    2  502    0  0.13267977754E+03 -0.61617711295E+02  0.20492462019E+03  0.25178317195E+03  0.00000000000E+00 0. -1.
         22    1    3    3    0    0 -0.12860164900E+03  0.10687571923E+02  0.95988265512E+02  0.16083020685E+03  0.00000000000E+00 0. -1.
         22    1    3    3    0    0  0.21030647479E+02  0.27916034048E+02  0.59956803328E+02  0.69400369996E+02  0.00000000000E+00 0. -1.
</event>
<event>
 7    1  0.7527776E-006  0.5330139E+02  0.7818608E-02  0.1460254E+00
          2   -1    0    0  502    0  0.00000000000E+00  0.00000000000E+00  0.41540069634E+03  0.41540069634E+03  0.00000000000E+00 0. -1.
          1   -1    0    0  501    0 -0.00000000000E+00 -0.00000000000E+00 -0.57944941599E+03  0.57944941599E+03  0.00000000000E+00 0. -1.
         25    2    1    2    0    0 -0.78655055774E+02  0.15475761833E+02 -0.10017837848E+03  0.17910559368E+03  0.12496795257E+03 0.  0.
          2    1    1    2  501    0  0.40624696181E+02 -0.33396966088E+02 -0.43705074699E+03  0.44020345152E+03  0.00000000000E+00 0. -1.
          1    1    1    2  502    0  0.38030359594E+02  0.17921204255E+02  0.37318040582E+03  0.37554106713E+03  0.00000000000E+00 0. -1.
         22    1    3    3    0    0 -0.51465450858E+01 -0.14992270303E+02  0.25694382284E+02  0.30190335807E+02  0.00000000000E+00 0.  1.
         22    1    3    3    0    0 -0.73508510689E+02  0.30468032136E+02 -0.12587276076E+03  0.14891525788E+03  0.00000000000E+00 0.  1.
</event>
<event>
 7    1  0.7527776E-006  0.3887755E+02  0.7818608E-02  0.1594742E+00
          2   -1    0    0  502    0  0.00000000000E+00  0.00000000000E+00  0.12132285392E+04  0.12132285392E+04  0.00000000000E+00 0. -1.
          1   -1    0    0  501    0 -0.00000000000E+00 -0.00000000000E+00 -0.27054832470E+03  0.27054832470E+03  0.00000000000E+00 0. -1.
         25    2    1    2    0    0  0.19912620801E+02 -0.58556159129E+02  0.37174571364E+03  0.39704442976E+03  0.12499626938E+03 0.  0.
          2    1    1    2  501    0 -0.85755845099E+01  0.37831830920E+02 -0.25627069943E+03  0.25919000649E+03  0.00000000000E+00 0. -1.
          1    1    1    2  502    0 -0.11337036291E+02  0.20724328209E+02  0.82720520027E+03  0.82754242763E+03  0.00000000000E+00 0. -1.
         22    1    3    3    0    0  0.31487150740E+02  0.33650582654E+02  0.13857975238E+03  0.14604160416E+03  0.00000000000E+00 0.  1.
         22    1    3    3    0    0 -0.11574529939E+02 -0.92206741783E+02  0.23316596126E+03  0.25100282561E+03  0.00000000000E+00 0.  1.
</event>
<event>
 7    1  0.7527776E-006  0.1161087E+03  0.7818608E-02  0.1354787E+00
          2   -1    0    0  502    0  0.00000000000E+00  0.00000000000E+00  0.99795318504E+03  0.99795318504E+03  0.00000000000E+00 0. -1.
          1   -1    0    0  501    0 -0.00000000000E+00 -0.00000000000E+00 -0.12493802924E+03  0.12493802924E+03  0.00000000000E+00 0. -1.
         25    2    1    2    0    0  0.70025734066E+02 -0.95925297148E+02 -0.12423147758E+02  0.17286817288E+03  0.12499521803E+03 0.  0.
          2    1    1    2  501    0 -0.99106966815E+02  0.62727735512E+02  0.76834924054E+02  0.14021613755E+03  0.00000000000E+00 0. -1.
          1    1    1    2  502    0  0.29081232749E+02  0.33197561636E+02  0.80860337950E+03  0.80980690386E+03  0.00000000000E+00 0. -1.
         22    1    3    3    0    0  0.42870202226E+02  0.13634618456E+02  0.27982465144E+02  0.52979009191E+02  0.00000000000E+00 0.  1.
         22    1    3    3    0    0  0.27155531840E+02 -0.10955991560E+03 -0.40405612902E+02  0.11988916369E+03  0.00000000000E+00 0.  1.
</event>
<event>
 7    1  0.7527776E-006  0.2894743E+03  0.7818608E-02  0.1269243E+00
          2   -1    0    0  502    0  0.00000000000E+00  0.00000000000E+00  0.28816132533E+04  0.28816132533E+04  0.00000000000E+00 0. -1.
          1   -1    0    0  501    0 -0.00000000000E+00 -0.00000000000E+00 -0.19814956274E+03  0.19814956274E+03  0.00000000000E+00 0. -1.
         25    2    1    2    0    0 -0.23206115018E+03  0.22521754158E+03  0.40853093652E+03  0.53581517122E+03  0.12500021265E+03 0.  0.
          2    1    1    2  501    0  0.27007746528E+02 -0.27312358531E+02 -0.12314491308E+03  0.12899632909E+03  0.00000000000E+00 0. -1.
          1    1    1    2  502    0  0.20505340365E+03 -0.19790518305E+03  0.23980776671E+04  0.24149513157E+04  0.00000000000E+00 0. -1.
         22    1    3    3    0    0  0.14688048168E+02  0.60816623829E+01  0.11956776334E+02  0.19891955073E+02  0.00000000000E+00 0. -1.
         22    1    3    3    0    0 -0.24674919835E+03  0.21913587920E+03  0.39657416018E+03  0.51592321615E+03  0.00000000000E+00 0. -1.
</event>
<event>
 7    1  0.7527776E-006  0.7390778E+02  0.7818608E-02  0.1382789E+00
          2   -1    0    0  502    0  0.00000000000E+00  0.00000000000E+00  0.89335348176E+03  0.89335348176E+03  0.00000000000E+00 0. -1.
          1   -1    0    0  501    0 -0.00000000000E+00 -0.00000000000E+00 -0.97564590992E+02  0.97564590992E+02  0.00000000000E+00 0. -1.
         25    2    1    2    0    0 -0.68671874930E+02 -0.13336994165E+01 -0.67206981353E+01  0.14278937444E+03  0.12500412997E+03 0.  0.
          2    1    1    2  501    0  0.73526386601E+02 -0.53415993164E+02  0.73048213364E+02  0.11659948254E+03  0.00000000000E+00 0. -1.
          1    1    1    2  502    0 -0.48545116708E+01  0.54749692580E+02  0.72946137554E+03  0.73152921577E+03  0.00000000000E+00 0. -1.
         22    1    3    3    0    0 -0.82700675044E+02 -0.29960691944E+02 -0.40066882144E+02  0.96656090129E+02  0.00000000000E+00 0.  1.
         22    1    3    3    0    0  0.14028800113E+02  0.28626992527E+02  0.33346184008E+02  0.46133284315E+02  0.00000000000E+00 0.  1.
</event>
<event>
 7    1  0.7527776E-006  0.6475644E+02  0.7818608E-02  0.1383940E+00
          2   -1    0    0  502    0  0.00000000000E+00  0.00000000000E+00  0.20243298177E+04  0.20243298177E+04  0.00000000000E+00 0. -1.
          1   -1    0    0  501    0 -0.00000000000E+00 -0.00000000000E+00 -0.66982284769E+03  0.66982284769E+03  0.00000000000E+00 0. -1.
         25    2    1    2    0    0 -0.59273815118E+02 -0.27365477955E+02  0.97223296560E+03  0.98240737590E+03  0.12500023313E+03 0.  0.
          2    1    1    2  501    0 -0.14879547407E+01  0.62131427477E+02 -0.66210863557E+03  0.66501907761E+03  0.00000000000E+00 0. -1.
          1    1    1    2  502    0  0.60761769859E+02 -0.34765949521E+02  0.10443826399E+04  0.10467262118E+04  0.00000000000E+00 0. -1.
         22    1    3    3    0    0 -0.17623802073E+02  0.42712866868E+02  0.17428531530E+03  0.18030629086E+03  0.00000000000E+00 0.  1.
         22    1    3    3    0    0 -0.41650013045E+02 -0.70078344824E+02  0.79794765030E+03  0.80210108504E+03  0.00000000000E+00 0.  1.
</event>
<event>
 7    1  0.7527776E-006  0.1234232E+03  0.7818608E-02  0.1386944E+00
          2   -1    0    0  502    0  0.00000000000E+00  0.00000000000E+00  0.10376121757E+04  0.10376121757E+04  0.00000000000E+00 0. -1.
          1   -1    0    0  501    0 -0.00000000000E+00 -0.00000000000E+00 -0.13796226735E+03  0.13796226735E+03  0.00000000000E+00 0. -1.
         25    2    1    2    0    0 -0.91668352173E+02 -0.83509123721E+02  0.29850411072E+03  0.34656586606E+03  0.12500533936E+03 0.  0.
          2    1    1    2  501    0  0.10969475558E+03  0.57281706440E+02 -0.79845954502E+02  0.14727358808E+03  0.00000000000E+00 0. -1.
          1    1    1    2  502    0 -0.18026403411E+02  0.26227417281E+02  0.68099175213E+03  0.68173498891E+03  0.00000000000E+00 0. -1.
         22    1    3    3    0    0 -0.31861204255E+02  0.22686856761E+02  0.23166125869E+02  0.45458763666E+02  0.00000000000E+00 0.  1.
         22    1    3    3    0    0 -0.59807147917E+02 -0.10619598048E+03  0.27533798485E+03  0.30110710240E+03  0.00000000000E+00 0.  1.
</event>
<event>
 7    1  0.7527776E-006  0.1205012E+03  0.7818608E-02  0.1395483E+00
          2   -1    0    0  502    0  0.00000000000E+00  0.00000000000E+00  0.47708949620E+03  0.47708949620E+03  0.00000000000E+00 0. -1.
          1   -1    0    0  501    0 -0.00000000000E+00 -0.00000000000E+00 -0.25415330258E+04  0.25415330258E+04  0.00000000000E+00 0. -1.
         25    2    1    2    0    0 -0.26347923782E+02  0.89147008379E+02 -0.30274202381E+03  0.34046973427E+03  0.12500201912E+03 0.  0.
          2    1    1    2  501    0 -0.20224066921E+02  0.22748807119E+02 -0.22118061900E+04  0.22120156291E+04  0.00000000000E+00 0. -1.
          1    1    1    2  502    0  0.46571990703E+02 -0.11189581550E+03  0.45010468426E+03  0.46613715861E+03  0.00000000000E+00 0. -1.
         22    1    3    3    0    0  0.24128312707E+02  0.10084488286E+03 -0.21119423942E+03  0.23527616249E+03  0.00000000000E+00 0.  1.
         22    1    3    3    0    0 -0.50476236490E+02 -0.11697874477E+02 -0.91547784387E+02  0.10519357178E+03  0.00000000000E+00 0.  1.
</event>
<event>
 7    1  0.7527776E-006  0.9419585E+02  0.7818608E-02  0.1474185E+00
          2   -1    0    0  502    0  0.00000000000E+00  0.00000000000E+00  0.19085717511E+04  0.19085717511E+04  0.00000000000E+00 0. -1.
          1   -1    0    0  501    0 -0.00000000000E+00 -0.00000000000E+00 -0.12145902457E+03  0.12145902457E+03  0.00000000000E+00 0. -1.
         25    2    1    2    0    0  0.99528471291E+02  0.36296585200E+02  0.16141916722E+03  0.23000650876E+03  0.12499395118E+03 0.  0.
          2    1    1    2  501    0 -0.70821330970E+01 -0.20323088637E+02 -0.84531371250E+02  0.87228076136E+02  0.00000000000E+00 0. -1.
          1    1    1    2  502    0 -0.92446338194E+02 -0.15973496563E+02  0.17102249306E+04  0.17127961908E+04  0.00000000000E+00 0. -1.
         22    1    3    3    0    0 -0.12595481383E+02 -0.75921420915E+01  0.87482918866E+02  0.88710472134E+02  0.00000000000E+00 0.  1.
         22    1    3    3    0    0  0.11212395267E+03  0.43888727291E+02  0.73936248356E+02  0.14129603663E+03  0.00000000000E+00 0.  1.
</event>
<event>
 7    1  0.7527776E-006  0.9410194E+02  0.7818608E-02  0.1346899E+00
          2   -1    0    0  502    0  0.00000000000E+00  0.00000000000E+00  0.13274736092E+04  0.13274736092E+04  0.00000000000E+00 0. -1.
          1   -1    0    0  501    0 -0.00000000000E+00 -0.00000000000E+00 -0.72418111071E+02  0.72418111071E+02  0.00000000000E+00 0. -1.
         25    2    1    2    0    0 -0.66823202864E+02  0.93074641143E+02  0.50749206149E+03  0.53507093902E+03  0.12499795218E+03 0.  0.
          2    1    1    2  501    0  0.85830770809E+01 -0.93274552855E+02 -0.19393922902E+02  0.95655296079E+02  0.00000000000E+00 0. -1.
          1    1    1    2  502    0  0.58240125783E+02  0.19991171206E+00  0.76695735956E+03  0.76916548519E+03  0.00000000000E+00 0. -1.
         22    1    3    3    0    0 -0.68197311308E+02  0.11625643562E+03  0.33618736589E+03  0.36219936096E+03  0.00000000000E+00 0. -1.
         22    1    3    3    0    0  0.13741084439E+01 -0.23181794480E+02  0.17130469560E+03  0.17287157807E+03  0.00000000000E+00 0. -1.
</event>
<event>
 7    1  0.7527776E-006  0.8682187E+02  0.7818608E-02  0.1359382E+00
          2   -1    0    0  502    0  0.00000000000E+00  0.00000000000E+00  0.39816442207E+03  0.39816442207E+03  0.00000000000E+00 0. -1.
          1   -1    0    0  501    0 -0.00000000000E+00 -0.00000000000E+00 -0.60051364776E+03  0.60051364776E+03  0.00000000000E+00 0. -1.
         25    2    1    2    0    0 -0.10714692272E+03 -0.92983632635E+02 -0.22174450835E+03  0.29141435235E+03  0.12500111515E+03 0.  0.
          2    1    1    2  501    0  0.46935307870E+02  0.31946565695E+02 -0.33646451533E+03  0.34122115447E+03  0.00000000000E+00 0. -1.
          1    1    1    2  502    0  0.60211614851E+02  0.61037066941E+02  0.35585979799E+03  0.36604256300E+03  0.00000000000E+00 0. -1.
         22    1    3    3    0    0 -0.92761034988E+02 -0.12253819287E+03 -0.16252470705E+03  0.22368392594E+03  0.00000000000E+00 0. -1.
         22    1    3    3    0    0 -0.14385887733E+02  0.29554560230E+02 -0.59219801291E+02  0.67730426406E+02  0.00000000000E+00 0. -1.
</event>
<event>
 7    1  0.7527776E-006  0.7983612E+02  0.7818608E-02  0.1365165E+00
          2   -1    0    0  502    0  0.00000000000E+00  0.00000000000E+00  0.86111496931E+03  0.86111496931E+03  0.00000000000E+00 0. -1.
          1   -1    0    0  501    0 -0.00000000000E+00 -0.00000000000E+00 -0.26156636957E+04  0.26156636957E+04  0.00000000000E+00 0. -1.
         25    2    1    2    0    0 -0.72879063892E+02 -0.10164398600E+03  0.11794551986E+03  0.21252163852E+03  0.12494576159E+03 0.  0.
          2    1    1    2  501    0  0.67033519855E+02  0.43110538877E+02 -0.25665127917E+04  0.25677499725E+04  0.00000000000E+00 0. -1.
          1    1    1    2  502    0  0.58455440362E+01  0.58533447119E+02  0.69401854545E+03  0.69650705399E+03  0.00000000000E+00 0. -1.
         22    1    3    3    0    0  0.13306963880E+02 -0.44719021454E+02  0.96274559657E+02  0.10698437739E+03  0.00000000000E+00 0.  1.
         22    1    3    3    0    0 -0.86186027772E+02 -0.56924964542E+02  0.21670960204E+02  0.10553726113E+03  0.00000000000E+00 0.  1.
</event>
<event>
 7    1  0.7527776E-006  0.2940449E+02  0.7818608E-02  0.1635864E+00
          2   -1    0    0  502    0  0.00000000000E+00  0.00000000000E+00  0.69647597533E+03  0.69647597533E+03  0.00000000000E+00 0. -1.
          1   -1    0    0  501    0 -0.00000000000E+00 -0.00000000000E+00 -0.12951005845E+03  0.12951005845E+03  0.00000000000E+00 0. -1.
         25    2    1    2    0    0 -0.47207608443E+02 -0.21054458121E+01  0.99667534803E+02  0.16671013513E+03  0.12500264183E+03 0.  0.
          2    1    1    2  501    0  0.20336239878E+02  0.13670525942E+02 -0.94037788344E+02  0.97177937664E+02  0.00000000000E+00 0. -1.
          1    1    1    2  502    0  0.26871368565E+02 -0.11565080130E+02  0.56133617042E+03  0.56209796099E+03  0.00000000000E+00 0. -1.
         22    1    3    3    0    0 -0.71610136969E+02  0.10760204288E+02  0.10252370389E+02  0.73136207255E+02  0.00000000000E+00 0. -1.
         22    1    3    3    0    0  0.24402528526E+02 -0.12865650100E+02  0.89415164414E+02  0.93573927876E+02  0.00000000000E+00 0. -1.
</event>
<event>
 7    1  0.7527776E-006  0.6962523E+02  0.7818608E-02  0.1473459E+00
          2   -1    0    0  502    0  0.00000000000E+00  0.00000000000E+00  0.58583899731E+02  0.58583899731E+02  0.00000000000E+00 0. -1.
          1   -1    0    0  501    0 -0.00000000000E+00 -0.00000000000E+00 -0.74292974618E+03  0.74292974618E+03  0.00000000000E+00 0. -1.
         25    2    1    2    0    0 -0.19853585020E+02 -0.65267100330E+02 -0.17019787036E+03  0.22191585456E+03  0.12500148882E+03 0.  0.
          2    1    1    2  501    0  0.46332401577E+02  0.52798196852E+02 -0.53755257265E+03  0.54212278073E+03  0.00000000000E+00 0. -1.
          1    1    1    2  502    0 -0.26478816557E+02  0.12468903479E+02  0.23404596562E+02  0.37475010613E+02  0.00000000000E+00 0. -1.
         22    1    3    3    0    0  0.31368308809E+02 -0.27430449989E+02 -0.14912659592E+03  0.15483908419E+03  0.00000000000E+00 0. -1.
         22    1    3    3    0    0 -0.51221893830E+02 -0.37836650341E+02 -0.21071274443E+02  0.67076770370E+02  0.00000000000E+00 0. -1.
</event>
<event>
 7    1  0.7527776E-006  0.5166287E+02  0.7818608E-02  0.1527845E+00
          2   -1    0    0  502    0  0.00000000000E+00  0.00000000000E+00  0.21781648300E+04  0.21781648300E+04  0.00000000000E+00 0. -1.
          1   -1    0    0  501    0 -0.00000000000E+00 -0.00000000000E+00 -0.13221174584E+03  0.13221174584E+03  0.00000000000E+00 0. -1.
         25    2    1    2    0    0 -0.25638050793E+02  0.91585310756E+01  0.48594520200E+03  0.50250164029E+03  0.12499588318E+03 0.  0.
          2    1    1    2  501    0 -0.26956662205E+02 -0.32360121591E+01 -0.12202531224E+03  0.12500924062E+03  0.00000000000E+00 0. -1.
          1    1    1    2  502    0  0.52594712998E+02 -0.59225189165E+01  0.16820331944E+04  0.16828656950E+04  0.00000000000E+00 0. -1.
         22    1    3    3    0    0 -0.73207264190E+02 -0.99471257669E+01  0.33630384333E+03  0.34432328396E+03  0.00000000000E+00 0.  1.
         22    1    3    3    0    0  0.47569213397E+02  0.19105656842E+02  0.14964135867E+03  0.15817835633E+03  0.00000000000E+00 0.  1.
</event>
<event>
 7    1  0.7527776E-006  0.3553610E+02  0.7818608E-02  0.1575019E+00
          2   -1    0    0  502    0  0.00000000000E+00  0.00000000000E+00  0.90669644401E+02  0.90669644401E+02  0.00000000000E+00 0. -1.
          1   -1    0    0  501    0 -0.00000000000E+00 -0.00000000000E+00 -0.95058428281E+03  0.95058428281E+03  0.00000000000E+00 0. -1.
         25    2    1    2    0    0 -0.24025857465E+02 -0.24680118858E+02 -0.22422124622E+03  0.25900956822E+03  0.12499775629E+03 0.  0.
          2    1    1    2  501    0  0.35812386101E+02 -0.20008002296E+01 -0.70559245491E+03  0.70650353335E+03  0.00000000000E+00 0. -1.
          1    1    1    2  502    0 -0.11786528637E+02  0.26680919087E+02  0.69899062723E+02  0.75740825651E+02  0.00000000000E+00 0. -1.
         22    1    3    3    0    0 -0.53576808313E+02 -0.19481814943E+02 -0.33876890733E+02  0.66314849229E+02  0.00000000000E+00 0.  1.
         22    1    3    3    0    0  0.29550950849E+02 -0.51983039142E+01 -0.19034435549E+03  0.19269471899E+03  0.00000000000E+00 0.  1.
</event>
<event>
 7    1  0.7527776E-006  0.9008733E+02  0.7818608E-02  0.1341459E+00
          2   -1    0    0  502    0  0.00000000000E+00  0.00000000000E+00  0.34489633567E+03  0.34489633567E+03  0.00000000000E+00 0. -1.
          1   -1    0    0  501    0 -0.00000000000E+00 -0.00000000000E+00 -0.13557646184E+04  0.13557646184E+04  0.00000000000E+00 0. -1.
         25    2    1    2    0    0  0.82643066833E+02 -0.11428368338E+03 -0.39899743089E+02  0.19263337238E+03  0.12499995950E+03 0.  0.
          2    1    1    2  501    0 -0.55573149491E+02  0.31240944504E+02 -0.12315492288E+04  0.12331982301E+04  0.00000000000E+00 0. -1.
          1    1    1    2  502    0 -0.27069917341E+02  0.83042738875E+02  0.26058068923E+03  0.27482935161E+03  0.00000000000E+00 0. -1.
         22    1    3    3    0    0  0.80960307559E+02 -0.72155882202E+01 -0.14217102787E+02  0.82515223596E+02  0.00000000000E+00 0. -1.
         22    1    3    3    0    0  0.16827592740E+01 -0.10706809516E+03 -0.25682640301E+02  0.11011814879E+03  0.00000000000E+00 0. -1.
</event>
<event>
 7    1  0.7527776E-006  0.6854366E+02  0.7818608E-02  0.1463261E+00
          2   -1    0    0  502    0  0.00000000000E+00  0.00000000000E+00  0.32004538193E+04  0.32004538193E+04  0.00000000000E+00 0. -1.
          1   -1    0    0  501    0 -0.00000000000E+00 -0.00000000000E+00 -0.18265984608E+03  0.18265984608E+03  0.00000000000E+00 0. -1.
         25    2    1    2    0    0 -0.23784461343E+02 -0.39226107566E+02  0.92315821040E+03  0.93271103261E+03  0.12499760324E+03 0.  0.
          2    1    1    2  501    0  0.89430349220E+01 -0.30712247553E+02 -0.17587813389E+03  0.17876335756E+03  0.00000000000E+00 0. -1.
          1    1    1    2  502    0  0.14841426421E+02  0.69938355119E+02  0.22705138967E+04  0.22716392752E+04  0.00000000000E+00 0. -1.
         22    1    3    3    0    0 -0.34215784356E+02  0.27634956285E+02  0.64275254334E+03  0.64425557248E+03  0.00000000000E+00 0. -1.
         22    1    3    3    0    0  0.10431323013E+02 -0.66861063851E+02  0.28040566706E+03  0.28845546013E+03  0.00000000000E+00 0. -1.
</event>
<event>
 7    1  0.7527776E-006  0.1154082E+03  0.7818608E-02  0.1290812E+00
          2   -1    0    0  502    0  0.00000000000E+00  0.00000000000E+00  0.24198691797E+04  0.24198691797E+04  0.00000000000E+00 0. -1.
          1   -1    0    0  501    0 -0.00000000000E+00 -0.00000000000E+00 -0.15563282949E+03  0.15563282949E+03  0.00000000000E+00 0. -1.
         25    2    1    2    0    0 -0.48651986185E+02 -0.56904874716E+02  0.15173249858E+03  0.21036356030E+03  0.12499958340E+03 0.  0.
          2    1    1    2  501    0  0.12150588455E+03  0.27759494742E+02 -0.94704960563E+02  0.15653529661E+03  0.00000000000E+00 0. -1.
          1    1    1    2  502    0 -0.72853898368E+02  0.29145379974E+02  0.22072088122E+04  0.22086031523E+04  0.00000000000E+00 0. -1.
         22    1    3    3    0    0 -0.90825569413E+02 -0.33095715108E+02  0.91822622757E+02  0.13332668325E+03  0.00000000000E+00 0. -1.
         22    1    3    3    0    0  0.42173583228E+02 -0.23809159608E+02  0.59909875827E+02  0.77036877047E+02  0.00000000000E+00 0. -1.
</event>
<event>
 7    1  0.7527776E-006  0.6367974E+02  0.7818608E-02  0.1502266E+00
          2   -1    0    0  502    0  0.00000000000E+00  0.00000000000E+00  0.12923969525E+04  0.12923969525E+04  0.00000000000E+00 0. -1.
          1   -1    0    0  501    0 -0.00000000000E+00 -0.00000000000E+00 -0.14973664894E+02  0.14973664894E+02  0.00000000000E+00 0. -1.
         25    2    1    2    0    0 -0.20215641111E+02  0.79511756738E+02  0.66618410811E+03  0.68275711578E+03  0.12500088656E+03 0.  0.
          2    1    1    2  501    0  0.26228058982E+02 -0.54046162009E+02  0.13627046787E+03  0.14892460884E+03  0.00000000000E+00 0. -1.
          1    1    1    2  502    0 -0.60124178706E+01 -0.25465594730E+02  0.47496871160E+03  0.47568889275E+03  0.00000000000E+00 0. -1.
         22    1    3    3    0    0  0.22903716434E+02  0.94732787206E+02  0.35125753235E+03  0.36452809937E+03  0.00000000000E+00 0. -1.
         22    1    3    3    0    0 -0.43119357545E+02 -0.15221030467E+02  0.31492657576E+03  0.31822901641E+03  0.00000000000E+00 0. -1.
</event>
<event>
 7    1  0.7527776E-006  0.7003285E+02  0.7818608E-02  0.1396709E+00
          2   -1    0    0  502    0  0.00000000000E+00  0.00000000000E+00  0.28330094815E+03  0.28330094815E+03  0.00000000000E+00 0. -1.
          1   -1    0    0  501    0 -0.00000000000E+00 -0.00000000000E+00 -0.21351990994E+04  0.21351990994E+04  0.00000000000E+00 0. -1.
         25    2    1    2    0    0  0.55590007555E+02  0.10732875283E+03 -0.52730720151E+03  0.55523877897E+03  0.12501002674E+03 0.  0.
          2    1    1    2  501    0 -0.29025338271E+02 -0.42983239689E+02 -0.15889977791E+04  0.15898440084E+04  0.00000000000E+00 0. -1.
          1    1    1    2  502    0 -0.26564669285E+02 -0.64345513139E+02  0.26440682938E+03  0.27341726013E+03  0.00000000000E+00 0. -1.
         22    1    3    3    0    0  0.67536245398E+02  0.45193925455E+02 -0.43984806580E+03  0.44729180222E+03  0.00000000000E+00 0. -1.
         22    1    3    3    0    0 -0.11946237843E+02  0.62134827374E+02 -0.87459135703E+02  0.10794697675E+03  0.00000000000E+00 0. -1.
</event>
<event>
 7    1  0.7527776E-006  0.1023217E+03  0.7818608E-02  0.1408832E+00
          2   -1    0    0  502    0  0.00000000000E+00  0.00000000000E+00  0.24542068939E+03  0.24542068939E+03  0.00000000000E+00 0. -1.
          1   -1    0    0  501    0 -0.00000000000E+00 -0.00000000000E+00 -0.49664991274E+03  0.49664991274E+03  0.00000000000E+00 0. -1.
         25    2    1    2    0    0  0.37318647514E+02  0.69611168757E+02 -0.10513634191E+02  0.14823474281E+03  0.12499842481E+03 0.  0.
          2    1    1    2  501    0  0.28451031451E+02  0.15211319625E+02 -0.40025403464E+03  0.40155216059E+03  0.00000000000E+00 0. -1.
          1    1    1    2  502    0 -0.65769678965E+02 -0.84822488382E+02  0.15953844548E+03  0.19228369872E+03  0.00000000000E+00 0. -1.
         22    1    3    3    0    0  0.11102004303E+02  0.99653808908E+02 -0.28863320980E+02  0.10434187763E+03  0.00000000000E+00 0.  1.
         22    1    3    3    0    0  0.26216643211E+02 -0.30042640151E+02  0.18349686789E+02  0.43892865181E+02  0.00000000000E+00 0.  1.
</event>
<event>
 7    1  0.7527776E-006  0.3678442E+02  0.7818608E-02  0.1582608E+00
          2   -1    0    0  502    0  0.00000000000E+00  0.00000000000E+00  0.28520608956E+04  0.28520608956E+04  0.00000000000E+00 0. -1.
          1   -1    0    0  501    0 -0.00000000000E+00 -0.00000000000E+00 -0.25098111594E+03  0.25098111594E+03  0.00000000000E+00 0. -1.
         25    2    1    2    0    0  0.86552128675E+01  0.76139975349E+01  0.18399612606E+03  0.22273512230E+03  0.12499389837E+03 0.  0.
          2    1    1    2  501    0  0.65311008186E+01  0.26081334827E+02 -0.23070192977E+03  0.23226336712E+03  0.00000000000E+00 0. -1.
          1    1    1    2  502    0 -0.15186313686E+02 -0.33695332362E+02  0.26477855834E+04  0.26480435221E+04  0.00000000000E+00 0. -1.
         22    1    3    3    0    0  0.36006974628E+02  0.39375819547E+02  0.26153618043E+02  0.59421958261E+02  0.00000000000E+00 0. -1.
         22    1    3    3    0    0 -0.27351761761E+02 -0.31761822012E+02  0.15784250802E+03  0.16331316404E+03  0.00000000000E+00 0. -1.
</event>
<event>
 7    1  0.7527776E-006  0.9840713E+02  0.7818608E-02  0.1432238E+00
          2   -1    0    0  502    0  0.00000000000E+00  0.00000000000E+00  0.34789371474E+04  0.34789371474E+04  0.00000000000E+00 0. -1.
          1   -1    0    0  501    0 -0.00000000000E+00 -0.00000000000E+00 -0.26155456077E+04  0.26155456077E+04  0.00000000000E+00 0. -1.
         25    2    1    2    0    0 -0.10575581272E+03 -0.69217280688E+02 -0.73263746225E+03  0.75389597817E+03  0.12500468366E+03 0.  0.
          2    1    1    2  501    0  0.23805181119E+02  0.14784859914E+02 -0.18714763117E+04  0.18716861018E+04  0.00000000000E+00 0. -1.
          1    1    1    2  502    0  0.81950631605E+02  0.54432420774E+02  0.34675053135E+04  0.34689006751E+04  0.00000000000E+00 0. -1.
         22    1    3    3    0    0 -0.95170154240E+02 -0.10406848377E+03 -0.59978990418E+03  0.61614571063E+03  0.00000000000E+00 0. -1.
         22    1    3    3    0    0 -0.10585658484E+02  0.34851203083E+02 -0.13284755807E+03  0.13775026754E+03  0.00000000000E+00 0. -1.
</event>
<event>
 7    1  0.7527776E-006  0.9775046E+02  0.7818608E-02  0.1288971E+00
          2   -1    0    0  502    0  0.00000000000E+00  0.00000000000E+00  0.67684999022E+03  0.67684999022E+03  0.00000000000E+00 0. -1.
          1   -1    0    0  501    0 -0.00000000000E+00 -0.00000000000E+00 -0.82054068315E+03  0.82054068315E+03  0.00000000000E+00 0. -1.
         25    2    1    2    0    0  0.27537695401E+02 -0.16693334437E+03 -0.32810325444E+03  0.38974494984E+03  0.12499725685E+03 0.  0.
          2    1    1    2  501    0  0.30711736142E+02  0.89108783436E+02 -0.45308225936E+03  0.46278193544E+03  0.00000000000E+00 0. -1.
          1    1    1    2  502    0 -0.58249431542E+02  0.77824560930E+02  0.63749482087E+03  0.64486378810E+03  0.00000000000E+00 0. -1.
         22    1    3    3    0    0  0.71908224070E+02 -0.14268046891E+03 -0.24738837979E+03  0.29449875951E+03  0.00000000000E+00 0.  1.
         22    1    3    3    0    0 -0.44370528670E+02 -0.24252875461E+02 -0.80714874655E+02  0.95246190334E+02  0.00000000000E+00 0.  1.
</event>
<event>
 7    1  0.7527776E-006  0.1263510E+03  0.7818608E-02  0.1350619E+00
          2   -1    0    0  502    0  0.00000000000E+00  0.00000000000E+00  0.36437205350E+02  0.36437205350E+02  0.00000000000E+00 0. -1.
          1   -1    0    0  501    0 -0.00000000000E+00 -0.00000000000E+00 -0.18333883952E+04  0.18333883952E+04  0.00000000000E+00 0. -1.
         25    2    1    2    0    0  0.10473505056E+03 -0.26237227239E+02 -0.32308371374E+03  0.36285867410E+03  0.12500203350E+03 0.  0.
          2    1    1    2  501    0  0.27630295717E+02 -0.31655622682E+02 -0.11673752821E+04  0.11681312259E+04  0.00000000000E+00 0. -1.
          1    1    1    2  502    0 -0.13236534628E+03  0.57892849921E+02 -0.30649219399E+03  0.33883570052E+03  0.00000000000E+00 0. -1.
         22    1    3    3    0    0  0.11492477141E+03  0.46233704854E+01 -0.30432312951E+03  0.32533313049E+03  0.00000000000E+00 0. -1.
         22    1    3    3    0    0 -0.10189720847E+02 -0.30860597724E+02 -0.18760584226E+02  0.37525543612E+02  0.00000000000E+00 0. -1.
</event>
<event>
 7    1  0.7527776E-006  0.6081216E+02  0.7818608E-02  0.1400917E+00
          2   -1    0    0  502    0  0.00000000000E+00  0.00000000000E+00  0.99726900413E+02  0.99726900413E+02  0.00000000000E+00 0. -1.
          1   -1    0    0  501    0 -0.00000000000E+00 -0.00000000000E+00 -0.13147837357E+04  0.13147837357E+04  0.00000000000E+00 0. -1.
         25    2    1    2    0    0  0.54631949551E+02  0.79347370242E+02 -0.53328676852E+03  0.55614784080E+03  0.12499995308E+03 0.  0.
          2    1    1    2  501    0  0.18202596530E+01 -0.57740040218E+02 -0.75849268891E+03  0.76068941410E+03  0.00000000000E+00 0. -1.
          1    1    1    2  502    0 -0.56452209204E+02 -0.21607330024E+02  0.76722622187E+02  0.97673381174E+02  0.00000000000E+00 0. -1.
         22    1    3    3    0    0  0.53629030490E+01  0.93826931306E+02 -0.43733069940E+03  0.44731464810E+03  0.00000000000E+00 0.  1.
         22    1    3    3    0    0  0.49269046502E+02 -0.14479561064E+02 -0.95956069121E+02  0.10883319270E+03  0.00000000000E+00 0.  1.
</event>
<event>
 7    1  0.7527776E-006  0.5852191E+02  0.7818608E-02  0.1542135E+00
          2   -1    0    0  502    0  0.00000000000E+00  0.00000000000E+00  0.61127130346E+02  0.61127130346E+02  0.00000000000E+00 0. -1.
          1   -1    0    0  501    0 -0.00000000000E+00 -0.00000000000E+00 -0.18765750622E+04  0.18765750622E+04  0.00000000000E+00 0. -1.
         25    2    1    2    0    0  0.48168570150E+02  0.15979914593E+02 -0.46841176194E+03  0.48745302759E+03  0.12500122624E+03 0.  0.
          2    1    1    2  501    0 -0.45732081112E+02 -0.37669007281E+02 -0.13956780831E+04  0.13969351055E+04  0.00000000000E+00 0. -1.
          1    1    1    2  502    0 -0.24364890381E+01  0.21689092689E+02  0.48641913167E+02  0.53314059469E+02  0.00000000000E+00 0. -1.
         22    1    3    3    0    0  0.84969985873E+02  0.27773271256E+02 -0.24666447689E+03  0.26236352120E+03  0.00000000000E+00 0.  1.
         22    1    3    3    0    0 -0.36801415723E+02 -0.11793356663E+02 -0.22174728505E+03  0.22508950639E+03  0.00000000000E+00 0.  1.
</event>
<event>
 7    1  0.7527776E-006  0.1834690E+03  0.7818608E-02  0.1350387E+00
          2   -1    0    0  502    0  0.00000000000E+00  0.00000000000E+00  0.57482181044E+03  0.57482181044E+03  0.00000000000E+00 0. -1.
          1   -1    0    0  501    0 -0.00000000000E+00 -0.00000000000E+00 -0.14079408711E+04  0.14079408711E+04  0.00000000000E+00 0. -1.
         25    2    1    2    0    0  0.17955551744E+03 -0.79147612301E+02 -0.87106391167E+02  0.24842240360E+03  0.12498655468E+03 0.  0.
          2    1    1    2  501    0 -0.17543379853E+03  0.50447937278E+02 -0.12330257891E+04  0.12464648445E+04  0.00000000000E+00 0. -1.
          1    1    1    2  502    0 -0.41217189052E+01  0.28699675023E+02  0.48701311958E+03  0.48787543344E+03  0.00000000000E+00 0. -1.
         22    1    3    3    0    0  0.14343892748E+03  0.23369629477E+01 -0.56518475505E+02  0.15418990041E+03  0.00000000000E+00 0.  1.
         22    1    3    3    0    0  0.36116589955E+02 -0.81484575249E+02 -0.30587915662E+02  0.94232503193E+02  0.00000000000E+00 0.  1.
</event>
<event>
 7    1  0.7527776E-006  0.4540921E+02  0.7818608E-02  0.1540694E+00
          2   -1    0    0  502    0  0.00000000000E+00  0.00000000000E+00  0.56222374288E+03  0.56222374288E+03  0.00000000000E+00 0. -1.
          1   -1    0    0  501    0 -0.00000000000E+00 -0.00000000000E+00 -0.53701207167E+03  0.53701207167E+03  0.00000000000E+00 0. -1.
         25    2    1    2    0    0  0.87500877434E+01  0.26210770022E+02 -0.40219341403E+02  0.13418855299E+03  0.12500161531E+03 0.  0.
          2    1    1    2  501    0  0.28390072791E+02  0.37775149577E+00 -0.44834586707E+03  0.44924398209E+03  0.00000000000E+00 0. -1.
          1    1    1    2  502    0 -0.37140160535E+02 -0.26588521518E+02  0.51377687968E+03  0.51580327946E+03  0.00000000000E+00 0. -1.
         22    1    3    3    0    0 -0.12995980058E+02 -0.48330508303E+02 -0.11129684308E+02  0.51269907385E+02  0.00000000000E+00 0. -1.
         22    1    3    3    0    0  0.21746067802E+02  0.74541278325E+02 -0.29089657095E+02  0.82918645606E+02  0.00000000000E+00 0. -1.
</event>
<event>
 7    1  0.7527776E-006  0.3446395E+03  0.7818608E-02  0.1187356E+00
          2   -1    0    0  502    0  0.00000000000E+00  0.00000000000E+00  0.74980163254E+03  0.74980163254E+03  0.00000000000E+00 0. -1.
          1   -1    0    0  501    0 -0.00000000000E+00 -0.00000000000E+00 -0.53243741812E+03  0.53243741812E+03  0.00000000000E+00 0. -1.
         25    2    1    2    0    0  0.56670787419E+02  0.31842557165E+03  0.27733003556E+03  0.44400845476E+03  0.12500054579E+03 0.  0.
          2    1    1    2  501    0  0.11956915458E+02 -0.34963920968E+03 -0.37585099893E+03  0.51347299654E+03  0.00000000000E+00 0. -1.
          1    1    1    2  502    0 -0.68627702877E+02  0.31213638033E+02  0.31588517779E+03  0.32475759937E+03  0.00000000000E+00 0. -1.
         22    1    3    3    0    0  0.55062149631E+02  0.27367511140E+03  0.28458422093E+03  0.39864531318E+03  0.00000000000E+00 0. -1.
         22    1    3    3    0    0  0.16086377873E+01  0.44750460252E+02 -0.72541853706E+01  0.45363141577E+02  0.00000000000E+00 0. -1.
</event>
<event>
 7    1  0.7527776E-006  0.1353352E+03  0.7818608E-02  0.1265009E+00
          2   -1    0    0  502    0  0.00000000000E+00  0.00000000000E+00  0.61130796597E+03  0.61130796597E+03  0.00000000000E+00 0. -1.
          1   -1    0    0  501    0 -0.00000000000E+00 -0.00000000000E+00 -0.13115631494E+04  0.13115631494E+04  0.00000000000E+00 0. -1.
         25    2    1    2    0    0 -0.74560294436E+02  0.19090317458E+03 -0.89701222474E+03  0.92857942604E+03  0.12500223824E+03 0.  0.
          2    1    1    2  501    0 -0.90411568531E+01 -0.85129611765E+02 -0.38639102349E+03  0.39576105967E+03  0.00000000000E+00 0. -1.
          1    1    1    2  502    0  0.83601451289E+02 -0.10577356282E+03  0.58314806476E+03  0.59853062969E+03  0.00000000000E+00 0. -1.
         22    1    3    3    0    0 -0.89561829744E+02  0.17952544384E+03 -0.63609895605E+03  0.66698769720E+03  0.00000000000E+00 0. -1.
         22    1    3    3    0    0  0.15001535308E+02  0.11377730744E+02 -0.26091326869E+03  0.26159172884E+03  0.00000000000E+00 0. -1.
</event>
<event>
 7    1  0.7527776E-006  0.2267644E+03  0.7818608E-02  0.1188353E+00
          2   -1    0    0  502    0  0.00000000000E+00  0.00000000000E+00  0.57852761784E+03  0.57852761784E+03  0.00000000000E+00 0. -1.
          1   -1    0    0  501    0 -0.00000000000E+00 -0.00000000000E+00 -0.93919341469E+03  0.93919341469E+03  0.00000000000E+00 0. -1.
         25    2    1    2    0    0  0.18980813247E+03 -0.16619256040E+03 -0.11540136139E+03  0.30428540131E+03  0.12500014782E+03 0.  0.
          2    1    1    2  501    0 -0.10456460578E+03 -0.43686369571E+02 -0.69802659823E+03  0.70716574260E+03  0.00000000000E+00 0. -1.
          1    1    1    2  502    0 -0.85243526693E+02  0.20987892998E+03  0.45276216277E+03  0.50626988862E+03  0.00000000000E+00 0. -1.
         22    1    3    3    0    0  0.27245537307E+02  0.55632085840E+01 -0.52763149706E+02  0.59642422484E+02  0.00000000000E+00 0. -1.
         22    1    3    3    0    0  0.16256259516E+03 -0.17175576899E+03 -0.62638211682E+02  0.24464297883E+03  0.00000000000E+00 0. -1.
</event>
<event>
 7    1  0.7527776E-006  0.6418374E+02  0.7818608E-02  0.1404980E+00
          2   -1    0    0  502    0  0.00000000000E+00  0.00000000000E+00  0.37710707326E+03  0.37710707326E+03  0.00000000000E+00 0. -1.
          1   -1    0    0  501    0 -0.00000000000E+00 -0.00000000000E+00 -0.28866257355E+03  0.28866257355E+03  0.00000000000E+00 0. -1.
         25    2    1    2    0    0  0.29331284818E+02 -0.23941814716E+02  0.62105072839E+02  0.14462384521E+03  0.12500192706E+03 0.  0.
          2    1    1    2  501    0  0.30778889124E+01  0.65888957808E+02 -0.24035129712E+03  0.24923798704E+03  0.00000000000E+00 0. -1.
          1    1    1    2  502    0 -0.32409173731E+02 -0.41947143092E+02  0.26669072399E+03  0.27190781456E+03  0.00000000000E+00 0. -1.
         22    1    3    3    0    0  0.57397129222E+02 -0.57586172004E+02  0.59464988741E+02  0.10073074275E+03  0.00000000000E+00 0.  1.
         22    1    3    3    0    0 -0.28065844404E+02  0.33644357288E+02  0.26400840984E+01  0.43893102459E+02  0.00000000000E+00 0.  1.
</event>
<event>
 7    1  0.7527776E-006  0.9503158E+02  0.7818608E-02  0.1470073E+00
          2   -1    0    0  502    0  0.00000000000E+00  0.00000000000E+00  0.19020445706E+04  0.19020445706E+04  0.00000000000E+00 0. -1.
          1   -1    0    0  501    0 -0.00000000000E+00 -0.00000000000E+00 -0.28259393443E+02  0.28259393443E+02  0.00000000000E+00 0. -1.
         25    2    1    2    0    0  0.98257464200E+02  0.12684190992E+02  0.90213408831E+03  0.91612560484E+03  0.12499917030E+03 0.  0.
          2    1    1    2  501    0 -0.43555796051E+01 -0.21532038639E+02 -0.12662534918E+02  0.25356252724E+02  0.00000000000E+00 0. -1.
          1    1    1    2  502    0 -0.93901884595E+02  0.88478476471E+01  0.98431362373E+03  0.98882210645E+03  0.00000000000E+00 0. -1.
         22    1    3    3    0    0  0.21200889420E+01  0.54476798808E+02  0.28987040314E+03  0.29495265214E+03  0.00000000000E+00 0. -1.
         22    1    3    3    0    0  0.96137375258E+02 -0.41792607816E+02  0.61226368517E+03  0.62117295270E+03  0.00000000000E+00 0. -1.
</event>
<event>
 7    1  0.7527776E-006  0.8792679E+02  0.7818608E-02  0.1354610E+00
          2   -1    0    0  502    0  0.00000000000E+00  0.00000000000E+00  0.26232385248E+04  0.26232385248E+04  0.00000000000E+00 0. -1.
          1   -1    0    0  501    0 -0.00000000000E+00 -0.00000000000E+00 -0.17379770731E+03  0.17379770731E+03  0.00000000000E+00 0. -1.
         25    2    1    2    0    0 -0.33980001694E+02  0.13459820979E+03  0.54728051321E+03  0.57828361931E+03  0.12499866251E+03 0.  0.
          2    1    1    2  501    0 -0.37996690978E+01 -0.58242965804E+02 -0.15200286681E+03  0.16282368400E+03  0.00000000000E+00 0. -1.
          1    1    1    2  502    0  0.37779670792E+02 -0.76355243983E+02  0.20541631711E+04  0.20559289288E+04  0.00000000000E+00 0. -1.
         22    1    3    3    0    0 -0.41179627575E+02  0.76557195211E+02  0.12668961134E+03  0.15364577276E+03  0.00000000000E+00 0. -1.
         22    1    3    3    0    0  0.71996258804E+01  0.58041014575E+02  0.42059090187E+03  0.42463784655E+03  0.00000000000E+00 0. -1.
</event>
<event>
 7    1  0.7527776E-006  0.5148196E+02  0.7818608E-02  0.1445952E+00
          2   -1    0    0  502    0  0.00000000000E+00  0.00000000000E+00  0.78538171100E+03  0.78538171100E+03  0.00000000000E+00 0. -1.
          1   -1    0    0  501    0 -0.00000000000E+00 -0.00000000000E+00 -0.61706674850E+03  0.61706674850E+03  0.00000000000E+00 0. -1.
         25    2    1    2    0    0 -0.55226581553E+02 -0.24238577157E+02 -0.24516242555E+03  0.28171954991E+03  0.12499522378E+03 0.  0.
          2    1    1    2  501    0  0.41172412834E+02 -0.25332485767E+02 -0.35110252023E+03  0.35441484468E+03  0.00000000000E+00 0. -1.
          1    1    1    2  502    0  0.14054168719E+02  0.49571062924E+02  0.76457990828E+03  0.76631406491E+03  0.00000000000E+00 0. -1.
         22    1    3    3    0    0 -0.55108345200E+02 -0.48011800789E+02 -0.24727656852E+03  0.25785221361E+03  0.00000000000E+00 0. -1.
         22    1    3    3    0    0 -0.11823635252E+00  0.23773223632E+02  0.21141429681E+01  0.23867336302E+02  0.00000000000E+00 0. -1.
</event>
<event>
 7    1  0.7527776E-006  0.4784320E+02  0.7818608E-02  0.1515362E+00
          2   -1    0    0  502    0  0.00000000000E+00  0.00000000000E+00  0.24435832757E+04  0.24435832757E+04  0.00000000000E+00 0. -1.
          1   -1    0    0  501    0 -0.00000000000E+00 -0.00000000000E+00 -0.16477984168E+03  0.16477984168E+03  0.00000000000E+00 0. -1.
         25    2    1    2    0    0 -0.24760467144E+02  0.25336722352E+01  0.15333611847E+04  0.15386483630E+04  0.12499104762E+03 0.  0.
          2    1    1    2  501    0  0.35007531930E+02 -0.32705278963E+02 -0.15831039504E+03  0.16540055545E+03  0.00000000000E+00 0. -1.
          1    1    1    2  502    0 -0.10247064787E+02  0.30171606728E+02  0.90375264444E+03  0.90431419901E+03  0.00000000000E+00 0. -1.
         22    1    3    3    0    0 -0.23146334315E+02  0.30077768570E+02  0.14563369015E+04  0.14568313545E+04  0.00000000000E+00 0.  1.
         22    1    3    3    0    0 -0.16141328287E+01 -0.27544096335E+02  0.77024283205E+02  0.81817008446E+02  0.00000000000E+00 0.  1.
</event>
<event>
 7    1  0.7527776E-006  0.8169024E+02  0.7818608E-02  0.1392910E+00
          2   -1    0    0  502    0  0.00000000000E+00  0.00000000000E+00  0.11433576642E+03  0.11433576642E+03  0.00000000000E+00 0. -1.
          1   -1    0    0  501    0 -0.00000000000E+00 -0.00000000000E+00 -0.40528691644E+03  0.40528691644E+03  0.00000000000E+00 0. -1.
         25    2    1    2    0    0 -0.69913689942E+02  0.32679091233E+01 -0.29986069609E+03  0.33232420061E+03  0.12499733588E+03 0.  0.
          2    1    1    2  501    0  0.28514006618E+01  0.45743529693E+02 -0.62675163000E+02  0.77645199798E+02  0.00000000000E+00 0. -1.
          1    1    1    2  502    0  0.67062289280E+02 -0.49011438817E+02  0.71584709076E+02  0.10965328245E+03  0.00000000000E+00 0. -1.
         22    1    3    3    0    0 -0.55978415026E+02 -0.55348907260E+02 -0.12867857271E+03  0.15084846554E+03  0.00000000000E+00 0.  1.
         22    1    3    3    0    0 -0.13935274916E+02  0.58616816383E+02 -0.17118212339E+03  0.18147573507E+03  0.00000000000E+00 0.  1.
</event>
<event>
 7    1  0.7527776E-006  0.3949576E+02  0.7818608E-02  0.1527204E+00
          2   -1    0    0  502    0  0.00000000000E+00  0.00000000000E+00  0.14659161109E+04  0.14659161109E+04  0.00000000000E+00 0. -1.
          1   -1    0    0  501    0 -0.00000000000E+00 -0.00000000000E+00 -0.65165067474E+03  0.65165067474E+03  0.00000000000E+00 0. -1.
         25    2    1    2    0    0  0.40379446271E+02  0.12767088954E+02 -0.16905650218E+02  0.13305771499E+03  0.12500022507E+03 0.  0.
          2    1    1    2  501    0 -0.14220325566E+02 -0.37009647407E+02 -0.57576126687E+03  0.57712474223E+03  0.00000000000E+00 0. -1.
          1    1    1    2  502    0 -0.26159120704E+02  0.24242558453E+02  0.14069323533E+04  0.14073843284E+04  0.00000000000E+00 0. -1.
         22    1    3    3    0    0  0.78393963616E+02  0.36926033637E+02 -0.15239605071E+02  0.87985175196E+02  0.00000000000E+00 0. -1.
         22    1    3    3    0    0 -0.38014517345E+02 -0.24158944683E+02 -0.16660451463E+01  0.45072539796E+02  0.00000000000E+00 0. -1.
</event>
<event>
 7    1  0.7527776E-006  0.4748243E+02  0.7818608E-02  0.1515155E+00
          2   -1    0    0  502    0  0.00000000000E+00  0.00000000000E+00  0.72489144844E+03  0.72489144844E+03  0.00000000000E+00 0. -1.
          1   -1    0    0  501    0 -0.00000000000E+00 -0.00000000000E+00 -0.21432014554E+03  0.21432014554E+03  0.00000000000E+00 0. -1.
         25    2    1    2    0    0  0.42825767534E+02 -0.44822041596E+01  0.47097690504E+03  0.48918106989E+03  0.12499895016E+03 0.  0.
          2    1    1    2  501    0 -0.32347590901E+02  0.34877760022E+02 -0.20137936587E+03  0.20692141934E+03  0.00000000000E+00 0. -1.
          1    1    1    2  502    0 -0.10478176633E+02 -0.30395555862E+02  0.24097376374E+03  0.24310910475E+03  0.00000000000E+00 0. -1.
         22    1    3    3    0    0  0.66802438454E+02  0.39322463869E+02  0.34641577601E+03  0.35498269228E+03  0.00000000000E+00 0. -1.
         22    1    3    3    0    0 -0.23976670920E+02 -0.43804668028E+02  0.12456112903E+03  0.13419837761E+03  0.00000000000E+00 0. -1.
</event>
<event>
 7    1  0.7527776E-006  0.3646070E+02  0.7818608E-02  0.1557679E+00
          2   -1    0    0  502    0  0.00000000000E+00  0.00000000000E+00  0.78572279603E+03  0.78572279603E+03  0.00000000000E+00 0. -1.
          1   -1    0    0  501    0 -0.00000000000E+00 -0.00000000000E+00 -0.57453959020E+03  0.57453959020E+03  0.00000000000E+00 0. -1.
         25    2    1    2    0    0  0.20875889696E+02 -0.28739568141E+02  0.71212845828E+03  0.72388854533E+03  0.12500367762E+03 0.  0.
          2    1    1    2  501    0 -0.36455262598E+02  0.11294098343E+01 -0.56432772425E+03  0.56550512120E+03  0.00000000000E+00 0. -1.
          1    1    1    2  502    0  0.15579372902E+02  0.27610158307E+02  0.63382471799E+02  0.70868719708E+02  0.00000000000E+00 0. -1.
         22    1    3    3    0    0  0.33124520751E+02 -0.55211007925E+02  0.66734622525E+03  0.67044498181E+03  0.00000000000E+00 0. -1.
         22    1    3    3    0    0 -0.12248631054E+02  0.26471439784E+02  0.44782233028E+02  0.53443563522E+02  0.00000000000E+00 0. -1.
</event>
<event>
 7    1  0.7527776E-006  0.1060836E+03  0.7818608E-02  0.1268634E+00
          2   -1    0    0  502    0  0.00000000000E+00  0.00000000000E+00  0.85611596964E+03  0.85611596964E+03  0.00000000000E+00 0. -1.
          1   -1    0    0  501    0 -0.00000000000E+00 -0.00000000000E+00 -0.79064682274E+03  0.79064682274E+03  0.00000000000E+00 0. -1.
         25    2    1    2    0    0  0.11302464686E+03  0.73659451327E+02  0.20724276495E+03  0.27708322290E+03  0.12500105288E+03 0.  0.
          2    1    1    2  501    0 -0.10647428030E+02 -0.10554788930E+03 -0.74726974190E+03  0.75476207630E+03  0.00000000000E+00 0. -1.
          1    1    1    2  502    0 -0.10237721883E+03  0.31888437973E+02  0.60549612385E+03  0.61491749317E+03  0.00000000000E+00 0. -1.
         22    1    3    3    0    0  0.34781094174E+02 -0.12345972024E+02  0.13555264859E+03  0.14048725237E+03  0.00000000000E+00 0.  1.
         22    1    3    3    0    0  0.78243552687E+02  0.86005423351E+02  0.71690116359E+02  0.13659597054E+03  0.00000000000E+00 0.  1.
</event>
<event>
 7    1  0.7527776E-006  0.8703064E+02  0.7818608E-02  0.1431874E+00
          2   -1    0    0  502    0  0.00000000000E+00  0.00000000000E+00  0.77228949660E+03  0.77228949660E+03  0.00000000000E+00 0. -1.
          1   -1    0    0  501    0 -0.00000000000E+00 -0.00000000000E+00 -0.11251145640E+04  0.11251145640E+04  0.00000000000E+00 0. -1.
         25    2    1    2    0    0 -0.17782802587E+02  0.82447142534E+02  0.18199367565E+03  0.23635039856E+03  0.12500421410E+03 0.  0.
          2    1    1    2  501    0 -0.30510587799E+02 -0.88685193507E+01 -0.10942652767E+04  0.10947264692E+04  0.00000000000E+00 0. -1.
          1    1    1    2  502    0  0.48293390386E+02 -0.73578623184E+02  0.55944653364E+03  0.56632719284E+03  0.00000000000E+00 0. -1.
         22    1    3    3    0    0 -0.23209398923E+02  0.35811705471E+02  0.18446336842E+03  0.18933538691E+03  0.00000000000E+00 0.  1.
         22    1    3    3    0    0  0.54265963361E+01  0.46635437063E+02 -0.24696927722E+01  0.47015011648E+02  0.00000000000E+00 0.  1.
</event>
<event>
 7    1  0.7527776E-006  0.3224902E+02  0.7818608E-02  0.1636485E+00
          2   -1    0    0  502    0  0.00000000000E+00  0.00000000000E+00  0.25861994525E+03  0.25861994525E+03  0.00000000000E+00 0. -1.
          1   -1    0    0  501    0 -0.00000000000E+00 -0.00000000000E+00 -0.87102966907E+03  0.87102966907E+03  0.00000000000E+00 0. -1.
         25    2    1    2    0    0  0.40007651208E+01  0.53932192884E+02  0.11735087732E+01  0.13619907784E+03  0.12499649647E+03 0.  0.
          2    1    1    2  501    0 -0.17441388057E+01 -0.22194536134E+02 -0.80202880147E+03  0.80233773303E+03  0.00000000000E+00 0. -1.
          1    1    1    2  502    0 -0.22566263151E+01 -0.31737656749E+02  0.18844556887E+03  0.19111280346E+03  0.00000000000E+00 0. -1.
         22    1    3    3    0    0  0.63667538646E+02  0.28556445925E+02  0.10934038246E+02  0.70629875219E+02  0.00000000000E+00 0.  1.
         22    1    3    3    0    0 -0.59666773525E+02  0.25375746959E+02 -0.97605294723E+01  0.65569202619E+02  0.00000000000E+00 0.  1.
</event>
<event>
 7    1  0.7527776E-006  0.1262649E+03  0.7818608E-02  0.1362685E+00
          2   -1    0    0  502    0  0.00000000000E+00  0.00000000000E+00  0.24993260548E+04  0.24993260548E+04  0.00000000000E+00 0. -1.
          1   -1    0    0  501    0 -0.00000000000E+00 -0.00000000000E+00 -0.21144012833E+03  0.21144012833E+03  0.00000000000E+00 0. -1.
         25    2    1    2    0    0 -0.45461878961E+02 -0.15272392200E+03 -0.30078922936E+02  0.20474971203E+03  0.12500529662E+03 0.  0.
          2    1    1    2  501    0 -0.53035690598E+01  0.37600772127E+02 -0.88480227884E+02  0.96284456875E+02  0.00000000000E+00 0. -1.
          1    1    1    2  502    0  0.50765448020E+02  0.11512314987E+03  0.24064450773E+04  0.24097320142E+04  0.00000000000E+00 0. -1.
         22    1    3    3    0    0 -0.55036734397E+02 -0.69079849901E+02 -0.68920249206E+02  0.11203155157E+03  0.00000000000E+00 0.  1.
         22    1    3    3    0    0  0.95748554362E+01 -0.83644072095E+02  0.38841326270E+02  0.92718160463E+02  0.00000000000E+00 0.  1.
</event>
<event>
 7    1  0.7527776E-006  0.9277643E+02  0.7818608E-02  0.1298799E+00
          2   -1    0    0  502    0  0.00000000000E+00  0.00000000000E+00  0.18928935014E+04  0.18928935014E+04  0.00000000000E+00 0. -1.
          1   -1    0    0  501    0 -0.00000000000E+00 -0.00000000000E+00 -0.64064493204E+03  0.64064493204E+03  0.00000000000E+00 0. -1.
         25    2    1    2    0    0  0.74768601118E+02  0.86347265877E+02  0.76023057945E+02  0.18560953832E+03  0.12500080535E+03 0.  0.
          2    1    1    2  501    0 -0.90455863945E+02  0.55351170927E+01 -0.58110443937E+03  0.58812861714E+03  0.00000000000E+00 0. -1.
          1    1    1    2  502    0  0.15687262828E+02 -0.91882382970E+02  0.17573299507E+04  0.17598002780E+04  0.00000000000E+00 0. -1.
         22    1    3    3    0    0 -0.26783104259E+02 -0.70898916342E+01 -0.70729038759E+00  0.27714644086E+02  0.00000000000E+00 0. -1.
         22    1    3    3    0    0  0.10155170538E+03  0.93437157511E+02  0.76730348333E+02  0.15789489423E+03  0.00000000000E+00 0. -1.
</event>
<event>
 7    1  0.7527776E-006  0.6792214E+02  0.7818608E-02  0.1458068E+00
          2   -1    0    0  502    0  0.00000000000E+00  0.00000000000E+00  0.36404395723E+03  0.36404395723E+03  0.00000000000E+00 0. -1.
          1   -1    0    0  501    0 -0.00000000000E+00 -0.00000000000E+00 -0.11823295004E+03  0.11823295004E+03  0.00000000000E+00 0. -1.
         25    2    1    2    0    0  0.51241919111E+02  0.66846450313E+02  0.44499636609E+02  0.15716297364E+03  0.12500320169E+03 0.  0.
          2    1    1    2  501    0 -0.33451165768E+02 -0.21494897948E+01 -0.52662807734E+02  0.62425732803E+02  0.00000000000E+00 0. -1.
          1    1    1    2  502    0 -0.17790753343E+02 -0.64696960519E+02  0.25397417831E+03  0.26268820083E+03  0.00000000000E+00 0. -1.
         22    1    3    3    0    0  0.22312565797E+02 -0.20189372696E+02 -0.27342407791E+02  0.40657946654E+02  0.00000000000E+00 0. -1.
         22    1    3    3    0    0  0.28929353314E+02  0.87035823009E+02  0.71842044400E+02  0.11650502699E+03  0.00000000000E+00 0. -1.
</event>
<event>
 7    1  0.7527776E-006  0.5369640E+02  0.7818608E-02  0.1434293E+00
          2   -1    0    0  502    0  0.00000000000E+00  0.00000000000E+00  0.70415548903E+03  0.70415548903E+03  0.00000000000E+00 0. -1.
          1   -1    0    0  501    0 -0.00000000000E+00 -0.00000000000E+00 -0.16711118958E+04  0.16711118958E+04  0.00000000000E+00 0. -1.
         25    2    1    2    0    0  0.39287862160E+02 -0.12235116344E+02 -0.10445401122E+03  0.16801623041E+03  0.12500231613E+03 0.  0.
          2    1    1    2  501    0 -0.12757879328E+01  0.50550036046E+02 -0.15333762531E+04  0.15342097860E+04  0.00000000000E+00 0. -1.
          1    1    1    2  502    0 -0.38012074227E+02 -0.38314919703E+02  0.67087385757E+03  0.67304136844E+03  0.00000000000E+00 0. -1.
         22    1    3    3    0    0  0.69151011421E+02 -0.48613762209E+02 -0.66334081459E+02  0.10744938632E+03  0.00000000000E+00 0.  1.
         22    1    3    3    0    0 -0.29863149261E+02  0.36378645865E+02 -0.38119929763E+02  0.60566844097E+02  0.00000000000E+00 0.  1.
</event>
<event>
 7    1  0.7527776E-006  0.5155428E+02  0.7818608E-02  0.1447444E+00
          2   -1    0    0  502    0  0.00000000000E+00  0.00000000000E+00  0.42640791462E+03  0.42640791462E+03  0.00000000000E+00 0. -1.
          1   -1    0    0  501    0 -0.00000000000E+00 -0.00000000000E+00 -0.79796241763E+03  0.79796241763E+03  0.00000000000E+00 0. -1.
         25    2    1    2    0    0 -0.53399880106E+02 -0.42497760460E+02  0.13408653902E+03  0.19560526102E+03  0.12499844540E+03 0.  0.
          2    1    1    2  501    0  0.20239817603E+01  0.47700549807E+02 -0.76390183511E+03  0.76539235209E+03  0.00000000000E+00 0. -1.
          1    1    1    2  502    0  0.51375898345E+02 -0.52027893468E+01  0.25826079308E+03  0.26337271915E+03  0.00000000000E+00 0. -1.
         22    1    3    3    0    0  0.18107818128E+02 -0.41709778030E+02  0.11181232684E+03  0.12070457777E+03  0.00000000000E+00 0. -1.
         22    1    3    3    0    0 -0.71507698233E+02 -0.78798242984E+00  0.22274212181E+02  0.74900683250E+02  0.00000000000E+00 0. -1.
</event>
<event>
 7    1  0.7527776E-006  0.5811687E+02  0.7818608E-02  0.1497370E+00
          2   -1    0    0  502    0  0.00000000000E+00  0.00000000000E+00  0.36616713932E+03  0.36616713932E+03  0.00000000000E+00 0. -1.
          1   -1    0    0  501    0 -0.00000000000E+00 -0.00000000000E+00 -0.65361125288E+03  0.65361125288E+03  0.00000000000E+00 0. -1.
         25    2    1    2    0    0 -0.29649638124E+00 -0.37995572436E+02 -0.12822717636E+03  0.18305850752E+03  0.12499782791E+03 0.  0.
          2    1    1    2  501    0  0.25763892381E+02 -0.14677688540E+02 -0.49499521154E+03  0.49588251848E+03  0.00000000000E+00 0. -1.
          1    1    1    2  502    0 -0.25467396000E+02  0.52673260976E+02  0.33577827434E+03  0.34083736620E+03  0.00000000000E+00 0. -1.
         22    1    3    3    0    0  0.17890806620E+02 -0.78748527716E+02 -0.10584343029E+03  0.13313242773E+03  0.00000000000E+00 0.  1.
         22    1    3    3    0    0 -0.18187303001E+02  0.40752955280E+02 -0.22383746075E+02  0.49926079786E+02  0.00000000000E+00 0.  1.
</event>
<event>
 7    1  0.7527776E-006  0.6749440E+02  0.7818608E-02  0.1459403E+00
          2   -1    0    0  502    0  0.00000000000E+00  0.00000000000E+00  0.36871752053E+03  0.36871752053E+03  0.00000000000E+00 0. -1.
          1   -1    0    0  501    0 -0.00000000000E+00 -0.00000000000E+00 -0.73374121630E+03  0.73374121630E+03  0.00000000000E+00 0. -1.
         25    2    1    2    0    0 -0.65964457044E+02 -0.76099454656E+02 -0.61422445970E+03  0.63485357139E+03  0.12499973449E+03 0.  0.
          2    1    1    2  501    0  0.21124316238E+02  0.25879682143E+02 -0.10338546614E+03  0.10864874271E+03  0.00000000000E+00 0. -1.
          1    1    1    2  502    0  0.44840140806E+02  0.50219772512E+02  0.35258623008E+03  0.35895642273E+03  0.00000000000E+00 0. -1.
         22    1    3    3    0    0 -0.81730048700E+02 -0.23877773819E+02 -0.51155070645E+03  0.51858854038E+03  0.00000000000E+00 0. -1.
         22    1    3    3    0    0  0.15765591655E+02 -0.52221680837E+02 -0.10267375324E+03  0.11626503101E+03  0.00000000000E+00 0. -1.
</event>
<event>
 7    1  0.7527776E-006  0.5726475E+02  0.7818608E-02  0.1482991E+00
          2   -1    0    0  502    0  0.00000000000E+00  0.00000000000E+00  0.15411798308E+04  0.15411798308E+04  0.00000000000E+00 0. -1.
          1   -1    0    0  501    0 -0.00000000000E+00 -0.00000000000E+00 -0.43897762887E+03  0.43897762887E+03  0.00000000000E+00 0. -1.
         25    2    1    2    0    0  0.68962984732E+01 -0.57983715755E+02  0.11907622910E+04  0.11987285548E+04  0.12500257635E+03 0.  0.
          2    1    1    2  501    0  0.31271588944E+02  0.11334856500E+02 -0.43172828024E+03  0.43300773574E+03  0.00000000000E+00 0. -1.
          1    1    1    2  502    0 -0.38167887417E+02  0.46648859255E+02  0.34316819117E+03  0.34842116918E+03  0.00000000000E+00 0. -1.
         22    1    3    3    0    0  0.43664170436E+02 -0.78597950816E+02  0.62992860629E+03  0.63631300998E+03  0.00000000000E+00 0. -1.
         22    1    3    3    0    0 -0.36767871963E+02  0.20614235061E+02  0.56083368475E+03  0.56241554481E+03  0.00000000000E+00 0. -1.
</event>
<event>
 7    1  0.7527776E-006  0.6269684E+02  0.7818608E-02  0.1494101E+00
          2   -1    0    0  502    0  0.00000000000E+00  0.00000000000E+00  0.44121663310E+02  0.44121663310E+02  0.00000000000E+00 0. -1.
          1   -1    0    0  501    0 -0.00000000000E+00 -0.00000000000E+00 -0.81330823664E+03  0.81330823664E+03  0.00000000000E+00 0. -1.
         25    2    1    2    0    0 -0.11093127542E+02  0.39911865965E+02 -0.41381465004E+03  0.43426169409E+03  0.12499855938E+03 0.  0.
          2    1    1    2  501    0  0.23555543644E+02 -0.65112172121E+02 -0.37971715427E+03  0.38597872459E+03  0.00000000000E+00 0. -1.
          1    1    1    2  502    0 -0.12462416101E+02  0.25200306156E+02  0.24345230975E+02  0.37189481263E+02  0.00000000000E+00 0. -1.
         22    1    3    3    0    0 -0.67019882684E+02  0.93680144530E+01 -0.19873469957E+03  0.20994024193E+03  0.00000000000E+00 0. -1.
         22    1    3    3    0    0  0.55926755142E+02  0.30543851512E+02 -0.21507995047E+03  0.22432145216E+03  0.00000000000E+00 0. -1.
</event>
<event>
 7    1  0.7527776E-006  0.7894815E+02  0.7818608E-02  0.1427654E+00
          2   -1    0    0  502    0  0.00000000000E+00  0.00000000000E+00  0.24076060750E+04  0.24076060750E+04  0.00000000000E+00 0. -1.
          1   -1    0    0  501    0 -0.00000000000E+00 -0.00000000000E+00 -0.75114794530E+02  0.75114794530E+02  0.00000000000E+00 0. -1.
         25    2    1    2    0    0  0.86047701224E+02  0.16005686692E+02  0.15427345337E+04  0.15502627513E+04  0.12499747072E+03 0.  0.
          2    1    1    2  501    0 -0.10923308508E+02 -0.34476219561E+02 -0.64905839766E+02  0.74301389083E+02  0.00000000000E+00 0. -1.
          1    1    1    2  502    0 -0.75124392716E+02  0.18470532869E+02  0.85466258650E+03  0.85815672912E+03  0.00000000000E+00 0. -1.
         22    1    3    3    0    0  0.47644955676E+02 -0.47876143188E+02  0.10208936478E+04  0.10231256067E+04  0.00000000000E+00 0.  1.
         22    1    3    3    0    0  0.38402745548E+02  0.63881829881E+02  0.52184088590E+03  0.52713714463E+03  0.00000000000E+00 0.  1.
</event>
<event>
 7    1  0.7527776E-006  0.6311927E+02  0.7818608E-02  0.1515050E+00
          2   -1    0    0  502    0  0.00000000000E+00  0.00000000000E+00  0.10158081912E+03  0.10158081912E+03  0.00000000000E+00 0. -1.
          1   -1    0    0  501    0 -0.00000000000E+00 -0.00000000000E+00 -0.24710448423E+04  0.24710448423E+04  0.00000000000E+00 0. -1.
         25    2    1    2    0    0 -0.18767565531E+02 -0.41561349424E+02 -0.13312837858E+04  0.13379165409E+04  0.12499833903E+03 0.  0.
          2    1    1    2  501    0 -0.23582993307E+02 -0.54436121411E+01 -0.11261168069E+04  0.11263768700E+04  0.00000000000E+00 0. -1.
          1    1    1    2  502    0  0.42350558838E+02  0.47004961565E+02  0.87936569527E+02  0.10833225053E+03  0.00000000000E+00 0. -1.
         22    1    3    3    0    0 -0.59750996766E+02 -0.40707635928E+02 -0.45803146165E+03  0.46370261278E+03  0.00000000000E+00 0. -1.
         22    1    3    3    0    0  0.40983431235E+02 -0.85371349609E+00 -0.87325232413E+03  0.87421392809E+03  0.00000000000E+00 0. -1.
</event>
<event>
 7    1  0.7527776E-006  0.1379293E+03  0.7818608E-02  0.1257311E+00
          2   -1    0    0  502    0  0.00000000000E+00  0.00000000000E+00  0.31329396419E+04  0.31329396419E+04  0.00000000000E+00 0. -1.
          1   -1    0    0  501    0 -0.00000000000E+00 -0.00000000000E+00 -0.29320055126E+03  0.29320055126E+03  0.00000000000E+00 0. -1.
         25    2    1    2    0    0  0.72578107908E+01  0.65127876449E+02 -0.10927668319E+03  0.17849957655E+03  0.12500555680E+03 0.  0.
          2    1    1    2  501    0 -0.68222967332E+02  0.59594927802E+02 -0.13386555878E+03  0.16163513392E+03  0.00000000000E+00 0. -1.
          1    1    1    2  502    0  0.60965156541E+02 -0.12472280425E+03  0.30828813326E+04  0.30860054827E+04  0.00000000000E+00 0. -1.
         22    1    3    3    0    0  0.15539323302E+02  0.44752454238E+02  0.16992722414E+02  0.50328971220E+02  0.00000000000E+00 0.  1.
         22    1    3    3    0    0 -0.82815125108E+01  0.20375422211E+02 -0.12626940560E+03  0.12817060533E+03  0.00000000000E+00 0.  1.
</event>
<event>
 7    1  0.7527776E-006  0.2029469E+03  0.7818608E-02  0.1221904E+00
          2   -1    0    0  502    0  0.00000000000E+00  0.00000000000E+00  0.29572525358E+04  0.29572525358E+04  0.00000000000E+00 0. -1.
          1   -1    0    0  501    0 -0.00000000000E+00 -0.00000000000E+00 -0.51171120690E+02  0.51171120690E+02  0.00000000000E+00 0. -1.
         25    2    1    2    0    0  0.14437173953E+03  0.98440391808E+02  0.12092978283E+04  0.12282343791E+04  0.12499896968E+03 0.  0.
          2    1    1    2  501    0 -0.65610711341E+01  0.87986170615E+02  0.24026546118E+02  0.91443363850E+02  0.00000000000E+00 0. -1.
          1    1    1    2  502    0 -0.13781066839E+03 -0.18642656242E+03  0.16727570407E+04  0.16887459136E+04  0.00000000000E+00 0. -1.
         22    1    3    3    0    0  0.14094762440E+03  0.12453404991E+03  0.10849803119E+04  0.11011617681E+04  0.00000000000E+00 0.  1.
         22    1    3    3    0    0  0.34241151227E+01 -0.26093658098E+02  0.12431751645E+03  0.12707261095E+03  0.00000000000E+00 0.  1.
</event>
<event>
 7    1  0.7527776E-006  0.1380120E+03  0.7818608E-02  0.1277769E+00
          2   -1    0    0  502    0  0.00000000000E+00  0.00000000000E+00  0.12582212713E+03  0.12582212713E+03  0.00000000000E+00 0. -1.
          1   -1    0    0  501    0 -0.00000000000E+00 -0.00000000000E+00 -0.67011645555E+03  0.67011645555E+03  0.00000000000E+00 0. -1.
         25    2    1    2    0    0 -0.18810955357E+02 -0.16488057361E+03 -0.56623724846E+02  0.21533841180E+03  0.12499971914E+03 0.  0.
          2    1    1    2  501    0 -0.46161718830E+02  0.58122782308E+02 -0.44098876769E+03  0.44719151975E+03  0.00000000000E+00 0. -1.
          1    1    1    2  502    0  0.64972674187E+02  0.10675779130E+03 -0.46681835890E+02  0.13340865113E+03  0.00000000000E+00 0. -1.
         22    1    3    3    0    0 -0.13047075932E+02 -0.58825226372E+02  0.39532836061E+02  0.72065793377E+02  0.00000000000E+00 0.  1.
         22    1    3    3    0    0 -0.57638794251E+01 -0.10605534724E+03 -0.96156560907E+02  0.14327261842E+03  0.00000000000E+00 0.  1.
</event>
<event>
 7    1  0.7527776E-006  0.7701403E+02  0.7818608E-02  0.1354291E+00
          2   -1    0    0  502    0  0.00000000000E+00  0.00000000000E+00  0.40829501216E+03  0.40829501216E+03  0.00000000000E+00 0. -1.
          1   -1    0    0  501    0 -0.00000000000E+00 -0.00000000000E+00 -0.88989932518E+03  0.88989932518E+03  0.00000000000E+00 0. -1.
         25    2    1    2    0    0 -0.58852491350E+02 -0.33769935528E+02  0.77821673107E+02  0.16212765291E+03  0.12500055499E+03 0.  0.
          2    1    1    2  501    0  0.70657402847E+02 -0.31996326535E+02 -0.84206870327E+03  0.84563345163E+03  0.00000000000E+00 0. -1.
          1    1    1    2  502    0 -0.11804911497E+02  0.65766262063E+02  0.28264271714E+03  0.29043323280E+03  0.00000000000E+00 0. -1.
         22    1    3    3    0    0  0.12125066832E+01 -0.38247378557E+02 -0.23027579990E+02  0.44660962586E+02  0.00000000000E+00 0. -1.
         22    1    3    3    0    0 -0.60064998033E+02  0.44774430294E+01  0.10084925310E+03  0.11746669032E+03  0.00000000000E+00 0. -1.
</event>
<event>
 7    1  0.7527776E-006  0.5992460E+02  0.7818608E-02  0.1410792E+00
          2   -1    0    0  502    0  0.00000000000E+00  0.00000000000E+00  0.20509453589E+04  0.20509453589E+04  0.00000000000E+00 0. -1.
          1   -1    0    0  501    0 -0.00000000000E+00 -0.00000000000E+00 -0.55358929776E+02  0.55358929776E+02  0.00000000000E+00 0. -1.
         25    2    1    2    0    0  0.37292903892E+02 -0.17189397363E+02  0.12959989927E+03  0.18467759575E+03  0.12499377752E+03 0.  0.
          2    1    1    2  501    0 -0.15948814862E+02  0.67065804333E+02  0.15901416298E+02  0.70746320375E+02  0.00000000000E+00 0. -1.
          1    1    1    2  502    0 -0.21344089030E+02 -0.49876406970E+02  0.18500851135E+04  0.18508803725E+04  0.00000000000E+00 0. -1.
         22    1    3    3    0    0 -0.28407735656E+02 -0.17820342940E+02 -0.59358810598E+01  0.34055818175E+02  0.00000000000E+00 0.  1.
         22    1    3    3    0    0  0.65700639548E+02  0.63094557713E+00  0.13553578033E+03  0.15062177757E+03  0.00000000000E+00 0.  1.
</event>
<event>
 7    1  0.7527776E-006  0.4490540E+02  0.7818608E-02  0.1490564E+00
          2   -1    0    0  502    0  0.00000000000E+00  0.00000000000E+00  0.14858511229E+04  0.14858511229E+04  0.00000000000E+00 0. -1.
          1   -1    0    0  501    0 -0.00000000000E+00 -0.00000000000E+00 -0.13084166151E+03  0.13084166151E+03  0.00000000000E+00 0. -1.
         25    2    1    2    0    0 -0.68186412921E+02 -0.23666563311E+02  0.31718359355E+03  0.34848275951E+03  0.12500123412E+03 0.  0.
          2    1    1    2  501    0  0.39012375960E+02 -0.98152031821E+01 -0.11123784856E+03  0.11828847215E+03  0.00000000000E+00 0. -1.
          1    1    1    2  502    0  0.29174036961E+02  0.33481766493E+02  0.11490637164E+04  0.11499215527E+04  0.00000000000E+00 0. -1.
         22    1    3    3    0    0 -0.74639725930E+02 -0.52918530270E+02  0.30065736749E+03  0.31427108069E+03  0.00000000000E+00 0.  1.
         22    1    3    3    0    0  0.64533130089E+01  0.29251966959E+02  0.16526226062E+02  0.34211678819E+02  0.00000000000E+00 0.  1.
</event>
<event>
 7    1  0.7527776E-006  0.1004260E+03  0.7818608E-02  0.1365377E+00
          2   -1    0    0  502    0  0.00000000000E+00  0.00000000000E+00  0.15702005123E+04  0.15702005123E+04  0.00000000000E+00 0. -1.
          1   -1    0    0  501    0 -0.00000000000E+00 -0.00000000000E+00 -0.23199190610E+03  0.23199190610E+03  0.00000000000E+00 0. -1.
         25    2    1    2    0    0 -0.10136998037E+02  0.71873358713E+02  0.19649559548E+03  0.24393242472E+03  0.12499588139E+03 0.  0.
          2    1    1    2  501    0  0.37636105876E+02  0.27616985519E+02 -0.20365571593E+03  0.20893737097E+03  0.00000000000E+00 0. -1.
          1    1    1    2  502    0 -0.27499107840E+02 -0.99490344231E+02  0.13453687266E+04  0.13493226227E+04  0.00000000000E+00 0. -1.
         22    1    3    3    0    0  0.53430587745E+02  0.73954543366E+01  0.70026028428E+02  0.88392109993E+02  0.00000000000E+00 0.  1.
         22    1    3    3    0    0 -0.63567585781E+02  0.64477904376E+02  0.12646956705E+03  0.15554031473E+03  0.00000000000E+00 0.  1.
</event>
<event>
 7    1  0.7527776E-006  0.1843241E+03  0.7818608E-02  0.1274863E+00
          2   -1    0    0  502    0  0.00000000000E+00  0.00000000000E+00  0.25094579790E+03  0.25094579790E+03  0.00000000000E+00 0. -1.
          1   -1    0    0  501    0 -0.00000000000E+00 -0.00000000000E+00 -0.10440735835E+04  0.10440735835E+04  0.00000000000E+00 0. -1.
         25    2    1    2    0    0 -0.18690232457E+03 -0.10947850974E+03  0.19702917462E+02  0.25086056408E+03  0.12499917852E+03 0.  0.
          2    1    1    2  501    0  0.30412779716E+02  0.48376783133E+02 -0.86605177668E+03  0.86793486518E+03  0.00000000000E+00 0. -1.
          1    1    1    2  502    0  0.15648954485E+03  0.61101726604E+02  0.53221073595E+02  0.17622395217E+03  0.00000000000E+00 0. -1.
         22    1    3    3    0    0 -0.16523627593E+03 -0.13332426125E+03  0.35021464862E+02  0.21518570706E+03  0.00000000000E+00 0.  1.
         22    1    3    3    0    0 -0.21666048641E+02  0.23845751515E+02 -0.15318547400E+02  0.35674857021E+02  0.00000000000E+00 0.  1.
</event>
<event>
 7    1  0.7527776E-006  0.7677985E+02  0.7818608E-02  0.1476011E+00
          2   -1    0    0  502    0  0.00000000000E+00  0.00000000000E+00  0.29092701497E+04  0.29092701497E+04  0.00000000000E+00 0. -1.
          1   -1    0    0  501    0 -0.00000000000E+00 -0.00000000000E+00 -0.15772174233E+04  0.15772174233E+04  0.00000000000E+00 0. -1.
         25    2    1    2    0    0  0.94325941433E+02 -0.67174115560E+01  0.53447354702E+03  0.55698255034E+03  0.12500032829E+03 0.  0.
          2    1    1    2  501    0 -0.19188154867E+02  0.17637824724E+02 -0.15652446294E+04  0.15654616022E+04  0.00000000000E+00 0. -1.
          1    1    1    2  502    0 -0.75137786567E+02 -0.10920413168E+02  0.23628238088E+04  0.23640434204E+04  0.00000000000E+00 0. -1.
         22    1    3    3    0    0  0.27601323600E+02 -0.11974468669E+01  0.44175180417E+03  0.44261487032E+03  0.00000000000E+00 0. -1.
         22    1    3    3    0    0  0.66724617834E+02 -0.55199646891E+01  0.92721742848E+02  0.11436768001E+03  0.00000000000E+00 0. -1.
</event>
<event>
 7    1  0.7527776E-006  0.5114411E+02  0.7818608E-02  0.1449705E+00
          2   -1    0    0  502    0  0.00000000000E+00  0.00000000000E+00  0.56392813038E+03  0.56392813038E+03  0.00000000000E+00 0. -1.
          1   -1    0    0  501    0 -0.00000000000E+00 -0.00000000000E+00 -0.63674424912E+03  0.63674424912E+03  0.00000000000E+00 0. -1.
         25    2    1    2    0    0  0.65258634333E+02  0.71647489106E+02 -0.11332688578E+03  0.19457731218E+03  0.12500118129E+03 0.  0.
          2    1    1    2  501    0 -0.31644056218E+02 -0.38328236631E+02 -0.48043726786E+03  0.48300141652E+03  0.00000000000E+00 0. -1.
          1    1    1    2  502    0 -0.33614578115E+02 -0.33319252475E+02  0.52094803490E+03  0.52309365080E+03  0.00000000000E+00 0. -1.
         22    1    3    3    0    0  0.45311149868E+02 -0.21190457959E+02 -0.79200911058E+02  0.93674543624E+02  0.00000000000E+00 0. -1.
         22    1    3    3    0    0  0.19947484465E+02  0.92837947065E+02 -0.34125974726E+02  0.10090276856E+03  0.00000000000E+00 0. -1.
</event>
<event>
 7    1  0.7527776E-006  0.6896194E+02  0.7818608E-02  0.1428092E+00
          2   -1    0    0  502    0  0.00000000000E+00  0.00000000000E+00  0.17611014709E+03  0.17611014709E+03  0.00000000000E+00 0. -1.
          1   -1    0    0  501    0 -0.00000000000E+00 -0.00000000000E+00 -0.95925654678E+03  0.95925654678E+03  0.00000000000E+00 0. -1.
         25    2    1    2    0    0  0.72786117925E+02  0.51414272777E+02 -0.43729707930E+02  0.15962139540E+03  0.12500182441E+03 0.  0.
          2    1    1    2  501    0 -0.40443210112E+02  0.81914307993E+01 -0.84730747902E+03  0.84831168611E+03  0.00000000000E+00 0. -1.
          1    1    1    2  502    0 -0.32342907813E+02 -0.59605703577E+02  0.10789078726E+03  0.12743361237E+03  0.00000000000E+00 0. -1.
         22    1    3    3    0    0 -0.59354481322E+01  0.20879434226E+02 -0.68313486716E+02  0.71679235385E+02  0.00000000000E+00 0.  1.
         22    1    3    3    0    0  0.78721566057E+02  0.30534838551E+02  0.24583778786E+02  0.87942160010E+02  0.00000000000E+00 0.  1.
</event>
<event>
 7    1  0.1019274E-005  0.7994429E+02  0.7818608E-02  0.1467262E+00
          2   -1    0    0  502    0  0.00000000000E+00  0.00000000000E+00  0.85815432496E+03  0.85815432496E+03  0.00000000000E+00 0. -1.
          1   -1    0    0  501    0 -0.00000000000E+00 -0.00000000000E+00 -0.12583740042E+04  0.12583740042E+04  0.00000000000E+00 0. -1.
         25    2    1    2    0    0  0.71873899817E+02  0.21531470952E+02 -0.70484432433E+03  0.71976326782E+03  0.12499671374E+03 0.  0.
          2    1    1    2  501    0  0.80002065641E+01 -0.25416894410E+02 -0.54386396743E+03  0.54451633299E+03  0.00000000000E+00 0. -1.
          1    1    1    2  502    0 -0.79874106381E+02  0.38854234583E+01  0.84848861253E+03  0.85224872835E+03  0.00000000000E+00 0. -1.
         22    1    3    3    0    0  0.11235005744E+02 -0.10334959110E+02 -0.42750242502E+01  0.15852840951E+02  0.00000000000E+00 0.  1.
         22    1    3    3    0    0  0.60638894073E+02  0.31866430062E+02 -0.70056930008E+03  0.70391042687E+03  0.00000000000E+00 0.  1.
</event>
<event>
 7    1  0.7527776E-006  0.2426990E+02  0.7818608E-02  0.1676528E+00
          2   -1    0    0  502    0  0.00000000000E+00  0.00000000000E+00  0.80879576751E+02  0.80879576751E+02  0.00000000000E+00 0. -1.
          1   -1    0    0  501    0 -0.00000000000E+00 -0.00000000000E+00 -0.63410389686E+03  0.63410389686E+03  0.00000000000E+00 0. -1.
         25    2    1    2    0    0  0.30332441145E+02 -0.40808417125E+01 -0.30959964671E+03  0.33528140730E+03  0.12499988232E+03 0.  0.
          2    1    1    2  501    0 -0.18241211870E+02 -0.16230932564E+02 -0.30911419831E+03  0.31007704298E+03  0.00000000000E+00 0. -1.
          1    1    1    2  502    0 -0.12091229275E+02  0.20311774276E+02  0.65489524921E+02  0.69625023332E+02  0.00000000000E+00 0. -1.
         22    1    3    3    0    0  0.38021468525E+02 -0.27766671504E+02 -0.32838055807E+02  0.57401724925E+02  0.00000000000E+00 0.  1.
         22    1    3    3    0    0 -0.76890273805E+01  0.23685829791E+02 -0.27676159091E+03  0.27787968238E+03  0.00000000000E+00 0.  1.
</event>
<event>
 7    1  0.7527776E-006  0.1149775E+03  0.7818608E-02  0.1270936E+00
          2   -1    0    0  502    0  0.00000000000E+00  0.00000000000E+00  0.49700837084E+03  0.49700837084E+03  0.00000000000E+00 0. -1.
          1   -1    0    0  501    0 -0.00000000000E+00 -0.00000000000E+00 -0.15460435610E+04  0.15460435610E+04  0.00000000000E+00 0. -1.
         25    2    1    2    0    0 -0.16981076925E+01  0.17499434500E+03 -0.17583168343E+03  0.27779108829E+03  0.12500081394E+03 0.  0.
          2    1    1    2  501    0 -0.55209544456E+02 -0.98756729557E+02 -0.13116961588E+04  0.13165666707E+04  0.00000000000E+00 0. -1.
          1    1    1    2  502    0  0.56907652148E+02 -0.76237615442E+02  0.43849265203E+03  0.44869417287E+03  0.00000000000E+00 0. -1.
         22    1    3    3    0    0  0.39091079389E+02  0.40366563037E+01 -0.31371366974E+02  0.50284885877E+02  0.00000000000E+00 0. -1.
         22    1    3    3    0    0 -0.40789187081E+02  0.17095768870E+03 -0.14446031646E+03  0.22750620242E+03  0.00000000000E+00 0. -1.
</event>
<event>
 7    1  0.7527776E-006  0.5245698E+02  0.7818608E-02  0.1461508E+00
          2   -1    0    0  502    0  0.00000000000E+00  0.00000000000E+00  0.14660169022E+04  0.14660169022E+04  0.00000000000E+00 0. -1.
          1   -1    0    0  501    0 -0.00000000000E+00 -0.00000000000E+00 -0.34150098419E+02  0.34150098419E+02  0.00000000000E+00 0. -1.
         25    2    1    2    0    0 -0.26114562867E+02 -0.52807256236E+02  0.74490931647E+03  0.75761840824E+03  0.12500074412E+03 0.  0.
          2    1    1    2  501    0 -0.24415349497E+02  0.34580483639E+02 -0.10022745808E+02  0.43501431853E+02  0.00000000000E+00 0. -1.
          1    1    1    2  502    0  0.50529912363E+02  0.18226772597E+02  0.69698023315E+03  0.69904716056E+03  0.00000000000E+00 0. -1.
         22    1    3    3    0    0  0.40428157567E+02 -0.24828927400E+02  0.50127765362E+03  0.50351782250E+03  0.00000000000E+00 0.  1.
         22    1    3    3    0    0 -0.66542720433E+02 -0.27978328836E+02  0.24363166285E+03  0.25410058574E+03  0.00000000000E+00 0.  1.
</event>
<event>
 7    1  0.7527776E-006  0.9162393E+02  0.7818608E-02  0.1372200E+00
          2   -1    0    0  502    0  0.00000000000E+00  0.00000000000E+00  0.10229508908E+04  0.10229508908E+04  0.00000000000E+00 0. -1.
          1   -1    0    0  501    0 -0.00000000000E+00 -0.00000000000E+00 -0.31327108073E+03  0.31327108073E+03  0.00000000000E+00 0. -1.
         25    2    1    2    0    0 -0.43298306960E+02 -0.10465699717E+03  0.19383402201E+03  0.25695133307E+03  0.12499811613E+03 0.  0.
          2    1    1    2  501    0  0.66639299269E+02  0.62312639054E+02 -0.27356663182E+03  0.28837885366E+03  0.00000000000E+00 0. -1.
          1    1    1    2  502    0 -0.23340992309E+02  0.42344358112E+02  0.78941241985E+03  0.79089178476E+03  0.00000000000E+00 0. -1.
         22    1    3    3    0    0 -0.87230665317E+02 -0.70354866980E+02  0.14142384286E+03  0.18044306473E+03  0.00000000000E+00 0.  1.
         22    1    3    3    0    0  0.43932358357E+02 -0.34302130186E+02  0.52410179151E+02  0.76508268342E+02  0.00000000000E+00 0.  1.
</event>
<event>
 7    1  0.7527776E-006  0.1375621E+03  0.7818608E-02  0.1269470E+00
          2   -1    0    0  502    0  0.00000000000E+00  0.00000000000E+00  0.83648979136E+03  0.83648979136E+03  0.00000000000E+00 0. -1.
          1   -1    0    0  501    0 -0.00000000000E+00 -0.00000000000E+00 -0.88974192594E+03  0.88974192594E+03  0.00000000000E+00 0. -1.
         25    2    1    2    0    0  0.10606226312E+03 -0.16260880693E+02  0.21543471881E+03  0.27119539061E+03  0.12498480677E+03 0.  0.
          2    1    1    2  501    0  0.12340404139E+02 -0.79701421689E+02 -0.85013177653E+03  0.85394885073E+03  0.00000000000E+00 0. -1.
          1    1    1    2  502    0 -0.11840266726E+03  0.95962302383E+02  0.58144492315E+03  0.60108747595E+03  0.00000000000E+00 0. -1.
         22    1    3    3    0    0  0.40188587943E+02  0.29563603568E+02  0.10326447333E+02  0.50948648375E+02  0.00000000000E+00 0. -1.
         22    1    3    3    0    0  0.65873675180E+02 -0.45824484261E+02  0.20510827147E+03  0.22024674224E+03  0.00000000000E+00 0. -1.
</event>
<event>
 7    1  0.7527776E-006  0.2451356E+03  0.7818608E-02  0.1217343E+00
          2   -1    0    0  502    0  0.00000000000E+00  0.00000000000E+00  0.25830962386E+03  0.25830962386E+03  0.00000000000E+00 0. -1.
          1   -1    0    0  501    0 -0.00000000000E+00 -0.00000000000E+00 -0.97813927437E+03  0.97813927437E+03  0.00000000000E+00 0. -1.
         25    2    1    2    0    0  0.21545970544E+03 -0.62098304100E+02 -0.30576555497E+02  0.25854736089E+03  0.12503090831E+03 0.  0.
          2    1    1    2  501    0 -0.20836400610E+03  0.13840010391E+03 -0.80282688657E+03  0.84089307144E+03  0.00000000000E+00 0. -1.
          1    1    1    2  502    0 -0.70956993472E+01 -0.76301799808E+02  0.11357379156E+03  0.13700846591E+03  0.00000000000E+00 0. -1.
         22    1    3    3    0    0  0.12190807900E+03 -0.94680253916E+02  0.16778154000E+01  0.15436562205E+03  0.00000000000E+00 0. -1.
         22    1    3    3    0    0  0.93551626449E+02  0.32581949817E+02 -0.32254370897E+02  0.10418173884E+03  0.00000000000E+00 0. -1.
</event>
<event>
 7    1  0.7527776E-006  0.7893739E+02  0.7818608E-02  0.1490481E+00
          2   -1    0    0  502    0  0.00000000000E+00  0.00000000000E+00  0.14124464882E+03  0.14124464882E+03  0.00000000000E+00 0. -1.
          1   -1    0    0  501    0 -0.00000000000E+00 -0.00000000000E+00 -0.24111805737E+03  0.24111805737E+03  0.00000000000E+00 0. -1.
         25    2    1    2    0    0 -0.90398619914E+02 -0.14635008626E+02  0.30498126988E+02  0.15792746732E+03  0.12499942089E+03 0.  0.
          2    1    1    2  501    0  0.72424121596E+02  0.28820551147E+02 -0.16525043249E+03  0.18271174838E+03  0.00000000000E+00 0. -1.
          1    1    1    2  502    0  0.17974498318E+02 -0.14185542521E+02  0.34878896951E+02  0.41723490493E+02  0.00000000000E+00 0. -1.
         22    1    3    3    0    0 -0.13638564725E+02 -0.67226772878E+01 -0.46496020617E+02  0.48919165681E+02  0.00000000000E+00 0. -1.
         22    1    3    3    0    0 -0.76760055189E+02 -0.79123313383E+01  0.76994147605E+02  0.10900830163E+03  0.00000000000E+00 0. -1.
</event>
<event>
 7    1  0.7527776E-006  0.1152554E+03  0.7818608E-02  0.1300584E+00
          2   -1    0    0  502    0  0.00000000000E+00  0.00000000000E+00  0.18783442621E+03  0.18783442621E+03  0.00000000000E+00 0. -1.
          1   -1    0    0  501    0 -0.00000000000E+00 -0.00000000000E+00 -0.31931335149E+04  0.31931335149E+04  0.00000000000E+00 0. -1.
         25    2    1    2    0    0 -0.24549482121E+02 -0.65570053133E+02 -0.34832475035E+02  0.14744965101E+03  0.12500395724E+03 0.  0.
          2    1    1    2  501    0  0.23351177218E+02 -0.67853726602E+02 -0.30676245418E+04  0.30684637418E+04  0.00000000000E+00 0. -1.
          1    1    1    2  502    0  0.11983049024E+01  0.13342377973E+03  0.97157928061E+02  0.16505454831E+03  0.00000000000E+00 0. -1.
         22    1    3    3    0    0 -0.31653426991E+02 -0.19916246577E+01 -0.68260250113E+02  0.75268637257E+02  0.00000000000E+00 0.  1.
         22    1    3    3    0    0  0.71039448706E+01 -0.63578428475E+02  0.33427775078E+02  0.72181013755E+02  0.00000000000E+00 0.  1.
</event>
<event>
 7    1  0.7527776E-006  0.3817452E+02  0.7818608E-02  0.1622447E+00
          2   -1    0    0  502    0  0.00000000000E+00  0.00000000000E+00  0.69787525713E+03  0.69787525713E+03  0.00000000000E+00 0. -1.
          1   -1    0    0  501    0 -0.00000000000E+00 -0.00000000000E+00 -0.27828805629E+03  0.27828805629E+03  0.00000000000E+00 0. -1.
         25    2    1    2    0    0 -0.41488694271E+02  0.45789728838E+01  0.64982728396E+03  0.66305838896E+03  0.12501459696E+03 0.  0.
          2    1    1    2  501    0  0.31103565195E+02 -0.22138911017E+02 -0.26772208585E+03  0.27043054266E+03  0.00000000000E+00 0. -1.
          1    1    1    2  502    0  0.10385129075E+02  0.17559938133E+02  0.37482002730E+02  0.42674381797E+02  0.00000000000E+00 0. -1.
         22    1    3    3    0    0 -0.15462317288E+02  0.43266194924E+01  0.37906080112E+01  0.16497624109E+02  0.00000000000E+00 0. -1.
         22    1    3    3    0    0 -0.26026376982E+02  0.25235339138E+00  0.64603667595E+03  0.64656076485E+03  0.00000000000E+00 0. -1.
</event>
<event>
 7    1  0.7527776E-006  0.6179046E+02  0.7818608E-02  0.1481734E+00
          2   -1    0    0  502    0  0.00000000000E+00  0.00000000000E+00  0.87690269667E+03  0.87690269667E+03  0.00000000000E+00 0. -1.
          1   -1    0    0  501    0 -0.00000000000E+00 -0.00000000000E+00 -0.84884930334E+03  0.84884930334E+03  0.00000000000E+00 0. -1.
         25    2    1    2    0    0 -0.68069570103E+02 -0.42754505543E+02  0.87111127346E+02  0.17226370198E+03  0.12500008158E+03 0.  0.
          2    1    1    2  501    0  0.60360173193E+02  0.12624828851E+02 -0.80476930831E+03  0.80712847578E+03  0.00000000000E+00 0. -1.
          1    1    1    2  502    0  0.77093969097E+01  0.30129676692E+02  0.74571157430E+03  0.74635982224E+03  0.00000000000E+00 0. -1.
         22    1    3    3    0    0  0.32303039406E+02 -0.68031924369E+01  0.48913086932E+02  0.59010675775E+02  0.00000000000E+00 0.  1.
         22    1    3    3    0    0 -0.10037260951E+03 -0.35951313106E+02  0.38198040414E+02  0.11325302621E+03  0.00000000000E+00 0.  1.
</event>
<event>
 7    1  0.7527776E-006  0.1117792E+03  0.7818608E-02  0.1413445E+00
          2   -1    0    0  502    0  0.00000000000E+00  0.00000000000E+00  0.24066980084E+02  0.24066980084E+02  0.00000000000E+00 0. -1.
          1   -1    0    0  501    0 -0.00000000000E+00 -0.00000000000E+00 -0.11914100785E+04  0.11914100785E+04  0.00000000000E+00 0. -1.
         25    2    1    2    0    0 -0.95920108558E+02  0.47745428609E+02 -0.74249228078E+03  0.76052393384E+03  0.12498629425E+03 0.  0.
          2    1    1    2  501    0  0.11466318945E+03 -0.26289074191E+02 -0.40067716944E+03  0.41758945934E+03  0.00000000000E+00 0. -1.
          1    1    1    2  502    0 -0.18743080894E+02 -0.21456354418E+02 -0.24173648226E+02  0.37363665437E+02  0.00000000000E+00 0. -1.
         22    1    3    3    0    0 -0.22438684213E+02 -0.30036353290E+02 -0.68486653950E+02  0.78077518130E+02  0.00000000000E+00 0. -1.
         22    1    3    3    0    0 -0.73481424345E+02  0.77781781899E+02 -0.67400562683E+03  0.68244641571E+03  0.00000000000E+00 0. -1.
</event>
<event>
 7    1  0.7527776E-006  0.6022064E+02  0.7818608E-02  0.1407809E+00
          2   -1    0    0  502    0  0.00000000000E+00  0.00000000000E+00  0.40590487218E+03  0.40590487218E+03  0.00000000000E+00 0. -1.
          1   -1    0    0  501    0 -0.00000000000E+00 -0.00000000000E+00 -0.14408293620E+04  0.14408293620E+04  0.00000000000E+00 0. -1.
         25    2    1    2    0    0  0.94033725607E+01 -0.51484492066E+02  0.32996220427E+01  0.13555443838E+03  0.12500016768E+03 0.  0.
          2    1    1    2  501    0 -0.54432426248E+02  0.95125606238E+01 -0.13713254840E+04  0.13724383268E+04  0.00000000000E+00 0. -1.
          1    1    1    2  502    0  0.45029053687E+02  0.41971931442E+02  0.33310137213E+03  0.33874146900E+03  0.00000000000E+00 0. -1.
         22    1    3    3    0    0 -0.40629608280E+02 -0.38790796149E+02 -0.39359098469E+02  0.68590302282E+02  0.00000000000E+00 0.  1.
         22    1    3    3    0    0  0.50032980841E+02 -0.12693695917E+02  0.42658720512E+02  0.66964136100E+02  0.00000000000E+00 0.  1.
</event>
<event>
 7    1  0.7527776E-006  0.7294854E+02  0.7818608E-02  0.1359783E+00
          2   -1    0    0  502    0  0.00000000000E+00  0.00000000000E+00  0.75349234636E+03  0.75349234636E+03  0.00000000000E+00 0. -1.
          1   -1    0    0  501    0 -0.00000000000E+00 -0.00000000000E+00 -0.11605417504E+04  0.11605417504E+04  0.00000000000E+00 0. -1.
         25    2    1    2    0    0 -0.49048617960E+02  0.12786998571E+03  0.80000350508E+02  0.20194256496E+03  0.12499697314E+03 0.  0.
          2    1    1    2  501    0  0.38483183767E+02 -0.61357885637E+02 -0.10965211734E+04  0.10989105647E+04  0.00000000000E+00 0. -1.
          1    1    1    2  502    0  0.10565434193E+02 -0.66512100069E+02  0.60947141890E+03  0.61318096702E+03  0.00000000000E+00 0. -1.
         22    1    3    3    0    0 -0.41751707676E+02 -0.13107579618E+02  0.25306091084E+02  0.50551082909E+02  0.00000000000E+00 0. -1.
         22    1    3    3    0    0 -0.72969102841E+01  0.14097756532E+03  0.54694259424E+02  0.15139148205E+03  0.00000000000E+00 0. -1.
</event>
<event>
 7    1  0.7527776E-006  0.1616756E+03  0.7818608E-02  0.1246171E+00
          2   -1    0    0  502    0  0.00000000000E+00  0.00000000000E+00  0.16138472317E+04  0.16138472317E+04  0.00000000000E+00 0. -1.
          1   -1    0    0  501    0 -0.00000000000E+00 -0.00000000000E+00 -0.75007040593E+03  0.75007040593E+03  0.00000000000E+00 0. -1.
         25    2    1    2    0    0 -0.11597009233E+03  0.17391386888E+03  0.57357163532E+03  0.62313858930E+03  0.12498873762E+03 0.  0.
          2    1    1    2  501    0 -0.93093744957E+01 -0.85847544699E+02 -0.71690809220E+03  0.72208979916E+03  0.00000000000E+00 0. -1.
          1    1    1    2  502    0  0.12527946683E+03 -0.88066324183E+02  0.10071132827E+04  0.10186892492E+04  0.00000000000E+00 0. -1.
         22    1    3    3    0    0 -0.78181192066E+02  0.94795788138E+02  0.16766625285E+03  0.20787138472E+03  0.00000000000E+00 0.  1.
         22    1    3    3    0    0 -0.37788900266E+02  0.79118080745E+02  0.40590538247E+03  0.41526720458E+03  0.00000000000E+00 0.  1.
</event>
<event>
 7    1  0.7527776E-006  0.2387988E+03  0.7818608E-02  0.1219252E+00
          2   -1    0    0  502    0  0.00000000000E+00  0.00000000000E+00  0.10773088998E+04  0.10773088998E+04  0.00000000000E+00 0. -1.
          1   -1    0    0  501    0 -0.00000000000E+00 -0.00000000000E+00 -0.72773886510E+03  0.72773886510E+03  0.00000000000E+00 0. -1.
         25    2    1    2    0    0 -0.48561311670E+02  0.21872658689E+03  0.33308807699E+03  0.42044335340E+03  0.12500170231E+03 0.  0.
          2    1    1    2  501    0 -0.77059180436E+02 -0.24916353738E+01 -0.65942579214E+03  0.66391769135E+03  0.00000000000E+00 0. -1.
          1    1    1    2  502    0  0.12562049211E+03 -0.21623495152E+03  0.67590774986E+03  0.72068672016E+03  0.00000000000E+00 0. -1.
         22    1    3    3    0    0  0.17273601837E+02  0.16130668170E+03  0.26039833725E+03  0.30679882158E+03  0.00000000000E+00 0. -1.
         22    1    3    3    0    0 -0.65834913507E+02  0.57419905185E+02  0.72689739749E+02  0.11364453182E+03  0.00000000000E+00 0. -1.
</event>
<event>
 7    1  0.7527776E-006  0.8425790E+02  0.7818608E-02  0.1346056E+00
          2   -1    0    0  502    0  0.00000000000E+00  0.00000000000E+00  0.35472581190E+03  0.35472581190E+03  0.00000000000E+00 0. -1.
          1   -1    0    0  501    0 -0.00000000000E+00 -0.00000000000E+00 -0.18356460372E+04  0.18356460372E+04  0.00000000000E+00 0. -1.
         25    2    1    2    0    0 -0.31342494751E+02  0.82486522899E+02 -0.57413449314E+03  0.59417240287E+03  0.12499619869E+03 0.  0.
          2    1    1    2  501    0  0.78617364276E+02 -0.37125958174E+02 -0.12468519248E+04  0.12498794938E+04  0.00000000000E+00 0. -1.
          1    1    1    2  502    0 -0.47274869525E+02 -0.45360564725E+02  0.34006619259E+03  0.34631995245E+03  0.00000000000E+00 0. -1.
         22    1    3    3    0    0 -0.97824968504E+01  0.69142151762E+02 -0.11642572837E+03  0.13576186734E+03  0.00000000000E+00 0. -1.
         22    1    3    3    0    0 -0.21559997900E+02  0.13344371137E+02 -0.45770876476E+03  0.45841053553E+03  0.00000000000E+00 0. -1.
</event>
<event>
 7    1  0.7527776E-006  0.2051816E+03  0.7818608E-02  0.1250954E+00
          2   -1    0    0  502    0  0.00000000000E+00  0.00000000000E+00  0.27772799203E+04  0.27772799203E+04  0.00000000000E+00 0. -1.
          1   -1    0    0  501    0 -0.00000000000E+00 -0.00000000000E+00 -0.12654740801E+03  0.12654740801E+03  0.00000000000E+00 0. -1.
         25    2    1    2    0    0 -0.22068554617E+03 -0.39912252327E+01  0.16560665808E+03  0.30293139749E+03  0.12499530479E+03 0.  0.
          2    1    1    2  501    0  0.23798852525E+02  0.60335339003E+02 -0.34156611098E+02  0.73303564687E+02  0.00000000000E+00 0. -1.
          1    1    1    2  502    0  0.19688669365E+03 -0.56344113770E+02  0.25192824653E+04  0.25275923661E+04  0.00000000000E+00 0. -1.
         22    1    3    3    0    0 -0.16992054576E+03  0.28760256350E+02  0.62291559572E+02  0.18324950917E+03  0.00000000000E+00 0.  1.
         22    1    3    3    0    0 -0.50765000409E+02 -0.32751481583E+02  0.10331509851E+03  0.11968188832E+03  0.00000000000E+00 0.  1.
</event>
<event>
 7    1  0.7527776E-006  0.1081842E+03  0.7818608E-02  0.1289119E+00
          2   -1    0    0  502    0  0.00000000000E+00  0.00000000000E+00  0.22087676507E+04  0.22087676507E+04  0.00000000000E+00 0. -1.
          1   -1    0    0  501    0 -0.00000000000E+00 -0.00000000000E+00 -0.53649130741E+03  0.53649130741E+03  0.00000000000E+00 0. -1.
         25    2    1    2    0    0  0.17374083182E+03  0.16053191268E+02  0.69274719479E+02  0.22553824870E+03  0.12499973311E+03 0.  0.
          2    1    1    2  501    0 -0.94687935763E+02 -0.47409500219E+02 -0.45135191896E+03  0.46360761495E+03  0.00000000000E+00 0. -1.
          1    1    1    2  502    0 -0.79052896059E+02  0.31356308951E+02  0.20543535427E+04  0.20561130944E+04  0.00000000000E+00 0. -1.
         22    1    3    3    0    0  0.12521208515E+03 -0.35221533636E+02  0.82057032505E+02  0.15379200006E+03  0.00000000000E+00 0. -1.
         22    1    3    3    0    0  0.48528746669E+02  0.51274724905E+02 -0.12782313026E+02  0.71746248638E+02  0.00000000000E+00 0. -1.
</event>
<event>
 7    1  0.7527776E-006  0.1227641E+03  0.7818608E-02  0.1326198E+00
          2   -1    0    0  502    0  0.00000000000E+00  0.00000000000E+00  0.41502649352E+03  0.41502649352E+03  0.00000000000E+00 0. -1.
          1   -1    0    0  501    0 -0.00000000000E+00 -0.00000000000E+00 -0.85116168108E+03  0.85116168108E+03  0.00000000000E+00 0. -1.
         25    2    1    2    0    0 -0.29635367998E+02 -0.12004991126E+03  0.93788724628E+02  0.19928334816E+03  0.12500916669E+03 0.  0.
          2    1    1    2  501    0 -0.48513733499E+02  0.22465073416E+02 -0.78289946218E+03  0.78472277255E+03  0.00000000000E+00 0. -1.
          1    1    1    2  502    0  0.78149101497E+02  0.97584837841E+02  0.25297555000E+03  0.28218205389E+03  0.00000000000E+00 0. -1.
         22    1    3    3    0    0 -0.78988012287E+02 -0.72263926481E+02  0.54176623361E+02  0.11998453098E+03  0.00000000000E+00 0. -1.
         22    1    3    3    0    0  0.49352644289E+02 -0.47785984776E+02  0.39612101267E+02  0.79298817180E+02  0.00000000000E+00 0. -1.
</event>
<event>
 7    1  0.7527776E-006  0.1582651E+03  0.7818608E-02  0.1275110E+00
          2   -1    0    0  502    0  0.00000000000E+00  0.00000000000E+00  0.22110551635E+04  0.22110551635E+04  0.00000000000E+00 0. -1.
          1   -1    0    0  501    0 -0.00000000000E+00 -0.00000000000E+00 -0.77678042234E+02  0.77678042234E+02  0.00000000000E+00 0. -1.
         25    2    1    2    0    0  0.45122771188E+02  0.11943933711E+03  0.25664779974E+03  0.31272046225E+03  0.12499669862E+03 0.  0.
          2    1    1    2  501    0 -0.10781153720E+03 -0.14130661221E+03  0.11210325414E+03  0.21013811125E+03  0.00000000000E+00 0. -1.
          1    1    1    2  502    0  0.62688766017E+02  0.21867275108E+02  0.17646260674E+04  0.17658746323E+04  0.00000000000E+00 0. -1.
         22    1    3    3    0    0  0.45715317125E+02 -0.60711904272E+01  0.11251216570E+03  0.12159661592E+03  0.00000000000E+00 0. -1.
         22    1    3    3    0    0 -0.59254593760E+00  0.12551052753E+03  0.14413563404E+03  0.19112384632E+03  0.00000000000E+00 0. -1.
</event>
<event>
 7    1  0.7527776E-006  0.4397996E+02  0.7818608E-02  0.1587998E+00
          2   -1    0    0  502    0  0.00000000000E+00  0.00000000000E+00  0.50090746747E+02  0.50090746747E+02  0.00000000000E+00 0. -1.
          1   -1    0    0  501    0 -0.00000000000E+00 -0.00000000000E+00 -0.13498151584E+04  0.13498151584E+04  0.00000000000E+00 0. -1.
         25    2    1    2    0    0  0.47185904647E+02  0.14791353189E+02 -0.32555735900E+03  0.35221855059E+03  0.12500007859E+03 0.  0.
          2    1    1    2  501    0 -0.43453034188E+02  0.66425696915E+01 -0.10071861084E+04  0.10081449037E+04  0.00000000000E+00 0. -1.
          1    1    1    2  502    0 -0.37328704591E+01 -0.21433922880E+02  0.33019055787E+02  0.39542450822E+02  0.00000000000E+00 0. -1.
         22    1    3    3    0    0 -0.85811865201E+01  0.55559112604E+02 -0.21175942665E+03  0.21909474327E+03  0.00000000000E+00 0. -1.
         22    1    3    3    0    0  0.55767091167E+02 -0.40767759415E+02 -0.11379793236E+03  0.13312380732E+03  0.00000000000E+00 0. -1.
</event>
<event>
 7    1  0.7527776E-006  0.7892851E+02  0.7818608E-02  0.1416368E+00
          2   -1    0    0  502    0  0.00000000000E+00  0.00000000000E+00  0.35753020148E+02  0.35753020148E+02  0.00000000000E+00 0. -1.
          1   -1    0    0  501    0 -0.00000000000E+00 -0.00000000000E+00 -0.16886459129E+04  0.16886459129E+04  0.00000000000E+00 0. -1.
         25    2    1    2    0    0  0.31240499392E+02  0.56768900789E+02 -0.18514633898E+03  0.23260093077E+03  0.12500139703E+03 0.  0.
          2    1    1    2  501    0 -0.67904759619E+02 -0.42222531621E+02 -0.14430421591E+04  0.14452558499E+04  0.00000000000E+00 0. -1.
          1    1    1    2  502    0  0.36664260227E+02 -0.14546369168E+02 -0.24704394596E+02  0.46542152360E+02  0.00000000000E+00 0. -1.
         22    1    3    3    0    0  0.29132751279E+02  0.38819331663E+02 -0.20118187600E+01  0.48576796133E+02  0.00000000000E+00 0.  1.
         22    1    3    3    0    0  0.21077481138E+01  0.17949569126E+02 -0.18313452022E+03  0.18402413464E+03  0.00000000000E+00 0.  1.
</event>
<event>
 7    1  0.7527776E-006  0.9090411E+02  0.7818608E-02  0.1451565E+00
          2   -1    0    0  502    0  0.00000000000E+00  0.00000000000E+00  0.47847375616E+03  0.47847375616E+03  0.00000000000E+00 0. -1.
          1   -1    0    0  501    0 -0.00000000000E+00 -0.00000000000E+00 -0.92786869518E+03  0.92786869518E+03  0.00000000000E+00 0. -1.
         25    2    1    2    0    0 -0.51040706766E+02 -0.43720572027E+02 -0.14189185243E+03  0.20067984952E+03  0.12498984780E+03 0.  0.
          2    1    1    2  501    0 -0.10504944709E+02 -0.24074347106E+02 -0.75168373548E+03  0.75214251724E+03  0.00000000000E+00 0. -1.
          1    1    1    2  502    0  0.61545651475E+02  0.67794919134E+02  0.44418064889E+03  0.45352008458E+03  0.00000000000E+00 0. -1.
         22    1    3    3    0    0  0.17131823604E+02  0.22252885431E+02 -0.86229861769E+02  0.90687812581E+02  0.00000000000E+00 0.  1.
         22    1    3    3    0    0 -0.68172530370E+02 -0.65973457458E+02 -0.55661990664E+02  0.10999203694E+03  0.00000000000E+00 0.  1.
</event>
<event>
 7    1  0.7527776E-006  0.1871660E+03  0.7818608E-02  0.1252420E+00
          2   -1    0    0  502    0  0.00000000000E+00  0.00000000000E+00  0.21950026305E+04  0.21950026305E+04  0.00000000000E+00 0. -1.
          1   -1    0    0  501    0 -0.00000000000E+00 -0.00000000000E+00 -0.59160692887E+03  0.59160692887E+03  0.00000000000E+00 0. -1.
         25    2    1    2    0    0 -0.22623397998E+03 -0.69134302239E+02  0.47764504043E+03  0.54747659782E+03  0.12499790024E+03 0.  0.
          2    1    1    2  501    0  0.46105957726E+02  0.52765976728E+02 -0.54959917514E+03  0.55404806737E+03  0.00000000000E+00 0. -1.
          1    1    1    2  502    0  0.18012802225E+03  0.16368325511E+02  0.16753498363E+04  0.16850848941E+04  0.00000000000E+00 0. -1.
         22    1    3    3    0    0 -0.18559651816E+03 -0.71325647247E+01  0.39479192632E+03  0.43629990388E+03  0.00000000000E+00 0. -1.
         22    1    3    3    0    0 -0.40637461813E+02 -0.62001737514E+02  0.82853114113E+02  0.11117669394E+03  0.00000000000E+00 0. -1.
</event>
<event>
 7    1  0.7527776E-006  0.4630245E+02  0.7818608E-02  0.1505406E+00
          2   -1    0    0  502    0  0.00000000000E+00  0.00000000000E+00  0.79584671214E+02  0.79584671214E+02  0.00000000000E+00 0. -1.
          1   -1    0    0  501    0 -0.00000000000E+00 -0.00000000000E+00 -0.31044715922E+03  0.31044715922E+03  0.00000000000E+00 0. -1.
         25    2    1    2    0    0  0.43244471450E+02 -0.49652569290E+02 -0.13328183825E+03  0.19422636104E+03  0.12499747585E+03 0.  0.
          2    1    1    2  501    0 -0.42514640271E+02  0.14438418641E+02 -0.13627507583E+03  0.14348121432E+03  0.00000000000E+00 0. -1.
          1    1    1    2  502    0 -0.72983117883E+00  0.35214150649E+02  0.38694426075E+02  0.52324255071E+02  0.00000000000E+00 0. -1.
         22    1    3    3    0    0  0.42118552530E+02 -0.21785717291E+00  0.94549215075E+01  0.43167296298E+02  0.00000000000E+00 0. -1.
         22    1    3    3    0    0  0.11259189198E+01 -0.49434712117E+02 -0.14273675976E+03  0.15105906475E+03  0.00000000000E+00 0. -1.
</event>
<event>
 7    1  0.7527776E-006  0.4263772E+03  0.7818608E-02  0.1231980E+00
          2   -1    0    0  502    0  0.00000000000E+00  0.00000000000E+00  0.17006460488E+04  0.17006460488E+04  0.00000000000E+00 0. -1.
          1   -1    0    0  501    0 -0.00000000000E+00 -0.00000000000E+00 -0.19034079982E+04  0.19034079982E+04  0.00000000000E+00 0. -1.
         25    2    1    2    0    0  0.38281911370E+03 -0.19485965213E+03  0.83020515653E+03  0.94307149505E+03  0.12498993961E+03 0.  0.
          2    1    1    2  501    0 -0.36145570050E+03  0.22607601890E+03 -0.18219131714E+04  0.18711301916E+04  0.00000000000E+00 0. -1.
          1    1    1    2  502    0 -0.21363413197E+02 -0.31216366766E+02  0.78894606544E+03  0.78985236036E+03  0.00000000000E+00 0. -1.
         22    1    3    3    0    0  0.10875529275E+03 -0.10488494137E+03  0.20629996139E+03  0.25571124085E+03  0.00000000000E+00 0.  1.
         22    1    3    3    0    0  0.27406382095E+03 -0.89974710763E+02  0.62390519514E+03  0.68736025420E+03  0.00000000000E+00 0.  1.
</event>
<event>
 7    1  0.7527776E-006  0.7631476E+02  0.7818608E-02  0.1365470E+00
          2   -1    0    0  502    0  0.00000000000E+00  0.00000000000E+00  0.11833002639E+03  0.11833002639E+03  0.00000000000E+00 0. -1.
          1   -1    0    0  501    0 -0.00000000000E+00 -0.00000000000E+00 -0.20633200980E+04  0.20633200980E+04  0.00000000000E+00 0. -1.
         25    2    1    2    0    0 -0.31796038731E+02 -0.10923901119E+01 -0.72383969424E+03  0.73524207695E+03  0.12499930944E+03 0.  0.
          2    1    1    2  501    0  0.81329823750E+02 -0.35159826154E+02 -0.13238234917E+04  0.13267853597E+04  0.00000000000E+00 0. -1.
          1    1    1    2  502    0 -0.49533785019E+02  0.36252216266E+02  0.10267311426E+03  0.11962268779E+03  0.00000000000E+00 0. -1.
         22    1    3    3    0    0 -0.49707554254E+02 -0.12794438139E+02 -0.70460400592E+03  0.70647104948E+03  0.00000000000E+00 0. -1.
         22    1    3    3    0    0  0.17911515523E+02  0.11702048027E+02 -0.19235688324E+02  0.28771027469E+02  0.00000000000E+00 0. -1.
</event>
<event>
 7    1  0.7527776E-006  0.6782622E+02  0.7818608E-02  0.1477532E+00
          2   -1    0    0  502    0  0.00000000000E+00  0.00000000000E+00  0.15654409968E+03  0.15654409968E+03  0.00000000000E+00 0. -1.
          1   -1    0    0  501    0 -0.00000000000E+00 -0.00000000000E+00 -0.21662389935E+04  0.21662389935E+04  0.00000000000E+00 0. -1.
         25    2    1    2    0    0 -0.57225036365E+02 -0.27889396844E+02 -0.21953751005E+03  0.26052005393E+03  0.12498582696E+03 0.  0.
          2    1    1    2  501    0  0.68119004773E+02  0.81207093167E+00 -0.19240351115E+04  0.19252407560E+04  0.00000000000E+00 0. -1.
          1    1    1    2  502    0 -0.10893968408E+02  0.27077325912E+02  0.13387772773E+03  0.13702228325E+03  0.00000000000E+00 0. -1.
         22    1    3    3    0    0 -0.16809897256E+02 -0.79044724723E+01  0.13626018645E+02  0.23037398180E+02  0.00000000000E+00 0. -1.
         22    1    3    3    0    0 -0.40415139110E+02 -0.19984924372E+02 -0.23316352869E+03  0.23748265575E+03  0.00000000000E+00 0. -1.
</event>
<event>
 7    1  0.7527776E-006  0.8919861E+02  0.7818608E-02  0.1400775E+00
          2   -1    0    0  502    0  0.00000000000E+00  0.00000000000E+00  0.94549929139E+03  0.94549929139E+03  0.00000000000E+00 0. -1.
          1   -1    0    0  501    0 -0.00000000000E+00 -0.00000000000E+00 -0.12868568370E+04  0.12868568370E+04  0.00000000000E+00 0. -1.
         25    2    1    2    0    0  0.30781843611E+02 -0.90161584528E+02 -0.11227885435E+03  0.19315333802E+03  0.12500015052E+03 0.  0.
          2    1    1    2  501    0 -0.61172638275E+02  0.65041299276E+02 -0.11319524326E+04  0.11354685253E+04  0.00000000000E+00 0. -1.
          1    1    1    2  502    0  0.30390794664E+02  0.25120285253E+02  0.90287374132E+03  0.90373426509E+03  0.00000000000E+00 0. -1.
         22    1    3    3    0    0 -0.11639590888E+02 -0.10827118295E+02  0.24640151903E+02  0.29323090772E+02  0.00000000000E+00 0.  1.
         22    1    3    3    0    0  0.42421434499E+02 -0.79334466233E+02 -0.13691900626E+03  0.16383024724E+03  0.00000000000E+00 0.  1.
</event>
<event>
 7    1  0.7527776E-006  0.8148874E+02  0.7818608E-02  0.1370033E+00
          2   -1    0    0  502    0  0.00000000000E+00  0.00000000000E+00  0.12692050642E+04  0.12692050642E+04  0.00000000000E+00 0. -1.
          1   -1    0    0  501    0 -0.00000000000E+00 -0.00000000000E+00 -0.59896630330E+03  0.59896630330E+03  0.00000000000E+00 0. -1.
         25    2    1    2    0    0  0.39643969023E+02 -0.11417629372E+03 -0.42248561685E+03  0.45686406328E+03  0.12499122185E+03 0.  0.
          2    1    1    2  501    0  0.14514271141E+02  0.53410687340E+02 -0.15311511666E+03  0.16281156144E+03  0.00000000000E+00 0. -1.
          1    1    1    2  502    0 -0.54158240164E+02  0.60765606378E+02  0.12458394944E+04  0.12484957428E+04  0.00000000000E+00 0. -1.
         22    1    3    3    0    0  0.69868153196E+02 -0.58886723067E+02 -0.34550356131E+03  0.35738203069E+03  0.00000000000E+00 0.  1.
         22    1    3    3    0    0 -0.30224184173E+02 -0.55289570650E+02 -0.76982055545E+02  0.99482032586E+02  0.00000000000E+00 0.  1.
</event>
<event>
 7    1  0.1399932E-005  0.5479677E+02  0.7818608E-02  0.1428622E+00
          2   -1    0    0  502    0  0.00000000000E+00  0.00000000000E+00  0.64106988171E+03  0.64106988171E+03  0.00000000000E+00 0. -1.
          1   -1    0    0  501    0 -0.00000000000E+00 -0.00000000000E+00 -0.20082371902E+04  0.20082371902E+04  0.00000000000E+00 0. -1.
         25    2    1    2    0    0 -0.88795536696E+02  0.58690101901E+02 -0.89505189487E+03  0.90998478916E+03  0.12500098634E+03 0.  0.
          2    1    1    2  501    0  0.42678887539E+02 -0.29219287625E+02 -0.11039303611E+04  0.11051413921E+04  0.00000000000E+00 0. -1.
          1    1    1    2  502    0  0.46116649157E+02 -0.29470814277E+02  0.63181494752E+03  0.63418089070E+03  0.00000000000E+00 0. -1.
         22    1    3    3    0    0 -0.86252721365E+02  0.94510968989E+02 -0.67462951396E+03  0.68665627231E+03  0.00000000000E+00 0. -1.
         22    1    3    3    0    0 -0.25428153312E+01 -0.35820867087E+02 -0.22042238092E+03  0.22332851685E+03  0.00000000000E+00 0. -1.
</event>
<event>
 7    1  0.7527776E-006  0.6017213E+02  0.7818608E-02  0.1424141E+00
          2   -1    0    0  502    0  0.00000000000E+00  0.00000000000E+00  0.41109076896E+03  0.41109076896E+03  0.00000000000E+00 0. -1.
          1   -1    0    0  501    0 -0.00000000000E+00 -0.00000000000E+00 -0.11831963782E+04  0.11831963782E+04  0.00000000000E+00 0. -1.
         25    2    1    2    0    0 -0.61807934164E+02  0.78155415086E+02  0.49147281694E+02  0.16723929782E+03  0.12500015122E+03 0.  0.
          2    1    1    2  501    0  0.17791679749E+02 -0.57227015140E+02 -0.11213844816E+04  0.11229846975E+04  0.00000000000E+00 0. -1.
          1    1    1    2  502    0  0.44016254414E+02 -0.20928399946E+02  0.30013159070E+03  0.30406315185E+03  0.00000000000E+00 0. -1.
         22    1    3    3    0    0 -0.36948376557E+02 -0.30344973117E+02  0.75277745869E+01  0.48401108602E+02  0.00000000000E+00 0.  1.
         22    1    3    3    0    0 -0.24859557607E+02  0.10850038820E+03  0.41619507107E+02  0.11883818922E+03  0.00000000000E+00 0.  1.
</event>
<event>
 7    1  0.7527776E-006  0.2446240E+03  0.7818608E-02  0.1293030E+00
          2   -1    0    0  502    0  0.00000000000E+00  0.00000000000E+00  0.40487300148E+03  0.40487300148E+03  0.00000000000E+00 0. -1.
          1   -1    0    0  501    0 -0.00000000000E+00 -0.00000000000E+00 -0.31809385681E+03  0.31809385681E+03  0.00000000000E+00 0. -1.
         25    2    1    2    0    0 -0.20016704539E+03  0.79595034470E+02 -0.16591344945E+03  0.29925610024E+03  0.12499890100E+03 0.  0.
          2    1    1    2  501    0 -0.36001804197E+02  0.43245827053E+01 -0.29165237517E+02  0.46534320673E+02  0.00000000000E+00 0. -1.
          1    1    1    2  502    0  0.23616884958E+03 -0.83919617175E+02  0.28185783164E+03  0.37717643738E+03  0.00000000000E+00 0. -1.
         22    1    3    3    0    0 -0.35021900960E+02  0.25249780271E+02 -0.10750333813E+03  0.11584926698E+03  0.00000000000E+00 0. -1.
         22    1    3    3    0    0 -0.16514514443E+03  0.54345254199E+02 -0.58410111316E+02  0.18340683326E+03  0.00000000000E+00 0. -1.
</event>
<event>
 7    1  0.7527776E-006  0.5507629E+02  0.7818608E-02  0.1552038E+00
          2   -1    0    0  502    0  0.00000000000E+00  0.00000000000E+00  0.13456332039E+04  0.13456332039E+04  0.00000000000E+00 0. -1.
          1   -1    0    0  501    0 -0.00000000000E+00 -0.00000000000E+00 -0.10670485676E+03  0.10670485676E+03  0.00000000000E+00 0. -1.
         25    2    1    2    0    0  0.19783726664E+02  0.65850837664E+02  0.32027414371E+01  0.14270064554E+03  0.12500195208E+03 0.  0.
          2    1    1    2  501    0  0.97273704103E+01 -0.19460781173E+02 -0.33106055990E+02  0.39615081499E+02  0.00000000000E+00 0. -1.
          1    1    1    2  502    0 -0.29511097075E+02 -0.46390056490E+02  0.12688316617E+04  0.12700223336E+04  0.00000000000E+00 0. -1.
         22    1    3    3    0    0 -0.50646476362E+02  0.10820484314E+02 -0.87557157602E+01  0.52524384882E+02  0.00000000000E+00 0.  1.
         22    1    3    3    0    0  0.70430203027E+02  0.55030353350E+02  0.11958457197E+02  0.90176260661E+02  0.00000000000E+00 0.  1.
</event>
<event>
 7    1  0.7527776E-006  0.1349662E+03  0.7818608E-02  0.1379247E+00
          2   -1    0    0  502    0  0.00000000000E+00  0.00000000000E+00  0.79088545599E+03  0.79088545599E+03  0.00000000000E+00 0. -1.
          1   -1    0    0  501    0 -0.00000000000E+00 -0.00000000000E+00 -0.13115832944E+04  0.13115832944E+04  0.00000000000E+00 0. -1.
         25    2    1    2    0    0 -0.98646715876E+02 -0.85542250123E+02 -0.62214424309E+03  0.64787088429E+03  0.12499828955E+03 0.  0.
          2    1    1    2  501    0 -0.20944839294E+02  0.22826377061E+02 -0.67035576375E+03  0.67107121811E+03  0.00000000000E+00 0. -1.
          1    1    1    2  502    0  0.11959155517E+03  0.62715873061E+02  0.77180216846E+03  0.78352664795E+03  0.00000000000E+00 0. -1.
         22    1    3    3    0    0  0.16346268172E+02 -0.38869048181E+02 -0.29462697284E+03  0.29762905858E+03  0.00000000000E+00 0.  1.
         22    1    3    3    0    0 -0.11499298405E+03 -0.46673201942E+02 -0.32751727025E+03  0.35024182571E+03  0.00000000000E+00 0.  1.
</event>
<event>
 7    1  0.7527776E-006  0.6730462E+02  0.7818608E-02  0.1399974E+00
          2   -1    0    0  502    0  0.00000000000E+00  0.00000000000E+00  0.46029462871E+03  0.46029462871E+03  0.00000000000E+00 0. -1.
          1   -1    0    0  501    0 -0.00000000000E+00 -0.00000000000E+00 -0.24217746502E+03  0.24217746502E+03  0.00000000000E+00 0. -1.
         25    2    1    2    0    0 -0.21461673365E+02  0.11231268470E+02  0.26259441414E+03  0.29183332039E+03  0.12499646291E+03 0.  0.
          2    1    1    2  501    0  0.66240710454E+02  0.16341086939E+02 -0.21846857026E+03  0.22887415546E+03  0.00000000000E+00 0. -1.
          1    1    1    2  502    0 -0.44779037089E+02 -0.27572355409E+02  0.17399131981E+03  0.18176461788E+03  0.00000000000E+00 0. -1.
         22    1    3    3    0    0  0.11384232514E+02  0.55986470068E+02  0.64769125921E+02  0.86366227503E+02  0.00000000000E+00 0.  1.
         22    1    3    3    0    0 -0.32845905879E+02 -0.44755201597E+02  0.19782528821E+03  0.20546709289E+03  0.00000000000E+00 0.  1.
</event>
<event>
 7    1  0.7527776E-006  0.7325343E+02  0.7818608E-02  0.1432232E+00
          2   -1    0    0  502    0  0.00000000000E+00  0.00000000000E+00  0.52882604684E+03  0.52882604684E+03  0.00000000000E+00 0. -1.
          1   -1    0    0  501    0 -0.00000000000E+00 -0.00000000000E+00 -0.60332726975E+03  0.60332726975E+03  0.00000000000E+00 0. -1.
         25    2    1    2    0    0  0.88756918723E+02 -0.25599133732E+01 -0.40473479815E+03  0.43280442836E+03  0.12500029041E+03 0.  0.
          2    1    1    2  501    0 -0.63460650312E+02 -0.25322195955E+02 -0.17751293791E+03  0.19020859831E+03  0.00000000000E+00 0. -1.
          1    1    1    2  502    0 -0.25296268411E+02  0.27882109329E+02  0.50774651314E+03  0.50914028992E+03  0.00000000000E+00 0. -1.
         22    1    3    3    0    0  0.53976043125E+02  0.51890734927E+02 -0.12503371399E+03  0.14573774815E+03  0.00000000000E+00 0. -1.
         22    1    3    3    0    0  0.34780875597E+02 -0.54450648300E+02 -0.27970108416E+03  0.28706668021E+03  0.00000000000E+00 0. -1.
</event>
<event>
 7    1  0.7527776E-006  0.1141172E+03  0.7818608E-02  0.1456432E+00
          2   -1    0    0  502    0  0.00000000000E+00  0.00000000000E+00  0.57952788289E+02  0.57952788289E+02  0.00000000000E+00 0. -1.
          1   -1    0    0  501    0 -0.00000000000E+00 -0.00000000000E+00 -0.11996421437E+04  0.11996421437E+04  0.00000000000E+00 0. -1.
         25    2    1    2    0    0  0.58385578210E+01 -0.12116636433E+03 -0.13181793097E+03  0.21844294410E+03  0.12500390514E+03 0.  0.
          2    1    1    2  501    0  0.12622821581E+02  0.11299093053E+03 -0.10124354757E+04  0.10187992336E+04  0.00000000000E+00 0. -1.
          1    1    1    2  502    0 -0.18461379402E+02  0.81754338017E+01  0.25640512444E+01  0.20352754262E+02  0.00000000000E+00 0. -1.
         22    1    3    3    0    0  0.19364327231E+02 -0.62078078785E+02 -0.14273595198E+03  0.15685093886E+03  0.00000000000E+00 0.  1.
         22    1    3    3    0    0 -0.13525769410E+02 -0.59088285544E+02  0.10918021009E+02  0.61592005240E+02  0.00000000000E+00 0.  1.
</event>
<event>
 7    1  0.7527776E-006  0.2005752E+03  0.7818608E-02  0.1202409E+00
          2   -1    0    0  502    0  0.00000000000E+00  0.00000000000E+00  0.15108103878E+04  0.15108103878E+04  0.00000000000E+00 0. -1.
          1   -1    0    0  501    0 -0.00000000000E+00 -0.00000000000E+00 -0.12468305397E+03  0.12468305397E+03  0.00000000000E+00 0. -1.
         25    2    1    2    0    0  0.28933390989E+03  0.54482070310E+02  0.44420084810E+03  0.54737977201E+03  0.12501125535E+03 0.  0.
          2    1    1    2  501    0 -0.10805817835E+03 -0.19752545672E+02 -0.17377689181E+02  0.11121473396E+03  0.00000000000E+00 0. -1.
          1    1    1    2  502    0 -0.18127573154E+03 -0.34729524638E+02  0.95930417492E+03  0.97689893578E+03  0.00000000000E+00 0. -1.
         22    1    3    3    0    0  0.27427318303E+03  0.22123358433E+02  0.42644786089E+03  0.50751650217E+03  0.00000000000E+00 0. -1.
         22    1    3    3    0    0  0.15060726856E+02  0.32358711878E+02  0.17752987207E+02  0.39863269843E+02  0.00000000000E+00 0. -1.
</event>
<event>
 7    1  0.7527776E-006  0.9140571E+02  0.7818608E-02  0.1410619E+00
          2   -1    0    0  502    0  0.00000000000E+00  0.00000000000E+00  0.23649511919E+04  0.23649511919E+04  0.00000000000E+00 0. -1.
          1   -1    0    0  501    0 -0.00000000000E+00 -0.00000000000E+00 -0.12474521089E+03  0.12474521089E+03  0.00000000000E+00 0. -1.
         25    2    1    2    0    0 -0.78581177747E+02 -0.50941101557E+02  0.82213234827E+02  0.17648520566E+03  0.12497205493E+03 0.  0.
          2    1    1    2  501    0  0.90481797444E+02  0.17373622988E+02 -0.50070252690E+02  0.10486099680E+03  0.00000000000E+00 0. -1.
          1    1    1    2  502    0 -0.11900619697E+02  0.33567478569E+02  0.22080629989E+04  0.22083502004E+04  0.00000000000E+00 0. -1.
         22    1    3    3    0    0  0.32580994537E+02 -0.20381988577E+02  0.34745843534E+02  0.51809461551E+02  0.00000000000E+00 0.  1.
         22    1    3    3    0    0 -0.11116217228E+03 -0.30559112980E+02  0.47467391293E+02  0.12467574411E+03  0.00000000000E+00 0.  1.
</event>
<event>
 7    1  0.7527776E-006  0.6586175E+02  0.7818608E-02  0.1417032E+00
          2   -1    0    0  502    0  0.00000000000E+00  0.00000000000E+00  0.64159797573E+03  0.64159797573E+03  0.00000000000E+00 0. -1.
          1   -1    0    0  501    0 -0.00000000000E+00 -0.00000000000E+00 -0.10284880796E+04  0.10284880796E+04  0.00000000000E+00 0. -1.
         25    2    1    2    0    0 -0.94117789891E+01  0.25288875285E+02 -0.32428266248E+03  0.34858574849E+03  0.12499868025E+03 0.  0.
          2    1    1    2  501    0 -0.45665314760E+02  0.11238930562E+02 -0.68951594977E+03  0.69111784778E+03  0.00000000000E+00 0. -1.
          1    1    1    2  502    0  0.55077093749E+02 -0.36527805848E+02  0.62690850837E+03  0.63038245908E+03  0.00000000000E+00 0. -1.
         22    1    3    3    0    0  0.24547988637E+02 -0.94673256219E+01 -0.28469582203E+03  0.28590898042E+03  0.00000000000E+00 0. -1.
         22    1    3    3    0    0 -0.33959767626E+02  0.34756200907E+02 -0.39586840451E+02  0.62676768069E+02  0.00000000000E+00 0. -1.
</event>
<event>
 7    1  0.7527776E-006  0.6365909E+02  0.7818608E-02  0.1491067E+00
          2   -1    0    0  502    0  0.00000000000E+00  0.00000000000E+00  0.51041908001E+03  0.51041908001E+03  0.00000000000E+00 0. -1.
          1   -1    0    0  501    0 -0.00000000000E+00 -0.00000000000E+00 -0.15329621270E+03  0.15329621270E+03  0.00000000000E+00 0. -1.
         25    2    1    2    0    0 -0.43841303672E+02  0.65307701734E+02  0.33503167933E+03  0.36613988156E+03  0.12500012360E+03 0.  0.
          2    1    1    2  501    0  0.15830704005E+02 -0.61428358358E+02 -0.12905707594E+03  0.14380467048E+03  0.00000000000E+00 0. -1.
          1    1    1    2  502    0  0.28010599667E+02 -0.38793433760E+01  0.15114826393E+03  0.15377074068E+03  0.00000000000E+00 0. -1.
         22    1    3    3    0    0  0.21768499497E+02 -0.26417170682E+02  0.93748040002E+02  0.99801951291E+02  0.00000000000E+00 0. -1.
         22    1    3    3    0    0 -0.65609803169E+02  0.91724872416E+02  0.24128363933E+03  0.26633793027E+03  0.00000000000E+00 0. -1.
</event>
<event>
 7    1  0.7527776E-006  0.1060528E+03  0.7818608E-02  0.1307606E+00
          2   -1    0    0  502    0  0.00000000000E+00  0.00000000000E+00  0.18609669046E+03  0.18609669046E+03  0.00000000000E+00 0. -1.
          1   -1    0    0  501    0 -0.00000000000E+00 -0.00000000000E+00 -0.84766230760E+03  0.84766230760E+03  0.00000000000E+00 0. -1.
         25    2    1    2    0    0 -0.67740245403E+02 -0.14421403871E+03 -0.16495059720E+03  0.26119122504E+03  0.12500290682E+03 0.  0.
          2    1    1    2  501    0 -0.53055659777E+01  0.72935811659E+02 -0.61324376341E+03  0.61758861309E+03  0.00000000000E+00 0. -1.
          1    1    1    2  502    0  0.73045811381E+02  0.71278227047E+02  0.11662874347E+03  0.15497915994E+03  0.00000000000E+00 0. -1.
         22    1    3    3    0    0  0.33250803228E+02 -0.52849166665E+02 -0.29296256300E+02  0.68970435446E+02  0.00000000000E+00 0. -1.
         22    1    3    3    0    0 -0.10099104863E+03 -0.91364872041E+02 -0.13565434090E+03  0.19222078959E+03  0.00000000000E+00 0. -1.
</event>
<event>
 7    1  0.7527776E-006  0.1191041E+03  0.7818608E-02  0.1360096E+00
          2   -1    0    0  502    0  0.00000000000E+00  0.00000000000E+00  0.12193882648E+04  0.12193882648E+04  0.00000000000E+00 0. -1.
          1   -1    0    0  501    0 -0.00000000000E+00 -0.00000000000E+00 -0.32578011899E+02  0.32578011899E+02  0.00000000000E+00 0. -1.
         25    2    1    2    0    0 -0.96360953468E+02 -0.71741770334E+02  0.91746393850E+03  0.93370123272E+03  0.12500239421E+03 0.  0.
          2    1    1    2  501    0  0.66425995868E+02  0.99961249119E+02  0.15047973318E+03  0.19248068566E+03  0.00000000000E+00 0. -1.
          1    1    1    2  502    0  0.29934957600E+02 -0.28219478785E+02  0.11886658121E+03  0.12578435832E+03  0.00000000000E+00 0. -1.
         22    1    3    3    0    0 -0.66166618842E+02 -0.45693739982E+02  0.86002959176E+03  0.86378054969E+03  0.00000000000E+00 0.  1.
         22    1    3    3    0    0 -0.30194334626E+02 -0.26048030352E+02  0.57434346739E+02  0.69920683021E+02  0.00000000000E+00 0.  1.
</event>
<event>
 7    1  0.7527776E-006  0.7805241E+02  0.7818608E-02  0.1367714E+00
          2   -1    0    0  502    0  0.00000000000E+00  0.00000000000E+00  0.16166880002E+04  0.16166880002E+04  0.00000000000E+00 0. -1.
          1   -1    0    0  501    0 -0.00000000000E+00 -0.00000000000E+00 -0.54390309993E+02  0.54390309993E+02  0.00000000000E+00 0. -1.
         25    2    1    2    0    0 -0.77131133086E+02 -0.57043227170E+02  0.35935573507E+03  0.39238325004E+03  0.12499971650E+03 0.  0.
          2    1    1    2  501    0  0.78042672086E+02 -0.18556833735E+01  0.38526597021E+01  0.78159741644E+02  0.00000000000E+00 0. -1.
          1    1    1    2  502    0 -0.91153899948E+00  0.58898910544E+02  0.11990892955E+04  0.12005353185E+04  0.00000000000E+00 0. -1.
         22    1    3    3    0    0 -0.95717250660E+02 -0.68140658640E+02  0.34926787515E+03  0.36850100413E+03  0.00000000000E+00 0. -1.
         22    1    3    3    0    0  0.18586117574E+02  0.11097431470E+02  0.10087859917E+02  0.23882245903E+02  0.00000000000E+00 0. -1.
</event>
<event>
 7    1  0.7527776E-006  0.5745217E+02  0.7818608E-02  0.1410534E+00
          2   -1    0    0  502    0  0.00000000000E+00  0.00000000000E+00  0.18242025606E+04  0.18242025606E+04  0.00000000000E+00 0. -1.
          1   -1    0    0  501    0 -0.00000000000E+00 -0.00000000000E+00 -0.55238466173E+02  0.55238466173E+02  0.00000000000E+00 0. -1.
         25    2    1    2    0    0  0.18324717280E+02 -0.20820075189E+02  0.10314924127E+04  0.10394092652E+04  0.12500300983E+03 0.  0.
          2    1    1    2  501    0 -0.25832452535E+02 -0.51317016350E+02 -0.32932251061E+02  0.66221483908E+02  0.00000000000E+00 0. -1.
          1    1    1    2  502    0  0.75077352546E+01  0.72137091539E+02  0.77040393277E+03  0.77381027758E+03  0.00000000000E+00 0. -1.
         22    1    3    3    0    0 -0.18883654845E+02  0.13358562856E+00  0.91728818956E+03  0.91748255186E+03  0.00000000000E+00 0.  1.
         22    1    3    3    0    0  0.37208372125E+02 -0.20953660818E+02  0.11420422312E+03  0.12192671338E+03  0.00000000000E+00 0.  1.
</event>
<event>
 7    1  0.7527776E-006  0.5870023E+02  0.7818608E-02  0.1454016E+00
          2   -1    0    0  502    0  0.00000000000E+00  0.00000000000E+00  0.90769317724E+03  0.90769317724E+03  0.00000000000E+00 0. -1.
          1   -1    0    0  501    0 -0.00000000000E+00 -0.00000000000E+00 -0.25305505860E+03  0.25305505860E+03  0.00000000000E+00 0. -1.
         25    2    1    2    0    0 -0.48449533581E+02  0.20680380150E+02  0.16052332020E+02  0.13659355291E+03  0.12500034363E+03 0.  0.
          2    1    1    2  501    0  0.26124798062E+02 -0.53812506616E+02 -0.18764985590E+03  0.19695369852E+03  0.00000000000E+00 0. -1.
          1    1    1    2  502    0  0.22324735519E+02  0.33132126466E+02  0.82623564252E+03  0.82720098440E+03  0.00000000000E+00 0. -1.
         22    1    3    3    0    0  0.39364446779E+02  0.71476584936E+01 -0.14622986602E+02  0.42596718528E+02  0.00000000000E+00 0.  1.
         22    1    3    3    0    0 -0.87813980360E+02  0.13532721656E+02  0.30675318622E+02  0.93996834387E+02  0.00000000000E+00 0.  1.
</event>
<event>
 7    1  0.7527776E-006  0.7363960E+02  0.7818608E-02  0.1499498E+00
          2   -1    0    0  502    0  0.00000000000E+00  0.00000000000E+00  0.12050892183E+04  0.12050892183E+04  0.00000000000E+00 0. -1.
          1   -1    0    0  501    0 -0.00000000000E+00 -0.00000000000E+00 -0.81327539970E+03  0.81327539970E+03  0.00000000000E+00 0. -1.
         25    2    1    2    0    0 -0.56156632574E+02  0.32578275461E+02 -0.19443428231E+02  0.14218905705E+03  0.12499907851E+03 0.  0.
          2    1    1    2  501    0  0.72234412665E+02 -0.16046310387E+02 -0.73047362024E+03  0.73421182523E+03  0.00000000000E+00 0. -1.
          1    1    1    2  502    0 -0.16077780091E+02 -0.16531965073E+02  0.11417308670E+04  0.11419637357E+04  0.00000000000E+00 0. -1.
         22    1    3    3    0    0  0.30757439565E+02 -0.16277073702E+02 -0.24176122358E+02  0.42372728366E+02  0.00000000000E+00 0.  1.
         22    1    3    3    0    0 -0.86914072139E+02  0.48855349163E+02  0.47326941275E+01  0.99816328681E+02  0.00000000000E+00 0.  1.
</event>
<event>
 7    1  0.7527776E-006  0.6919462E+02  0.7818608E-02  0.1475961E+00
          2   -1    0    0  502    0  0.00000000000E+00  0.00000000000E+00  0.24965426455E+03  0.24965426455E+03  0.00000000000E+00 0. -1.
          1   -1    0    0  501    0 -0.00000000000E+00 -0.00000000000E+00 -0.11286191219E+03  0.11286191219E+03  0.00000000000E+00 0. -1.
         25    2    1    2    0    0  0.55183899793E+02  0.13236357740E+02  0.11279168250E+03  0.17766450752E+03  0.12498899803E+03 0.  0.
          2    1    1    2  501    0 -0.57220423338E+02 -0.42094787375E+02 -0.61892717599E+02  0.94217070974E+02  0.00000000000E+00 0. -1.
          1    1    1    2  502    0  0.20365235452E+01  0.28858429635E+02  0.85893387460E+02  0.90634598242E+02  0.00000000000E+00 0. -1.
         22    1    3    3    0    0  0.65459183925E+02  0.57697935147E+02  0.94158081878E+02  0.12837328719E+03  0.00000000000E+00 0.  1.
         22    1    3    3    0    0 -0.10275284132E+02 -0.44461577407E+02  0.18633600625E+02  0.49291220331E+02  0.00000000000E+00 0.  1.
</event>
<event>
 7    1  0.7527776E-006  0.3806014E+03  0.7818608E-02  0.1133674E+00
          2   -1    0    0  502    0  0.00000000000E+00  0.00000000000E+00  0.80220229977E+03  0.80220229977E+03  0.00000000000E+00 0. -1.
          1   -1    0    0  501    0 -0.00000000000E+00 -0.00000000000E+00 -0.19936552195E+04  0.19936552195E+04  0.00000000000E+00 0. -1.
         25    2    1    2    0    0  0.27794537859E+03 -0.62815973031E+01 -0.10548680919E+04  0.10980267016E+04  0.12499141611E+03 0.  0.
          2    1    1    2  501    0  0.97083955006E+02 -0.82636819238E+02 -0.86467169231E+03  0.87402017923E+03  0.00000000000E+00 0. -1.
          1    1    1    2  502    0 -0.37502933360E+03  0.88918416541E+02  0.72808686447E+03  0.82381063848E+03  0.00000000000E+00 0. -1.
         22    1    3    3    0    0  0.10804249264E+03  0.48562167102E+02 -0.54736977796E+03  0.56004030043E+03  0.00000000000E+00 0.  1.
         22    1    3    3    0    0  0.16990288595E+03 -0.54843764405E+02 -0.50749831394E+03  0.53798640113E+03  0.00000000000E+00 0.  1.
</event>
<event>
 7    1  0.7527776E-006  0.8103059E+02  0.7818608E-02  0.1336966E+00
          2   -1    0    0  502    0  0.00000000000E+00  0.00000000000E+00  0.43566960129E+03  0.43566960129E+03  0.00000000000E+00 0. -1.
          1   -1    0    0  501    0 -0.00000000000E+00 -0.00000000000E+00 -0.11034689020E+04  0.11034689020E+04  0.00000000000E+00 0. -1.
         25    2    1    2    0    0 -0.38326971131E+02  0.79647651563E+02 -0.16053802764E+02  0.15393362255E+03  0.12500052181E+03 0.  0.
          2    1    1    2  501    0  0.79494733556E+02 -0.18524500947E+02 -0.10131149251E+04  0.10163977672E+04  0.00000000000E+00 0. -1.
          1    1    1    2  502    0 -0.41167762426E+02 -0.61123150616E+02  0.36136942707E+03  0.36880711357E+03  0.00000000000E+00 0. -1.
         22    1    3    3    0    0 -0.69854483924E+02  0.56204387249E+02 -0.49430966312E+02  0.10238165119E+03  0.00000000000E+00 0.  1.
         22    1    3    3    0    0  0.31527512793E+02  0.23443264314E+02  0.33377163548E+02  0.51551971360E+02  0.00000000000E+00 0.  1.
</event>
<event>
 7    1  0.7527776E-006  0.1039327E+03  0.7818608E-02  0.1300145E+00
          2   -1    0    0  502    0  0.00000000000E+00  0.00000000000E+00  0.32000316733E+04  0.32000316733E+04  0.00000000000E+00 0. -1.
          1   -1    0    0  501    0 -0.00000000000E+00 -0.00000000000E+00 -0.40587266939E+03  0.40587266939E+03  0.00000000000E+00 0. -1.
         25    2    1    2    0    0 -0.76077897454E+00  0.17860887028E+03  0.47961420047E+03  0.52683792957E+03  0.12500686147E+03 0.  0.
          2    1    1    2  501    0 -0.18966790975E+02 -0.10118334542E+03 -0.37472569531E+03  0.38860925784E+03  0.00000000000E+00 0. -1.
          1    1    1    2  502    0  0.19727569949E+02 -0.77425524863E+02  0.26892704987E+04  0.26904571552E+04  0.00000000000E+00 0. -1.
         22    1    3    3    0    0  0.58682506302E+02  0.76627881491E+02  0.26297339454E+03  0.28012581995E+03  0.00000000000E+00 0. -1.
         22    1    3    3    0    0 -0.59443285276E+02  0.10198098879E+03  0.21664080593E+03  0.24671210962E+03  0.00000000000E+00 0. -1.
</event>
<event>
 7    1  0.7527776E-006  0.3204141E+03  0.7818608E-02  0.1247438E+00
          2   -1    0    0  502    0  0.00000000000E+00  0.00000000000E+00  0.31168393628E+04  0.31168393628E+04  0.00000000000E+00 0. -1.
          1   -1    0    0  501    0 -0.00000000000E+00 -0.00000000000E+00 -0.11170290339E+04  0.11170290339E+04  0.00000000000E+00 0. -1.
         25    2    1    2    0    0  0.16823929242E+03 -0.22500062451E+03 -0.20195917782E+03  0.36789037111E+03  0.12500430036E+03 0.  0.
          2    1    1    2  501    0  0.12097837686E+02 -0.41284195316E+02 -0.82301802602E+03  0.82414162231E+03  0.00000000000E+00 0. -1.
          1    1    1    2  502    0 -0.18033713011E+03  0.26628481982E+03  0.30247875327E+04  0.30418364032E+04  0.00000000000E+00 0. -1.
         22    1    3    3    0    0  0.81370193012E+02 -0.22885980804E+02 -0.79858481523E+02  0.11628522477E+03  0.00000000000E+00 0.  1.
         22    1    3    3    0    0  0.86869099409E+02 -0.20211464370E+03 -0.12210069630E+03  0.25160514635E+03  0.00000000000E+00 0.  1.
</event>
<event>
 7    1  0.7527776E-006  0.1875661E+03  0.7818608E-02  0.1287652E+00
          2   -1    0    0  502    0  0.00000000000E+00  0.00000000000E+00  0.10456580937E+04  0.10456580937E+04  0.00000000000E+00 0. -1.
          1   -1    0    0  501    0 -0.00000000000E+00 -0.00000000000E+00 -0.12138586937E+04  0.12138586937E+04  0.00000000000E+00 0. -1.
         25    2    1    2    0    0 -0.11699030599E+03  0.10797364616E+03 -0.85120869616E+02  0.21957957962E+03  0.12499835750E+03 0.  0.
          2    1    1    2  501    0  0.16543854461E+03 -0.96744983944E+02 -0.10522153600E+04  0.10695263755E+04  0.00000000000E+00 0. -1.
          1    1    1    2  502    0 -0.48448238624E+02 -0.11228662219E+02  0.96913562971E+03  0.97041083230E+03  0.00000000000E+00 0. -1.
         22    1    3    3    0    0 -0.12312948771E+02 -0.27706153009E+02 -0.63524730398E+01  0.30977306786E+02  0.00000000000E+00 0. -1.
         22    1    3    3    0    0 -0.10467735722E+03  0.13567979917E+03 -0.78768396576E+02  0.18860227283E+03  0.00000000000E+00 0. -1.
</event>
<event>
 7    1  0.7527776E-006  0.1364339E+03  0.7818608E-02  0.1314197E+00
          2   -1    0    0  502    0  0.00000000000E+00  0.00000000000E+00  0.81555261018E+03  0.81555261018E+03  0.00000000000E+00 0. -1.
          1   -1    0    0  501    0 -0.00000000000E+00 -0.00000000000E+00 -0.58576006671E+02  0.58576006671E+02  0.00000000000E+00 0. -1.
         25    2    1    2    0    0  0.48883575987E+02 -0.17026270503E+03  0.44117910772E+03  0.49157196251E+03  0.12499998606E+03 0.  0.
          2    1    1    2  501    0 -0.23882781334E+02  0.12290852218E+03  0.10007383105E+03  0.16028619319E+03  0.00000000000E+00 0. -1.
          1    1    1    2  502    0 -0.25000794653E+02  0.47354182856E+02  0.21572366475E+03  0.22227046115E+03  0.00000000000E+00 0. -1.
         22    1    3    3    0    0  0.44905059783E+02 -0.15052173963E+03  0.44424934574E+03  0.47120137912E+03  0.00000000000E+00 0. -1.
         22    1    3    3    0    0  0.39785162033E+01 -0.19740965407E+02 -0.30702380178E+01  0.20370583396E+02  0.00000000000E+00 0. -1.
</event>
<event>
 7    1  0.7527776E-006  0.8415297E+02  0.7818608E-02  0.1438925E+00
          2   -1    0    0  502    0  0.00000000000E+00  0.00000000000E+00  0.10786779697E+04  0.10786779697E+04  0.00000000000E+00 0. -1.
          1   -1    0    0  501    0 -0.00000000000E+00 -0.00000000000E+00 -0.27552946741E+02  0.27552946741E+02  0.00000000000E+00 0. -1.
         25    2    1    2    0    0 -0.55258525128E+02 -0.30656579222E+02  0.65188194587E+03  0.66675976402E+03  0.12500072445E+03 0.  0.
          2    1    1    2  501    0  0.84973292462E+02  0.21268850583E+02  0.79745529994E+02  0.11845747756E+03  0.00000000000E+00 0. -1.
          1    1    1    2  502    0 -0.29714767334E+02  0.93877286389E+01  0.31949754709E+03  0.32101367485E+03  0.00000000000E+00 0. -1.
         22    1    3    3    0    0 -0.57914730910E+02 -0.41972808396E+01  0.62900991775E+03  0.63168442267E+03  0.00000000000E+00 0.  1.
         22    1    3    3    0    0  0.26562057822E+01 -0.26459298382E+02  0.22872028125E+02  0.35075341347E+02  0.00000000000E+00 0.  1.
</event>
<event>
 7    1  0.7527776E-006  0.1041579E+03  0.7818608E-02  0.1309964E+00
          2   -1    0    0  502    0  0.00000000000E+00  0.00000000000E+00  0.26622659897E+04  0.26622659897E+04  0.00000000000E+00 0. -1.
          1   -1    0    0  501    0 -0.00000000000E+00 -0.00000000000E+00 -0.97649688469E+02  0.97649688469E+02  0.00000000000E+00 0. -1.
         25    2    1    2    0    0  0.12274040796E+03  0.75268402916E+02  0.10494790499E+04  0.10666597428E+04  0.12500476242E+03 0.  0.
          2    1    1    2  501    0 -0.51339893020E+02 -0.89876004128E+02 -0.57854009683E+02  0.11857726245E+03  0.00000000000E+00 0. -1.
          1    1    1    2  502    0 -0.71400514937E+02  0.14607601212E+02  0.15729912610E+04  0.15746786729E+04  0.00000000000E+00 0. -1.
         22    1    3    3    0    0  0.37296763764E+02  0.71736180656E+02  0.77402598304E+03  0.77823733566E+03  0.00000000000E+00 0.  1.
         22    1    3    3    0    0  0.85443644192E+02  0.35322222600E+01  0.27545306684E+03  0.28842240717E+03  0.00000000000E+00 0.  1.
</event>
<event>
 7    1  0.7527776E-006  0.5439232E+02  0.7818608E-02  0.1466831E+00
          2   -1    0    0  502    0  0.00000000000E+00  0.00000000000E+00  0.28892550042E+03  0.28892550042E+03  0.00000000000E+00 0. -1.
          1   -1    0    0  501    0 -0.00000000000E+00 -0.00000000000E+00 -0.14638582930E+04  0.14638582930E+04  0.00000000000E+00 0. -1.
         25    2    1    2    0    0 -0.16519811658E+00  0.16699004521E+02 -0.22644050150E+03  0.25918903806E+03  0.12499909075E+03 0.  0.
          2    1    1    2  501    0 -0.17274973091E+02  0.35283526456E+02 -0.12179660143E+04  0.12185994272E+04  0.00000000000E+00 0. -1.
          1    1    1    2  502    0  0.17440171208E+02 -0.51982530977E+02  0.26947372314E+03  0.27499532825E+03  0.00000000000E+00 0. -1.
         22    1    3    3    0    0 -0.51012727416E+01  0.19313077835E+02  0.10236885145E+02  0.22445751859E+02  0.00000000000E+00 0. -1.
         22    1    3    3    0    0  0.49360746250E+01 -0.26140733146E+01 -0.23667738664E+03  0.23674328620E+03  0.00000000000E+00 0. -1.
</event>
<event>
 7    1  0.7527776E-006  0.4569664E+02  0.7818608E-02  0.1508191E+00
          2   -1    0    0  502    0  0.00000000000E+00  0.00000000000E+00  0.43240895732E+03  0.43240895732E+03  0.00000000000E+00 0. -1.
          1   -1    0    0  501    0 -0.00000000000E+00 -0.00000000000E+00 -0.28367092135E+03  0.28367092135E+03  0.00000000000E+00 0. -1.
         25    2    1    2    0    0  0.32825806298E+02 -0.55342209999E+02  0.12818529556E+03  0.19025476745E+03  0.12500045108E+03 0.  0.
          2    1    1    2  501    0 -0.33486425368E+02  0.10244648185E+02 -0.24954371447E+03  0.25198880715E+03  0.00000000000E+00 0. -1.
          1    1    1    2  502    0  0.66061906973E+00  0.45097561814E+02  0.27009645487E+03  0.27383630408E+03  0.00000000000E+00 0. -1.
         22    1    3    3    0    0  0.53402735136E+02 -0.45505370731E+02  0.14555764721E+03  0.16158471322E+03  0.00000000000E+00 0. -1.
         22    1    3    3    0    0 -0.20576928838E+02 -0.98368392688E+01 -0.17372351650E+02  0.28670054222E+02  0.00000000000E+00 0. -1.
</event>
<event>
 7    1  0.7527776E-006  0.1575698E+03  0.7818608E-02  0.1303454E+00
          2   -1    0    0  502    0  0.00000000000E+00  0.00000000000E+00  0.12262758428E+04  0.12262758428E+04  0.00000000000E+00 0. -1.
          1   -1    0    0  501    0 -0.00000000000E+00 -0.00000000000E+00 -0.27081285748E+03  0.27081285748E+03  0.00000000000E+00 0. -1.
         25    2    1    2    0    0  0.82901851694E+02  0.93924261368E+02  0.10220433297E+01  0.17697561458E+03  0.12499935879E+03 0.  0.
          2    1    1    2  501    0 -0.96809557132E+02 -0.14311891913E+03 -0.14128434724E+03  0.22319583809E+03  0.00000000000E+00 0. -1.
          1    1    1    2  502    0  0.13907705439E+02  0.49194657763E+02  0.10957252892E+04  0.10969172476E+04  0.00000000000E+00 0. -1.
         22    1    3    3    0    0  0.81401157573E+01 -0.30592934719E+02 -0.18322902130E+01  0.31710352043E+02  0.00000000000E+00 0. -1.
         22    1    3    3    0    0  0.74761735936E+02  0.12451719609E+03  0.28543335427E+01  0.14526526254E+03  0.00000000000E+00 0. -1.
</event>
<event>
 7    1  0.7527776E-006  0.3799389E+02  0.7818608E-02  0.1577638E+00
          2   -1    0    0  502    0  0.00000000000E+00  0.00000000000E+00  0.48129277641E+03  0.48129277641E+03  0.00000000000E+00 0. -1.
          1   -1    0    0  501    0 -0.00000000000E+00 -0.00000000000E+00 -0.15092841845E+03  0.15092841845E+03  0.00000000000E+00 0. -1.
         25    2    1    2    0    0 -0.14828899616E+02 -0.30651156364E+02 -0.86891823188E+02  0.15599207439E+03  0.12499579466E+03 0.  0.
          2    1    1    2  501    0  0.26232934576E+02 -0.56842326253E+01 -0.22379312892E+02  0.34947260301E+02  0.00000000000E+00 0. -1.
          1    1    1    2  502    0 -0.11404034960E+02  0.36335388989E+02  0.43963549403E+03  0.44128186018E+03  0.00000000000E+00 0. -1.
         22    1    3    3    0    0 -0.41770231732E+02  0.13023699572E+02 -0.94478815449E+02  0.10411827687E+03  0.00000000000E+00 0.  1.
         22    1    3    3    0    0  0.26941332116E+02 -0.43674855936E+02  0.75869922609E+01  0.51873797516E+02  0.00000000000E+00 0.  1.
</event>
<event>
 7    1  0.7527776E-006  0.1553869E+03  0.7818608E-02  0.1273679E+00
          2   -1    0    0  502    0  0.00000000000E+00  0.00000000000E+00  0.19917814880E+04  0.19917814880E+04  0.00000000000E+00 0. -1.
          1   -1    0    0  501    0 -0.00000000000E+00 -0.00000000000E+00 -0.35709966472E+02  0.35709966472E+02  0.00000000000E+00 0. -1.
         25    2    1    2    0    0  0.94369147967E+02  0.98862382325E+02  0.10509951385E+04  0.10671896729E+04  0.12499483981E+03 0.  0.
          2    1    1    2  501    0 -0.17710773330E+02  0.66231254914E+02  0.46976467099E+02  0.83108598114E+02  0.00000000000E+00 0. -1.
          1    1    1    2  502    0 -0.76658374637E+02 -0.16509363724E+03  0.85809991591E+03  0.87719318348E+03  0.00000000000E+00 0. -1.
         22    1    3    3    0    0  0.76433179525E+02  0.10747218551E+03  0.54229047831E+03  0.55809610682E+03  0.00000000000E+00 0.  1.
         22    1    3    3    0    0  0.17935968442E+02 -0.86098031860E+01  0.50870466024E+03  0.50909356608E+03  0.00000000000E+00 0.  1.
</event>
<event>
 7    1  0.7527776E-006  0.3767936E+02  0.7818608E-02  0.1563830E+00
          2   -1    0    0  502    0  0.00000000000E+00  0.00000000000E+00  0.11927422454E+04  0.11927422454E+04  0.00000000000E+00 0. -1.
          1   -1    0    0  501    0 -0.00000000000E+00 -0.00000000000E+00 -0.24170598922E+02  0.24170598922E+02  0.00000000000E+00 0. -1.
         25    2    1    2    0    0  0.59710575127E+02  0.44426899590E+01  0.30116990115E+03  0.33153184436E+03  0.12499985676E+03 0.  0.
          2    1    1    2  501    0 -0.32176205924E+02 -0.15045514631E+02  0.27397312827E+02  0.44858538633E+02  0.00000000000E+00 0. -1.
          1    1    1    2  502    0 -0.27534369204E+02  0.10602824672E+02  0.84000443246E+03  0.84052246129E+03  0.00000000000E+00 0. -1.
         22    1    3    3    0    0  0.86338423117E+02  0.31824397484E+02  0.15318390871E+03  0.17869646182E+03  0.00000000000E+00 0.  1.
         22    1    3    3    0    0 -0.26627847990E+02 -0.27381707525E+02  0.14798599245E+03  0.15283538254E+03  0.00000000000E+00 0.  1.
</event>
<event>
 7    1  0.7527776E-006  0.4784132E+02  0.7818608E-02  0.1541962E+00
          2   -1    0    0  502    0  0.00000000000E+00  0.00000000000E+00  0.54379664075E+03  0.54379664075E+03  0.00000000000E+00 0. -1.
          1   -1    0    0  501    0 -0.00000000000E+00 -0.00000000000E+00 -0.10257017736E+04  0.10257017736E+04  0.00000000000E+00 0. -1.
         25    2    1    2    0    0  0.18567245141E+02  0.22706831489E+02  0.36827240795E+03  0.39001938383E+03  0.12502084034E+03 0.  0.
          2    1    1    2  501    0  0.14348652905E+02  0.22550029604E+02 -0.10098913835E+04  0.10102450169E+04  0.00000000000E+00 0. -1.
          1    1    1    2  502    0 -0.32915898045E+02 -0.45256861093E+02  0.15971384270E+03  0.16923401363E+03  0.00000000000E+00 0. -1.
         22    1    3    3    0    0 -0.49320570988E+02  0.27620255716E+02  0.21511859546E+03  0.22242168816E+03  0.00000000000E+00 0.  1.
         22    1    3    3    0    0  0.67887816128E+02 -0.49134242273E+01  0.15315381248E+03  0.16759769567E+03  0.00000000000E+00 0.  1.
</event>
<event>
 7    1  0.7527776E-006  0.5954202E+02  0.7818608E-02  0.1504055E+00
          2   -1    0    0  502    0  0.00000000000E+00  0.00000000000E+00  0.74889591761E+03  0.74889591761E+03  0.00000000000E+00 0. -1.
          1   -1    0    0  501    0 -0.00000000000E+00 -0.00000000000E+00 -0.49107120135E+03  0.49107120135E+03  0.00000000000E+00 0. -1.
         25    2    1    2    0    0 -0.73637564688E+02  0.16968716589E+02  0.59062466431E+02  0.15755519154E+03  0.12499934065E+03 0.  0.
          2    1    1    2  501    0  0.50194733817E+02 -0.31618213854E+02 -0.43953302730E+03  0.44351832526E+03  0.00000000000E+00 0. -1.
          1    1    1    2  502    0  0.23442830871E+02  0.14649497266E+02  0.63829527713E+03  0.63889360217E+03  0.00000000000E+00 0. -1.
         22    1    3    3    0    0  0.28119037948E+02  0.31735957839E+02  0.25077189843E+02  0.49261717037E+02  0.00000000000E+00 0.  1.
         22    1    3    3    0    0 -0.10175660264E+03 -0.14767241250E+02  0.33985276588E+02  0.10829347450E+03  0.00000000000E+00 0.  1.
</event>
<event>
 7    1  0.7527776E-006  0.1255928E+03  0.7818608E-02  0.1328495E+00
          2   -1    0    0  502    0  0.00000000000E+00  0.00000000000E+00  0.48517140308E+03  0.48517140308E+03  0.00000000000E+00 0. -1.
          1   -1    0    0  501    0 -0.00000000000E+00 -0.00000000000E+00 -0.14641429170E+04  0.14641429170E+04  0.00000000000E+00 0. -1.
         25    2    1    2    0    0 -0.80786102384E+02 -0.23032081014E+02 -0.47544080399E+03  0.49872399499E+03  0.12499917594E+03 0.  0.
          2    1    1    2  501    0 -0.26424825774E+02 -0.43864518994E+02 -0.96794060692E+03  0.96929427213E+03  0.00000000000E+00 0. -1.
          1    1    1    2  502    0  0.10721092816E+03  0.66896600008E+02  0.46440989698E+03  0.48129605299E+03  0.00000000000E+00 0. -1.
         22    1    3    3    0    0 -0.77301572344E+02  0.39834974383E+02 -0.29877887297E+03  0.31117707693E+03  0.00000000000E+00 0. -1.
         22    1    3    3    0    0 -0.34845300405E+01 -0.62867055397E+02 -0.17666193102E+03  0.18754691806E+03  0.00000000000E+00 0. -1.
</event>
<event>
 7    1  0.7527776E-006  0.1430204E+03  0.7818608E-02  0.1413247E+00
          2   -1    0    0  502    0  0.00000000000E+00  0.00000000000E+00  0.43612161547E+03  0.43612161547E+03  0.00000000000E+00 0. -1.
          1   -1    0    0  501    0 -0.00000000000E+00 -0.00000000000E+00 -0.43081431874E+03  0.43081431874E+03  0.00000000000E+00 0. -1.
         25    2    1    2    0    0  0.15429200644E+03 -0.22464393607E+02  0.68971516857E+02  0.21140650266E+03  0.12499986798E+03 0.  0.
          2    1    1    2  501    0 -0.18525504443E+02 -0.12415132295E+02 -0.34261463408E+03  0.34333965299E+03  0.00000000000E+00 0. -1.
          1    1    1    2  502    0 -0.13576650200E+03  0.34879525901E+02  0.27895041395E+03  0.31218977856E+03  0.00000000000E+00 0. -1.
         22    1    3    3    0    0  0.14656554766E+03  0.27540083549E+02  0.48420553758E+02  0.15679434297E+03  0.00000000000E+00 0.  1.
         22    1    3    3    0    0  0.77264587832E+01 -0.50004477155E+02  0.20550963099E+02  0.54612159682E+02  0.00000000000E+00 0.  1.
</event>
<event>
 7    1  0.7527776E-006  0.7897690E+02  0.7818608E-02  0.1352510E+00
          2   -1    0    0  502    0  0.00000000000E+00  0.00000000000E+00  0.26764241300E+04  0.26764241300E+04  0.00000000000E+00 0. -1.
          1   -1    0    0  501    0 -0.00000000000E+00 -0.00000000000E+00 -0.53962575078E+03  0.53962575078E+03  0.00000000000E+00 0. -1.
         25    2    1    2    0    0 -0.95956125539E+01 -0.12706467186E+03  0.19170084033E+04  0.19253010513E+04  0.12500165384E+03 0.  0.
          2    1    1    2  501    0  0.39743938349E+02  0.68185214200E+02 -0.53110945063E+03  0.53694138658E+03  0.00000000000E+00 0. -1.
          1    1    1    2  502    0 -0.30148325795E+02  0.58879457656E+02  0.75089942660E+03  0.75380744288E+03  0.00000000000E+00 0. -1.
         22    1    3    3    0    0  0.29241964548E+02 -0.12657600656E+02  0.98227827643E+03  0.98279495303E+03  0.00000000000E+00 0. -1.
         22    1    3    3    0    0 -0.38837577102E+02 -0.11440707120E+03  0.93473012683E+03  0.94250609830E+03  0.00000000000E+00 0. -1.
</event>
<event>
 7    1  0.7527776E-006  0.7348288E+02  0.7818608E-02  0.1439000E+00
          2   -1    0    0  502    0  0.00000000000E+00  0.00000000000E+00  0.90803202607E+03  0.90803202607E+03  0.00000000000E+00 0. -1.
          1   -1    0    0  501    0 -0.00000000000E+00 -0.00000000000E+00 -0.73400080481E+03  0.73400080481E+03  0.00000000000E+00 0. -1.
         25    2    1    2    0    0  0.43739327808E+02  0.89839340765E+02 -0.12863080887E+03  0.20531758476E+03  0.12500075869E+03 0.  0.
          2    1    1    2  501    0 -0.13577050303E+02 -0.70802699228E+02 -0.56436696866E+03  0.56895292760E+03  0.00000000000E+00 0. -1.
          1    1    1    2  502    0 -0.30162277505E+02 -0.19036641537E+02  0.86702899879E+03  0.86776231852E+03  0.00000000000E+00 0. -1.
         22    1    3    3    0    0  0.44887315023E+02 -0.54123196433E+01  0.52727512841E-01  0.45212465472E+02  0.00000000000E+00 0.  1.
         22    1    3    3    0    0 -0.11479872152E+01  0.95251660409E+02 -0.12868353638E+03  0.16010511928E+03  0.00000000000E+00 0.  1.
</event>
<event>
 7    1  0.7527776E-006  0.1068523E+03  0.7818608E-02  0.1347144E+00
          2   -1    0    0  502    0  0.00000000000E+00  0.00000000000E+00  0.60334035254E+03  0.60334035254E+03  0.00000000000E+00 0. -1.
          1   -1    0    0  501    0 -0.00000000000E+00 -0.00000000000E+00 -0.70231254709E+03  0.70231254709E+03  0.00000000000E+00 0. -1.
         25    2    1    2    0    0 -0.13020488905E+03 -0.64155898805E+02 -0.84470148387E+02  0.20935342015E+03  0.12499742428E+03 0.  0.
          2    1    1    2  501    0  0.79146324864E+02  0.67727733112E+02 -0.54928371535E+03  0.55907404386E+03  0.00000000000E+00 0. -1.
          1    1    1    2  502    0  0.51058564184E+02 -0.35718343069E+01  0.53478166918E+03  0.53722543562E+03  0.00000000000E+00 0. -1.
         22    1    3    3    0    0 -0.26870238620E+02 -0.66106164860E+02 -0.78120198281E+02  0.10580548254E+03  0.00000000000E+00 0. -1.
         22    1    3    3    0    0 -0.10333465043E+03  0.19502660543E+01 -0.63499501052E+01  0.10354793761E+03  0.00000000000E+00 0. -1.
</event>
<event>
 7    1  0.7527776E-006  0.8484501E+02  0.7818608E-02  0.1414746E+00
          2   -1    0    0  502    0  0.00000000000E+00  0.00000000000E+00  0.14558655170E+03  0.14558655170E+03  0.00000000000E+00 0. -1.
          1   -1    0    0  501    0 -0.00000000000E+00 -0.00000000000E+00 -0.23653950607E+04  0.23653950607E+04  0.00000000000E+00 0. -1.
         25    2    1    2    0    0  0.54387911371E+02  0.16196936109E+02 -0.36725413247E+03  0.39206951515E+03  0.12499008462E+03 0.  0.
          2    1    1    2  501    0 -0.87198390391E+02  0.12425584699E+01 -0.19821639691E+04  0.19840814257E+04  0.00000000000E+00 0. -1.
          1    1    1    2  502    0  0.32810479020E+02 -0.17439494578E+02  0.12960959259E+03  0.13483067157E+03  0.00000000000E+00 0. -1.
         22    1    3    3    0    0  0.94396106219E+02  0.18330391680E+02 -0.23605831391E+03  0.25489243946E+03  0.00000000000E+00 0. -1.
         22    1    3    3    0    0 -0.40008194849E+02 -0.21334555719E+01 -0.13119581856E+03  0.13717707569E+03  0.00000000000E+00 0. -1.
</event>
<event>
 7    1  0.7527776E-006  0.1271501E+03  0.7818608E-02  0.1357444E+00
          2   -1    0    0  502    0  0.00000000000E+00  0.00000000000E+00  0.10628606091E+04  0.10628606091E+04  0.00000000000E+00 0. -1.
          1   -1    0    0  501    0 -0.00000000000E+00 -0.00000000000E+00 -0.41766411226E+02  0.41766411226E+02  0.00000000000E+00 0. -1.
         25    2    1    2    0    0  0.18424544349E+02 -0.95492711864E+02  0.24344342391E+03  0.29042661280E+03  0.12499837968E+03 0.  0.
          2    1    1    2  501    0 -0.67303067734E+01 -0.38827199222E+02  0.19156068760E+02  0.43815561151E+02  0.00000000000E+00 0. -1.
          1    1    1    2  502    0 -0.11694237576E+02  0.13431991109E+03  0.75849470520E+03  0.77038484637E+03  0.00000000000E+00 0. -1.
         22    1    3    3    0    0  0.50860727234E+02 -0.35849237114E+02  0.20087539923E+03  0.21029243304E+03  0.00000000000E+00 0. -1.
         22    1    3    3    0    0 -0.32436182885E+02 -0.59643474750E+02  0.42568024674E+02  0.80134179755E+02  0.00000000000E+00 0. -1.
</event>
<event>
 7    1  0.7527776E-006  0.1175635E+03  0.7818608E-02  0.1335835E+00
          2   -1    0    0  502    0  0.00000000000E+00  0.00000000000E+00  0.20138216258E+04  0.20138216258E+04  0.00000000000E+00 0. -1.
          1   -1    0    0  501    0 -0.00000000000E+00 -0.00000000000E+00 -0.82709849824E+03  0.82709849824E+03  0.00000000000E+00 0. -1.
         25    2    1    2    0    0 -0.31349182548E+02  0.96662496181E+02  0.43189301701E+03  0.46095909334E+03  0.12500119269E+03 0.  0.
          2    1    1    2  501    0 -0.50791809065E+02 -0.71801557484E+01 -0.80939899912E+03  0.81102287408E+03  0.00000000000E+00 0. -1.
          1    1    1    2  502    0  0.82140991613E+02 -0.89482340432E+02  0.15642291097E+04  0.15689381567E+04  0.00000000000E+00 0. -1.
         22    1    3    3    0    0 -0.26312227399E+02  0.50690084743E+01  0.90542067304E+01  0.28284391758E+02  0.00000000000E+00 0.  1.
         22    1    3    3    0    0 -0.50369551490E+01  0.91593487706E+02  0.42283881028E+03  0.43267470158E+03  0.00000000000E+00 0.  1.
</event>
<event>
 7    1  0.7527776E-006  0.1109880E+03  0.7818608E-02  0.1263804E+00
          2   -1    0    0  502    0  0.00000000000E+00  0.00000000000E+00  0.11506626079E+04  0.11506626079E+04  0.00000000000E+00 0. -1.
          1   -1    0    0  501    0 -0.00000000000E+00 -0.00000000000E+00 -0.63545979844E+03  0.63545979844E+03  0.00000000000E+00 0. -1.
         25    2    1    2    0    0  0.24608797727E+02  0.20347783447E+03  0.20371981122E+03  0.31485750652E+03  0.12499866352E+03 0.  0.
          2    1    1    2  501    0 -0.44612703454E+02 -0.99767690035E+02 -0.57156651544E+03  0.58192110020E+03  0.00000000000E+00 0. -1.
          1    1    1    2  502    0  0.20003905728E+02 -0.10371014444E+03  0.88304951368E+03  0.88934379962E+03  0.00000000000E+00 0. -1.
         22    1    3    3    0    0  0.53989290594E+02  0.51186700294E+02  0.25609249609E+02  0.78681353898E+02  0.00000000000E+00 0.  1.
         22    1    3    3    0    0 -0.29380492867E+02  0.15229113418E+03  0.17811056161E+03  0.23617615262E+03  0.00000000000E+00 0.  1.
</event>
<event>
 7    1  0.7527776E-006  0.5380498E+02  0.7818608E-02  0.1449173E+00
          2   -1    0    0  502    0  0.00000000000E+00  0.00000000000E+00  0.14049760125E+03  0.14049760125E+03  0.00000000000E+00 0. -1.
          1   -1    0    0  501    0 -0.00000000000E+00 -0.00000000000E+00 -0.11565780274E+04  0.11565780274E+04  0.00000000000E+00 0. -1.
         25    2    1    2    0    0 -0.61913317054E+01  0.20495757766E+02 -0.79376283222E+02  0.14961122345E+03  0.12499806066E+03 0.  0.
          2    1    1    2  501    0 -0.45059675254E+02  0.30957394043E+01 -0.10340040305E+04  0.10349899966E+04  0.00000000000E+00 0. -1.
          1    1    1    2  502    0  0.51251006960E+02 -0.23591497170E+02  0.97299887622E+02  0.11247440858E+03  0.00000000000E+00 0. -1.
         22    1    3    3    0    0 -0.59766792358E+02 -0.76869441809E+01 -0.16825228362E+02  0.62563942403E+02  0.00000000000E+00 0.  1.
         22    1    3    3    0    0  0.53575460652E+02  0.28182701947E+02 -0.62551054860E+02  0.87047281045E+02  0.00000000000E+00 0.  1.
</event>
<event>
 7    1  0.7527776E-006  0.5003692E+02  0.7818608E-02  0.1552378E+00
          2   -1    0    0  502    0  0.00000000000E+00  0.00000000000E+00  0.24533758110E+04  0.24533758110E+04  0.00000000000E+00 0. -1.
          1   -1    0    0  501    0 -0.00000000000E+00 -0.00000000000E+00 -0.18975408824E+03  0.18975408824E+03  0.00000000000E+00 0. -1.
         25    2    1    2    0    0 -0.40578425157E+02  0.31165085276E+02  0.10257622017E+04  0.10346167237E+04  0.12500319726E+03 0.  0.
          2    1    1    2  501    0 -0.90469058825E+01 -0.22116700546E+02 -0.18410748674E+03  0.18565172131E+03  0.00000000000E+00 0. -1.
          1    1    1    2  502    0  0.49625331040E+02 -0.90483847306E+01  0.14219670078E+04  0.14228614543E+04  0.00000000000E+00 0. -1.
         22    1    3    3    0    0 -0.71391857738E+02 -0.19954088911E+02  0.49729983208E+03  0.50279427801E+03  0.00000000000E+00 0. -1.
         22    1    3    3    0    0  0.30813432581E+02  0.51119174187E+02  0.52846236965E+03  0.53182244569E+03  0.00000000000E+00 0. -1.
</event>
<event>
 7    1  0.7527776E-006  0.8727949E+02  0.7818608E-02  0.1359718E+00
          2   -1    0    0  502    0  0.00000000000E+00  0.00000000000E+00  0.59631018027E+03  0.59631018027E+03  0.00000000000E+00 0. -1.
          1   -1    0    0  501    0 -0.00000000000E+00 -0.00000000000E+00 -0.92337657171E+03  0.92337657171E+03  0.00000000000E+00 0. -1.
         25    2    1    2    0    0  0.46922879712E+02  0.13798925387E+02 -0.13112020106E+02  0.13486741480E+03  0.12500051008E+03 0.  0.
          2    1    1    2  501    0  0.38448882616E+02 -0.41152105925E+02 -0.84469020542E+03  0.84656562388E+03  0.00000000000E+00 0. -1.
          1    1    1    2  502    0 -0.85371762328E+02  0.27353180538E+02  0.53073583409E+03  0.53825371330E+03  0.00000000000E+00 0. -1.
         22    1    3    3    0    0  0.48676138063E+02  0.46813559369E+02 -0.50966786990E+02  0.84607855035E+02  0.00000000000E+00 0. -1.
         22    1    3    3    0    0 -0.17532583508E+01 -0.33014633982E+02  0.37854766884E+02  0.50259559764E+02  0.00000000000E+00 0. -1.
</event>
<event>
 7    1  0.7527776E-006  0.1051709E+03  0.7818608E-02  0.1353738E+00
          2   -1    0    0  502    0  0.00000000000E+00  0.00000000000E+00  0.78010932499E+03  0.78010932499E+03  0.00000000000E+00 0. -1.
          1   -1    0    0  501    0 -0.00000000000E+00 -0.00000000000E+00 -0.50438012169E+03  0.50438012169E+03  0.00000000000E+00 0. -1.
         25    2    1    2    0    0  0.12555561321E+02 -0.70563869501E+02  0.28708284981E+03  0.32121447275E+03  0.12500109220E+03 0.  0.
          2    1    1    2  501    0 -0.58372173952E+02  0.88379883781E+02 -0.48025903093E+03  0.49179980820E+03  0.00000000000E+00 0. -1.
          1    1    1    2  502    0  0.45816612631E+02 -0.17816014280E+02  0.46890538442E+03  0.47147516573E+03  0.00000000000E+00 0. -1.
         22    1    3    3    0    0  0.17887272324E+02 -0.99506901750E+02  0.14921626140E+03  0.18024170070E+03  0.00000000000E+00 0.  1.
         22    1    3    3    0    0 -0.53317110035E+01  0.28943032249E+02  0.13786658842E+03  0.14097277205E+03  0.00000000000E+00 0.  1.
</event>
<event>
 7    1  0.7527776E-006  0.1195570E+03  0.7818608E-02  0.1391951E+00
          2   -1    0    0  502    0  0.00000000000E+00  0.00000000000E+00  0.28038657652E+04  0.28038657652E+04  0.00000000000E+00 0. -1.
          1   -1    0    0  501    0 -0.00000000000E+00 -0.00000000000E+00 -0.38961492799E+03  0.38961492799E+03  0.00000000000E+00 0. -1.
         25    2    1    2    0    0  0.10558881534E+03  0.75779728652E+02  0.34395046817E+03  0.38835383427E+03  0.12500084336E+03 0.  0.
          2    1    1    2  501    0 -0.27991438572E+02  0.14572449471E+02 -0.36527778631E+03  0.36663842964E+03  0.00000000000E+00 0. -1.
          1    1    1    2  502    0 -0.77597376769E+02 -0.90352178123E+02  0.24355781553E+04  0.24384884292E+04  0.00000000000E+00 0. -1.
         22    1    3    3    0    0  0.10718475680E+03  0.78776146187E+02  0.35377655104E+03  0.37795780369E+03  0.00000000000E+00 0.  1.
         22    1    3    3    0    0 -0.15959414637E+01 -0.29964175360E+01 -0.98260828764E+01  0.10396030584E+02  0.00000000000E+00 0.  1.
</event>
<event>
 7    1  0.7527776E-006  0.1288397E+03  0.7818608E-02  0.1304401E+00
          2   -1    0    0  502    0  0.00000000000E+00  0.00000000000E+00  0.38852085539E+03  0.38852085539E+03  0.00000000000E+00 0. -1.
          1   -1    0    0  501    0 -0.00000000000E+00 -0.00000000000E+00 -0.39985779822E+03  0.39985779822E+03  0.00000000000E+00 0. -1.
         25    2    1    2    0    0  0.78246854282E+02  0.16211688614E+03  0.87499196369E+02  0.23597536788E+03  0.12499523952E+03 0.  0.
          2    1    1    2  501    0 -0.29076455056E+02 -0.54739261426E+02 -0.30693329014E+03  0.31312916117E+03  0.00000000000E+00 0. -1.
          1    1    1    2  502    0 -0.49170399226E+02 -0.10737762472E+03  0.20809715094E+03  0.23927412455E+03  0.00000000000E+00 0. -1.
         22    1    3    3    0    0  0.43589860467E+02  0.15290376341E+03  0.20937772571E+02  0.16036841060E+03  0.00000000000E+00 0.  1.
         22    1    3    3    0    0  0.34656993814E+02  0.92131227385E+01  0.66561423798E+02  0.75606957278E+02  0.00000000000E+00 0.  1.
</event>
<event>
 7    1  0.7527776E-006  0.3069806E+02  0.7818608E-02  0.1618750E+00
          2   -1    0    0  502    0  0.00000000000E+00  0.00000000000E+00  0.12589296550E+04  0.12589296550E+04  0.00000000000E+00 0. -1.
          1   -1    0    0  501    0 -0.00000000000E+00 -0.00000000000E+00 -0.63796137601E+03  0.63796137601E+03  0.00000000000E+00 0. -1.
         25    2    1    2    0    0 -0.36814383716E+02  0.33629885517E+01  0.78656031250E+02  0.15224522795E+03  0.12500091856E+03 0.  0.
          2    1    1    2  501    0  0.12812958398E+02 -0.22537764292E+02 -0.60068079267E+03  0.60123999984E+03  0.00000000000E+00 0. -1.
          1    1    1    2  502    0  0.24001425318E+02  0.19174775741E+02  0.11429930404E+04  0.11434058032E+04  0.00000000000E+00 0. -1.
         22    1    3    3    0    0  0.14889452878E+02  0.43882720566E+02  0.72796955278E+02  0.86294760379E+02  0.00000000000E+00 0. -1.
         22    1    3    3    0    0 -0.51703836593E+02 -0.40519732014E+02  0.58590759721E+01  0.65950467566E+02  0.00000000000E+00 0. -1.
</event>
<event>
 7    1  0.7527776E-006  0.5322207E+02  0.7818608E-02  0.1505657E+00
          2   -1    0    0  502    0  0.00000000000E+00  0.00000000000E+00  0.27706782472E+04  0.27706782472E+04  0.00000000000E+00 0. -1.
          1   -1    0    0  501    0 -0.00000000000E+00 -0.00000000000E+00 -0.26195720890E+02  0.26195720890E+02  0.00000000000E+00 0. -1.
         25    2    1    2    0    0 -0.12967022015E+02  0.81616026515E+02  0.33741024604E+03  0.36918818529E+03  0.12499969033E+03 0.  0.
          2    1    1    2  501    0 -0.17555103812E+00 -0.30589554103E+02  0.13337694902E+02  0.33371331164E+02  0.00000000000E+00 0. -1.
          1    1    1    2  502    0  0.13142573053E+02 -0.51026472413E+02  0.23937345854E+04  0.23943144517E+04  0.00000000000E+00 0. -1.
         22    1    3    3    0    0  0.22860275570E+02  0.10470581685E+03  0.24573834153E+03  0.26809183647E+03  0.00000000000E+00 0.  1.
         22    1    3    3    0    0 -0.35827297585E+02 -0.23089790335E+02  0.91671904506E+02  0.10109634883E+03  0.00000000000E+00 0.  1.
</event>
<event>
 7    1  0.7527776E-006  0.1418842E+03  0.7818608E-02  0.1239488E+00
          2   -1    0    0  502    0  0.00000000000E+00  0.00000000000E+00  0.11114530809E+04  0.11114530809E+04  0.00000000000E+00 0. -1.
          1   -1    0    0  501    0 -0.00000000000E+00 -0.00000000000E+00 -0.71625791820E+03  0.71625791820E+03  0.00000000000E+00 0. -1.
         25    2    1    2    0    0 -0.88492446977E+02  0.91106678899E+02 -0.30266741830E+03  0.35123183060E+03  0.12499957047E+03 0.  0.
          2    1    1    2  501    0  0.14623576189E+02 -0.16610956601E+03 -0.36874125535E+03  0.40469290863E+03  0.00000000000E+00 0. -1.
          1    1    1    2  502    0  0.73868870788E+02  0.75002887106E+02  0.10666038363E+04  0.10717862599E+04  0.00000000000E+00 0. -1.
         22    1    3    3    0    0 -0.11746996280E+03  0.74561586429E+02 -0.20282143637E+03  0.24595763331E+03  0.00000000000E+00 0. -1.
         22    1    3    3    0    0  0.28977515827E+02  0.16545092470E+02 -0.99845981927E+02  0.10527419729E+03  0.00000000000E+00 0. -1.
</event>
<event>
 7    1  0.7527776E-006  0.5357278E+02  0.7818608E-02  0.1519101E+00
          2   -1    0    0  502    0  0.00000000000E+00  0.00000000000E+00  0.44929896922E+03  0.44929896922E+03  0.00000000000E+00 0. -1.
          1   -1    0    0  501    0 -0.00000000000E+00 -0.00000000000E+00 -0.13748431902E+03  0.13748431902E+03  0.00000000000E+00 0. -1.
         25    2    1    2    0    0  0.98501923838E+01 -0.25330158109E+02  0.41418983931E+03  0.43350295328E+03  0.12503177321E+03 0.  0.
          2    1    1    2  501    0 -0.28689721227E+02  0.45706407680E+02 -0.11166050087E+03  0.12401710875E+03  0.00000000000E+00 0. -1.
          1    1    1    2  502    0  0.18839528843E+02 -0.20376249572E+02  0.92853117578E+01  0.29263226207E+02  0.00000000000E+00 0. -1.
         22    1    3    3    0    0  0.14929452456E+02  0.34280674481E+02  0.31824289323E+03  0.32043188400E+03  0.00000000000E+00 0.  1.
         22    1    3    3    0    0 -0.50792600723E+01 -0.59610832590E+02  0.95946946080E+02  0.11307106928E+03  0.00000000000E+00 0.  1.
</event>
<event>
 7    1  0.7527776E-006  0.1007763E+03  0.7818608E-02  0.1300888E+00
          2   -1    0    0  502    0  0.00000000000E+00  0.00000000000E+00  0.11293704693E+03  0.11293704693E+03  0.00000000000E+00 0. -1.
          1   -1    0    0  501    0 -0.00000000000E+00 -0.00000000000E+00 -0.99601367205E+03  0.99601367205E+03  0.00000000000E+00 0. -1.
         25    2    1    2    0    0  0.68996861590E+02 -0.66074214360E+01 -0.30795495787E+03  0.33950720183E+03  0.12499863635E+03 0.  0.
          2    1    1    2  501    0 -0.99145507503E+01 -0.81237042382E+02 -0.64004532168E+03  0.64525635927E+03  0.00000000000E+00 0. -1.
          1    1    1    2  502    0 -0.59082310840E+02  0.87844463818E+02  0.64923654438E+02  0.12418715788E+03  0.00000000000E+00 0. -1.
         22    1    3    3    0    0 -0.17035524203E+02  0.39951719901E+02 -0.12002882032E+03  0.12764508104E+03  0.00000000000E+00 0. -1.
         22    1    3    3    0    0  0.86032385793E+02 -0.46559141337E+02 -0.18792613755E+03  0.21186212078E+03  0.00000000000E+00 0. -1.
</event>
<event>
 7    1  0.7527776E-006  0.8302151E+02  0.7818608E-02  0.1449826E+00
          2   -1    0    0  502    0  0.00000000000E+00  0.00000000000E+00  0.47379130598E+03  0.47379130598E+03  0.00000000000E+00 0. -1.
          1   -1    0    0  501    0 -0.00000000000E+00 -0.00000000000E+00 -0.19613907440E+03  0.19613907440E+03  0.00000000000E+00 0. -1.
         25    2    1    2    0    0  0.59034355875E+02 -0.80966958406E+01  0.20552289522E+03  0.24782207420E+03  0.12500203335E+03 0.  0.
          2    1    1    2  501    0 -0.83827633240E+02 -0.71967434204E+01 -0.16392888400E+03  0.18425944811E+03  0.00000000000E+00 0. -1.
          1    1    1    2  502    0  0.24793277365E+02  0.15293439261E+02  0.23605822036E+03  0.23784885807E+03  0.00000000000E+00 0. -1.
         22    1    3    3    0    0  0.95910347753E+02 -0.74852116783E+01  0.17601491102E+03  0.20058931203E+03  0.00000000000E+00 0. -1.
         22    1    3    3    0    0 -0.36875991878E+02 -0.61148416233E+00  0.29507984201E+02  0.47232762163E+02  0.00000000000E+00 0. -1.
</event>
<event>
 7    1  0.7527776E-006  0.1431645E+03  0.7818608E-02  0.1320221E+00
          2   -1    0    0  502    0  0.00000000000E+00  0.00000000000E+00  0.44921661412E+03  0.44921661412E+03  0.00000000000E+00 0. -1.
          1   -1    0    0  501    0 -0.00000000000E+00 -0.00000000000E+00 -0.12868483277E+03  0.12868483277E+03  0.00000000000E+00 0. -1.
         25    2    1    2    0    0  0.55246314449E+02 -0.11798865986E+03  0.11990635667E+03  0.21673959379E+03  0.12500015211E+03 0.  0.
          2    1    1    2  501    0  0.47703229598E+02  0.78573736067E+01 -0.49451989368E+02  0.69158048602E+02  0.00000000000E+00 0. -1.
          1    1    1    2  502    0 -0.10294954405E+03  0.11013128626E+03  0.25007741404E+03  0.29200380450E+03  0.00000000000E+00 0. -1.
         22    1    3    3    0    0  0.84483174661E+02 -0.55380806037E+02  0.10567654458E+03  0.14619156116E+03  0.00000000000E+00 0.  1.
         22    1    3    3    0    0 -0.29236860212E+02 -0.62607853826E+02  0.14229812090E+02  0.70548032630E+02  0.00000000000E+00 0.  1.
</event>
<event>
 7    1  0.7527776E-006  0.5752339E+02  0.7818608E-02  0.1477620E+00
          2   -1    0    0  502    0  0.00000000000E+00  0.00000000000E+00  0.13441675512E+04  0.13441675512E+04  0.00000000000E+00 0. -1.
          1   -1    0    0  501    0 -0.00000000000E+00 -0.00000000000E+00 -0.11087402736E+03  0.11087402736E+03  0.00000000000E+00 0. -1.
         25    2    1    2    0    0 -0.29112069909E+02  0.15582467983E+02  0.69937693596E+02  0.14699158639E+03  0.12499967825E+03 0.  0.
          2    1    1    2  501    0  0.35456712100E+02 -0.49384907410E+02 -0.59290501112E+02  0.84920027290E+02  0.00000000000E+00 0. -1.
          1    1    1    2  502    0 -0.63446421908E+01  0.33802439427E+02  0.12226463314E+04  0.12231299649E+04  0.00000000000E+00 0. -1.
         22    1    3    3    0    0 -0.97447404010E+01 -0.11445486717E+02 -0.34369443040E+02  0.37512901068E+02  0.00000000000E+00 0.  1.
         22    1    3    3    0    0 -0.19367329508E+02  0.27027954700E+02  0.10430713664E+03  0.10947868533E+03  0.00000000000E+00 0.  1.
</event>
<event>
 7    1  0.7527776E-006  0.6035353E+02  0.7818608E-02  0.1470920E+00
          2   -1    0    0  502    0  0.00000000000E+00  0.00000000000E+00  0.73227082292E+03  0.73227082292E+03  0.00000000000E+00 0. -1.
          1   -1    0    0  501    0 -0.00000000000E+00 -0.00000000000E+00 -0.54095091130E+03  0.54095091130E+03  0.00000000000E+00 0. -1.
         25    2    1    2    0    0 -0.87339762122E+02 -0.24775236803E+02 -0.49491537516E+02  0.16222496261E+03  0.12500191919E+03 0.  0.
          2    1    1    2  501    0  0.53007492455E+02  0.26619414360E+02 -0.43263044607E+03  0.43667778778E+03  0.00000000000E+00 0. -1.
          1    1    1    2  502    0  0.34332269667E+02 -0.18441775569E+01  0.67344189521E+03  0.67431898383E+03  0.00000000000E+00 0. -1.
         22    1    3    3    0    0 -0.39133313030E+02  0.50699835161E+02 -0.12114273311E+02  0.65181631553E+02  0.00000000000E+00 0.  1.
         22    1    3    3    0    0 -0.48206449091E+02 -0.75475071965E+02 -0.37377264206E+02  0.97043331052E+02  0.00000000000E+00 0.  1.
</event>
<event>
 7    1  0.7527776E-006  0.7675822E+02  0.7818608E-02  0.1338795E+00
          2   -1    0    0  502    0  0.00000000000E+00  0.00000000000E+00  0.31015411842E+04  0.31015411842E+04  0.00000000000E+00 0. -1.
          1   -1    0    0  501    0 -0.00000000000E+00 -0.00000000000E+00 -0.48125692126E+02  0.48125692126E+02  0.00000000000E+00 0. -1.
         25    2    1    2    0    0  0.73162125860E+02  0.65591791908E+02  0.81844690795E+03  0.83374817915E+03  0.12500282106E+03 0.  0.
          2    1    1    2  501    0 -0.76529248669E+02  0.10903614379E+02 -0.23037991897E+01  0.77336422202E+02  0.00000000000E+00 0. -1.
          1    1    1    2  502    0  0.33671228094E+01 -0.76495406287E+02  0.22372723833E+04  0.22385822750E+04  0.00000000000E+00 0. -1.
         22    1    3    3    0    0 -0.26351854194E+02 -0.12587061763E+02  0.23004388657E+03  0.23189015523E+03  0.00000000000E+00 0. -1.
         22    1    3    3    0    0  0.99513980054E+02  0.78178853671E+02  0.58840302138E+03  0.60185802392E+03  0.00000000000E+00 0. -1.
</event>
<event>
 7    1  0.7527776E-006  0.5959896E+02  0.7818608E-02  0.1478939E+00
          2   -1    0    0  502    0  0.00000000000E+00  0.00000000000E+00  0.22231747775E+04  0.22231747775E+04  0.00000000000E+00 0. -1.
          1   -1    0    0  501    0 -0.00000000000E+00 -0.00000000000E+00 -0.51830365670E+03  0.51830365670E+03  0.00000000000E+00 0. -1.
         25    2    1    2    0    0 -0.64758861577E+02  0.64978774396E+02  0.12157090159E+02  0.15552982020E+03  0.12500311538E+03 0.  0.
          2    1    1    2  501    0  0.41815277930E+02 -0.41418044962E+02 -0.44455123823E+03  0.44843034612E+03  0.00000000000E+00 0. -1.
          1    1    1    2  502    0  0.22943583648E+02 -0.23560729434E+02  0.21372652689E+04  0.21375182679E+04  0.00000000000E+00 0. -1.
         22    1    3    3    0    0 -0.38272261925E+02 -0.14159802976E+01 -0.48487055243E+02  0.61788069715E+02  0.00000000000E+00 0.  1.
         22    1    3    3    0    0 -0.26486599653E+02  0.66394754693E+02  0.60644145402E+02  0.93741750483E+02  0.00000000000E+00 0.  1.
</event>
<event>
 7    1  0.7527776E-006  0.8291313E+02  0.7818608E-02  0.1388711E+00
          2   -1    0    0  502    0  0.00000000000E+00  0.00000000000E+00  0.32167153307E+03  0.32167153307E+03  0.00000000000E+00 0. -1.
          1   -1    0    0  501    0 -0.00000000000E+00 -0.00000000000E+00 -0.15462025504E+04  0.15462025504E+04  0.00000000000E+00 0. -1.
         25    2    1    2    0    0  0.78681112625E+02  0.26536365774E+02 -0.26078928730E+01  0.15008954382E+03  0.12500069546E+03 0.  0.
          2    1    1    2  501    0 -0.25921511001E+02  0.38850052701E+02 -0.14623524318E+04  0.14630980439E+04  0.00000000000E+00 0. -1.
          1    1    1    2  502    0 -0.52759601623E+02 -0.65386418475E+02  0.24042930734E+03  0.25468649574E+03  0.00000000000E+00 0. -1.
         22    1    3    3    0    0  0.43962600372E+02  0.65023742079E+02  0.35110261458E+02  0.85985625107E+02  0.00000000000E+00 0. -1.
         22    1    3    3    0    0  0.34718512252E+02 -0.38487376305E+02 -0.37718154331E+02  0.64103918710E+02  0.00000000000E+00 0. -1.
</event>
<event>
 7    1  0.7527776E-006  0.5830816E+02  0.7818608E-02  0.1409512E+00
          2   -1    0    0  502    0  0.00000000000E+00  0.00000000000E+00  0.12367135619E+04  0.12367135619E+04  0.00000000000E+00 0. -1.
          1   -1    0    0  501    0 -0.00000000000E+00 -0.00000000000E+00 -0.64110401014E+02  0.64110401014E+02  0.00000000000E+00 0. -1.
         25    2    1    2    0    0  0.45089487543E+02 -0.74697547863E+02  0.11764911453E+03  0.19255929942E+03  0.12499993640E+03 0.  0.
          2    1    1    2  501    0 -0.53616687014E+02  0.17222619286E+02  0.48160585439E+01  0.56520457901E+02  0.00000000000E+00 0. -1.
          1    1    1    2  502    0  0.85271994711E+01  0.57474928577E+02  0.10501379878E+04  0.10517442056E+04  0.00000000000E+00 0. -1.
         22    1    3    3    0    0 -0.15563524803E+02  0.15417469923E+02 -0.10727414693E+02  0.24392603574E+02  0.00000000000E+00 0. -1.
         22    1    3    3    0    0  0.60653012346E+02 -0.90115017786E+02  0.12837652922E+03  0.16816669585E+03  0.00000000000E+00 0. -1.
</event>
<event>
 7    1  0.7527776E-006  0.8485348E+02  0.7818608E-02  0.1378701E+00
          2   -1    0    0  502    0  0.00000000000E+00  0.00000000000E+00  0.95603186317E+03  0.95603186317E+03  0.00000000000E+00 0. -1.
          1   -1    0    0  501    0 -0.00000000000E+00 -0.00000000000E+00 -0.10359106580E+03  0.10359106580E+03  0.00000000000E+00 0. -1.
         25    2    1    2    0    0 -0.14566035515E+02  0.81979939460E+02  0.49746407079E+03  0.51964163745E+03  0.12499619906E+03 0.  0.
          2    1    1    2  501    0 -0.46636123367E+02 -0.16579323011E+02 -0.80985432982E+02  0.94912814254E+02  0.00000000000E+00 0. -1.
          1    1    1    2  502    0  0.61202158881E+02 -0.65400616449E+02  0.43596215956E+03  0.44506847726E+03  0.00000000000E+00 0. -1.
         22    1    3    3    0    0 -0.67179130994E+02  0.65310486327E+02  0.27890430717E+03  0.29422118860E+03  0.00000000000E+00 0. -1.
         22    1    3    3    0    0  0.52613095479E+02  0.16669453133E+02  0.21855976362E+03  0.22542044885E+03  0.00000000000E+00 0. -1.
</event>
<event>
 7    1  0.7527776E-006  0.1593271E+03  0.7818608E-02  0.1229661E+00
          2   -1    0    0  502    0  0.00000000000E+00  0.00000000000E+00  0.17391316546E+04  0.17391316546E+04  0.00000000000E+00 0. -1.
          1   -1    0    0  501    0 -0.00000000000E+00 -0.00000000000E+00 -0.80095486045E+03  0.80095486045E+03  0.00000000000E+00 0. -1.
         25    2    1    2    0    0 -0.91979156090E+02  0.58349448205E+02  0.31742215578E+03  0.35811720052E+03  0.12500512417E+03 0.  0.
          2    1    1    2  501    0 -0.85362634744E+02 -0.58841404934E+02 -0.77151521876E+03  0.77845027017E+03  0.00000000000E+00 0. -1.
          1    1    1    2  502    0  0.17734179083E+03  0.49195672929E+00  0.13922698572E+04  0.14035190444E+04  0.00000000000E+00 0. -1.
         22    1    3    3    0    0 -0.29791370649E+02 -0.86859524249E+01  0.22840718366E+03  0.23050555976E+03  0.00000000000E+00 0. -1.
         22    1    3    3    0    0 -0.62187785442E+02  0.67035400630E+02  0.89014972120E+02  0.12761164076E+03  0.00000000000E+00 0. -1.
</event>
<event>
 7    1  0.7527776E-006  0.5796736E+02  0.7818608E-02  0.1470334E+00
          2   -1    0    0  502    0  0.00000000000E+00  0.00000000000E+00  0.35807440894E+04  0.35807440894E+04  0.00000000000E+00 0. -1.
          1   -1    0    0  501    0 -0.00000000000E+00 -0.00000000000E+00 -0.16165289999E+02  0.16165289999E+02  0.00000000000E+00 0. -1.
         25    2    1    2    0    0 -0.29865491000E+00 -0.71869321216E+02  0.86467385543E+03  0.87661364302E+03  0.12500125735E+03 0.  0.
          2    1    1    2  501    0  0.28669856658E+02  0.49794804758E+02  0.71870709658E+02  0.92015662626E+02  0.00000000000E+00 0. -1.
          1    1    1    2  502    0 -0.28371201748E+02  0.22074516457E+02  0.26280342344E+04  0.26282800738E+04  0.00000000000E+00 0. -1.
         22    1    3    3    0    0 -0.46561970090E+02  0.45794225614E+01  0.44974604209E+03  0.45217307588E+03  0.00000000000E+00 0.  1.
         22    1    3    3    0    0  0.46263315180E+02 -0.76448743777E+02  0.41492781334E+03  0.42444056715E+03  0.00000000000E+00 0.  1.
</event>
<event>
 7    1  0.7527776E-006  0.7279481E+02  0.7818608E-02  0.1428419E+00
          2   -1    0    0  502    0  0.00000000000E+00  0.00000000000E+00  0.52599662078E+02  0.52599662078E+02  0.00000000000E+00 0. -1.
          1   -1    0    0  501    0 -0.00000000000E+00 -0.00000000000E+00 -0.75418369400E+03  0.75418369400E+03  0.00000000000E+00 0. -1.
         25    2    1    2    0    0  0.32291711008E+02 -0.10028744497E+03 -0.54282399939E+03  0.56690663956E+03  0.12499966977E+03 0.  0.
          2    1    1    2  501    0 -0.25344859943E+02  0.29634816491E+02 -0.16411274680E+03  0.16868188384E+03  0.00000000000E+00 0. -1.
          1    1    1    2  502    0 -0.69468510652E+01  0.70652628478E+02  0.53527142658E+01  0.71194832682E+02  0.00000000000E+00 0. -1.
         22    1    3    3    0    0 -0.17251419682E+02  0.23941443043E+02 -0.87129621174E+02  0.91991168391E+02  0.00000000000E+00 0.  1.
         22    1    3    3    0    0  0.49543130690E+02 -0.12422888801E+03 -0.45569437822E+03  0.47491547117E+03  0.00000000000E+00 0.  1.
</event>
<event>
 7    1  0.7527776E-006  0.2536834E+02  0.7818608E-02  0.1675386E+00
          2   -1    0    0  502    0  0.00000000000E+00  0.00000000000E+00  0.18312128948E+03  0.18312128948E+03  0.00000000000E+00 0. -1.
          1   -1    0    0  501    0 -0.00000000000E+00 -0.00000000000E+00 -0.24448158575E+03  0.24448158575E+03  0.00000000000E+00 0. -1.
         25    2    1    2    0    0  0.48802121705E+00  0.32430027509E+01 -0.15856496637E+02  0.12604580157E+03  0.12500144150E+03 0.  0.
          2    1    1    2  501    0 -0.13186475793E+02 -0.22126794682E+02 -0.17155007464E+03  0.17347307081E+03  0.00000000000E+00 0. -1.
          1    1    1    2  502    0  0.12698454576E+02  0.18883791931E+02  0.12604627501E+03  0.12808400286E+03  0.00000000000E+00 0. -1.
         22    1    3    3    0    0 -0.43345720470E+02 -0.35945857041E+02 -0.32397490817E+02  0.64965787402E+02  0.00000000000E+00 0. -1.
         22    1    3    3    0    0  0.43833741688E+02  0.39188859792E+02  0.16540994180E+02  0.61080014167E+02  0.00000000000E+00 0. -1.
</event>
<event>
 7    1  0.7527776E-006  0.7968700E+02  0.7818608E-02  0.1336237E+00
          2   -1    0    0  502    0  0.00000000000E+00  0.00000000000E+00  0.40716191418E+04  0.40716191418E+04  0.00000000000E+00 0. -1.
          1   -1    0    0  501    0 -0.00000000000E+00 -0.00000000000E+00 -0.11243440200E+03  0.11243440200E+03  0.00000000000E+00 0. -1.
         25    2    1    2    0    0  0.63035901676E+02 -0.36265320163E+02  0.32729736064E+04  0.32761672826E+04  0.12500854890E+03 0.  0.
          2    1    1    2  501    0 -0.15000428977E+01  0.79861170738E+02 -0.94389933003E+02  0.12365078315E+03  0.00000000000E+00 0. -1.
          1    1    1    2  502    0 -0.61535858778E+02 -0.43595850576E+02  0.78060106643E+03  0.78423547804E+03  0.00000000000E+00 0. -1.
         22    1    3    3    0    0 -0.97537199859E+01 -0.48427248575E+02  0.55561549975E+03  0.55780724002E+03  0.00000000000E+00 0.  1.
         22    1    3    3    0    0  0.72789621662E+02  0.12161928412E+02  0.27173581066E+04  0.27183600426E+04  0.00000000000E+00 0.  1.
</event>
<event>
 7    1  0.7527776E-006  0.5742993E+02  0.7818608E-02  0.1459745E+00
          2   -1    0    0  502    0  0.00000000000E+00  0.00000000000E+00  0.43695297267E+03  0.43695297267E+03  0.00000000000E+00 0. -1.
          1   -1    0    0  501    0 -0.00000000000E+00 -0.00000000000E+00 -0.46431873725E+03  0.46431873725E+03  0.00000000000E+00 0. -1.
         25    2    1    2    0    0 -0.41486999957E+01  0.18745701585E+02 -0.29476052173E+03  0.32074866502E+03  0.12500931125E+03 0.  0.
          2    1    1    2  501    0 -0.20282468111E+02  0.33502456997E+02 -0.15211047377E+03  0.15707128753E+03  0.00000000000E+00 0. -1.
          1    1    1    2  502    0  0.24431168107E+02 -0.52248158582E+02  0.41950523092E+03  0.42345175737E+03  0.00000000000E+00 0. -1.
         22    1    3    3    0    0 -0.33078596545E+02  0.49415610327E+02 -0.25814998945E+03  0.26491038702E+03  0.00000000000E+00 0. -1.
         22    1    3    3    0    0  0.28929896549E+02 -0.30669908742E+02 -0.36610532276E+02  0.55838278001E+02  0.00000000000E+00 0. -1.
</event>
<event>
 7    1  0.7527776E-006  0.8843089E+02  0.7818608E-02  0.1332276E+00
          2   -1    0    0  502    0  0.00000000000E+00  0.00000000000E+00  0.17078439426E+04  0.17078439426E+04  0.00000000000E+00 0. -1.
          1   -1    0    0  501    0 -0.00000000000E+00 -0.00000000000E+00 -0.55673472719E+02  0.55673472719E+02  0.00000000000E+00 0. -1.
         25    2    1    2    0    0  0.84877586306E+00  0.98795425681E+02  0.39861691731E+03  0.42928103943E+03  0.12500202994E+03 0.  0.
          2    1    1    2  501    0  0.61395904674E+02 -0.66010039358E+02  0.12292069249E+02  0.90982841092E+02  0.00000000000E+00 0. -1.
          1    1    1    2  502    0 -0.62244680537E+02 -0.32785386323E+02  0.12412614834E+04  0.12432535348E+04  0.00000000000E+00 0. -1.
         22    1    3    3    0    0  0.34748355517E+02  0.67732367315E+02  0.92809447725E+02  0.12003630859E+03  0.00000000000E+00 0.  1.
         22    1    3    3    0    0 -0.33899579654E+02  0.31063058367E+02  0.30580746958E+03  0.30924473084E+03  0.00000000000E+00 0.  1.
</event>
<event>
 7    1  0.7527776E-006  0.7612973E+02  0.7818608E-02  0.1384296E+00
          2   -1    0    0  502    0  0.00000000000E+00  0.00000000000E+00  0.53707656667E+02  0.53707656667E+02  0.00000000000E+00 0. -1.
          1   -1    0    0  501    0 -0.00000000000E+00 -0.00000000000E+00 -0.18691060274E+04  0.18691060274E+04  0.00000000000E+00 0. -1.
         25    2    1    2    0    0 -0.32735677478E+02  0.82380255752E+02 -0.27800450919E+03  0.31744245088E+03  0.12500028549E+03 0.  0.
          2    1    1    2  501    0  0.52041382357E+02 -0.83807613606E+01 -0.15273256184E+04  0.15282349582E+04  0.00000000000E+00 0. -1.
          1    1    1    2  502    0 -0.19305704879E+02 -0.73999494391E+02 -0.10068243152E+02  0.77136275067E+02  0.00000000000E+00 0. -1.
         22    1    3    3    0    0 -0.48469534758E+02 -0.11541554102E+02 -0.14890279958E+03  0.15701766459E+03  0.00000000000E+00 0. -1.
         22    1    3    3    0    0  0.15733857279E+02  0.93921809854E+02 -0.12910170962E+03  0.16042478629E+03  0.00000000000E+00 0. -1.
</event>
<event>
 7    1  0.7527776E-006  0.2849246E+02  0.7818608E-02  0.1657021E+00
          2   -1    0    0  502    0  0.00000000000E+00  0.00000000000E+00  0.68196367614E+03  0.68196367614E+03  0.00000000000E+00 0. -1.
          1   -1    0    0  501    0 -0.00000000000E+00 -0.00000000000E+00 -0.97979675208E+02  0.97979675208E+02  0.00000000000E+00 0. -1.
         25    2    1    2    0    0  0.41611544418E+01 -0.48574392599E+01  0.28174105046E+03  0.30828988374E+03  0.12499489182E+03 0.  0.
          2    1    1    2  501    0 -0.22447514754E+02  0.17844217198E+02 -0.81941816619E+02  0.86814562816E+02  0.00000000000E+00 0. -1.
          1    1    1    2  502    0  0.18286360312E+02 -0.12986777938E+02  0.38418476709E+03  0.38483890479E+03  0.00000000000E+00 0. -1.
         22    1    3    3    0    0 -0.11830195428E+01 -0.21249048283E+02  0.28885581511E+03  0.28963874656E+03  0.00000000000E+00 0.  1.
         22    1    3    3    0    0  0.53441739846E+01  0.16391609023E+02 -0.71147646517E+01  0.18651137177E+02  0.00000000000E+00 0.  1.
</event>
<event>
 7    1  0.7527776E-006  0.6433099E+02  0.7818608E-02  0.1395959E+00
          2   -1    0    0  502    0  0.00000000000E+00  0.00000000000E+00  0.12078743553E+04  0.12078743553E+04  0.00000000000E+00 0. -1.
          1   -1    0    0  501    0 -0.00000000000E+00 -0.00000000000E+00 -0.55758647350E+03  0.55758647350E+03  0.00000000000E+00 0. -1.
         25    2    1    2    0    0  0.11849600570E+03 -0.64516159821E+01  0.28925901215E+03  0.33671544882E+03  0.12499436246E+03 0.  0.
          2    1    1    2  501    0 -0.56680011887E+02  0.36939419829E+01 -0.53127293951E+03  0.53430066930E+03  0.00000000000E+00 0. -1.
          1    1    1    2  502    0 -0.61815993811E+02  0.27576739991E+01  0.89230180919E+03  0.89444471073E+03  0.00000000000E+00 0. -1.
         22    1    3    3    0    0  0.58155096852E+02 -0.65554052997E+02  0.15652908639E+03  0.17938981030E+03  0.00000000000E+00 0.  1.
         22    1    3    3    0    0  0.60340908846E+02  0.59102437015E+02  0.13272992576E+03  0.15732563852E+03  0.00000000000E+00 0.  1.
</event>
<event>
 7    1  0.7527776E-006  0.1599205E+03  0.7818608E-02  0.1235962E+00
          2   -1    0    0  502    0  0.00000000000E+00  0.00000000000E+00  0.23082900562E+04  0.23082900562E+04  0.00000000000E+00 0. -1.
          1   -1    0    0  501    0 -0.00000000000E+00 -0.00000000000E+00 -0.46907690215E+03  0.46907690215E+03  0.00000000000E+00 0. -1.
         25    2    1    2    0    0 -0.11886337304E+03 -0.44078699173E+02  0.49007729991E+02  0.18465434037E+03  0.12499613853E+03 0.  0.
          2    1    1    2  501    0  0.95753478302E+02  0.13809618885E+03 -0.38253380515E+03  0.41781742193E+03  0.00000000000E+00 0. -1.
          1    1    1    2  502    0  0.23109894742E+02 -0.94017489682E+02  0.21727392292E+04  0.21748951960E+04  0.00000000000E+00 0. -1.
         22    1    3    3    0    0 -0.50750837079E+02 -0.64814381603E+02 -0.20837838804E+02  0.84916235508E+02  0.00000000000E+00 0. -1.
         22    1    3    3    0    0 -0.68112535965E+02  0.20735682431E+02  0.69845568795E+02  0.99738104863E+02  0.00000000000E+00 0. -1.
</event>
<event>
 7    1  0.7527776E-006  0.9937290E+02  0.7818608E-02  0.1302401E+00
          2   -1    0    0  502    0  0.00000000000E+00  0.00000000000E+00  0.34645841922E+04  0.34645841922E+04  0.00000000000E+00 0. -1.
          1   -1    0    0  501    0 -0.00000000000E+00 -0.00000000000E+00 -0.17416045879E+03  0.17416045879E+03  0.00000000000E+00 0. -1.
         25    2    1    2    0    0 -0.33968755029E+02  0.17657619150E+02  0.41600650347E+03  0.43606524938E+03  0.12500329178E+03 0.  0.
          2    1    1    2  501    0  0.25035135661E+02 -0.99017899750E+02 -0.14763448862E+03  0.17951948284E+03  0.00000000000E+00 0. -1.
          1    1    1    2  502    0  0.89336193678E+01  0.81360280600E+02  0.30220517185E+04  0.30231599187E+04  0.00000000000E+00 0. -1.
         22    1    3    3    0    0  0.13922305358E+02 -0.46665846590E+02  0.12320028199E+03  0.13247581405E+03  0.00000000000E+00 0.  1.
         22    1    3    3    0    0 -0.47891060387E+02  0.64323465740E+02  0.29280622148E+03  0.30358943534E+03  0.00000000000E+00 0.  1.
</event>
<event>
 7    1  0.7527776E-006  0.1009279E+03  0.7818608E-02  0.1349478E+00
          2   -1    0    0  502    0  0.00000000000E+00  0.00000000000E+00  0.84813398803E+03  0.84813398803E+03  0.00000000000E+00 0. -1.
          1   -1    0    0  501    0 -0.00000000000E+00 -0.00000000000E+00 -0.10602901591E+04  0.10602901591E+04  0.00000000000E+00 0. -1.
         25    2    1    2    0    0 -0.10002462233E+03 -0.11641898888E+03 -0.34733942269E+03  0.39978432539E+03  0.12499810491E+03 0.  0.
          2    1    1    2  501    0  0.32326309453E+02  0.42146991444E+02 -0.68262077989E+03  0.68468422525E+03  0.00000000000E+00 0. -1.
          1    1    1    2  502    0  0.67698312872E+02  0.74271997440E+02  0.81780403146E+03  0.82395559652E+03  0.00000000000E+00 0. -1.
         22    1    3    3    0    0 -0.81281139769E+02 -0.13969609215E+03 -0.32323428623E+03  0.36138902258E+03  0.00000000000E+00 0.  1.
         22    1    3    3    0    0 -0.18743482557E+02  0.23277103264E+02 -0.24105136457E+02  0.38395302816E+02  0.00000000000E+00 0.  1.
</event>
<event>
 7    1  0.7527776E-006  0.3762741E+02  0.7818608E-02  0.1584739E+00
          2   -1    0    0  502    0  0.00000000000E+00  0.00000000000E+00  0.30507927183E+04  0.30507927183E+04  0.00000000000E+00 0. -1.
          1   -1    0    0  501    0 -0.00000000000E+00 -0.00000000000E+00 -0.20374114059E+02  0.20374114059E+02  0.00000000000E+00 0. -1.
         25    2    1    2    0    0 -0.30002353407E+02  0.22326416447E+02  0.13001471944E+04  0.13066748512E+04  0.12497131505E+03 0.  0.
          2    1    1    2  501    0  0.37692858068E+02  0.24497411442E+01  0.39530074081E+01  0.37978665703E+02  0.00000000000E+00 0. -1.
          1    1    1    2  502    0 -0.76905046613E+01 -0.24776157592E+02  0.17263184025E+04  0.17265133155E+04  0.00000000000E+00 0. -1.
         22    1    3    3    0    0 -0.51652755885E+02  0.33434180867E+01  0.21489806072E+03  0.22104380139E+03  0.00000000000E+00 0. -1.
         22    1    3    3    0    0  0.21650402478E+02  0.18982998361E+02  0.10852491337E+04  0.10856310498E+04  0.00000000000E+00 0. -1.
</event>
<event>
 7    1  0.7527776E-006  0.1414966E+03  0.7818608E-02  0.1314796E+00
          2   -1    0    0  502    0  0.00000000000E+00  0.00000000000E+00  0.20155798221E+03  0.20155798221E+03  0.00000000000E+00 0. -1.
          1   -1    0    0  501    0 -0.00000000000E+00 -0.00000000000E+00 -0.71410183752E+03  0.71410183752E+03  0.00000000000E+00 0. -1.
         25    2    1    2    0    0 -0.13175323723E+02  0.11955095346E+03  0.40655494134E+02  0.17817172422E+03  0.12500509782E+03 0.  0.
          2    1    1    2  501    0  0.63715640374E+02 -0.12866035097E+03 -0.62941668456E+03  0.64558386871E+03  0.00000000000E+00 0. -1.
          1    1    1    2  502    0 -0.50540316651E+02  0.91093975068E+01  0.76217335119E+02  0.91904226795E+02  0.00000000000E+00 0. -1.
         22    1    3    3    0    0 -0.20374932992E+02  0.11418045097E+03  0.77993382747E+02  0.13976866970E+03  0.00000000000E+00 0.  1.
         22    1    3    3    0    0  0.71996092686E+01  0.53705024940E+01 -0.37337888613E+02  0.38403054523E+02  0.00000000000E+00 0.  1.
</event>
<event>
 7    1  0.7527776E-006  0.1376539E+03  0.7818608E-02  0.1343461E+00
          2   -1    0    0  502    0  0.00000000000E+00  0.00000000000E+00  0.25756449210E+03  0.25756449210E+03  0.00000000000E+00 0. -1.
          1   -1    0    0  501    0 -0.00000000000E+00 -0.00000000000E+00 -0.70393382600E+03  0.70393382600E+03  0.00000000000E+00 0. -1.
         25    2    1    2    0    0 -0.14474743843E+03  0.68862051926E+02 -0.41346587283E+03  0.46073087202E+03  0.12500042124E+03 0.  0.
          2    1    1    2  501    0  0.11152978798E+02 -0.39462236045E+02 -0.24498741291E+03  0.24839583228E+03  0.00000000000E+00 0. -1.
          1    1    1    2  502    0  0.13359445964E+03 -0.29399815880E+02  0.21208395184E+03  0.25237161379E+03  0.00000000000E+00 0. -1.
         22    1    3    3    0    0 -0.11384159219E+03  0.10162048320E+03 -0.26739199680E+03  0.30787190628E+03  0.00000000000E+00 0.  1.
         22    1    3    3    0    0 -0.30905846244E+02 -0.32758431278E+02 -0.14607387603E+03  0.15285896575E+03  0.00000000000E+00 0.  1.
</event>
<event>
 7    1  0.7527776E-006  0.1239317E+03  0.7818608E-02  0.1300746E+00
          2   -1    0    0  502    0  0.00000000000E+00  0.00000000000E+00  0.48635072193E+03  0.48635072193E+03  0.00000000000E+00 0. -1.
          1   -1    0    0  501    0 -0.00000000000E+00 -0.00000000000E+00 -0.67456598218E+03  0.67456598218E+03  0.00000000000E+00 0. -1.
         25    2    1    2    0    0  0.12993279920E+03  0.31755593296E+02 -0.16371371032E+03  0.24559713291E+03  0.12499929095E+03 0.  0.
          2    1    1    2  501    0 -0.10463413960E+02 -0.65808980391E+02 -0.45879455538E+03  0.46360840046E+03  0.00000000000E+00 0. -1.
          1    1    1    2  502    0 -0.11946938524E+03  0.34053387095E+02  0.43429300545E+03  0.45171117074E+03  0.00000000000E+00 0. -1.
         22    1    3    3    0    0  0.91783624177E+02  0.50151529151E+02 -0.17307353415E+03  0.20222229790E+03  0.00000000000E+00 0. -1.
         22    1    3    3    0    0  0.38149175019E+02 -0.18395935855E+02  0.93598238320E+01  0.43374835017E+02  0.00000000000E+00 0. -1.
</event>
<event>
 7    1  0.7527776E-006  0.1475767E+03  0.7818608E-02  0.1306652E+00
          2   -1    0    0  502    0  0.00000000000E+00  0.00000000000E+00  0.82899042370E+03  0.82899042370E+03  0.00000000000E+00 0. -1.
          1   -1    0    0  501    0 -0.00000000000E+00 -0.00000000000E+00 -0.63993555710E+03  0.63993555710E+03  0.00000000000E+00 0. -1.
         25    2    1    2    0    0 -0.19275929874E+02  0.15424751953E+03 -0.27169810084E+03  0.33706394778E+03  0.12501355181E+03 0.  0.
          2    1    1    2  501    0  0.51997845531E+02 -0.10315738525E+02 -0.32655871260E+03  0.33083346744E+03  0.00000000000E+00 0. -1.
          1    1    1    2  502    0 -0.32721915657E+02 -0.14393178101E+03  0.78731168004E+03  0.80102856558E+03  0.00000000000E+00 0. -1.
         22    1    3    3    0    0 -0.48100948693E+02  0.12468459344E+03 -0.11920695665E+03  0.17908167863E+03  0.00000000000E+00 0.  1.
         22    1    3    3    0    0  0.28825018818E+02  0.29562926092E+02 -0.15249114419E+03  0.15798226915E+03  0.00000000000E+00 0.  1.
</event>
<event>
 7    1  0.7527776E-006  0.9474020E+02  0.7818608E-02  0.1323953E+00
          2   -1    0    0  502    0  0.00000000000E+00  0.00000000000E+00  0.43853523378E+03  0.43853523378E+03  0.00000000000E+00 0. -1.
          1   -1    0    0  501    0 -0.00000000000E+00 -0.00000000000E+00 -0.30288624764E+04  0.30288624764E+04  0.00000000000E+00 0. -1.
         25    2    1    2    0    0  0.14942977319E+03  0.48315822416E+02 -0.64687784028E+02  0.21086238876E+03  0.12495904040E+03 0.  0.
          2    1    1    2  501    0 -0.57432282597E+02 -0.41178254334E+02 -0.28848230679E+04  0.28856885224E+04  0.00000000000E+00 0. -1.
          1    1    1    2  502    0 -0.91997490598E+02 -0.71375680811E+01  0.35918360926E+03  0.37084679898E+03  0.00000000000E+00 0. -1.
         22    1    3    3    0    0 -0.16488835287E+02  0.28335937595E+02 -0.17738487158E+02  0.37275474177E+02  0.00000000000E+00 0. -1.
         22    1    3    3    0    0  0.16591860848E+03  0.19979884821E+02 -0.46949296871E+02  0.17358691458E+03  0.00000000000E+00 0. -1.
</event>
<event>
 7    1  0.7527776E-006  0.1200876E+03  0.7818608E-02  0.1289812E+00
          2   -1    0    0  502    0  0.00000000000E+00  0.00000000000E+00  0.26016940489E+03  0.26016940489E+03  0.00000000000E+00 0. -1.
          1   -1    0    0  501    0 -0.00000000000E+00 -0.00000000000E+00 -0.27784928626E+03  0.27784928626E+03  0.00000000000E+00 0. -1.
         25    2    1    2    0    0 -0.84798831589E+02 -0.94204290196E+02 -0.31890837354E+02  0.18085117046E+03  0.12499932088E+03 0.  0.
          2    1    1    2  501    0  0.14269854420E+02  0.12283629244E+03 -0.13902597548E+03  0.18606613164E+03  0.00000000000E+00 0. -1.
          1    1    1    2  502    0  0.70528977169E+02 -0.28632002240E+02  0.15323693146E+03  0.17110138905E+03  0.00000000000E+00 0. -1.
         22    1    3    3    0    0 -0.91424444003E+02 -0.11441396131E+02 -0.32848450903E+02  0.97817969890E+02  0.00000000000E+00 0.  1.
         22    1    3    3    0    0  0.66256124141E+01 -0.82762894065E+02  0.95761354978E+00  0.83033200574E+02  0.00000000000E+00 0.  1.
</event>
<event>
 7    1  0.7527776E-006  0.1113888E+03  0.7818608E-02  0.1448436E+00
          2   -1    0    0  502    0  0.00000000000E+00  0.00000000000E+00  0.94719956870E+02  0.94719956870E+02  0.00000000000E+00 0. -1.
          1   -1    0    0  501    0 -0.00000000000E+00 -0.00000000000E+00 -0.11434316868E+04  0.11434316868E+04  0.00000000000E+00 0. -1.
         25    2    1    2    0    0  0.25274116989E+02 -0.10576328792E+03 -0.15521571040E+03  0.22702474286E+03  0.12499465210E+03 0.  0.
          2    1    1    2  501    0 -0.46800131737E+02  0.10154302972E+03 -0.94685570598E+03  0.95343430144E+03  0.00000000000E+00 0. -1.
          1    1    1    2  502    0  0.21526014749E+02  0.42202581993E+01  0.53359686423E+02  0.57692599398E+02  0.00000000000E+00 0. -1.
         22    1    3    3    0    0  0.29824294648E+02 -0.10138747249E+03 -0.17600586872E+03  0.20529728189E+03  0.00000000000E+00 0.  1.
         22    1    3    3    0    0 -0.45501776589E+01 -0.43758154364E+01  0.20790158315E+02  0.21727460971E+02  0.00000000000E+00 0.  1.
</event>
<event>
 7    1  0.7527776E-006  0.7512819E+02  0.7818608E-02  0.1459563E+00
          2   -1    0    0  502    0  0.00000000000E+00  0.00000000000E+00  0.24752719877E+03  0.24752719877E+03  0.00000000000E+00 0. -1.
          1   -1    0    0  501    0 -0.00000000000E+00 -0.00000000000E+00 -0.26305360833E+03  0.26305360833E+03  0.00000000000E+00 0. -1.
         25    2    1    2    0    0  0.78507914327E+02  0.62194662551E+02  0.70428057812E+02  0.17497807674E+03  0.12500218938E+03 0.  0.
          2    1    1    2  501    0 -0.21750541441E+02 -0.20628835648E+02 -0.19965781195E+03  0.20189570769E+03  0.00000000000E+00 0. -1.
          1    1    1    2  502    0 -0.56757372887E+02 -0.41565826902E+02  0.11370334458E+03  0.13370702267E+03  0.00000000000E+00 0. -1.
         22    1    3    3    0    0  0.31650231600E+02 -0.36802729407E+02  0.35075435089E+02  0.59887095428E+02  0.00000000000E+00 0. -1.
         22    1    3    3    0    0  0.46857682727E+02  0.98997391958E+02  0.35352622723E+02  0.11509098131E+03  0.00000000000E+00 0. -1.
</event>
<event>
 7    1  0.7527776E-006  0.1241024E+03  0.7818608E-02  0.1312074E+00
          2   -1    0    0  502    0  0.00000000000E+00  0.00000000000E+00  0.11988500207E+04  0.11988500207E+04  0.00000000000E+00 0. -1.
          1   -1    0    0  501    0 -0.00000000000E+00 -0.00000000000E+00 -0.46850986118E+03  0.46850986118E+03  0.00000000000E+00 0. -1.
         25    2    1    2    0    0 -0.13474051892E+02  0.17695268798E+03 -0.19005118183E+02  0.21789650370E+03  0.12499555172E+03 0.  0.
          2    1    1    2  501    0  0.19055407034E+02 -0.11720397005E+03 -0.33913912334E+03  0.35932606935E+03  0.00000000000E+00 0. -1.
          1    1    1    2  502    0 -0.55813551425E+01 -0.59748717926E+02  0.10884844010E+04  0.10901373088E+04  0.00000000000E+00 0. -1.
         22    1    3    3    0    0  0.10292756990E+02  0.18496106670E+03 -0.34477102328E+02  0.18842825591E+03  0.00000000000E+00 0. -1.
         22    1    3    3    0    0 -0.23766808882E+02 -0.80083787235E+01  0.15471984145E+02  0.29468247786E+02  0.00000000000E+00 0. -1.
</event>
