<event>
 7    1  0.6176857E-006  0.1198598E+03  0.7818608E-02  0.1300502E+00
          2   -1    0    0  502    0  0.00000000000E+00  0.00000000000E+00  0.33111992033E+03  0.33111992033E+03  0.00000000000E+00 0. -1.
          1   -1    0    0  501    0 -0.00000000000E+00 -0.00000000000E+00 -0.14497623991E+04  0.14497623991E+04  0.00000000000E+00 0. -1.
         25    2    1    2    0    0  0.18441119139E+03 -0.84580953907E+01 -0.85341374538E+02  0.23872042863E+03  0.12500106380E+03 0.  0.
          2    1    1    2  501    0 -0.11612375578E+03  0.18724596008E+02 -0.12802998741E+04  0.12856916834E+04  0.00000000000E+00 0. -1.
          1    1    1    2  502    0 -0.68287435605E+02 -0.10266500617E+02  0.24699876993E+03  0.25647020732E+03  0.00000000000E+00 0. -1.
         22    1    3    3    0    0  0.11774632503E+03  0.23754355758E+02  0.70469931231E+01  0.12032508711E+03  0.00000000000E+00 0.  1.
         22    1    3    3    0    0  0.66664866355E+02 -0.32212451148E+02 -0.92388367661E+02  0.11839534152E+03  0.00000000000E+00 0.  1.
</event>
<event>
 7    1  0.6176857E-006  0.9667237E+02  0.7818608E-02  0.1319147E+00
          2   -1    0    0  502    0  0.00000000000E+00  0.00000000000E+00  0.60710157842E+03  0.60710157842E+03  0.00000000000E+00 0. -1.
          1   -1    0    0  501    0 -0.00000000000E+00 -0.00000000000E+00 -0.43258690498E+03  0.43258690498E+03  0.00000000000E+00 0. -1.
         25    2    1    2    0    0 -0.57153724768E+02 -0.18278529462E+02 -0.12515291163E+01  0.13866426458E+03  0.12500223619E+03 0.  0.
          2    1    1    2  501    0  0.91681086754E+02 -0.45229788312E+02 -0.35291513808E+03  0.36742380177E+03  0.00000000000E+00 0. -1.
          1    1    1    2  502    0 -0.34527361986E+02  0.63508317774E+02  0.52868134063E+03  0.53360041706E+03  0.00000000000E+00 0. -1.
         22    1    3    3    0    0 -0.46719513279E+02  0.39819391034E+02  0.33736918171E+02  0.70046245232E+02  0.00000000000E+00 0. -1.
         22    1    3    3    0    0 -0.10434211489E+02 -0.58097920496E+02 -0.34988447287E+02  0.68618019346E+02  0.00000000000E+00 0. -1.
</event>
<event>
 7    1  0.6176857E-006  0.6657773E+02  0.7818608E-02  0.1382791E+00
          2   -1    0    0  502    0  0.00000000000E+00  0.00000000000E+00  0.40809560535E+03  0.40809560535E+03  0.00000000000E+00 0. -1.
          1   -1    0    0  501    0 -0.00000000000E+00 -0.00000000000E+00 -0.71291376869E+03  0.71291376869E+03  0.00000000000E+00 0. -1.
         25    2    1    2    0    0 -0.22466048776E+02 -0.12297307242E+03 -0.12735602059E+03  0.21788066834E+03  0.12500131906E+03 0.  0.
          2    1    1    2  501    0  0.88001529948E+01  0.63508202853E+02 -0.53580553341E+03  0.53962793122E+03  0.00000000000E+00 0. -1.
          1    1    1    2  502    0  0.13665895781E+02  0.59464869567E+02  0.35834339066E+03  0.36350077448E+03  0.00000000000E+00 0. -1.
         22    1    3    3    0    0 -0.62994792196E+02 -0.30241522260E+02 -0.79775891719E+02  0.10605228150E+03  0.00000000000E+00 0.  1.
         22    1    3    3    0    0  0.40528743420E+02 -0.92731550160E+02 -0.47580128875E+02  0.11182838683E+03  0.00000000000E+00 0.  1.
</event>
<event>
 7    1  0.1026600E-005  0.7435783E+02  0.7818608E-02  0.1376492E+00
          2   -1    0    0  502    0  0.00000000000E+00  0.00000000000E+00  0.11693273808E+04  0.11693273808E+04  0.00000000000E+00 0. -1.
          1   -1    0    0  501    0 -0.00000000000E+00 -0.00000000000E+00 -0.15174473990E+04  0.15174473990E+04  0.00000000000E+00 0. -1.
         25    2    1    2    0    0 -0.69703600486E+02 -0.94654630547E+02 -0.13547536845E+03  0.21863274693E+03  0.12501444544E+03 0.  0.
          2    1    1    2  501    0  0.63242472432E+02  0.37506065766E+02 -0.13386505335E+04  0.13406683282E+04  0.00000000000E+00 0. -1.
          1    1    1    2  502    0  0.64611280547E+01  0.57148564781E+02  0.11260058837E+04  0.11274737047E+04  0.00000000000E+00 0. -1.
         22    1    3    3    0    0  0.26721846848E+02 -0.64461918642E+02 -0.45233526544E+02  0.83159292792E+02  0.00000000000E+00 0. -1.
         22    1    3    3    0    0 -0.96425447335E+02 -0.30192711904E+02 -0.90241841901E+02  0.13547345414E+03  0.00000000000E+00 0. -1.
</event>
<event>
 7    1  0.6176857E-006  0.6189221E+02  0.7818608E-02  0.1430842E+00
          2   -1    0    0  502    0  0.00000000000E+00  0.00000000000E+00  0.63080375581E+03  0.63080375581E+03  0.00000000000E+00 0. -1.
          1   -1    0    0  501    0 -0.00000000000E+00 -0.00000000000E+00 -0.83683724417E+02  0.83683724417E+02  0.00000000000E+00 0. -1.
         25    2    1    2    0    0 -0.50527056683E+02  0.90117766517E+02  0.36091522154E+03  0.39567676225E+03  0.12500443091E+03 0.  0.
          2    1    1    2  501    0  0.20060022275E+02 -0.56961552434E+02 -0.49968685142E+02  0.78382985681E+02  0.00000000000E+00 0. -1.
          1    1    1    2  502    0  0.30467034409E+02 -0.33156214083E+02  0.23617349500E+03  0.24042773229E+03  0.00000000000E+00 0. -1.
         22    1    3    3    0    0 -0.16638964559E+02  0.95565198022E+02  0.34399376873E+03  0.35740911452E+03  0.00000000000E+00 0.  1.
         22    1    3    3    0    0 -0.33888092124E+02 -0.54474315048E+01  0.16921452807E+02  0.38267647732E+02  0.00000000000E+00 0.  1.
</event>
<event>
 7    1  0.6176857E-006  0.5603898E+02  0.7818608E-02  0.1464914E+00
          2   -1    0    0  502    0  0.00000000000E+00  0.00000000000E+00  0.32588583211E+02  0.32588583211E+02  0.00000000000E+00 0. -1.
          1   -1    0    0  501    0 -0.00000000000E+00 -0.00000000000E+00 -0.24988835983E+04  0.24988835983E+04  0.00000000000E+00 0. -1.
         25    2    1    2    0    0 -0.64467005952E+02 -0.57618541347E+02 -0.77907904034E+03  0.79376613957E+03  0.12499856829E+03 0.  0.
          2    1    1    2  501    0  0.27247595279E+02  0.47158561077E+02 -0.16969615541E+04  0.16978353505E+04  0.00000000000E+00 0. -1.
          1    1    1    2  502    0  0.37219410672E+02  0.10459980270E+02  0.97455793544E+01  0.39870691429E+02  0.00000000000E+00 0. -1.
         22    1    3    3    0    0 -0.29665463748E+02 -0.94371315124E+02 -0.44407642569E+03  0.45496137937E+03  0.00000000000E+00 0. -1.
         22    1    3    3    0    0 -0.34801542204E+02  0.36752773777E+02 -0.33500261464E+03  0.33880476021E+03  0.00000000000E+00 0. -1.
</event>
<event>
 7    1  0.6176857E-006  0.7590399E+02  0.7818608E-02  0.1460900E+00
          2   -1    0    0  502    0  0.00000000000E+00  0.00000000000E+00  0.36480782548E+02  0.36480782548E+02  0.00000000000E+00 0. -1.
          1   -1    0    0  501    0 -0.00000000000E+00 -0.00000000000E+00 -0.91751804263E+03  0.91751804263E+03  0.00000000000E+00 0. -1.
         25    2    1    2    0    0 -0.42466877509E+02 -0.75382906272E+02 -0.31479312925E+03  0.34957908990E+03  0.12499923051E+03 0.  0.
          2    1    1    2  501    0  0.56353372010E+02  0.49487103514E+02 -0.56989590959E+03  0.57480955430E+03  0.00000000000E+00 0. -1.
          1    1    1    2  502    0 -0.13886494501E+02  0.25895802758E+02  0.36517787458E+01  0.29610180986E+02  0.00000000000E+00 0. -1.
         22    1    3    3    0    0 -0.51861143350E+02 -0.10642938153E+03 -0.22766461122E+03  0.25660858646E+03  0.00000000000E+00 0. -1.
         22    1    3    3    0    0  0.93942658413E+01  0.31046475254E+02 -0.87128518021E+02  0.92970503435E+02  0.00000000000E+00 0. -1.
</event>
<event>
 7    1  0.6176857E-006  0.7275809E+02  0.7818608E-02  0.1402288E+00
          2   -1    0    0  502    0  0.00000000000E+00  0.00000000000E+00  0.12276957417E+04  0.12276957417E+04  0.00000000000E+00 0. -1.
          1   -1    0    0  501    0 -0.00000000000E+00 -0.00000000000E+00 -0.23037803453E+03  0.23037803453E+03  0.00000000000E+00 0. -1.
         25    2    1    2    0    0  0.82507332833E+02 -0.69127898109E+02 -0.12779369693E+03  0.20866052349E+03  0.12498743465E+03 0.  0.
          2    1    1    2  501    0 -0.43549910927E+02  0.41492636352E+02 -0.46995502459E+02  0.76333550058E+02  0.00000000000E+00 0. -1.
          1    1    1    2  502    0 -0.38957421906E+02  0.27635261757E+02  0.11721069066E+04  0.11730797027E+04  0.00000000000E+00 0. -1.
         22    1    3    3    0    0  0.10147860713E+03 -0.84330608394E+02 -0.12871923715E+03  0.18433176945E+03  0.00000000000E+00 0.  1.
         22    1    3    3    0    0 -0.18971274296E+02  0.15202710285E+02  0.92554022006E+00  0.24328754039E+02  0.00000000000E+00 0.  1.
</event>
<event>
 7    1  0.6176857E-006  0.3403234E+02  0.7818608E-02  0.1636878E+00
          2   -1    0    0  502    0  0.00000000000E+00  0.00000000000E+00  0.11661877307E+04  0.11661877307E+04  0.00000000000E+00 0. -1.
          1   -1    0    0  501    0 -0.00000000000E+00 -0.00000000000E+00 -0.16454552983E+04  0.16454552983E+04  0.00000000000E+00 0. -1.
         25    2    1    2    0    0 -0.11312676440E+02  0.51814739412E+02  0.26828385354E+03  0.30068888210E+03  0.12499933552E+03 0.  0.
          2    1    1    2  501    0  0.67902476829E-01 -0.34021156204E+02 -0.16289495161E+04  0.16293047504E+04  0.00000000000E+00 0. -1.
          1    1    1    2  502    0  0.11244773964E+02 -0.17793583209E+02  0.88139809494E+03  0.88164939648E+03  0.00000000000E+00 0. -1.
         22    1    3    3    0    0 -0.19310272442E+01  0.92365118339E+02  0.16114133661E+03  0.18574599408E+03  0.00000000000E+00 0. -1.
         22    1    3    3    0    0 -0.93816491963E+01 -0.40550378927E+02  0.10714251693E+03  0.11494288802E+03  0.00000000000E+00 0. -1.
</event>
<event>
 7    1  0.6176857E-006  0.6565993E+02  0.7818608E-02  0.1464067E+00
          2   -1    0    0  502    0  0.00000000000E+00  0.00000000000E+00  0.18467630723E+04  0.18467630723E+04  0.00000000000E+00 0. -1.
          1   -1    0    0  501    0 -0.00000000000E+00 -0.00000000000E+00 -0.41893358464E+02  0.41893358464E+02  0.00000000000E+00 0. -1.
         25    2    1    2    0    0  0.40309914003E+02  0.63385466090E+01  0.33849226546E+03  0.36313555264E+03  0.12500139789E+03 0.  0.
          2    1    1    2  501    0  0.17552005833E+02  0.28179646554E+02 -0.19243515212E+02  0.38372884520E+02  0.00000000000E+00 0. -1.
          1    1    1    2  502    0 -0.57861919836E+02 -0.34518193163E+02  0.14856209635E+04  0.14871479936E+04  0.00000000000E+00 0. -1.
         22    1    3    3    0    0  0.76940636185E+01 -0.36993519309E+02  0.25749136870E+02  0.45724579117E+02  0.00000000000E+00 0. -1.
         22    1    3    3    0    0  0.32615850385E+02  0.43332065918E+02  0.31274312859E+03  0.31741097353E+03  0.00000000000E+00 0. -1.
</event>
<event>
 7    1  0.6176857E-006  0.2436484E+03  0.7818608E-02  0.1264526E+00
          2   -1    0    0  502    0  0.00000000000E+00  0.00000000000E+00  0.17227545240E+04  0.17227545240E+04  0.00000000000E+00 0. -1.
          1   -1    0    0  501    0 -0.00000000000E+00 -0.00000000000E+00 -0.19755450532E+04  0.19755450532E+04  0.00000000000E+00 0. -1.
         25    2    1    2    0    0 -0.23850955005E+03 -0.35096711243E+02  0.25493615617E+03  0.37247237367E+03  0.12499856329E+03 0.  0.
          2    1    1    2  501    0 -0.60075302090E+01  0.47396426923E+02 -0.19058405188E+04  0.19064392450E+04  0.00000000000E+00 0. -1.
          1    1    1    2  502    0  0.24451708025E+03 -0.12299715680E+02  0.13981138334E+04  0.14193879585E+04  0.00000000000E+00 0. -1.
         22    1    3    3    0    0 -0.82864935183E+02 -0.36835501610E+02  0.23701895233E+02  0.93729565770E+02  0.00000000000E+00 0.  1.
         22    1    3    3    0    0 -0.15564461486E+03  0.17387903669E+01  0.23123426094E+03  0.27874280790E+03  0.00000000000E+00 0.  1.
</event>
<event>
 7    1  0.6176857E-006  0.9476002E+02  0.7818608E-02  0.1330389E+00
          2   -1    0    0  502    0  0.00000000000E+00  0.00000000000E+00  0.18966179183E+04  0.18966179183E+04  0.00000000000E+00 0. -1.
          1   -1    0    0  501    0 -0.00000000000E+00 -0.00000000000E+00 -0.10927073363E+04  0.10927073363E+04  0.00000000000E+00 0. -1.
         25    2    1    2    0    0 -0.51269989447E+02  0.13757261016E+03  0.55040863943E+02  0.20052161270E+03  0.12499834227E+03 0.  0.
          2    1    1    2  501    0 -0.97309921784E+01 -0.66035812237E+02 -0.10176235835E+04  0.10198103640E+04  0.00000000000E+00 0. -1.
          1    1    1    2  502    0  0.61000981625E+02 -0.71536797924E+02  0.17664933015E+04  0.17689932779E+04  0.00000000000E+00 0. -1.
         22    1    3    3    0    0  0.15898464686E+02  0.96619666491E+02  0.70099820695E+02  0.12042469013E+03  0.00000000000E+00 0.  1.
         22    1    3    3    0    0 -0.67168454133E+02  0.40952943670E+02 -0.15058956752E+02  0.80096922565E+02  0.00000000000E+00 0.  1.
</event>
<event>
 7    1  0.6176857E-006  0.4489326E+02  0.7818608E-02  0.1536953E+00
          2   -1    0    0  502    0  0.00000000000E+00  0.00000000000E+00  0.49908465358E+02  0.49908465358E+02  0.00000000000E+00 0. -1.
          1   -1    0    0  501    0 -0.00000000000E+00 -0.00000000000E+00 -0.16900891504E+04  0.16900891504E+04  0.00000000000E+00 0. -1.
         25    2    1    2    0    0 -0.54652252494E+02  0.40388764944E+02 -0.12086764536E+04  0.12170217457E+04  0.12500015656E+03 0.  0.
          2    1    1    2  501    0  0.27205823653E+02 -0.29772933878E+02 -0.47155474886E+03  0.47327630999E+03  0.00000000000E+00 0. -1.
          1    1    1    2  502    0  0.27446428841E+02 -0.10615831066E+02  0.40050517380E+02  0.49699560035E+02  0.00000000000E+00 0. -1.
         22    1    3    3    0    0 -0.17557527475E+02 -0.11953473171E+02 -0.30881792937E+02  0.37481160960E+02  0.00000000000E+00 0.  1.
         22    1    3    3    0    0 -0.37094725019E+02  0.52342238114E+02 -0.11777946606E+04  0.11795405848E+04  0.00000000000E+00 0.  1.
</event>
<event>
 7    1  0.6176857E-006  0.1424294E+03  0.7818608E-02  0.1367620E+00
          2   -1    0    0  502    0  0.00000000000E+00  0.00000000000E+00  0.58424710356E+03  0.58424710356E+03  0.00000000000E+00 0. -1.
          1   -1    0    0  501    0 -0.00000000000E+00 -0.00000000000E+00 -0.16140771695E+04  0.16140771695E+04  0.00000000000E+00 0. -1.
         25    2    1    2    0    0  0.36453633075E+02 -0.14458562456E+03 -0.50585534400E+02  0.20102877027E+03  0.12497919823E+03 0.  0.
          2    1    1    2  501    0 -0.63697869009E+02  0.12722335076E+03 -0.14843523354E+04  0.14911556106E+04  0.00000000000E+00 0. -1.
          1    1    1    2  502    0  0.27244235934E+02  0.17362273799E+02  0.50510780385E+03  0.50613989218E+03  0.00000000000E+00 0. -1.
         22    1    3    3    0    0 -0.26385562278E+00 -0.49013570828E+02 -0.80603618980E+02  0.94336329894E+02  0.00000000000E+00 0.  1.
         22    1    3    3    0    0  0.36717488698E+02 -0.95572053733E+02  0.30018084580E+02  0.10669244037E+03  0.00000000000E+00 0.  1.
</event>
<event>
 7    1  0.6176857E-006  0.9477594E+02  0.7818608E-02  0.1365550E+00
          2   -1    0    0  502    0  0.00000000000E+00  0.00000000000E+00  0.32321442861E+03  0.32321442861E+03  0.00000000000E+00 0. -1.
          1   -1    0    0  501    0 -0.00000000000E+00 -0.00000000000E+00 -0.21551284120E+03  0.21551284120E+03  0.00000000000E+00 0. -1.
         25    2    1    2    0    0  0.40963679487E+02  0.41880415143E+02 -0.57950202943E+02  0.14971738352E+03  0.12500030678E+03 0.  0.
          2    1    1    2  501    0  0.49295537280E+02 -0.31076807767E+01 -0.96856083326E+02  0.10872354185E+03  0.00000000000E+00 0. -1.
          1    1    1    2  502    0 -0.90259216767E+02 -0.38772734366E+02  0.26250787367E+03  0.28028634444E+03  0.00000000000E+00 0. -1.
         22    1    3    3    0    0  0.11414668967E+02  0.23727297986E+02  0.38827731096E+02  0.46913452648E+02  0.00000000000E+00 0.  1.
         22    1    3    3    0    0  0.29549010520E+02  0.18153117157E+02 -0.96777934039E+02  0.10280393087E+03  0.00000000000E+00 0.  1.
</event>
<event>
 7    1  0.6176857E-006  0.7928595E+02  0.7818608E-02  0.1408531E+00
          2   -1    0    0  502    0  0.00000000000E+00  0.00000000000E+00  0.12179251846E+04  0.12179251846E+04  0.00000000000E+00 0. -1.
          1   -1    0    0  501    0 -0.00000000000E+00 -0.00000000000E+00 -0.41325477239E+02  0.41325477239E+02  0.00000000000E+00 0. -1.
         25    2    1    2    0    0 -0.29202530496E+02  0.63476018990E+02  0.73597047027E+03  0.74977146293E+03  0.12499088264E+03 0.  0.
          2    1    1    2  501    0  0.33564628629E+02  0.24801435964E+02 -0.15760064737E+02  0.44610258477E+02  0.00000000000E+00 0. -1.
          1    1    1    2  502    0 -0.43620981330E+01 -0.88277454955E+02  0.45638930183E+03  0.46486894043E+03  0.00000000000E+00 0. -1.
         22    1    3    3    0    0  0.39512310724E+02  0.40239401381E+02  0.16857637377E+03  0.17775946083E+03  0.00000000000E+00 0. -1.
         22    1    3    3    0    0 -0.68714841220E+02  0.23236617609E+02  0.56739409650E+03  0.57201200210E+03  0.00000000000E+00 0. -1.
</event>
<event>
 7    1  0.6176857E-006  0.7275578E+02  0.7818608E-02  0.1379525E+00
          2   -1    0    0  502    0  0.00000000000E+00  0.00000000000E+00  0.46446125030E+03  0.46446125030E+03  0.00000000000E+00 0. -1.
          1   -1    0    0  501    0 -0.00000000000E+00 -0.00000000000E+00 -0.53283705860E+03  0.53283705860E+03  0.00000000000E+00 0. -1.
         25    2    1    2    0    0  0.31319729335E+02 -0.17195908509E+02  0.19628339674E+03  0.23543441708E+03  0.12500227276E+03 0.  0.
          2    1    1    2  501    0 -0.14312018723E+02  0.71953994804E+02 -0.50728113153E+03  0.51255863826E+03  0.00000000000E+00 0. -1.
          1    1    1    2  502    0 -0.17007710612E+02 -0.54758086295E+02  0.24262192650E+03  0.24930525356E+03  0.00000000000E+00 0. -1.
         22    1    3    3    0    0  0.34216417137E+02  0.36709388290E+02  0.16625070169E+03  0.17365954682E+03  0.00000000000E+00 0. -1.
         22    1    3    3    0    0 -0.28966878027E+01 -0.53905296799E+02  0.30032695048E+02  0.61774870256E+02  0.00000000000E+00 0. -1.
</event>
<event>
 7    1  0.6176857E-006  0.7053989E+02  0.7818608E-02  0.1373356E+00
          2   -1    0    0  502    0  0.00000000000E+00  0.00000000000E+00  0.18203880043E+04  0.18203880043E+04  0.00000000000E+00 0. -1.
          1   -1    0    0  501    0 -0.00000000000E+00 -0.00000000000E+00 -0.62378081004E+03  0.62378081004E+03  0.00000000000E+00 0. -1.
         25    2    1    2    0    0  0.27485825114E+02 -0.48680007441E+01  0.25393504747E+03  0.28440661638E+03  0.12499978838E+03 0.  0.
          2    1    1    2  501    0  0.24301700945E+02  0.57264772807E+02 -0.60607735429E+03  0.60926150893E+03  0.00000000000E+00 0. -1.
          1    1    1    2  502    0 -0.51787526059E+02 -0.52396772063E+02  0.15487495011E+04  0.15505006891E+04  0.00000000000E+00 0. -1.
         22    1    3    3    0    0 -0.25504001281E+02 -0.51384531339E+02  0.10600646603E+03  0.12053296222E+03  0.00000000000E+00 0. -1.
         22    1    3    3    0    0  0.52989826395E+02  0.46516530595E+02  0.14792858144E+03  0.16387365416E+03  0.00000000000E+00 0. -1.
</event>
<event>
 7    1  0.6176857E-006  0.8324026E+02  0.7818608E-02  0.1360521E+00
          2   -1    0    0  502    0  0.00000000000E+00  0.00000000000E+00  0.27330907092E+03  0.27330907092E+03  0.00000000000E+00 0. -1.
          1   -1    0    0  501    0 -0.00000000000E+00 -0.00000000000E+00 -0.32423731367E+03  0.32423731367E+03  0.00000000000E+00 0. -1.
         25    2    1    2    0    0  0.64344131105E+01 -0.27559115373E+02  0.14050978265E+03  0.19018084934E+03  0.12499939969E+03 0.  0.
          2    1    1    2  501    0  0.83058875429E+02 -0.54922154334E+01 -0.27077806550E+03  0.28328378347E+03  0.00000000000E+00 0. -1.
          1    1    1    2  502    0 -0.89493288539E+02  0.33051330807E+02  0.79340040099E+02  0.12408175178E+03  0.00000000000E+00 0. -1.
         22    1    3    3    0    0 -0.55659690377E+02 -0.66514347939E+01  0.95346028447E+02  0.11060338086E+03  0.00000000000E+00 0. -1.
         22    1    3    3    0    0  0.62094103487E+02 -0.20907680580E+02  0.45163754205E+02  0.79577468475E+02  0.00000000000E+00 0. -1.
</event>
<event>
 7    1  0.6176857E-006  0.5091227E+02  0.7818608E-02  0.1482986E+00
          2   -1    0    0  502    0  0.00000000000E+00  0.00000000000E+00  0.17570645417E+03  0.17570645417E+03  0.00000000000E+00 0. -1.
          1   -1    0    0  501    0 -0.00000000000E+00 -0.00000000000E+00 -0.10644315677E+04  0.10644315677E+04  0.00000000000E+00 0. -1.
         25    2    1    2    0    0  0.56535279990E+02 -0.32749122758E+02 -0.51858534193E+03  0.53742301065E+03  0.12499597031E+03 0.  0.
          2    1    1    2  501    0 -0.58183142240E+01  0.36958913039E+02 -0.53186102010E+03  0.53317535458E+03  0.00000000000E+00 0. -1.
          1    1    1    2  502    0 -0.50716965766E+02 -0.42097902804E+01  0.16172124850E+03  0.16953965662E+03  0.00000000000E+00 0. -1.
         22    1    3    3    0    0  0.90338704881E+02 -0.30862042817E+02 -0.26666801428E+03  0.28324084650E+03  0.00000000000E+00 0.  1.
         22    1    3    3    0    0 -0.33803424890E+02 -0.18870799409E+01 -0.25191732765E+03  0.25418216415E+03  0.00000000000E+00 0.  1.
</event>
<event>
 7    1  0.6176857E-006  0.8192597E+02  0.7818608E-02  0.1370738E+00
          2   -1    0    0  502    0  0.00000000000E+00  0.00000000000E+00  0.20910696131E+02  0.20910696131E+02  0.00000000000E+00 0. -1.
          1   -1    0    0  501    0 -0.00000000000E+00 -0.00000000000E+00 -0.37963747785E+04  0.37963747785E+04  0.00000000000E+00 0. -1.
         25    2    1    2    0    0  0.11285476349E+03  0.14630750835E+02 -0.23923191705E+04  0.23982840482E+04  0.12500042272E+03 0.  0.
          2    1    1    2  501    0 -0.63104993164E+02 -0.37446029049E+02 -0.13558624756E+04  0.13578466400E+04  0.00000000000E+00 0. -1.
          1    1    1    2  502    0 -0.49749770321E+02  0.22815278213E+02 -0.27282436266E+02  0.61154786367E+02  0.00000000000E+00 0. -1.
         22    1    3    3    0    0  0.87966296192E+02 -0.32838642588E+02 -0.20139286918E+04  0.20161163710E+04  0.00000000000E+00 0. -1.
         22    1    3    3    0    0  0.24888467294E+02  0.47469393423E+02 -0.37839047877E+03  0.38216767726E+03  0.00000000000E+00 0. -1.
</event>
<event>
 7    1  0.6176857E-006  0.5252929E+02  0.7818608E-02  0.1482798E+00
          2   -1    0    0  502    0  0.00000000000E+00  0.00000000000E+00  0.54007645580E+02  0.54007645580E+02  0.00000000000E+00 0. -1.
          1   -1    0    0  501    0 -0.00000000000E+00 -0.00000000000E+00 -0.16895116986E+04  0.16895116986E+04  0.00000000000E+00 0. -1.
         25    2    1    2    0    0 -0.14751893883E+02  0.84546665523E+02 -0.24580944270E+03  0.28881335214E+03  0.12500045291E+03 0.  0.
          2    1    1    2  501    0 -0.97129620710E+00 -0.51817240728E+02 -0.14114341236E+04  0.14123853069E+04  0.00000000000E+00 0. -1.
          1    1    1    2  502    0  0.15723190090E+02 -0.32729424795E+02  0.21739513282E+02  0.42320685152E+02  0.00000000000E+00 0. -1.
         22    1    3    3    0    0  0.33016697724E+01  0.11070130605E+03 -0.14101970162E+03  0.17931044708E+03  0.00000000000E+00 0.  1.
         22    1    3    3    0    0 -0.18053563655E+02 -0.26154640529E+02 -0.10478974108E+03  0.10950290506E+03  0.00000000000E+00 0.  1.
</event>
<event>
 7    1  0.6176857E-006  0.7222307E+02  0.7818608E-02  0.1371757E+00
          2   -1    0    0  502    0  0.00000000000E+00  0.00000000000E+00  0.55019070868E+03  0.55019070868E+03  0.00000000000E+00 0. -1.
          1   -1    0    0  501    0 -0.00000000000E+00 -0.00000000000E+00 -0.42770189633E+03  0.42770189633E+03  0.00000000000E+00 0. -1.
         25    2    1    2    0    0  0.63460534077E+02  0.10738175169E+03 -0.15064472080E+03  0.23211316083E+03  0.12499843016E+03 0.  0.
          2    1    1    2  501    0 -0.20638832253E+02 -0.63149300346E+02 -0.22973905601E+03  0.23915231420E+03  0.00000000000E+00 0. -1.
          1    1    1    2  502    0 -0.42821701824E+02 -0.44232451340E+02  0.50287258916E+03  0.50662712998E+03  0.00000000000E+00 0. -1.
         22    1    3    3    0    0  0.61805759791E+02  0.33001611724E+02 -0.14053311754E+03  0.15703061945E+03  0.00000000000E+00 0. -1.
         22    1    3    3    0    0  0.16547742864E+01  0.74380139962E+02 -0.10111603260E+02  0.75082541374E+02  0.00000000000E+00 0. -1.
</event>
<event>
 7    1  0.6176857E-006  0.9020756E+02  0.7818608E-02  0.1434305E+00
          2   -1    0    0  502    0  0.00000000000E+00  0.00000000000E+00  0.27118373954E+03  0.27118373954E+03  0.00000000000E+00 0. -1.
          1   -1    0    0  501    0 -0.00000000000E+00 -0.00000000000E+00 -0.24414174801E+03  0.24414174801E+03  0.00000000000E+00 0. -1.
         25    2    1    2    0    0  0.12181897945E+02  0.11319625472E+03  0.90944096546E+02  0.19198355750E+03  0.12500026774E+03 0.  0.
          2    1    1    2  501    0 -0.15770592743E+01 -0.30055748937E+02 -0.17869253242E+03  0.18120942664E+03  0.00000000000E+00 0. -1.
          1    1    1    2  502    0 -0.10604838670E+02 -0.83140505783E+02  0.11479042740E+03  0.14213250342E+03  0.00000000000E+00 0. -1.
         22    1    3    3    0    0  0.42314010831E+02  0.12843063857E+03  0.75255271787E+02  0.15475225480E+03  0.00000000000E+00 0.  1.
         22    1    3    3    0    0 -0.30132112887E+02 -0.15234383847E+02  0.15688824759E+02  0.37231302698E+02  0.00000000000E+00 0.  1.
</event>
<event>
 7    1  0.6176857E-006  0.3458983E+02  0.7818608E-02  0.1571149E+00
          2   -1    0    0  502    0  0.00000000000E+00  0.00000000000E+00  0.17145935358E+04  0.17145935358E+04  0.00000000000E+00 0. -1.
          1   -1    0    0  501    0 -0.00000000000E+00 -0.00000000000E+00 -0.17364118063E+03  0.17364118063E+03  0.00000000000E+00 0. -1.
         25    2    1    2    0    0  0.10033367386E+02 -0.51120298169E+01  0.98514574387E+03  0.99310816756E+03  0.12499957798E+03 0.  0.
          2    1    1    2  501    0  0.26262916707E+02  0.15893359663E+02 -0.16777233776E+03  0.17055760609E+03  0.00000000000E+00 0. -1.
          1    1    1    2  502    0 -0.36296284093E+02 -0.10781329846E+02  0.72357894905E+03  0.72456894277E+03  0.00000000000E+00 0. -1.
         22    1    3    3    0    0  0.42201399898E+01  0.99496309603E+01  0.97260523693E+03  0.97266528243E+03  0.00000000000E+00 0.  1.
         22    1    3    3    0    0  0.58132273963E+01 -0.15061660777E+02  0.12540506942E+02  0.20442885131E+02  0.00000000000E+00 0.  1.
</event>
<event>
 7    1  0.6176857E-006  0.1380057E+03  0.7818608E-02  0.1415017E+00
          2   -1    0    0  502    0  0.00000000000E+00  0.00000000000E+00  0.15474225060E+04  0.15474225060E+04  0.00000000000E+00 0. -1.
          1   -1    0    0  501    0 -0.00000000000E+00 -0.00000000000E+00 -0.92118779243E+02  0.92118779243E+02  0.00000000000E+00 0. -1.
         25    2    1    2    0    0  0.67709151532E+02  0.12628304820E+03  0.60663470481E+03  0.63573856955E+03  0.12500370502E+03 0.  0.
          2    1    1    2  501    0 -0.45218643456E+02 -0.13000401553E+03 -0.16235487801E+02  0.13859783849E+03  0.00000000000E+00 0. -1.
          1    1    1    2  502    0 -0.22490508075E+02  0.37209673379E+01  0.86490450972E+03  0.86520487718E+03  0.00000000000E+00 0. -1.
         22    1    3    3    0    0  0.13392587143E+02  0.73566667791E+02  0.10780977512E+03  0.13120351981E+03  0.00000000000E+00 0.  1.
         22    1    3    3    0    0  0.54316564389E+02  0.52716380405E+02  0.49882492969E+03  0.50453504974E+03  0.00000000000E+00 0.  1.
</event>
<event>
 7    1  0.6176857E-006  0.4519434E+02  0.7818608E-02  0.1498777E+00
          2   -1    0    0  502    0  0.00000000000E+00  0.00000000000E+00  0.47985773640E+03  0.47985773640E+03  0.00000000000E+00 0. -1.
          1   -1    0    0  501    0 -0.00000000000E+00 -0.00000000000E+00 -0.16056668902E+03  0.16056668902E+03  0.00000000000E+00 0. -1.
         25    2    1    2    0    0 -0.42792637154E+02  0.67908228254E+02  0.10422033085E+03  0.18146520067E+03  0.12500001772E+03 0.  0.
          2    1    1    2  501    0  0.16085698339E+02 -0.41211417687E+02 -0.11682570538E+03  0.12492147965E+03  0.00000000000E+00 0. -1.
          1    1    1    2  502    0  0.26706938815E+02 -0.26696810567E+02  0.33189642191E+03  0.33403774510E+03  0.00000000000E+00 0. -1.
         22    1    3    3    0    0 -0.22665186128E+02 -0.26860404069E+02  0.70689647176E+02  0.78944399338E+02  0.00000000000E+00 0. -1.
         22    1    3    3    0    0 -0.20127451026E+02  0.94768632323E+02  0.33530683678E+02  0.10252080133E+03  0.00000000000E+00 0. -1.
</event>
<event>
 7    1  0.6176857E-006  0.6429397E+02  0.7818608E-02  0.1422663E+00
          2   -1    0    0  502    0  0.00000000000E+00  0.00000000000E+00  0.25445166379E+03  0.25445166379E+03  0.00000000000E+00 0. -1.
          1   -1    0    0  501    0 -0.00000000000E+00 -0.00000000000E+00 -0.33849057764E+03  0.33849057764E+03  0.00000000000E+00 0. -1.
         25    2    1    2    0    0  0.47813959419E+01  0.47694289685E+02 -0.37335259103E+02  0.13898094631E+03  0.12499669935E+03 0.  0.
          2    1    1    2  501    0 -0.45957105465E+02  0.40217963314E+01 -0.24273700684E+03  0.24708193961E+03  0.00000000000E+00 0. -1.
          1    1    1    2  502    0  0.41175709523E+02 -0.51716086016E+02  0.19603335209E+03  0.20687935552E+03  0.00000000000E+00 0. -1.
         22    1    3    3    0    0  0.55993910628E+01 -0.20178128517E+01  0.43594490540E+02  0.43998913105E+02  0.00000000000E+00 0. -1.
         22    1    3    3    0    0 -0.81799512089E+00  0.49712102536E+02 -0.80929749642E+02  0.94982033205E+02  0.00000000000E+00 0. -1.
</event>
<event>
 7    1  0.6176857E-006  0.6032293E+02  0.7818608E-02  0.1471072E+00
          2   -1    0    0  502    0  0.00000000000E+00  0.00000000000E+00  0.70568046287E+03  0.70568046287E+03  0.00000000000E+00 0. -1.
          1   -1    0    0  501    0 -0.00000000000E+00 -0.00000000000E+00 -0.15299383988E+04  0.15299383988E+04  0.00000000000E+00 0. -1.
         25    2    1    2    0    0  0.26245396976E+02  0.61549067701E+02 -0.12811025958E+03  0.19109190141E+03  0.12500707012E+03 0.  0.
          2    1    1    2  501    0  0.22498384803E+02 -0.25972186623E+02 -0.13687708767E+04  0.13692021197E+04  0.00000000000E+00 0. -1.
          1    1    1    2  502    0 -0.48743781780E+02 -0.35576881078E+02  0.67262320029E+03  0.67532484058E+03  0.00000000000E+00 0. -1.
         22    1    3    3    0    0  0.34629389282E+02  0.89497490264E+02 -0.51060624157E+02  0.10870226633E+03  0.00000000000E+00 0. -1.
         22    1    3    3    0    0 -0.83839923052E+01 -0.27948422563E+02 -0.77049635423E+02  0.82389635086E+02  0.00000000000E+00 0. -1.
</event>
<event>
 7    1  0.1059376E-005  0.6389142E+02  0.7818608E-02  0.1449509E+00
          2   -1    0    0  502    0  0.00000000000E+00  0.00000000000E+00  0.12438027667E+04  0.12438027667E+04  0.00000000000E+00 0. -1.
          1   -1    0    0  501    0 -0.00000000000E+00 -0.00000000000E+00 -0.10034676123E+04  0.10034676123E+04  0.00000000000E+00 0. -1.
         25    2    1    2    0    0  0.28301644016E+02  0.64969315815E+02 -0.26073325572E+03  0.29770580055E+03  0.12499967198E+03 0.  0.
          2    1    1    2  501    0  0.24498075063E+02 -0.28972350225E+02 -0.72291708955E+03  0.72391206035E+03  0.00000000000E+00 0. -1.
          1    1    1    2  502    0 -0.52799719079E+02 -0.35996965590E+02  0.12239854997E+04  0.12256525181E+04  0.00000000000E+00 0. -1.
         22    1    3    3    0    0  0.24569324578E+02  0.44564381161E+02 -0.27016703115E+03  0.27491791593E+03  0.00000000000E+00 0. -1.
         22    1    3    3    0    0  0.37323194380E+01  0.20404934654E+02  0.94337754336E+01  0.22787884622E+02  0.00000000000E+00 0. -1.
</event>
<event>
 7    1  0.6176857E-006  0.9040235E+02  0.7818608E-02  0.1435398E+00
          2   -1    0    0  502    0  0.00000000000E+00  0.00000000000E+00  0.13800602442E+03  0.13800602442E+03  0.00000000000E+00 0. -1.
          1   -1    0    0  501    0 -0.00000000000E+00 -0.00000000000E+00 -0.14229818921E+04  0.14229818921E+04  0.00000000000E+00 0. -1.
         25    2    1    2    0    0 -0.10147446855E+03 -0.11007458298E+02 -0.98305818141E+03  0.99621642475E+03  0.12500218000E+03 0.  0.
          2    1    1    2  501    0  0.12616127943E+02  0.26982287308E+02 -0.41724597391E+03  0.41830779727E+03  0.00000000000E+00 0. -1.
          1    1    1    2  502    0  0.88858340603E+02 -0.15974829011E+02  0.11532828768E+03  0.14646369446E+03  0.00000000000E+00 0. -1.
         22    1    3    3    0    0 -0.90852050952E+02  0.39236725134E+02 -0.79977680208E+03  0.80587626153E+03  0.00000000000E+00 0. -1.
         22    1    3    3    0    0 -0.10622417594E+02 -0.50244183432E+02 -0.18328137933E+03  0.19034016322E+03  0.00000000000E+00 0. -1.
</event>
<event>
 7    1  0.6176857E-006  0.1382617E+03  0.7818608E-02  0.1431351E+00
          2   -1    0    0  502    0  0.00000000000E+00  0.00000000000E+00  0.21000412297E+04  0.21000412297E+04  0.00000000000E+00 0. -1.
          1   -1    0    0  501    0 -0.00000000000E+00 -0.00000000000E+00 -0.52291562623E+03  0.52291562623E+03  0.00000000000E+00 0. -1.
         25    2    1    2    0    0  0.89910573521E+02  0.92309397478E+02  0.27425508425E+03  0.32778911035E+03  0.12499965414E+03 0.  0.
          2    1    1    2  501    0  0.19238737729E+02 -0.57490377360E+01 -0.49324725691E+03  0.49365578788E+03  0.00000000000E+00 0. -1.
          1    1    1    2  502    0 -0.10914931125E+03 -0.86560359742E+02  0.17961177762E+04  0.18015119577E+04  0.00000000000E+00 0. -1.
         22    1    3    3    0    0  0.11949376036E+03  0.76620147810E+02  0.24581149569E+03  0.28385330231E+03  0.00000000000E+00 0. -1.
         22    1    3    3    0    0 -0.29583186837E+02  0.15689249668E+02  0.28443588557E+02  0.43935808045E+02  0.00000000000E+00 0. -1.
</event>
<event>
 7    1  0.6176857E-006  0.6734084E+02  0.7818608E-02  0.1410688E+00
          2   -1    0    0  502    0  0.00000000000E+00  0.00000000000E+00  0.22228643273E+04  0.22228643273E+04  0.00000000000E+00 0. -1.
          1   -1    0    0  501    0 -0.00000000000E+00 -0.00000000000E+00 -0.11465441286E+03  0.11465441286E+03  0.00000000000E+00 0. -1.
         25    2    1    2    0    0  0.17274183078E+02 -0.45277317356E+02  0.16312957194E+03  0.21115233365E+03  0.12500247157E+03 0.  0.
          2    1    1    2  501    0 -0.45293399618E+02 -0.16819962662E+02 -0.83591925124E+02  0.96550572960E+02  0.00000000000E+00 0. -1.
          1    1    1    2  502    0  0.28019216540E+02  0.62097280018E+02  0.20286722677E+04  0.20298158336E+04  0.00000000000E+00 0. -1.
         22    1    3    3    0    0  0.53170709816E+02 -0.80918395952E+01  0.14773992685E+03  0.15722496061E+03  0.00000000000E+00 0.  1.
         22    1    3    3    0    0 -0.35896526738E+02 -0.37185477761E+02  0.15389645083E+02  0.53927373049E+02  0.00000000000E+00 0.  1.
</event>
<event>
 7    1  0.6176857E-006  0.1549130E+03  0.7818608E-02  0.1357358E+00
          2   -1    0    0  502    0  0.00000000000E+00  0.00000000000E+00  0.14913769261E+04  0.14913769261E+04  0.00000000000E+00 0. -1.
          1   -1    0    0  501    0 -0.00000000000E+00 -0.00000000000E+00 -0.82873427596E+03  0.82873427596E+03  0.00000000000E+00 0. -1.
         25    2    1    2    0    0  0.13530761504E+03 -0.90007380059E+01  0.10323615181E+04  0.10487067038E+04  0.12500512994E+03 0.  0.
          2    1    1    2  501    0 -0.15043213550E+03  0.37617291228E+02 -0.81264011954E+03  0.82730215271E+03  0.00000000000E+00 0. -1.
          1    1    1    2  502    0  0.15124520464E+02 -0.28616553222E+02  0.44292125157E+03  0.44410234556E+03  0.00000000000E+00 0. -1.
         22    1    3    3    0    0 -0.10994843381E+02  0.18358139129E+02  0.33278687910E+03  0.33347415905E+03  0.00000000000E+00 0.  1.
         22    1    3    3    0    0  0.14630245842E+03 -0.27358877135E+02  0.69957463903E+03  0.71523254475E+03  0.00000000000E+00 0.  1.
</event>
<event>
 7    1  0.6176857E-006  0.1359860E+03  0.7818608E-02  0.1357867E+00
          2   -1    0    0  502    0  0.00000000000E+00  0.00000000000E+00  0.21106081919E+04  0.21106081919E+04  0.00000000000E+00 0. -1.
          1   -1    0    0  501    0 -0.00000000000E+00 -0.00000000000E+00 -0.24374142515E+03  0.24374142515E+03  0.00000000000E+00 0. -1.
         25    2    1    2    0    0  0.62371776571E+02 -0.94507279212E+02  0.74251353162E+03  0.76142956593E+03  0.12500709935E+03 0.  0.
          2    1    1    2  501    0  0.33353117861E+02 -0.15346937825E+02 -0.22890968216E+03  0.23183528972E+03  0.00000000000E+00 0. -1.
          1    1    1    2  502    0 -0.95724894432E+02  0.10985421704E+03  0.13532629173E+04  0.13610847614E+04  0.00000000000E+00 0. -1.
         22    1    3    3    0    0  0.15699720909E+02 -0.67922401358E+02  0.13872305599E+03  0.15525469431E+03  0.00000000000E+00 0.  1.
         22    1    3    3    0    0  0.46672055662E+02 -0.26584877854E+02  0.60379047564E+03  0.60617487162E+03  0.00000000000E+00 0.  1.
</event>
<event>
 7    1  0.6176857E-006  0.6958744E+02  0.7818608E-02  0.1392686E+00
          2   -1    0    0  502    0  0.00000000000E+00  0.00000000000E+00  0.10883903507E+03  0.10883903507E+03  0.00000000000E+00 0. -1.
          1   -1    0    0  501    0 -0.00000000000E+00 -0.00000000000E+00 -0.89315392422E+03  0.89315392422E+03  0.00000000000E+00 0. -1.
         25    2    1    2    0    0 -0.22340810137E+02  0.45489402952E+02 -0.67729870932E+03  0.69060182581E+03  0.12501576939E+03 0.  0.
          2    1    1    2  501    0 -0.45392523593E+02 -0.61445829770E+02 -0.18900041366E+03  0.20385589900E+03  0.00000000000E+00 0. -1.
          1    1    1    2  502    0  0.67733333730E+02  0.15956426818E+02  0.81984233832E+02  0.10753523447E+03  0.00000000000E+00 0. -1.
         22    1    3    3    0    0  0.72530663997E+01  0.62195552835E+02 -0.62564969824E+03  0.62877534833E+03  0.00000000000E+00 0.  1.
         22    1    3    3    0    0 -0.29593876537E+02 -0.16706149883E+02 -0.51649011080E+02  0.61826477482E+02  0.00000000000E+00 0.  1.
</event>
<event>
 7    1  0.6176857E-006  0.1088875E+03  0.7818608E-02  0.1385126E+00
          2   -1    0    0  502    0  0.00000000000E+00  0.00000000000E+00  0.78328052489E+03  0.78328052489E+03  0.00000000000E+00 0. -1.
          1   -1    0    0  501    0 -0.00000000000E+00 -0.00000000000E+00 -0.30603900231E+04  0.30603900231E+04  0.00000000000E+00 0. -1.
         25    2    1    2    0    0  0.13241569866E+03 -0.34483003243E+02  0.26317638732E+03  0.32188563201E+03  0.12500221794E+03 0.  0.
          2    1    1    2  501    0 -0.10859712564E+03  0.66841102485E+01 -0.30293747373E+04  0.30313279783E+04  0.00000000000E+00 0. -1.
          1    1    1    2  502    0 -0.23818573015E+02  0.27798892994E+02  0.48908885173E+03  0.49045693772E+03  0.00000000000E+00 0. -1.
         22    1    3    3    0    0  0.21211877876E+02 -0.42461718051E+02  0.14938112330E+02  0.49760310116E+02  0.00000000000E+00 0. -1.
         22    1    3    3    0    0  0.11120382078E+03  0.79787148086E+01  0.24823827499E+03  0.27212532190E+03  0.00000000000E+00 0. -1.
</event>
<event>
 7    1  0.6176857E-006  0.8789986E+02  0.7818608E-02  0.1412444E+00
          2   -1    0    0  502    0  0.00000000000E+00  0.00000000000E+00  0.67454358177E+03  0.67454358177E+03  0.00000000000E+00 0. -1.
          1   -1    0    0  501    0 -0.00000000000E+00 -0.00000000000E+00 -0.46194981525E+03  0.46194981525E+03  0.00000000000E+00 0. -1.
         25    2    1    2    0    0  0.18525223673E+02 -0.55977482158E+02  0.96001760183E+02  0.16829435189E+03  0.12501995240E+03 0.  0.
          2    1    1    2  501    0 -0.10933555107E+02 -0.34837074496E+02 -0.42118020373E+03  0.42275989450E+03  0.00000000000E+00 0. -1.
          1    1    1    2  502    0 -0.75916685656E+01  0.90814556654E+02  0.53777221006E+03  0.54543915063E+03  0.00000000000E+00 0. -1.
         22    1    3    3    0    0 -0.11351335892E+02  0.23073007507E+02 -0.14235874936E+02  0.29391778393E+02  0.00000000000E+00 0.  1.
         22    1    3    3    0    0  0.29876559564E+02 -0.79050489665E+02  0.11023763512E+03  0.13890257350E+03  0.00000000000E+00 0.  1.
</event>
<event>
 7    1  0.7423256E-006  0.5061767E+02  0.7818608E-02  0.1503970E+00
          2   -1    0    0  502    0  0.00000000000E+00  0.00000000000E+00  0.10579234715E+04  0.10579234715E+04  0.00000000000E+00 0. -1.
          1   -1    0    0  501    0 -0.00000000000E+00 -0.00000000000E+00 -0.11189622296E+04  0.11189622296E+04  0.00000000000E+00 0. -1.
         25    2    1    2    0    0  0.23049534233E+02  0.26456156076E+01 -0.30116284509E+03  0.32688849671E+03  0.12497499634E+03 0.  0.
          2    1    1    2  501    0  0.23635919845E+02 -0.22359698171E+02 -0.80399296562E+03  0.80465104336E+03  0.00000000000E+00 0. -1.
          1    1    1    2  502    0 -0.46685454078E+02  0.19714082564E+02  0.10441170527E+04  0.10453461610E+04  0.00000000000E+00 0. -1.
         22    1    3    3    0    0 -0.36800901034E+01 -0.22693109225E+02 -0.28621975946E+03  0.28714155216E+03  0.00000000000E+00 0.  1.
         22    1    3    3    0    0  0.26729624337E+02  0.25338724832E+02 -0.14943085628E+02  0.39746944554E+02  0.00000000000E+00 0.  1.
</event>
<event>
 7    1  0.6176857E-006  0.8836042E+02  0.7818608E-02  0.1391172E+00
          2   -1    0    0  502    0  0.00000000000E+00  0.00000000000E+00  0.15050194216E+04  0.15050194216E+04  0.00000000000E+00 0. -1.
          1   -1    0    0  501    0 -0.00000000000E+00 -0.00000000000E+00 -0.51053048630E+03  0.51053048630E+03  0.00000000000E+00 0. -1.
         25    2    1    2    0    0 -0.65646289589E+02  0.63539529802E+02  0.33815456291E+03  0.37191449533E+03  0.12500070494E+03 0.  0.
          2    1    1    2  501    0  0.37530911170E+02  0.20918150285E+02 -0.49098835641E+03  0.49286479326E+03  0.00000000000E+00 0. -1.
          1    1    1    2  502    0  0.28115378419E+02 -0.84457680088E+02  0.11473227288E+04  0.11507706193E+04  0.00000000000E+00 0. -1.
         22    1    3    3    0    0 -0.54463758964E+02 -0.22374944791E+00  0.42028475404E+02  0.68794940578E+02  0.00000000000E+00 0. -1.
         22    1    3    3    0    0 -0.11182530625E+02  0.63763279250E+02  0.29612608751E+03  0.30311955475E+03  0.00000000000E+00 0. -1.
</event>
<event>
 7    1  0.6176857E-006  0.6069074E+02  0.7818608E-02  0.1432420E+00
          2   -1    0    0  502    0  0.00000000000E+00  0.00000000000E+00  0.10540214468E+04  0.10540214468E+04  0.00000000000E+00 0. -1.
          1   -1    0    0  501    0 -0.00000000000E+00 -0.00000000000E+00 -0.10064874225E+04  0.10064874225E+04  0.00000000000E+00 0. -1.
         25    2    1    2    0    0 -0.42384209446E+02 -0.69446107151E+02 -0.12369907995E+02  0.14965460252E+03  0.12499720966E+03 0.  0.
          2    1    1    2  501    0 -0.21098369481E+01  0.60546000635E+02 -0.92396025434E+03  0.92594428623E+03  0.00000000000E+00 0. -1.
          1    1    1    2  502    0  0.44494046394E+02  0.89001065159E+01  0.98386418659E+03  0.98490998051E+03  0.00000000000E+00 0. -1.
         22    1    3    3    0    0  0.32757821218E+02 -0.59828161988E+02 -0.25404214265E+02  0.72786385542E+02  0.00000000000E+00 0. -1.
         22    1    3    3    0    0 -0.75142030664E+02 -0.96179451629E+01  0.13034306270E+02  0.76868216978E+02  0.00000000000E+00 0. -1.
</event>
<event>
 7    1  0.6176857E-006  0.1262939E+03  0.7818608E-02  0.1291322E+00
          2   -1    0    0  502    0  0.00000000000E+00  0.00000000000E+00  0.75158228745E+02  0.75158228745E+02  0.00000000000E+00 0. -1.
          1   -1    0    0  501    0 -0.00000000000E+00 -0.00000000000E+00 -0.11234441203E+04  0.11234441203E+04  0.00000000000E+00 0. -1.
         25    2    1    2    0    0  0.91286853967E+02  0.11128049188E+03 -0.48025343895E+03  0.51670347382E+03  0.12498990621E+03 0.  0.
          2    1    1    2  501    0 -0.11663053188E+03 -0.44569615585E+02 -0.59322344874E+03  0.60622041514E+03  0.00000000000E+00 0. -1.
          1    1    1    2  502    0  0.25343677912E+02 -0.66710876297E+02  0.25190996175E+02  0.75678460044E+02  0.00000000000E+00 0. -1.
         22    1    3    3    0    0 -0.25776432721E+00 -0.18810541986E+02 -0.13815321018E+03  0.13942816220E+03  0.00000000000E+00 0. -1.
         22    1    3    3    0    0  0.91544618294E+02  0.13009103387E+03 -0.34210022877E+03  0.37727531162E+03  0.00000000000E+00 0. -1.
</event>
<event>
 7    1  0.6176857E-006  0.8724232E+02  0.7818608E-02  0.1404753E+00
          2   -1    0    0  502    0  0.00000000000E+00  0.00000000000E+00  0.16776821541E+04  0.16776821541E+04  0.00000000000E+00 0. -1.
          1   -1    0    0  501    0 -0.00000000000E+00 -0.00000000000E+00 -0.82951886200E+03  0.82951886200E+03  0.00000000000E+00 0. -1.
         25    2    1    2    0    0 -0.91226386615E+02  0.86070196457E+02  0.33855193312E+02  0.18028343780E+03  0.12500244597E+03 0.  0.
          2    1    1    2  501    0  0.25675085484E+02 -0.29446279545E+02 -0.75460471644E+03  0.75561535947E+03  0.00000000000E+00 0. -1.
          1    1    1    2  502    0  0.65551301131E+02 -0.56623916912E+02  0.15689128153E+04  0.15713022188E+04  0.00000000000E+00 0. -1.
         22    1    3    3    0    0 -0.46966768785E+02  0.11171710498E+03  0.42460135128E+02  0.12841126115E+03  0.00000000000E+00 0.  1.
         22    1    3    3    0    0 -0.44259617830E+02 -0.25646908522E+02 -0.86049418154E+01  0.51872176655E+02  0.00000000000E+00 0.  1.
</event>
<event>
 7    1  0.6176857E-006  0.4356720E+02  0.7818608E-02  0.1490458E+00
          2   -1    0    0  502    0  0.00000000000E+00  0.00000000000E+00  0.35998208747E+03  0.35998208747E+03  0.00000000000E+00 0. -1.
          1   -1    0    0  501    0 -0.00000000000E+00 -0.00000000000E+00 -0.15499564118E+03  0.15499564118E+03  0.00000000000E+00 0. -1.
         25    2    1    2    0    0  0.28411441921E+02 -0.78704598951E+02  0.10070147004E+03  0.18101717022E+03  0.12499922367E+03 0.  0.
          2    1    1    2  501    0 -0.17449380013E+02  0.38684372204E+02 -0.10884676325E+03  0.11682713463E+03  0.00000000000E+00 0. -1.
          1    1    1    2  502    0 -0.10962061909E+02  0.40020226747E+02  0.21313173950E+03  0.21713342380E+03  0.00000000000E+00 0. -1.
         22    1    3    3    0    0 -0.25869959818E+02 -0.88433235647E+02  0.44657974636E+02  0.10239153621E+03  0.00000000000E+00 0.  1.
         22    1    3    3    0    0  0.54281401739E+02  0.97286366965E+01  0.56043495402E+02  0.78625634011E+02  0.00000000000E+00 0.  1.
</event>
<event>
 7    1  0.6176857E-006  0.3863158E+02  0.7818608E-02  0.1534952E+00
          2   -1    0    0  502    0  0.00000000000E+00  0.00000000000E+00  0.11298177023E+04  0.11298177023E+04  0.00000000000E+00 0. -1.
          1   -1    0    0  501    0 -0.00000000000E+00 -0.00000000000E+00 -0.28501220737E+02  0.28501220737E+02  0.00000000000E+00 0. -1.
         25    2    1    2    0    0 -0.24181004217E+02 -0.22763654962E+02  0.37416112787E+03  0.39588188741E+03  0.12499205663E+03 0.  0.
          2    1    1    2  501    0 -0.62706347335E+01  0.39292990678E+02  0.57540001167E+01  0.40204085535E+02  0.00000000000E+00 0. -1.
          1    1    1    2  502    0  0.30451638951E+02 -0.16529335716E+02  0.72140135361E+03  0.72223295012E+03  0.00000000000E+00 0. -1.
         22    1    3    3    0    0 -0.63169343233E+02 -0.49002775002E+02  0.19727508096E+03  0.21285933254E+03  0.00000000000E+00 0.  1.
         22    1    3    3    0    0  0.38988339016E+02  0.26239120040E+02  0.17688604691E+03  0.18302255487E+03  0.00000000000E+00 0.  1.
</event>
<event>
 7    1  0.6176857E-006  0.5720686E+02  0.7818608E-02  0.1417511E+00
          2   -1    0    0  502    0  0.00000000000E+00  0.00000000000E+00  0.33493154309E+03  0.33493154309E+03  0.00000000000E+00 0. -1.
          1   -1    0    0  501    0 -0.00000000000E+00 -0.00000000000E+00 -0.22857656690E+04  0.22857656690E+04  0.00000000000E+00 0. -1.
         25    2    1    2    0    0  0.17063215627E+00  0.85479582906E+00  0.42389294967E+02  0.13199422801E+03  0.12499945643E+03 0.  0.
          2    1    1    2  501    0 -0.16918300862E+02  0.54647929231E+02 -0.22372008428E+04  0.22379321339E+04  0.00000000000E+00 0. -1.
          1    1    1    2  502    0  0.16747668705E+02 -0.55502725060E+02  0.24397742190E+03  0.25077085017E+03  0.00000000000E+00 0. -1.
         22    1    3    3    0    0 -0.10156138933E+02 -0.61124866015E+02  0.24830384608E+02  0.66752860637E+02  0.00000000000E+00 0.  1.
         22    1    3    3    0    0  0.10326771089E+02  0.61979661844E+02  0.17558910358E+02  0.65241367371E+02  0.00000000000E+00 0.  1.
</event>
<event>
 7    1  0.6176857E-006  0.7589597E+02  0.7818608E-02  0.1399605E+00
          2   -1    0    0  502    0  0.00000000000E+00  0.00000000000E+00  0.22824894994E+04  0.22824894994E+04  0.00000000000E+00 0. -1.
          1   -1    0    0  501    0 -0.00000000000E+00 -0.00000000000E+00 -0.17592074385E+04  0.17592074385E+04  0.00000000000E+00 0. -1.
         25    2    1    2    0    0  0.89284373667E+02  0.72951874522E+02  0.13805265649E+03  0.21903599998E+03  0.12499823176E+03 0.  0.
          2    1    1    2  501    0 -0.69229608472E+02 -0.30699031701E+02 -0.17176213864E+04  0.17192900850E+04  0.00000000000E+00 0. -1.
          1    1    1    2  502    0 -0.20054765195E+02 -0.42252842821E+02  0.21028507909E+04  0.21033708530E+04  0.00000000000E+00 0. -1.
         22    1    3    3    0    0  0.15653453277E+02  0.21214708089E+02  0.12542271484E+03  0.12816376960E+03  0.00000000000E+00 0. -1.
         22    1    3    3    0    0  0.73630920391E+02  0.51737166433E+02  0.12629941653E+02  0.90872230380E+02  0.00000000000E+00 0. -1.
</event>
<event>
 7    1  0.6176857E-006  0.6663805E+02  0.7818608E-02  0.1493910E+00
          2   -1    0    0  502    0  0.00000000000E+00  0.00000000000E+00  0.12887846383E+03  0.12887846383E+03  0.00000000000E+00 0. -1.
          1   -1    0    0  501    0 -0.00000000000E+00 -0.00000000000E+00 -0.68829351033E+03  0.68829351033E+03  0.00000000000E+00 0. -1.
         25    2    1    2    0    0 -0.77033908524E+02 -0.46390747707E+02 -0.66885874091E+02  0.16788382933E+03  0.12499974185E+03 0.  0.
          2    1    1    2  501    0  0.19839810042E+02  0.17546622347E+02 -0.55745407897E+03  0.55808292589E+03  0.00000000000E+00 0. -1.
          1    1    1    2  502    0  0.57194098481E+02  0.28844125360E+02  0.64924906561E+02  0.91205218934E+02  0.00000000000E+00 0. -1.
         22    1    3    3    0    0 -0.38821775534E+02  0.20875363069E+02  0.22648537709E+02  0.49556707913E+02  0.00000000000E+00 0.  1.
         22    1    3    3    0    0 -0.38212132990E+02 -0.67266110776E+02 -0.89534411800E+02  0.11832712142E+03  0.00000000000E+00 0.  1.
</event>
<event>
 7    1  0.6176857E-006  0.7301175E+02  0.7818608E-02  0.1380681E+00
          2   -1    0    0  502    0  0.00000000000E+00  0.00000000000E+00  0.12038703765E+04  0.12038703765E+04  0.00000000000E+00 0. -1.
          1   -1    0    0  501    0 -0.00000000000E+00 -0.00000000000E+00 -0.89203952718E+03  0.89203952718E+03  0.00000000000E+00 0. -1.
         25    2    1    2    0    0 -0.86470708449E+02  0.43358578450E+02  0.24365851383E+03  0.29043492750E+03  0.12500330396E+03 0.  0.
          2    1    1    2  501    0  0.72085253386E+02  0.11384177030E+02 -0.86626066329E+03  0.86932929319E+03  0.00000000000E+00 0. -1.
          1    1    1    2  502    0  0.14385455062E+02 -0.54742755480E+02  0.93443299882E+03  0.93614568304E+03  0.00000000000E+00 0. -1.
         22    1    3    3    0    0  0.20059992607E+02  0.46526598837E+02  0.92735786976E+02  0.10567428206E+03  0.00000000000E+00 0. -1.
         22    1    3    3    0    0 -0.10653070106E+03 -0.31680203865E+01  0.15092272685E+03  0.18476064544E+03  0.00000000000E+00 0. -1.
</event>
<event>
 7    1  0.6176857E-006  0.1303664E+03  0.7818608E-02  0.1244731E+00
          2   -1    0    0  502    0  0.00000000000E+00  0.00000000000E+00  0.92057136277E+03  0.92057136277E+03  0.00000000000E+00 0. -1.
          1   -1    0    0  501    0 -0.00000000000E+00 -0.00000000000E+00 -0.22424729021E+03  0.22424729021E+03  0.00000000000E+00 0. -1.
         25    2    1    2    0    0  0.27160307313E+01  0.20694738935E+03  0.20515816686E+03  0.31709653019E+03  0.12500294895E+03 0.  0.
          2    1    1    2  501    0  0.52554350023E+02 -0.11340344482E+03 -0.13976690793E+03  0.18750223880E+03  0.00000000000E+00 0. -1.
          1    1    1    2  502    0 -0.55270380754E+02 -0.93543944529E+02  0.63093281363E+03  0.64021988399E+03  0.00000000000E+00 0. -1.
         22    1    3    3    0    0  0.14872759991E+02  0.80639365471E+02  0.16457712150E+03  0.18387369354E+03  0.00000000000E+00 0. -1.
         22    1    3    3    0    0 -0.12156729260E+02  0.12630802388E+03  0.40581045361E+02  0.13322283665E+03  0.00000000000E+00 0. -1.
</event>
<event>
 7    1  0.6176857E-006  0.2011828E+03  0.7818608E-02  0.1240545E+00
          2   -1    0    0  502    0  0.00000000000E+00  0.00000000000E+00  0.16707783431E+04  0.16707783431E+04  0.00000000000E+00 0. -1.
          1   -1    0    0  501    0 -0.00000000000E+00 -0.00000000000E+00 -0.51040935070E+03  0.51040935070E+03  0.00000000000E+00 0. -1.
         25    2    1    2    0    0 -0.66998458562E+02 -0.15853430904E+03  0.87297381681E+02  0.22992861826E+03  0.12499766419E+03 0.  0.
          2    1    1    2  501    0  0.57101895508E+02 -0.46198399012E+02 -0.42901236696E+03  0.43525455718E+03  0.00000000000E+00 0. -1.
          1    1    1    2  502    0  0.98965630545E+01  0.20473270805E+03  0.15020839777E+04  0.15160045184E+04  0.00000000000E+00 0. -1.
         22    1    3    3    0    0 -0.89921420209E+01 -0.14048182896E+03  0.25107866915E+02  0.14299093631E+03  0.00000000000E+00 0. -1.
         22    1    3    3    0    0 -0.58006316541E+02 -0.18052480080E+02  0.62189514765E+02  0.86937681948E+02  0.00000000000E+00 0. -1.
</event>
<event>
 7    1  0.6176857E-006  0.5715008E+02  0.7818608E-02  0.1444089E+00
          2   -1    0    0  502    0  0.00000000000E+00  0.00000000000E+00  0.25275105975E+03  0.25275105975E+03  0.00000000000E+00 0. -1.
          1   -1    0    0  501    0 -0.00000000000E+00 -0.00000000000E+00 -0.47595921369E+03  0.47595921369E+03  0.00000000000E+00 0. -1.
         25    2    1    2    0    0  0.73939635441E+02 -0.66751299929E+01 -0.51596495576E+02  0.15426735127E+03  0.12499836103E+03 0.  0.
          2    1    1    2  501    0 -0.31279755169E+02 -0.31162185625E+02 -0.36764387536E+03  0.37028573289E+03  0.00000000000E+00 0. -1.
          1    1    1    2  502    0 -0.42659880272E+02  0.37837315618E+02  0.19603221699E+03  0.20415718928E+03  0.00000000000E+00 0. -1.
         22    1    3    3    0    0  0.81356559113E+02 -0.13956313008E+02 -0.85477545422E+02  0.11882793929E+03  0.00000000000E+00 0.  1.
         22    1    3    3    0    0 -0.74169236712E+01  0.72811830152E+01  0.33881049846E+02  0.35439411980E+02  0.00000000000E+00 0.  1.
</event>
<event>
 7    1  0.6176857E-006  0.6236656E+02  0.7818608E-02  0.1489500E+00
          2   -1    0    0  502    0  0.00000000000E+00  0.00000000000E+00  0.38294195023E+03  0.38294195023E+03  0.00000000000E+00 0. -1.
          1   -1    0    0  501    0 -0.00000000000E+00 -0.00000000000E+00 -0.10421228494E+04  0.10421228494E+04  0.00000000000E+00 0. -1.
         25    2    1    2    0    0 -0.45658034959E+01  0.66854840446E+02  0.17617690887E+03  0.22616891061E+03  0.12499462651E+03 0.  0.
          2    1    1    2  501    0 -0.26366902552E+02 -0.12501866509E+02 -0.10115310213E+04  0.10119518354E+04  0.00000000000E+00 0. -1.
          1    1    1    2  502    0  0.30932706048E+02 -0.54352973937E+02  0.17617321327E+03  0.18694405354E+03  0.00000000000E+00 0. -1.
         22    1    3    3    0    0  0.16494258843E+02 -0.45545545693E+01 -0.13890918575E+02  0.22040012726E+02  0.00000000000E+00 0. -1.
         22    1    3    3    0    0 -0.21060062338E+02  0.71409395015E+02  0.19006782745E+03  0.20412889789E+03  0.00000000000E+00 0. -1.
</event>
<event>
 7    1  0.6176857E-006  0.2747472E+02  0.7818608E-02  0.1679522E+00
          2   -1    0    0  502    0  0.00000000000E+00  0.00000000000E+00  0.15555648573E+04  0.15555648573E+04  0.00000000000E+00 0. -1.
          1   -1    0    0  501    0 -0.00000000000E+00 -0.00000000000E+00 -0.23935562934E+02  0.23935562934E+02  0.00000000000E+00 0. -1.
         25    2    1    2    0    0 -0.10038749456E+02 -0.38098852645E+02  0.41658337979E+03  0.43671374067E+03  0.12499951964E+03 0.  0.
          2    1    1    2  501    0  0.18945399337E+02  0.19587369050E+02 -0.29939281870E+00  0.27252207587E+02  0.00000000000E+00 0. -1.
          1    1    1    2  502    0 -0.89066498809E+01  0.18511483596E+02  0.11153453074E+04  0.11155344720E+04  0.00000000000E+00 0. -1.
         22    1    3    3    0    0  0.39437465497E+02  0.63313133154E+00  0.44930642926E+02  0.59786931798E+02  0.00000000000E+00 0. -1.
         22    1    3    3    0    0 -0.49476214953E+02 -0.38731983977E+02  0.37165273686E+03  0.37692680887E+03  0.00000000000E+00 0. -1.
</event>
<event>
 7    1  0.6176857E-006  0.4504844E+02  0.7818608E-02  0.1540696E+00
          2   -1    0    0  502    0  0.00000000000E+00  0.00000000000E+00  0.94432466272E+01  0.94432466272E+01  0.00000000000E+00 0. -1.
          1   -1    0    0  501    0 -0.00000000000E+00 -0.00000000000E+00 -0.13557639809E+04  0.13557639809E+04  0.00000000000E+00 0. -1.
         25    2    1    2    0    0 -0.24425716965E+02  0.34560483818E+02 -0.60558541726E+03  0.61979747927E+03  0.12499670006E+03 0.  0.
          2    1    1    2  501    0  0.44242610360E+02 -0.13911683223E+02 -0.60024052243E+03  0.60202959086E+03  0.00000000000E+00 0. -1.
          1    1    1    2  502    0 -0.19816893394E+02 -0.20648800595E+02 -0.14049479456E+03  0.14338015737E+03  0.00000000000E+00 0. -1.
         22    1    3    3    0    0 -0.36216016099E+01  0.75926111792E+02 -0.47932514289E+03  0.48531482880E+03  0.00000000000E+00 0. -1.
         22    1    3    3    0    0 -0.20804115356E+02 -0.41365627974E+02 -0.12626027437E+03  0.13448265047E+03  0.00000000000E+00 0. -1.
</event>
<event>
 7    1  0.6176857E-006  0.1152019E+03  0.7818608E-02  0.1275230E+00
          2   -1    0    0  502    0  0.00000000000E+00  0.00000000000E+00  0.24289992434E+04  0.24289992434E+04  0.00000000000E+00 0. -1.
          1   -1    0    0  501    0 -0.00000000000E+00 -0.00000000000E+00 -0.13138238130E+03  0.13138238130E+03  0.00000000000E+00 0. -1.
         25    2    1    2    0    0  0.10109878776E+03  0.74809519824E+02  0.43351113324E+03  0.46837553836E+03  0.12500525248E+03 0.  0.
          2    1    1    2  501    0 -0.81413347392E+02  0.40894717977E+02 -0.93696678641E+02  0.13068886211E+03  0.00000000000E+00 0. -1.
          1    1    1    2  502    0 -0.19685440369E+02 -0.11570423780E+03  0.19578024075E+04  0.19613172242E+04  0.00000000000E+00 0. -1.
         22    1    3    3    0    0  0.78275850067E+01 -0.21212929381E+02  0.18254064880E+03  0.18393571683E+03  0.00000000000E+00 0.  1.
         22    1    3    3    0    0  0.93271202754E+02  0.96022449206E+02  0.25097048444E+03  0.28443982153E+03  0.00000000000E+00 0.  1.
</event>
<event>
 7    1  0.6176857E-006  0.4413010E+02  0.7818608E-02  0.1550929E+00
          2   -1    0    0  502    0  0.00000000000E+00  0.00000000000E+00  0.59213474551E+03  0.59213474551E+03  0.00000000000E+00 0. -1.
          1   -1    0    0  501    0 -0.00000000000E+00 -0.00000000000E+00 -0.11779192583E+04  0.11779192583E+04  0.00000000000E+00 0. -1.
         25    2    1    2    0    0  0.33764714822E+02 -0.55629695787E+02  0.10320051616E+03  0.17466639477E+03  0.12499313544E+03 0.  0.
          2    1    1    2  501    0 -0.94864529540E+01  0.43043610883E+02 -0.11413480187E+04  0.11421987765E+04  0.00000000000E+00 0. -1.
          1    1    1    2  502    0 -0.24278261868E+02  0.12586084903E+02  0.45236298970E+03  0.45318883259E+03  0.00000000000E+00 0. -1.
         22    1    3    3    0    0 -0.17454885721E+02 -0.66099871300E+02  0.10147867483E+03  0.12235925575E+03  0.00000000000E+00 0.  1.
         22    1    3    3    0    0  0.51219600543E+02  0.10470175514E+02  0.17218413227E+01  0.52307139022E+02  0.00000000000E+00 0.  1.
</event>
<event>
 7    1  0.6176857E-006  0.1489154E+03  0.7818608E-02  0.1277520E+00
          2   -1    0    0  502    0  0.00000000000E+00  0.00000000000E+00  0.38479691275E+03  0.38479691275E+03  0.00000000000E+00 0. -1.
          1   -1    0    0  501    0 -0.00000000000E+00 -0.00000000000E+00 -0.14413890791E+04  0.14413890791E+04  0.00000000000E+00 0. -1.
         25    2    1    2    0    0 -0.67234115516E+02  0.58682050638E+02 -0.78182481503E+02  0.17233799448E+03  0.12499549821E+03 0.  0.
          2    1    1    2  501    0 -0.58237683808E+02  0.36916544593E+02 -0.12967434339E+04  0.12985753703E+04  0.00000000000E+00 0. -1.
          1    1    1    2  502    0  0.12547179932E+03 -0.95598595231E+02  0.31833374898E+03  0.35527262711E+03  0.00000000000E+00 0. -1.
         22    1    3    3    0    0  0.21310591477E+01 -0.34549233334E+02 -0.49111655228E+01  0.34961557228E+02  0.00000000000E+00 0. -1.
         22    1    3    3    0    0 -0.69365174664E+02  0.93231283972E+02 -0.73271315981E+02  0.13737643725E+03  0.00000000000E+00 0. -1.
</event>
<event>
 7    1  0.6176857E-006  0.4615703E+02  0.7818608E-02  0.1505745E+00
          2   -1    0    0  502    0  0.00000000000E+00  0.00000000000E+00  0.18768371455E+03  0.18768371455E+03  0.00000000000E+00 0. -1.
          1   -1    0    0  501    0 -0.00000000000E+00 -0.00000000000E+00 -0.88426860617E+03  0.88426860617E+03  0.00000000000E+00 0. -1.
         25    2    1    2    0    0 -0.66164341714E+01  0.64526043947E+02 -0.80089910803E+02  0.16200821709E+03  0.12499952417E+03 0.  0.
          2    1    1    2  501    0 -0.21278205340E+02 -0.28104735759E+02 -0.75921454449E+03  0.76003247480E+03  0.00000000000E+00 0. -1.
          1    1    1    2  502    0  0.27894639511E+02 -0.36421308188E+02  0.14271956368E+03  0.14991162883E+03  0.00000000000E+00 0. -1.
         22    1    3    3    0    0  0.11416306519E+02 -0.22268319594E+02 -0.68101262500E+02  0.72553373913E+02  0.00000000000E+00 0. -1.
         22    1    3    3    0    0 -0.18032740690E+02  0.86794363541E+02 -0.11988648303E+02  0.89454843175E+02  0.00000000000E+00 0. -1.
</event>
<event>
 7    1  0.6176857E-006  0.1083180E+03  0.7818608E-02  0.1305786E+00
          2   -1    0    0  502    0  0.00000000000E+00  0.00000000000E+00  0.18588184556E+03  0.18588184556E+03  0.00000000000E+00 0. -1.
          1   -1    0    0  501    0 -0.00000000000E+00 -0.00000000000E+00 -0.18114115032E+04  0.18114115032E+04  0.00000000000E+00 0. -1.
         25    2    1    2    0    0 -0.58659678552E+02 -0.35348914181E+02 -0.55878183623E+01  0.14264598623E+03  0.12500460012E+03 0.  0.
          2    1    1    2  501    0 -0.16349051426E+02 -0.70937883695E+02 -0.17002228780E+04  0.17017806292E+04  0.00000000000E+00 0. -1.
          1    1    1    2  502    0  0.75008729978E+02  0.10628679788E+03  0.80281038780E+02  0.15286673334E+03  0.00000000000E+00 0. -1.
         22    1    3    3    0    0 -0.92284939353E+02 -0.37452894001E+02 -0.26413026496E+02  0.10303823207E+03  0.00000000000E+00 0.  1.
         22    1    3    3    0    0  0.33625260801E+02  0.21039798203E+01  0.20825208134E+02  0.39607754151E+02  0.00000000000E+00 0.  1.
</event>
<event>
 7    1  0.6176857E-006  0.2109341E+03  0.7818608E-02  0.1165410E+00
          2   -1    0    0  502    0  0.00000000000E+00  0.00000000000E+00  0.54618496992E+03  0.54618496992E+03  0.00000000000E+00 0. -1.
          1   -1    0    0  501    0 -0.00000000000E+00 -0.00000000000E+00 -0.33712779348E+03  0.33712779348E+03  0.00000000000E+00 0. -1.
         25    2    1    2    0    0 -0.28978168748E+02  0.65943643278E+02  0.23338214024E+02  0.14614587772E+03  0.12500258792E+03 0.  0.
          2    1    1    2  501    0  0.23510831348E+03 -0.21182433897E+02 -0.19217125656E+03  0.30439186327E+03  0.00000000000E+00 0. -1.
          1    1    1    2  502    0 -0.20613014473E+03 -0.44761209380E+02  0.37789021898E+03  0.43277502242E+03  0.00000000000E+00 0. -1.
         22    1    3    3    0    0 -0.78484715295E+02  0.37878888305E+02  0.18010309964E+02  0.88988943017E+02  0.00000000000E+00 0.  1.
         22    1    3    3    0    0  0.49506546547E+02  0.28064754972E+02  0.53279040599E+01  0.57156934701E+02  0.00000000000E+00 0.  1.
</event>
<event>
 7    1  0.6176857E-006  0.4283045E+02  0.7818608E-02  0.1574820E+00
          2   -1    0    0  502    0  0.00000000000E+00  0.00000000000E+00  0.11379833787E+02  0.11379833787E+02  0.00000000000E+00 0. -1.
          1   -1    0    0  501    0 -0.00000000000E+00 -0.00000000000E+00 -0.11804756910E+04  0.11804756910E+04  0.00000000000E+00 0. -1.
         25    2    1    2    0    0  0.20194552504E+02  0.15147587481E+02 -0.77220066677E+03  0.78265957591E+03  0.12499949058E+03 0.  0.
          2    1    1    2  501    0  0.23721248945E+02 -0.49426461690E+01 -0.31314533267E+03  0.31408140151E+03  0.00000000000E+00 0. -1.
          1    1    1    2  502    0 -0.43915801449E+02 -0.10204941311E+02 -0.83749857794E+02  0.95114547387E+02  0.00000000000E+00 0. -1.
         22    1    3    3    0    0 -0.51465812236E+02  0.56344735858E+01 -0.41503963319E+03  0.41825634991E+03  0.00000000000E+00 0.  1.
         22    1    3    3    0    0  0.71660364740E+02  0.95131138947E+01 -0.35716103359E+03  0.36440322601E+03  0.00000000000E+00 0.  1.
</event>
<event>
 7    1  0.6176857E-006  0.7823101E+02  0.7818608E-02  0.1385121E+00
          2   -1    0    0  502    0  0.00000000000E+00  0.00000000000E+00  0.33038376473E+04  0.33038376473E+04  0.00000000000E+00 0. -1.
          1   -1    0    0  501    0 -0.00000000000E+00 -0.00000000000E+00 -0.14366395524E+04  0.14366395524E+04  0.00000000000E+00 0. -1.
         25    2    1    2    0    0  0.86059785314E+02  0.25074560707E+02  0.51194417044E+03  0.53455380241E+03  0.12500365507E+03 0.  0.
          2    1    1    2  501    0 -0.49512471295E+02 -0.60580475121E+02 -0.14240273412E+04  0.14261750759E+04  0.00000000000E+00 0. -1.
          1    1    1    2  502    0 -0.36547314019E+02  0.35505914415E+02  0.27792812657E+04  0.27797483213E+04  0.00000000000E+00 0. -1.
         22    1    3    3    0    0  0.86540679999E+02  0.43019209430E+02  0.50672601036E+03  0.51585966236E+03  0.00000000000E+00 0.  1.
         22    1    3    3    0    0 -0.48089468497E+00 -0.17944648723E+02  0.52181600745E+01  0.18694140046E+02  0.00000000000E+00 0.  1.
</event>
<event>
 7    1  0.6176857E-006  0.1574645E+03  0.7818608E-02  0.1294994E+00
          2   -1    0    0  502    0  0.00000000000E+00  0.00000000000E+00  0.79053329894E+03  0.79053329894E+03  0.00000000000E+00 0. -1.
          1   -1    0    0  501    0 -0.00000000000E+00 -0.00000000000E+00 -0.15604706430E+04  0.15604706430E+04  0.00000000000E+00 0. -1.
         25    2    1    2    0    0 -0.80298105122E+02  0.14746349309E+03 -0.12269620275E+03  0.24263635250E+03  0.12499909562E+03 0.  0.
          2    1    1    2  501    0  0.11654931695E+03 -0.10568798538E+03 -0.13722560240E+04  0.13812459191E+04  0.00000000000E+00 0. -1.
          1    1    1    2  502    0 -0.36251211829E+02 -0.41775507712E+02  0.72501488269E+03  0.72712167037E+03  0.00000000000E+00 0. -1.
         22    1    3    3    0    0  0.13205686291E+02  0.96501349644E+02 -0.31308846040E+02  0.10230906350E+03  0.00000000000E+00 0.  1.
         22    1    3    3    0    0 -0.93503791414E+02  0.50962143446E+02 -0.91387356707E+02  0.14032728900E+03  0.00000000000E+00 0.  1.
</event>
<event>
 7    1  0.6176857E-006  0.7984776E+02  0.7818608E-02  0.1431598E+00
          2   -1    0    0  502    0  0.00000000000E+00  0.00000000000E+00  0.10230524660E+04  0.10230524660E+04  0.00000000000E+00 0. -1.
          1   -1    0    0  501    0 -0.00000000000E+00 -0.00000000000E+00 -0.48194279071E+03  0.48194279071E+03  0.00000000000E+00 0. -1.
         25    2    1    2    0    0 -0.72428786988E+02 -0.27323464396E+02  0.13932970296E+03  0.20255917576E+03  0.12499981066E+03 0.  0.
          2    1    1    2  501    0 -0.77244162896E+01  0.33833456890E+02 -0.44775779156E+03  0.44910066724E+03  0.00000000000E+00 0. -1.
          1    1    1    2  502    0  0.80153203278E+02 -0.65099924934E+01  0.84953776394E+03  0.85333541375E+03  0.00000000000E+00 0. -1.
         22    1    3    3    0    0  0.29281838050E+02 -0.22722289326E+02  0.10831664946E+02  0.38614161098E+02  0.00000000000E+00 0. -1.
         22    1    3    3    0    0 -0.10171062504E+03 -0.46011750704E+01  0.12849803802E+03  0.16394501466E+03  0.00000000000E+00 0. -1.
</event>
<event>
 7    1  0.6176857E-006  0.6951313E+02  0.7818608E-02  0.1373687E+00
          2   -1    0    0  502    0  0.00000000000E+00  0.00000000000E+00  0.61933517645E+03  0.61933517645E+03  0.00000000000E+00 0. -1.
          1   -1    0    0  501    0 -0.00000000000E+00 -0.00000000000E+00 -0.23010976832E+03  0.23010976832E+03  0.00000000000E+00 0. -1.
         25    2    1    2    0    0 -0.29963338240E+02 -0.94385454553E+02 -0.88960595574E+02  0.18260773156E+03  0.12500072157E+03 0.  0.
          2    1    1    2  501    0 -0.23841749468E+02  0.61700015939E+02 -0.80740728737E+02  0.10437617670E+03  0.00000000000E+00 0. -1.
          1    1    1    2  502    0  0.53805087708E+02  0.32685438614E+02  0.55892673244E+03  0.56246103652E+03  0.00000000000E+00 0. -1.
         22    1    3    3    0    0 -0.30887610840E+02 -0.22422940451E+02 -0.10250079800E+03  0.10937662617E+03  0.00000000000E+00 0.  1.
         22    1    3    3    0    0  0.92427259959E+00 -0.71962514102E+02  0.13540202423E+02  0.73231105395E+02  0.00000000000E+00 0.  1.
</event>
<event>
 7    1  0.6176857E-006  0.5400230E+02  0.7818608E-02  0.1494578E+00
          2   -1    0    0  502    0  0.00000000000E+00  0.00000000000E+00  0.12129713722E+04  0.12129713722E+04  0.00000000000E+00 0. -1.
          1   -1    0    0  501    0 -0.00000000000E+00 -0.00000000000E+00 -0.12737322237E+03  0.12737322237E+03  0.00000000000E+00 0. -1.
         25    2    1    2    0    0  0.74217960104E+02 -0.98245940688E+00  0.24524509186E+03  0.28509797279E+03  0.12500571259E+03 0.  0.
          2    1    1    2  501    0 -0.25272028718E+02 -0.20486009573E+02 -0.10421138423E+03  0.10917126282E+03  0.00000000000E+00 0. -1.
          1    1    1    2  502    0 -0.48945931386E+02  0.21468468980E+02  0.94456444215E+03  0.94607535891E+03  0.00000000000E+00 0. -1.
         22    1    3    3    0    0  0.79053684617E+01 -0.55252944787E+02  0.66096950052E+02  0.86511210628E+02  0.00000000000E+00 0. -1.
         22    1    3    3    0    0  0.66312591643E+02  0.54270485380E+02  0.17914814181E+03  0.19858676216E+03  0.00000000000E+00 0. -1.
</event>
<event>
 7    1  0.6176857E-006  0.1138388E+03  0.7818608E-02  0.1370754E+00
          2   -1    0    0  502    0  0.00000000000E+00  0.00000000000E+00  0.16926813559E+04  0.16926813559E+04  0.00000000000E+00 0. -1.
          1   -1    0    0  501    0 -0.00000000000E+00 -0.00000000000E+00 -0.98645064991E+03  0.98645064991E+03  0.00000000000E+00 0. -1.
         25    2    1    2    0    0  0.28820082752E+02 -0.89878737636E+02  0.33824523539E+03  0.37275101061E+03  0.12499876799E+03 0.  0.
          2    1    1    2  501    0  0.22754152625E+01  0.11404758307E+03 -0.96554964673E+03  0.97226444398E+03  0.00000000000E+00 0. -1.
          1    1    1    2  502    0 -0.31095498015E+02 -0.24168845432E+02  0.13335351174E+04  0.13341165513E+04  0.00000000000E+00 0. -1.
         22    1    3    3    0    0  0.74671478699E+01  0.25357418336E+02  0.13984200975E+03  0.14231846210E+03  0.00000000000E+00 0. -1.
         22    1    3    3    0    0  0.21352934882E+02 -0.11523615597E+03  0.19840322564E+03  0.23043254852E+03  0.00000000000E+00 0. -1.
</event>
<event>
 7    1  0.6176857E-006  0.2647788E+02  0.7818608E-02  0.1643163E+00
          2   -1    0    0  502    0  0.00000000000E+00  0.00000000000E+00  0.88436283035E+02  0.88436283035E+02  0.00000000000E+00 0. -1.
          1   -1    0    0  501    0 -0.00000000000E+00 -0.00000000000E+00 -0.13930514445E+04  0.13930514445E+04  0.00000000000E+00 0. -1.
         25    2    1    2    0    0  0.17664927184E+02  0.92001632932E+01 -0.43433497309E+03  0.45240184868E+03  0.12499548466E+03 0.  0.
          2    1    1    2  501    0  0.29788858879E+01 -0.25928777415E+02 -0.94727536738E+03  0.94763484365E+03  0.00000000000E+00 0. -1.
          1    1    1    2  502    0 -0.20643813071E+02  0.16728614122E+02  0.76995178994E+02  0.81451035210E+02  0.00000000000E+00 0. -1.
         22    1    3    3    0    0 -0.54240743033E+02  0.34831748303E+01 -0.17836479609E+03  0.18646230503E+03  0.00000000000E+00 0.  1.
         22    1    3    3    0    0  0.71905670216E+02  0.57169884630E+01 -0.25597017699E+03  0.26593954365E+03  0.00000000000E+00 0.  1.
</event>
<event>
 7    1  0.6176857E-006  0.1581093E+03  0.7818608E-02  0.1226779E+00
          2   -1    0    0  502    0  0.00000000000E+00  0.00000000000E+00  0.23175642969E+04  0.23175642969E+04  0.00000000000E+00 0. -1.
          1   -1    0    0  501    0 -0.00000000000E+00 -0.00000000000E+00 -0.76254870428E+02  0.76254870428E+02  0.00000000000E+00 0. -1.
         25    2    1    2    0    0  0.15884793209E+03 -0.52167041856E+02  0.22795721313E+03  0.30911932606E+03  0.12504479573E+03 0.  0.
          2    1    1    2  501    0 -0.93624945095E+02  0.13779749006E+03  0.16934346560E+03  0.23755207419E+03  0.00000000000E+00 0. -1.
          1    1    1    2  502    0 -0.65222986991E+02 -0.85630448202E+02  0.18440087477E+04  0.18471477671E+04  0.00000000000E+00 0. -1.
         22    1    3    3    0    0  0.89298539766E+02  0.34358321932E+02  0.12744845891E+03  0.15936697641E+03  0.00000000000E+00 0.  1.
         22    1    3    3    0    0  0.69549392320E+02 -0.86525363788E+02  0.10050875423E+03  0.14975234965E+03  0.00000000000E+00 0.  1.
</event>
<event>
 7    1  0.6176857E-006  0.7136792E+02  0.7818608E-02  0.1355954E+00
          2   -1    0    0  502    0  0.00000000000E+00  0.00000000000E+00  0.11604590305E+03  0.11604590305E+03  0.00000000000E+00 0. -1.
          1   -1    0    0  501    0 -0.00000000000E+00 -0.00000000000E+00 -0.20350786736E+04  0.20350786736E+04  0.00000000000E+00 0. -1.
         25    2    1    2    0    0 -0.78608608649E+00  0.27296472098E+02 -0.68125650410E+02  0.14495183366E+03  0.12499685803E+03 0.  0.
          2    1    1    2  501    0 -0.68822192407E+02  0.17835398832E+02 -0.19055234716E+04  0.19068493114E+04  0.00000000000E+00 0. -1.
          1    1    1    2  502    0  0.69608278493E+02 -0.45131870931E+02  0.54616351474E+02  0.99323431560E+02  0.00000000000E+00 0. -1.
         22    1    3    3    0    0 -0.50708263827E+02  0.12629876927E+02 -0.76097248996E+02  0.92312692065E+02  0.00000000000E+00 0.  1.
         22    1    3    3    0    0  0.49922177740E+02  0.14666595172E+02  0.79715985855E+01  0.52639141599E+02  0.00000000000E+00 0.  1.
</event>
<event>
 7    1  0.6176857E-006  0.5591156E+02  0.7818608E-02  0.1530861E+00
          2   -1    0    0  502    0  0.00000000000E+00  0.00000000000E+00  0.16229150210E+04  0.16229150210E+04  0.00000000000E+00 0. -1.
          1   -1    0    0  501    0 -0.00000000000E+00 -0.00000000000E+00 -0.79682203229E+02  0.79682203229E+02  0.00000000000E+00 0. -1.
         25    2    1    2    0    0  0.47597223791E+02 -0.54546896903E+02  0.15889573535E+03  0.21474025734E+03  0.12499865493E+03 0.  0.
          2    1    1    2  501    0 -0.70592306249E+00  0.24582353970E+02 -0.48267815367E+02  0.54171694217E+02  0.00000000000E+00 0. -1.
          1    1    1    2  502    0 -0.46891300728E+02  0.29964542932E+02  0.14326048978E+04  0.14336852727E+04  0.00000000000E+00 0. -1.
         22    1    3    3    0    0  0.52774315624E+02 -0.90704882058E+02  0.13541400858E+03  0.17131683437E+03  0.00000000000E+00 0.  1.
         22    1    3    3    0    0 -0.51770918332E+01  0.36157985155E+02  0.23481726776E+02  0.43423422973E+02  0.00000000000E+00 0.  1.
</event>
<event>
 7    1  0.6176857E-006  0.5825655E+02  0.7818608E-02  0.1492868E+00
          2   -1    0    0  502    0  0.00000000000E+00  0.00000000000E+00  0.14074034057E+04  0.14074034057E+04  0.00000000000E+00 0. -1.
          1   -1    0    0  501    0 -0.00000000000E+00 -0.00000000000E+00 -0.18291991841E+03  0.18291991841E+03  0.00000000000E+00 0. -1.
         25    2    1    2    0    0  0.77531866260E+02  0.18181745415E+02 -0.17262485776E+01  0.14822100704E+03  0.12499888336E+03 0.  0.
          2    1    1    2  501    0 -0.27982087789E+02  0.12174990294E+02 -0.10514308778E+03  0.10948194615E+03  0.00000000000E+00 0. -1.
          1    1    1    2  502    0 -0.49549778471E+02 -0.30356735709E+02  0.13313528237E+04  0.13326203709E+04  0.00000000000E+00 0. -1.
         22    1    3    3    0    0 -0.17892395505E+02 -0.20468910492E+02  0.30002776530E+02  0.40488031727E+02  0.00000000000E+00 0. -1.
         22    1    3    3    0    0  0.95424261765E+02  0.38650655906E+02 -0.31729025108E+02  0.10773297531E+03  0.00000000000E+00 0. -1.
</event>
<event>
 7    1  0.6176857E-006  0.1217377E+03  0.7818608E-02  0.1307803E+00
          2   -1    0    0  502    0  0.00000000000E+00  0.00000000000E+00  0.57853690025E+03  0.57853690025E+03  0.00000000000E+00 0. -1.
          1   -1    0    0  501    0 -0.00000000000E+00 -0.00000000000E+00 -0.24995675818E+04  0.24995675818E+04  0.00000000000E+00 0. -1.
         25    2    1    2    0    0  0.38773466307E+02 -0.14499336833E+03 -0.21687955850E+03  0.29187099201E+03  0.12500189811E+03 0.  0.
          2    1    1    2  501    0  0.19473480081E+02  0.11947384911E+03 -0.22416850674E+04  0.22449510370E+04  0.00000000000E+00 0. -1.
          1    1    1    2  502    0 -0.58246946388E+02  0.25519519225E+02  0.53753394437E+03  0.54128245305E+03  0.00000000000E+00 0. -1.
         22    1    3    3    0    0  0.61258024589E+02 -0.42738183465E+02 -0.36094376703E+02  0.82957229534E+02  0.00000000000E+00 0.  1.
         22    1    3    3    0    0 -0.22484558282E+02 -0.10225518487E+03 -0.18078518180E+03  0.20891376247E+03  0.00000000000E+00 0.  1.
</event>
<event>
 7    1  0.6176857E-006  0.8536210E+02  0.7818608E-02  0.1365824E+00
          2   -1    0    0  502    0  0.00000000000E+00  0.00000000000E+00  0.35628465898E+04  0.35628465898E+04  0.00000000000E+00 0. -1.
          1   -1    0    0  501    0 -0.00000000000E+00 -0.00000000000E+00 -0.27583696459E+04  0.27583696459E+04  0.00000000000E+00 0. -1.
         25    2    1    2    0    0  0.93929265372E+02 -0.36638507150E+01 -0.12294056121E+04  0.12393139865E+04  0.12499946925E+03 0.  0.
          2    1    1    2  501    0 -0.68967732909E+02  0.52353611916E+02 -0.15225693542E+04  0.15250294709E+04  0.00000000000E+00 0. -1.
          1    1    1    2  502    0 -0.24961532462E+02 -0.48689761201E+02  0.35564519102E+04  0.35568727783E+04  0.00000000000E+00 0. -1.
         22    1    3    3    0    0 -0.40769795328E+01  0.41987583547E+02 -0.21029761048E+03  0.21448697841E+03  0.00000000000E+00 0. -1.
         22    1    3    3    0    0  0.98006244905E+02 -0.45651434262E+02 -0.10191080017E+04  0.10248270081E+04  0.00000000000E+00 0. -1.
</event>
<event>
 7    1  0.6176857E-006  0.1236082E+03  0.7818608E-02  0.1281208E+00
          2   -1    0    0  502    0  0.00000000000E+00  0.00000000000E+00  0.17778233776E+03  0.17778233776E+03  0.00000000000E+00 0. -1.
          1   -1    0    0  501    0 -0.00000000000E+00 -0.00000000000E+00 -0.12143674792E+04  0.12143674792E+04  0.00000000000E+00 0. -1.
         25    2    1    2    0    0  0.13374865361E+03 -0.18203460687E+02  0.85913978580E+02  0.20303976615E+03  0.12499546632E+03 0.  0.
          2    1    1    2  501    0 -0.48656834118E+02 -0.63756598900E+02 -0.10444234691E+04  0.10474983409E+04  0.00000000000E+00 0. -1.
          1    1    1    2  502    0 -0.85091819490E+02  0.81960059587E+02 -0.78075650914E+02  0.14161170989E+03  0.00000000000E+00 0. -1.
         22    1    3    3    0    0  0.49723668394E+01 -0.25367260977E+02 -0.22715859399E+02  0.34412681234E+02  0.00000000000E+00 0.  1.
         22    1    3    3    0    0  0.12877628677E+03  0.71638002903E+01  0.10862983798E+03  0.16862708492E+03  0.00000000000E+00 0.  1.
</event>
<event>
 7    1  0.6176857E-006  0.2099636E+03  0.7818608E-02  0.1230015E+00
          2   -1    0    0  502    0  0.00000000000E+00  0.00000000000E+00  0.17294751973E+04  0.17294751973E+04  0.00000000000E+00 0. -1.
          1   -1    0    0  501    0 -0.00000000000E+00 -0.00000000000E+00 -0.49998550383E+03  0.49998550383E+03  0.00000000000E+00 0. -1.
         25    2    1    2    0    0  0.16973408007E+03  0.21004595140E+03 -0.16385505182E+03  0.33971111217E+03  0.12500480824E+03 0.  0.
          2    1    1    2  501    0 -0.74434780795E+02 -0.24575581859E+02 -0.23519536007E+03  0.24791400366E+03  0.00000000000E+00 0. -1.
          1    1    1    2  502    0 -0.95299299279E+02 -0.18547036954E+03  0.16285401054E+04  0.16418355853E+04  0.00000000000E+00 0. -1.
         22    1    3    3    0    0 -0.71049102144E+01  0.74284375116E+02 -0.42651244823E+02  0.85952177521E+02  0.00000000000E+00 0.  1.
         22    1    3    3    0    0  0.17683899029E+03  0.13576157628E+03 -0.12120380700E+03  0.25375893465E+03  0.00000000000E+00 0.  1.
</event>
<event>
 7    1  0.6176857E-006  0.9710654E+02  0.7818608E-02  0.1435340E+00
          2   -1    0    0  502    0  0.00000000000E+00  0.00000000000E+00  0.80389771054E+03  0.80389771054E+03  0.00000000000E+00 0. -1.
          1   -1    0    0  501    0 -0.00000000000E+00 -0.00000000000E+00 -0.15561789778E+04  0.15561789778E+04  0.00000000000E+00 0. -1.
         25    2    1    2    0    0  0.73453992910E+02 -0.66844712392E+02 -0.44996867871E+03  0.47745209517E+03  0.12499994685E+03 0.  0.
          2    1    1    2  501    0 -0.87355664034E+02  0.42837516426E+02 -0.10900577304E+04  0.10943911186E+04  0.00000000000E+00 0. -1.
          1    1    1    2  502    0  0.13901671124E+02  0.24007195966E+02  0.78774514185E+03  0.78823347457E+03  0.00000000000E+00 0. -1.
         22    1    3    3    0    0 -0.12835391354E+02  0.23802148916E+02 -0.36295292960E+02  0.45261880819E+02  0.00000000000E+00 0.  1.
         22    1    3    3    0    0  0.86289384264E+02 -0.90646861308E+02 -0.41367338575E+03  0.43219021435E+03  0.00000000000E+00 0.  1.
</event>
<event>
 7    1  0.6176857E-006  0.3115007E+03  0.7818608E-02  0.1252246E+00
          2   -1    0    0  502    0  0.00000000000E+00  0.00000000000E+00  0.31942441597E+04  0.31942441597E+04  0.00000000000E+00 0. -1.
          1   -1    0    0  501    0 -0.00000000000E+00 -0.00000000000E+00 -0.66378279391E+03  0.66378279391E+03  0.00000000000E+00 0. -1.
         25    2    1    2    0    0 -0.29197770387E+03 -0.15751115177E+03 -0.71877234906E+02  0.36173508458E+03  0.12500076814E+03 0.  0.
          2    1    1    2  501    0  0.25206983340E+03  0.17115426161E+03 -0.39488830682E+03  0.49876823981E+03  0.00000000000E+00 0. -1.
          1    1    1    2  502    0  0.39907870469E+02 -0.13643109845E+02  0.29972269075E+04  0.29975236292E+04  0.00000000000E+00 0. -1.
         22    1    3    3    0    0 -0.18064130894E+03 -0.14616752683E+03 -0.72112095244E+01  0.23248275191E+03  0.00000000000E+00 0. -1.
         22    1    3    3    0    0 -0.11133639493E+03 -0.11343624941E+02 -0.64666025381E+02  0.12925233267E+03  0.00000000000E+00 0. -1.
</event>
<event>
 7    1  0.6176857E-006  0.1460990E+03  0.7818608E-02  0.1378156E+00
          2   -1    0    0  502    0  0.00000000000E+00  0.00000000000E+00  0.76021572968E+03  0.76021572968E+03  0.00000000000E+00 0. -1.
          1   -1    0    0  501    0 -0.00000000000E+00 -0.00000000000E+00 -0.93965042868E+03  0.93965042868E+03  0.00000000000E+00 0. -1.
         25    2    1    2    0    0 -0.77773682718E+02  0.11145546073E+03  0.17448423093E+03  0.25404889339E+03  0.12500011175E+03 0.  0.
          2    1    1    2  501    0  0.59504080928E+02 -0.13381590757E+03 -0.89352103472E+03  0.90544313585E+03  0.00000000000E+00 0. -1.
          1    1    1    2  502    0  0.18269601790E+02  0.22360446838E+02  0.53960210479E+03  0.54037412912E+03  0.00000000000E+00 0. -1.
         22    1    3    3    0    0 -0.63825068271E+02  0.13719381719E+03  0.12374630716E+03  0.19547104991E+03  0.00000000000E+00 0. -1.
         22    1    3    3    0    0 -0.13948614446E+02 -0.25738356459E+02  0.50737923774E+02  0.58577843482E+02  0.00000000000E+00 0. -1.
</event>
<event>
 7    1  0.6176857E-006  0.4424465E+02  0.7818608E-02  0.1565990E+00
          2   -1    0    0  502    0  0.00000000000E+00  0.00000000000E+00  0.11412635492E+03  0.11412635492E+03  0.00000000000E+00 0. -1.
          1   -1    0    0  501    0 -0.00000000000E+00 -0.00000000000E+00 -0.10855714719E+03  0.10855714719E+03  0.00000000000E+00 0. -1.
         25    2    1    2    0    0  0.36503298875E+02 -0.92988724081E+01 -0.35800126005E+02  0.13538004247E+03  0.12500858778E+03 0.  0.
          2    1    1    2  501    0 -0.39551701744E+02  0.33898323310E+02  0.27788107478E+02  0.59039074784E+02  0.00000000000E+00 0. -1.
          1    1    1    2  502    0  0.30484028694E+01 -0.24599450902E+02  0.13581226263E+02  0.28264384861E+02  0.00000000000E+00 0. -1.
         22    1    3    3    0    0  0.16510147611E+02  0.55426983827E+02  0.18768361222E+01  0.57864134177E+02  0.00000000000E+00 0.  1.
         22    1    3    3    0    0  0.19993151264E+02 -0.64725856235E+02 -0.37676962128E+02  0.77515908290E+02  0.00000000000E+00 0.  1.
</event>
<event>
 7    1  0.6176857E-006  0.5826869E+02  0.7818608E-02  0.1414890E+00
          2   -1    0    0  502    0  0.00000000000E+00  0.00000000000E+00  0.85048755509E+02  0.85048755509E+02  0.00000000000E+00 0. -1.
          1   -1    0    0  501    0 -0.00000000000E+00 -0.00000000000E+00 -0.36105463752E+03  0.36105463752E+03  0.00000000000E+00 0. -1.
         25    2    1    2    0    0 -0.84438136286E+01  0.21092795403E+01 -0.37113002810E+02  0.13068048407E+03  0.12499706753E+03 0.  0.
          2    1    1    2  501    0  0.53501520653E+02 -0.31952604366E+02 -0.25218278161E+03  0.25976823705E+03  0.00000000000E+00 0. -1.
          1    1    1    2  502    0 -0.45057707024E+02  0.29843324826E+02  0.13289902413E+02  0.55654671907E+02  0.00000000000E+00 0. -1.
         22    1    3    3    0    0  0.22276691744E+02 -0.54943969052E+02 -0.26810035319E+02  0.65068185191E+02  0.00000000000E+00 0.  1.
         22    1    3    3    0    0 -0.30720505372E+02  0.57053248592E+02 -0.10302967491E+02  0.65612298880E+02  0.00000000000E+00 0.  1.
</event>
<event>
 7    1  0.6176857E-006  0.1034215E+03  0.7818608E-02  0.1345099E+00
          2   -1    0    0  502    0  0.00000000000E+00  0.00000000000E+00  0.11795473931E+04  0.11795473931E+04  0.00000000000E+00 0. -1.
          1   -1    0    0  501    0 -0.00000000000E+00 -0.00000000000E+00 -0.29424010474E+03  0.29424010474E+03  0.00000000000E+00 0. -1.
         25    2    1    2    0    0  0.62015949509E+01 -0.60399053212E+01 -0.15200881621E+03  0.19699223395E+03  0.12499727915E+03 0.  0.
          2    1    1    2  501    0 -0.10423814043E+03 -0.26897017656E+02 -0.92695040283E+02  0.14206128949E+03  0.00000000000E+00 0. -1.
          1    1    1    2  502    0  0.98036545481E+02  0.32936922978E+02  0.11300111448E+04  0.11347339744E+04  0.00000000000E+00 0. -1.
         22    1    3    3    0    0  0.57854722153E+02 -0.33371582428E+02 -0.77814074463E+02  0.10254687501E+03  0.00000000000E+00 0.  1.
         22    1    3    3    0    0 -0.51653127202E+02  0.27331677107E+02 -0.74194741745E+02  0.94445358943E+02  0.00000000000E+00 0.  1.
</event>
<event>
 7    1  0.6176857E-006  0.5467029E+02  0.7818608E-02  0.1512159E+00
          2   -1    0    0  502    0  0.00000000000E+00  0.00000000000E+00  0.55940979608E+02  0.55940979608E+02  0.00000000000E+00 0. -1.
          1   -1    0    0  501    0 -0.00000000000E+00 -0.00000000000E+00 -0.38085752498E+03  0.38085752498E+03  0.00000000000E+00 0. -1.
         25    2    1    2    0    0 -0.56778815341E+02  0.10918156259E+02 -0.23120915020E+03  0.26911928840E+03  0.12499792096E+03 0.  0.
          2    1    1    2  501    0  0.45623913349E+01 -0.28126190769E+02 -0.10732169003E+03  0.11103982696E+03  0.00000000000E+00 0. -1.
          1    1    1    2  502    0  0.52216424006E+02  0.17208034510E+02  0.13614294856E+02  0.56639389227E+02  0.00000000000E+00 0. -1.
         22    1    3    3    0    0 -0.30961785114E+02 -0.42331549942E+02 -0.18974706330E+03  0.19686172886E+03  0.00000000000E+00 0. -1.
         22    1    3    3    0    0 -0.25817030227E+02  0.53249706201E+02 -0.41462086896E+02  0.72257559535E+02  0.00000000000E+00 0. -1.
</event>
<event>
 7    1  0.6176857E-006  0.1116287E+03  0.7818608E-02  0.1273761E+00
          2   -1    0    0  502    0  0.00000000000E+00  0.00000000000E+00  0.14709793174E+03  0.14709793174E+03  0.00000000000E+00 0. -1.
          1   -1    0    0  501    0 -0.00000000000E+00 -0.00000000000E+00 -0.14457155723E+04  0.14457155723E+04  0.00000000000E+00 0. -1.
         25    2    1    2    0    0 -0.12861078212E+03 -0.64576649927E+02 -0.60249872434E+03  0.63193386192E+03  0.12499926408E+03 0.  0.
          2    1    1    2  501    0  0.10679439766E+03 -0.28252434831E+02 -0.80706183502E+03  0.81458704200E+03  0.00000000000E+00 0. -1.
          1    1    1    2  502    0  0.21816384456E+02  0.92829084757E+02  0.11094291882E+03  0.14629260010E+03  0.00000000000E+00 0. -1.
         22    1    3    3    0    0 -0.27013836879E+02  0.36769485921E+02 -0.18161875164E+03  0.18726215161E+03  0.00000000000E+00 0. -1.
         22    1    3    3    0    0 -0.10159694524E+03 -0.10134613585E+03 -0.42087997270E+03  0.44467171031E+03  0.00000000000E+00 0. -1.
</event>
<event>
 7    1  0.6176857E-006  0.1029967E+03  0.7818608E-02  0.1358838E+00
          2   -1    0    0  502    0  0.00000000000E+00  0.00000000000E+00  0.25122233275E+04  0.25122233275E+04  0.00000000000E+00 0. -1.
          1   -1    0    0  501    0 -0.00000000000E+00 -0.00000000000E+00 -0.14692910316E+04  0.14692910316E+04  0.00000000000E+00 0. -1.
         25    2    1    2    0    0 -0.15257721294E+02  0.53647840164E+02  0.59567210968E+02  0.14923931030E+03  0.12495291235E+03 0.  0.
          2    1    1    2  501    0  0.27902489727E+02 -0.10003450516E+03 -0.14223215545E+04  0.14261080098E+04  0.00000000000E+00 0. -1.
          1    1    1    2  502    0 -0.12644768434E+02  0.46386664992E+02  0.24056866394E+04  0.24061670390E+04  0.00000000000E+00 0. -1.
         22    1    3    3    0    0 -0.29311013226E+02  0.90924055484E+02  0.31822213470E+02  0.10069246562E+03  0.00000000000E+00 0. -1.
         22    1    3    3    0    0  0.14053291932E+02 -0.37276215321E+02  0.27744997498E+02  0.48546844685E+02  0.00000000000E+00 0. -1.
</event>
<event>
 7    1  0.6176857E-006  0.1320225E+03  0.7818608E-02  0.1313317E+00
          2   -1    0    0  502    0  0.00000000000E+00  0.00000000000E+00  0.30485600430E+04  0.30485600430E+04  0.00000000000E+00 0. -1.
          1   -1    0    0  501    0 -0.00000000000E+00 -0.00000000000E+00 -0.61714660968E+03  0.61714660968E+03  0.00000000000E+00 0. -1.
         25    2    1    2    0    0 -0.77027244240E+02 -0.59694855564E+02  0.74526584057E+03  0.76193366325E+03  0.12500024776E+03 0.  0.
          2    1    1    2  501    0  0.66552416316E+02  0.11448157574E+03 -0.60126808410E+03  0.61567732154E+03  0.00000000000E+00 0. -1.
          1    1    1    2  502    0  0.10474827924E+02 -0.54786720178E+02  0.22874156768E+04  0.22880956679E+04  0.00000000000E+00 0. -1.
         22    1    3    3    0    0 -0.37253452869E+02 -0.68357094829E+02  0.19214084039E+03  0.20731284261E+03  0.00000000000E+00 0.  1.
         22    1    3    3    0    0 -0.39773791371E+02  0.86622392644E+01  0.55312500018E+03  0.55462082064E+03  0.00000000000E+00 0.  1.
</event>
<event>
 7    1  0.6176857E-006  0.5114963E+02  0.7818608E-02  0.1510765E+00
          2   -1    0    0  502    0  0.00000000000E+00  0.00000000000E+00  0.30941031746E+03  0.30941031746E+03  0.00000000000E+00 0. -1.
          1   -1    0    0  501    0 -0.00000000000E+00 -0.00000000000E+00 -0.21761621262E+03  0.21761621262E+03  0.00000000000E+00 0. -1.
         25    2    1    2    0    0 -0.52347788620E+02 -0.86245813188E+01 -0.14827237078E+03  0.20105783745E+03  0.12499953476E+03 0.  0.
          2    1    1    2  501    0  0.15227803370E+02 -0.26707365404E+02 -0.34760009372E+02  0.46405038669E+02  0.00000000000E+00 0. -1.
          1    1    1    2  502    0  0.37119985249E+02  0.35331946722E+02  0.27482648499E+03  0.27956365396E+03  0.00000000000E+00 0. -1.
         22    1    3    3    0    0 -0.77413637169E+02  0.35344468578E+02 -0.89621426701E+02  0.12358844122E+03  0.00000000000E+00 0. -1.
         22    1    3    3    0    0  0.25065848549E+02 -0.43969049896E+02 -0.58650944075E+02  0.77469396236E+02  0.00000000000E+00 0. -1.
</event>
<event>
 7    1  0.6176857E-006  0.1535047E+03  0.7818608E-02  0.1326743E+00
          2   -1    0    0  502    0  0.00000000000E+00  0.00000000000E+00  0.11516971156E+04  0.11516971156E+04  0.00000000000E+00 0. -1.
          1   -1    0    0  501    0 -0.00000000000E+00 -0.00000000000E+00 -0.12240440854E+03  0.12240440854E+03  0.00000000000E+00 0. -1.
         25    2    1    2    0    0  0.35550362457E+02 -0.11477007517E+03  0.25121326013E+03  0.30523732301E+03  0.12500289143E+03 0.  0.
          2    1    1    2  501    0 -0.38300541671E+02  0.15723157339E+03 -0.25788302700E+02  0.16387109482E+03  0.00000000000E+00 0. -1.
          1    1    1    2  502    0  0.27501792142E+01 -0.42461498216E+02  0.80386774964E+03  0.80499310632E+03  0.00000000000E+00 0. -1.
         22    1    3    3    0    0  0.43635504464E+02 -0.12188780546E+03  0.12972951554E+03  0.18327695320E+03  0.00000000000E+00 0. -1.
         22    1    3    3    0    0 -0.80851420066E+01  0.71177302884E+01  0.12148374459E+03  0.12196036981E+03  0.00000000000E+00 0. -1.
</event>
<event>
 7    1  0.6176857E-006  0.5200819E+02  0.7818608E-02  0.1450655E+00
          2   -1    0    0  502    0  0.00000000000E+00  0.00000000000E+00  0.15847630252E+03  0.15847630252E+03  0.00000000000E+00 0. -1.
          1   -1    0    0  501    0 -0.00000000000E+00 -0.00000000000E+00 -0.67127579076E+03  0.67127579076E+03  0.00000000000E+00 0. -1.
         25    2    1    2    0    0 -0.41958651614E+02  0.42903048780E+02 -0.42193112990E+03  0.44412965144E+03  0.12499627543E+03 0.  0.
          2    1    1    2  501    0  0.45309275226E+02  0.91237463291E+01 -0.23127557752E+03  0.23584860807E+03  0.00000000000E+00 0. -1.
          1    1    1    2  502    0 -0.33506236114E+01 -0.52026795109E+02  0.14040721917E+03  0.14977383378E+03  0.00000000000E+00 0. -1.
         22    1    3    3    0    0 -0.37259302445E+01 -0.94995219214E+01  0.56447055852E+01  0.11661310993E+02  0.00000000000E+00 0. -1.
         22    1    3    3    0    0 -0.38232721370E+02  0.52402570701E+02 -0.42757583548E+03  0.43246834045E+03  0.00000000000E+00 0. -1.
</event>
<event>
 7    1  0.6176857E-006  0.1056568E+03  0.7818608E-02  0.1289237E+00
          2   -1    0    0  502    0  0.00000000000E+00  0.00000000000E+00  0.38192321234E+04  0.38192321234E+04  0.00000000000E+00 0. -1.
          1   -1    0    0  501    0 -0.00000000000E+00 -0.00000000000E+00 -0.91829231912E+02  0.91829231912E+02  0.00000000000E+00 0. -1.
         25    2    1    2    0    0  0.10119053222E+03 -0.11455043495E+03  0.40491805667E+03  0.45049327737E+03  0.12499693748E+03 0.  0.
          2    1    1    2  501    0 -0.15081424635E+02  0.10225385590E+03 -0.29474417101E+02  0.10748042463E+03  0.00000000000E+00 0. -1.
          1    1    1    2  502    0 -0.86109107583E+02  0.12296579047E+02  0.33519592519E+04  0.33530876533E+04  0.00000000000E+00 0. -1.
         22    1    3    3    0    0 -0.29450400128E+02 -0.17523682597E+02  0.59526981587E+02  0.68686731298E+02  0.00000000000E+00 0. -1.
         22    1    3    3    0    0  0.13064093235E+03 -0.97026752352E+02  0.34539107508E+03  0.38180654607E+03  0.00000000000E+00 0. -1.
</event>
<event>
 7    1  0.6176857E-006  0.8526792E+02  0.7818608E-02  0.1458115E+00
          2   -1    0    0  502    0  0.00000000000E+00  0.00000000000E+00  0.10154871324E+04  0.10154871324E+04  0.00000000000E+00 0. -1.
          1   -1    0    0  501    0 -0.00000000000E+00 -0.00000000000E+00 -0.93149662609E+03  0.93149662609E+03  0.00000000000E+00 0. -1.
         25    2    1    2    0    0 -0.45534763508E+02  0.10162711757E+03  0.49274126004E+02  0.17451267028E+03  0.12500098752E+03 0.  0.
          2    1    1    2  501    0  0.36639514102E+02 -0.76460649019E+02 -0.86661092503E+03  0.87074863205E+03  0.00000000000E+00 0. -1.
          1    1    1    2  502    0  0.88952494062E+01 -0.25166468553E+02  0.90132730529E+03  0.90172245611E+03  0.00000000000E+00 0. -1.
         22    1    3    3    0    0 -0.11040655338E+02  0.49388383271E+01 -0.37933060746E+02  0.39814636654E+02  0.00000000000E+00 0. -1.
         22    1    3    3    0    0 -0.34494108170E+02  0.96688279245E+02  0.87207186750E+02  0.13469803363E+03  0.00000000000E+00 0. -1.
</event>
<event>
 7    1  0.6176857E-006  0.8091265E+02  0.7818608E-02  0.1420153E+00
          2   -1    0    0  502    0  0.00000000000E+00  0.00000000000E+00  0.34012859330E+04  0.34012859330E+04  0.00000000000E+00 0. -1.
          1   -1    0    0  501    0 -0.00000000000E+00 -0.00000000000E+00 -0.90068805901E+01  0.90068805901E+01  0.00000000000E+00 0. -1.
         25    2    1    2    0    0  0.16647724946E+02  0.59771634474E+02  0.10651888377E+04  0.10742916354E+04  0.12500185189E+03 0.  0.
          2    1    1    2  501    0  0.36818318678E+02  0.63993769964E+01  0.92105959305E+02  0.99398432361E+02  0.00000000000E+00 0. -1.
          1    1    1    2  502    0 -0.53466043624E+02 -0.66171011470E+02  0.22349842555E+04  0.22366027459E+04  0.00000000000E+00 0. -1.
         22    1    3    3    0    0  0.21938698095E+02  0.97143544756E+02  0.67933875856E+03  0.68659982788E+03  0.00000000000E+00 0. -1.
         22    1    3    3    0    0 -0.52909731488E+01 -0.37371910282E+02  0.38585007910E+03  0.38769180752E+03  0.00000000000E+00 0. -1.
</event>
<event>
 7    1  0.6176857E-006  0.1336528E+03  0.7818608E-02  0.1359041E+00
          2   -1    0    0  502    0  0.00000000000E+00  0.00000000000E+00  0.13179161679E+04  0.13179161679E+04  0.00000000000E+00 0. -1.
          1   -1    0    0  501    0 -0.00000000000E+00 -0.00000000000E+00 -0.99025377065E+03  0.99025377065E+03  0.00000000000E+00 0. -1.
         25    2    1    2    0    0  0.10785446632E+03  0.12953114501E+03  0.31203395716E+02  0.21215485298E+03  0.12500050523E+03 0.  0.
          2    1    1    2  501    0 -0.28138299128E+02 -0.24007315700E+02 -0.89573999800E+03  0.89650335142E+03  0.00000000000E+00 0. -1.
          1    1    1    2  502    0 -0.79716167189E+02 -0.10552382931E+03  0.11921989995E+04  0.11995117342E+04  0.00000000000E+00 0. -1.
         22    1    3    3    0    0  0.55807758855E+02 -0.11255826326E+02  0.24288857766E+02  0.61896269567E+02  0.00000000000E+00 0. -1.
         22    1    3    3    0    0  0.52046707461E+02  0.14078697134E+03  0.69145379500E+01  0.15025858342E+03  0.00000000000E+00 0. -1.
</event>
<event>
 7    1  0.6176857E-006  0.6073149E+02  0.7818608E-02  0.1417067E+00
          2   -1    0    0  502    0  0.00000000000E+00  0.00000000000E+00  0.13733669279E+04  0.13733669279E+04  0.00000000000E+00 0. -1.
          1   -1    0    0  501    0 -0.00000000000E+00 -0.00000000000E+00 -0.90767489762E+03  0.90767489762E+03  0.00000000000E+00 0. -1.
         25    2    1    2    0    0 -0.62714960689E+02 -0.83529532590E+02  0.49441276090E+03  0.52055664511E+03  0.12499957409E+03 0.  0.
          2    1    1    2  501    0  0.50150663046E+02  0.34115123259E+02 -0.89282253076E+03  0.89488044010E+03  0.00000000000E+00 0. -1.
          1    1    1    2  502    0  0.12564297643E+02  0.49414409331E+02  0.86410180012E+03  0.86560474028E+03  0.00000000000E+00 0. -1.
         22    1    3    3    0    0 -0.85210594314E+02 -0.97607502407E+02  0.45464517108E+03  0.47274760866E+03  0.00000000000E+00 0. -1.
         22    1    3    3    0    0  0.22495633625E+02  0.14077969817E+02  0.39767589825E+02  0.47809036456E+02  0.00000000000E+00 0. -1.
</event>
<event>
 7    1  0.6176857E-006  0.3214548E+02  0.7818608E-02  0.1643831E+00
          2   -1    0    0  502    0  0.00000000000E+00  0.00000000000E+00  0.10877273607E+03  0.10877273607E+03  0.00000000000E+00 0. -1.
          1   -1    0    0  501    0 -0.00000000000E+00 -0.00000000000E+00 -0.94046099297E+03  0.94046099297E+03  0.00000000000E+00 0. -1.
         25    2    1    2    0    0  0.20648715957E+02 -0.29672444090E+02 -0.84233746773E+03  0.85232773274E+03  0.12499332406E+03 0.  0.
          2    1    1    2  501    0 -0.30504393997E+02  0.10658801142E+02 -0.89154901117E+02  0.94829976737E+02  0.00000000000E+00 0. -1.
          1    1    1    2  502    0  0.98556780402E+01  0.19013642948E+02  0.99804111948E+02  0.10207601956E+03  0.00000000000E+00 0. -1.
         22    1    3    3    0    0  0.26324213622E+02  0.40541062906E+02 -0.18440936454E+03  0.19063933417E+03  0.00000000000E+00 0.  1.
         22    1    3    3    0    0 -0.56754976654E+01 -0.70213506996E+02 -0.65792810319E+03  0.66168839857E+03  0.00000000000E+00 0.  1.
</event>
<event>
 7    1  0.6176857E-006  0.6222801E+02  0.7818608E-02  0.1460781E+00
          2   -1    0    0  502    0  0.00000000000E+00  0.00000000000E+00  0.16063586288E+04  0.16063586288E+04  0.00000000000E+00 0. -1.
          1   -1    0    0  501    0 -0.00000000000E+00 -0.00000000000E+00 -0.47146885617E+03  0.47146885617E+03  0.00000000000E+00 0. -1.
         25    2    1    2    0    0 -0.48152385857E+02  0.60778571644E+02 -0.61718200474E+02  0.15951448829E+03  0.12499219443E+03 0.  0.
          2    1    1    2  501    0 -0.83868923693E+01 -0.34878715698E+02 -0.35933827239E+03  0.36112443669E+03  0.00000000000E+00 0. -1.
          1    1    1    2  502    0  0.56539278226E+02 -0.25899855946E+02  0.15559462455E+04  0.15571885600E+04  0.00000000000E+00 0. -1.
         22    1    3    3    0    0 -0.61761747265E+01  0.73561827467E+01 -0.86622232775E+02  0.87153139759E+02  0.00000000000E+00 0. -1.
         22    1    3    3    0    0 -0.41976211131E+02  0.53422388897E+02  0.24904032301E+02  0.72361348531E+02  0.00000000000E+00 0. -1.
</event>
<event>
 7    1  0.6176857E-006  0.3198577E+02  0.7818608E-02  0.1614663E+00
          2   -1    0    0  502    0  0.00000000000E+00  0.00000000000E+00  0.21668712158E+04  0.21668712158E+04  0.00000000000E+00 0. -1.
          1   -1    0    0  501    0 -0.00000000000E+00 -0.00000000000E+00 -0.17225681423E+03  0.17225681423E+03  0.00000000000E+00 0. -1.
         25    2    1    2    0    0 -0.32951818087E+02  0.41358207485E+02  0.17677388608E+04  0.17729416276E+04  0.12500004507E+03 0.  0.
          2    1    1    2  501    0  0.18980438999E+02 -0.17010720846E+02 -0.16819733217E+03  0.17011750127E+03  0.00000000000E+00 0. -1.
          1    1    1    2  502    0  0.13971379087E+02 -0.24347486639E+02  0.39507287297E+03  0.39606890120E+03  0.00000000000E+00 0. -1.
         22    1    3    3    0    0 -0.31563303890E+02  0.75814791800E+02  0.15751796626E+04  0.15773189577E+04  0.00000000000E+00 0. -1.
         22    1    3    3    0    0 -0.13885141972E+01 -0.34456584315E+02  0.19255919820E+03  0.19562266992E+03  0.00000000000E+00 0. -1.
</event>
<event>
 7    1  0.6176857E-006  0.5398713E+02  0.7818608E-02  0.1437751E+00
          2   -1    0    0  502    0  0.00000000000E+00  0.00000000000E+00  0.44840600428E+03  0.44840600428E+03  0.00000000000E+00 0. -1.
          1   -1    0    0  501    0 -0.00000000000E+00 -0.00000000000E+00 -0.50747154716E+03  0.50747154716E+03  0.00000000000E+00 0. -1.
         25    2    1    2    0    0 -0.55469033647E+02  0.33759198017E+02 -0.25889215619E+03  0.29473143809E+03  0.12499989967E+03 0.  0.
          2    1    1    2  501    0  0.53087130584E+02  0.15186637923E+02 -0.22592955224E+03  0.23257910478E+03  0.00000000000E+00 0. -1.
          1    1    1    2  502    0  0.23819030630E+01 -0.48945835940E+02  0.42575616556E+03  0.42856700856E+03  0.00000000000E+00 0. -1.
         22    1    3    3    0    0 -0.38157266468E+02  0.11442152562E+02 -0.60216784567E+01  0.40288465484E+02  0.00000000000E+00 0.  1.
         22    1    3    3    0    0 -0.17311767179E+02  0.22317045454E+02 -0.25287047773E+03  0.25444297261E+03  0.00000000000E+00 0.  1.
</event>
<event>
 7    1  0.6176857E-006  0.8803174E+02  0.7818608E-02  0.1445718E+00
          2   -1    0    0  502    0  0.00000000000E+00  0.00000000000E+00  0.38916464230E+03  0.38916464230E+03  0.00000000000E+00 0. -1.
          1   -1    0    0  501    0 -0.00000000000E+00 -0.00000000000E+00 -0.12252462189E+04  0.12252462189E+04  0.00000000000E+00 0. -1.
         25    2    1    2    0    0 -0.10997507117E+03 -0.36734473873E+02 -0.43631976245E+03  0.46844823996E+03  0.12499952227E+03 0.  0.
          2    1    1    2  501    0  0.26194231323E+02  0.10764025567E+02 -0.76744219409E+03  0.76796453256E+03  0.00000000000E+00 0. -1.
          1    1    1    2  502    0  0.83780839849E+02  0.25970448306E+02  0.36768037990E+03  0.37799808871E+03  0.00000000000E+00 0. -1.
         22    1    3    3    0    0  0.30057861408E+01 -0.23236988966E+02 -0.72186525044E+01  0.24517368344E+02  0.00000000000E+00 0. -1.
         22    1    3    3    0    0 -0.11298085731E+03 -0.13497484907E+02 -0.42910110995E+03  0.44393087162E+03  0.00000000000E+00 0. -1.
</event>
<event>
 7    1  0.6176857E-006  0.4045565E+02  0.7818608E-02  0.1580340E+00
          2   -1    0    0  502    0  0.00000000000E+00  0.00000000000E+00  0.20394800167E+04  0.20394800167E+04  0.00000000000E+00 0. -1.
          1   -1    0    0  501    0 -0.00000000000E+00 -0.00000000000E+00 -0.86822577778E+03  0.86822577778E+03  0.00000000000E+00 0. -1.
         25    2    1    2    0    0  0.30944510736E+02 -0.13179746376E+00  0.53013752088E+03  0.54555306256E+03  0.12499909161E+03 0.  0.
          2    1    1    2  501    0 -0.32110639843E+02 -0.24631501609E+02 -0.85993978004E+03  0.86089153171E+03  0.00000000000E+00 0. -1.
          1    1    1    2  502    0  0.11661291067E+01  0.24763299073E+02  0.15010564981E+04  0.15012612003E+04  0.00000000000E+00 0. -1.
         22    1    3    3    0    0 -0.13763286764E+02 -0.19728471327E+02  0.15523333158E+02  0.28628910489E+02  0.00000000000E+00 0. -1.
         22    1    3    3    0    0  0.44707797500E+02  0.19596673863E+02  0.51461418773E+03  0.51692415207E+03  0.00000000000E+00 0. -1.
</event>
<event>
 7    1  0.6176857E-006  0.4008131E+02  0.7818608E-02  0.1585430E+00
          2   -1    0    0  502    0  0.00000000000E+00  0.00000000000E+00  0.51446752414E+03  0.51446752414E+03  0.00000000000E+00 0. -1.
          1   -1    0    0  501    0 -0.00000000000E+00 -0.00000000000E+00 -0.17290383328E+04  0.17290383328E+04  0.00000000000E+00 0. -1.
         25    2    1    2    0    0 -0.55782117665E+02 -0.30196198635E+01  0.12551731450E+03  0.18574169532E+03  0.12499847354E+03 0.  0.
          2    1    1    2  501    0  0.37806275578E+02 -0.13258582028E+02 -0.16982798887E+04  0.16987523907E+04  0.00000000000E+00 0. -1.
          1    1    1    2  502    0  0.17975842087E+02  0.16278201891E+02  0.35819176555E+03  0.35901177092E+03  0.00000000000E+00 0. -1.
         22    1    3    3    0    0 -0.15148582151E+02 -0.23391415876E+02  0.13622239716E+03  0.13904380377E+03  0.00000000000E+00 0. -1.
         22    1    3    3    0    0 -0.40633535513E+02  0.20371796013E+02 -0.10705082660E+02  0.46697891557E+02  0.00000000000E+00 0. -1.
</event>
<event>
 7    1  0.6176857E-006  0.5342252E+02  0.7818608E-02  0.1556556E+00
          2   -1    0    0  502    0  0.00000000000E+00  0.00000000000E+00  0.64845472817E+03  0.64845472817E+03  0.00000000000E+00 0. -1.
          1   -1    0    0  501    0 -0.00000000000E+00 -0.00000000000E+00 -0.58417875065E+03  0.58417875065E+03  0.00000000000E+00 0. -1.
         25    2    1    2    0    0 -0.44893038183E+02 -0.21829285003E+02  0.35304196325E+03  0.37782986996E+03  0.12499952102E+03 0.  0.
          2    1    1    2  501    0 -0.99695785374E+01  0.19377807016E+02 -0.56891016371E+03  0.56932738058E+03  0.00000000000E+00 0. -1.
          1    1    1    2  502    0  0.54862616720E+02  0.24514779872E+01  0.28014417798E+03  0.28547622828E+03  0.00000000000E+00 0. -1.
         22    1    3    3    0    0  0.54260374826E+00 -0.17537677976E+01 -0.10626889292E+02  0.10784289329E+02  0.00000000000E+00 0.  1.
         22    1    3    3    0    0 -0.45435641931E+02 -0.20075517205E+02  0.36366885255E+03  0.36704558063E+03  0.00000000000E+00 0.  1.
</event>
<event>
 7    1  0.6176857E-006  0.4397223E+02  0.7818608E-02  0.1493631E+00
          2   -1    0    0  502    0  0.00000000000E+00  0.00000000000E+00  0.12534230515E+03  0.12534230515E+03  0.00000000000E+00 0. -1.
          1   -1    0    0  501    0 -0.00000000000E+00 -0.00000000000E+00 -0.15172781174E+04  0.15172781174E+04  0.00000000000E+00 0. -1.
         25    2    1    2    0    0 -0.13308268270E+02  0.13138575241E+01 -0.71570094429E+03  0.72665746882E+03  0.12499759646E+03 0.  0.
          2    1    1    2  501    0 -0.19130888901E+01  0.40170351157E+02 -0.79149838834E+03  0.79251941034E+03  0.00000000000E+00 0. -1.
          1    1    1    2  502    0  0.15221357160E+02 -0.41484208681E+02  0.11526352035E+03  0.12344354340E+03  0.00000000000E+00 0. -1.
         22    1    3    3    0    0  0.32333210183E+02 -0.23340239153E+02 -0.85689559718E+02  0.94514040698E+02  0.00000000000E+00 0. -1.
         22    1    3    3    0    0 -0.45641478453E+02  0.24654096677E+02 -0.63001138457E+03  0.63214342813E+03  0.00000000000E+00 0. -1.
</event>
<event>
 7    1  0.6176857E-006  0.4279628E+02  0.7818608E-02  0.1506075E+00
          2   -1    0    0  502    0  0.00000000000E+00  0.00000000000E+00  0.14745497705E+04  0.14745497705E+04  0.00000000000E+00 0. -1.
          1   -1    0    0  501    0 -0.00000000000E+00 -0.00000000000E+00 -0.42512354004E+03  0.42512354004E+03  0.00000000000E+00 0. -1.
         25    2    1    2    0    0  0.23203795350E+02  0.15445739771E+02 -0.31741356519E+03  0.34228878078E+03  0.12503299998E+03 0.  0.
          2    1    1    2  501    0 -0.43536616340E+02  0.22211899794E+02 -0.88668730071E+02  0.10124697105E+03  0.00000000000E+00 0. -1.
          1    1    1    2  502    0  0.20332820990E+02 -0.37657639565E+02  0.14555085257E+04  0.14561375587E+04  0.00000000000E+00 0. -1.
         22    1    3    3    0    0 -0.18999901470E+02  0.53386955304E+02 -0.23817704405E+03  0.24482538178E+03  0.00000000000E+00 0. -1.
         22    1    3    3    0    0  0.42203696820E+02 -0.37941215532E+02 -0.79236521143E+02  0.97463398998E+02  0.00000000000E+00 0. -1.
</event>
<event>
 7    1  0.6176857E-006  0.1479123E+03  0.7818608E-02  0.1293834E+00
          2   -1    0    0  502    0  0.00000000000E+00  0.00000000000E+00  0.43553950640E+03  0.43553950640E+03  0.00000000000E+00 0. -1.
          1   -1    0    0  501    0 -0.00000000000E+00 -0.00000000000E+00 -0.21917280384E+04  0.21917280384E+04  0.00000000000E+00 0. -1.
         25    2    1    2    0    0  0.13256738023E+03  0.13787799601E+02 -0.74329969192E+03  0.76543038505E+03  0.12500011453E+03 0.  0.
          2    1    1    2  501    0  0.87696365548E+01 -0.58872380120E+02 -0.14237597839E+04  0.14250034337E+04  0.00000000000E+00 0. -1.
          1    1    1    2  502    0 -0.14133701679E+03  0.45084580518E+02  0.41087094386E+03  0.43683372606E+03  0.00000000000E+00 0. -1.
         22    1    3    3    0    0  0.83462873494E+02  0.44550831779E+01 -0.67832209712E+03  0.68345209522E+03  0.00000000000E+00 0. -1.
         22    1    3    3    0    0  0.49104506737E+02  0.93327164234E+01 -0.64977594797E+02  0.81978289829E+02  0.00000000000E+00 0. -1.
</event>
<event>
 7    1  0.6176857E-006  0.4372780E+02  0.7818608E-02  0.1557073E+00
          2   -1    0    0  502    0  0.00000000000E+00  0.00000000000E+00  0.10990338359E+04  0.10990338359E+04  0.00000000000E+00 0. -1.
          1   -1    0    0  501    0 -0.00000000000E+00 -0.00000000000E+00 -0.26117758398E+03  0.26117758398E+03  0.00000000000E+00 0. -1.
         25    2    1    2    0    0  0.16172409506E+02 -0.36376755119E+02  0.15074017977E+01  0.13117732128E+03  0.12498160751E+03 0.  0.
          2    1    1    2  501    0 -0.38375021484E+02  0.21843963155E+02 -0.19368693265E+03  0.19865656012E+03  0.00000000000E+00 0. -1.
          1    1    1    2  502    0  0.22202611977E+02  0.14532791964E+02  0.10300357828E+04  0.10303775385E+04  0.00000000000E+00 0. -1.
         22    1    3    3    0    0 -0.17425000721E+02 -0.51153112566E+02  0.47767859799E+02  0.72125169013E+02  0.00000000000E+00 0. -1.
         22    1    3    3    0    0  0.33597410227E+02  0.14776357447E+02 -0.46260458001E+02  0.59052152271E+02  0.00000000000E+00 0. -1.
</event>
<event>
 7    1  0.6176857E-006  0.1708902E+03  0.7818608E-02  0.1321854E+00
          2   -1    0    0  502    0  0.00000000000E+00  0.00000000000E+00  0.14148185107E+04  0.14148185107E+04  0.00000000000E+00 0. -1.
          1   -1    0    0  501    0 -0.00000000000E+00 -0.00000000000E+00 -0.12878109955E+04  0.12878109955E+04  0.00000000000E+00 0. -1.
         25    2    1    2    0    0 -0.96919321433E+02  0.17263912320E+03 -0.63495004515E+03  0.67674534584E+03  0.12500032623E+03 0.  0.
          2    1    1    2  501    0  0.77040234955E+02 -0.13802461496E+03 -0.62178671498E+03  0.64156426885E+03  0.00000000000E+00 0. -1.
          1    1    1    2  502    0  0.19879086478E+02 -0.34614508249E+02  0.13837442754E+04  0.13843198914E+04  0.00000000000E+00 0. -1.
         22    1    3    3    0    0  0.18841851519E+02  0.36466091110E+01 -0.13656643856E+03  0.13790832197E+03  0.00000000000E+00 0.  1.
         22    1    3    3    0    0 -0.11576117295E+03  0.16899251409E+03 -0.49838360658E+03  0.53883702387E+03  0.00000000000E+00 0.  1.
</event>
<event>
 7    1  0.6176857E-006  0.1831586E+03  0.7818608E-02  0.1332614E+00
          2   -1    0    0  502    0  0.00000000000E+00  0.00000000000E+00  0.77201626840E+03  0.77201626840E+03  0.00000000000E+00 0. -1.
          1   -1    0    0  501    0 -0.00000000000E+00 -0.00000000000E+00 -0.56555144776E+03  0.56555144776E+03  0.00000000000E+00 0. -1.
         25    2    1    2    0    0  0.66554535556E+02  0.13556878753E+03 -0.17407297005E+03  0.26217193684E+03  0.12499729279E+03 0.  0.
          2    1    1    2  501    0  0.14857248749E+02  0.30432721819E+02 -0.33482136185E+03  0.33652969074E+03  0.00000000000E+00 0. -1.
          1    1    1    2  502    0 -0.81411784305E+02 -0.16600150935E+03  0.71535915255E+03  0.73886608859E+03  0.00000000000E+00 0. -1.
         22    1    3    3    0    0 -0.21641200689E+02  0.79828837951E+01 -0.74184545006E+02  0.77687931615E+02  0.00000000000E+00 0. -1.
         22    1    3    3    0    0  0.88195736245E+02  0.12758590374E+03 -0.99888425048E+02  0.18448400522E+03  0.00000000000E+00 0. -1.
</event>
<event>
 7    1  0.6176857E-006  0.7088628E+02  0.7818608E-02  0.1390237E+00
          2   -1    0    0  502    0  0.00000000000E+00  0.00000000000E+00  0.15887489112E+04  0.15887489112E+04  0.00000000000E+00 0. -1.
          1   -1    0    0  501    0 -0.00000000000E+00 -0.00000000000E+00 -0.32213679411E+03  0.32213679411E+03  0.00000000000E+00 0. -1.
         25    2    1    2    0    0 -0.68337827805E+02  0.26219768167E+02 -0.39016651302E+02  0.15001734769E+03  0.12500148230E+03 0.  0.
          2    1    1    2  501    0  0.31301503063E+02 -0.65464879992E+02 -0.22134792510E+03  0.23293848663E+03  0.00000000000E+00 0. -1.
          1    1    1    2  502    0  0.37036324742E+02  0.39245111825E+02  0.15269766935E+04  0.15279298710E+04  0.00000000000E+00 0. -1.
         22    1    3    3    0    0 -0.36443168863E+02 -0.24439114221E+02  0.34063344391E+02  0.55548954012E+02  0.00000000000E+00 0. -1.
         22    1    3    3    0    0 -0.31894658942E+02  0.50658882388E+02 -0.73079995692E+02  0.94468393679E+02  0.00000000000E+00 0. -1.
</event>
<event>
 7    1  0.6176857E-006  0.6588845E+02  0.7818608E-02  0.1388779E+00
          2   -1    0    0  502    0  0.00000000000E+00  0.00000000000E+00  0.28661266524E+04  0.28661266524E+04  0.00000000000E+00 0. -1.
          1   -1    0    0  501    0 -0.00000000000E+00 -0.00000000000E+00 -0.14520940479E+02  0.14520940479E+02  0.00000000000E+00 0. -1.
         25    2    1    2    0    0 -0.38148572813E+02 -0.87128076898E+01  0.50811422287E+03  0.52472477683E+03  0.12499920527E+03 0.  0.
          2    1    1    2  501    0  0.52459900775E+02 -0.55602612153E+02  0.25073176722E+03  0.26212613521E+03  0.00000000000E+00 0. -1.
          1    1    1    2  502    0 -0.14311327962E+02  0.64315419843E+02  0.20927597219E+04  0.20937966809E+04  0.00000000000E+00 0. -1.
         22    1    3    3    0    0 -0.27625665977E+02  0.56447992299E+02  0.29514321811E+03  0.30175995833E+03  0.00000000000E+00 0. -1.
         22    1    3    3    0    0 -0.10522906836E+02 -0.65160799989E+02  0.21297100476E+03  0.22296481850E+03  0.00000000000E+00 0. -1.
</event>
<event>
 7    1  0.6176857E-006  0.8142267E+02  0.7818608E-02  0.1382632E+00
          2   -1    0    0  502    0  0.00000000000E+00  0.00000000000E+00  0.15032579937E+04  0.15032579937E+04  0.00000000000E+00 0. -1.
          1   -1    0    0  501    0 -0.00000000000E+00 -0.00000000000E+00 -0.16349433059E+03  0.16349433059E+03  0.00000000000E+00 0. -1.
         25    2    1    2    0    0 -0.21375939875E+02 -0.59930611801E+02  0.51370255331E+02  0.14937379524E+03  0.12500007414E+03 0.  0.
          2    1    1    2  501    0 -0.47578798710E+02  0.15225057169E+02 -0.10777708639E+03  0.11879160241E+03  0.00000000000E+00 0. -1.
          1    1    1    2  502    0  0.68954738586E+02  0.44705554632E+02  0.13961704942E+04  0.13985869266E+04  0.00000000000E+00 0. -1.
         22    1    3    3    0    0 -0.67246393046E+02 -0.95143055305E+01  0.75320477922E+01  0.68332504208E+02  0.00000000000E+00 0. -1.
         22    1    3    3    0    0  0.45870453170E+02 -0.50416306271E+02  0.43838207539E+02  0.81041291033E+02  0.00000000000E+00 0. -1.
</event>
<event>
 7    1  0.6176857E-006  0.6673538E+02  0.7818608E-02  0.1419185E+00
          2   -1    0    0  502    0  0.00000000000E+00  0.00000000000E+00  0.42761313248E+03  0.42761313248E+03  0.00000000000E+00 0. -1.
          1   -1    0    0  501    0 -0.00000000000E+00 -0.00000000000E+00 -0.20501016106E+04  0.20501016106E+04  0.00000000000E+00 0. -1.
         25    2    1    2    0    0 -0.17177995216E+02  0.16275062262E+02 -0.11771675314E+03  0.17332689271E+03  0.12500006638E+03 0.  0.
          2    1    1    2  501    0  0.60773645676E+02 -0.29809470932E+02 -0.19026729847E+04  0.19038767101E+04  0.00000000000E+00 0. -1.
          1    1    1    2  502    0 -0.43595650460E+02  0.13534408670E+02  0.39790125974E+03  0.40051114024E+03  0.00000000000E+00 0. -1.
         22    1    3    3    0    0 -0.20144642554E+02 -0.33195676463E+02  0.66991335596E+01  0.39403527125E+02  0.00000000000E+00 0.  1.
         22    1    3    3    0    0  0.29666473374E+01  0.49470738725E+02 -0.12441588670E+03  0.13392336559E+03  0.00000000000E+00 0.  1.
</event>
<event>
 7    1  0.6176857E-006  0.9572919E+02  0.7818608E-02  0.1319499E+00
          2   -1    0    0  502    0  0.00000000000E+00  0.00000000000E+00  0.20762501465E+04  0.20762501465E+04  0.00000000000E+00 0. -1.
          1   -1    0    0  501    0 -0.00000000000E+00 -0.00000000000E+00 -0.36005931064E+03  0.36005931064E+03  0.00000000000E+00 0. -1.
         25    2    1    2    0    0 -0.14346486770E+03 -0.12962060210E+02  0.13943334348E+04  0.14073168087E+04  0.12499875834E+03 0.  0.
          2    1    1    2  501    0  0.65817101468E+02  0.31042366923E+02 -0.34743222991E+03  0.35497137035E+03  0.00000000000E+00 0. -1.
          1    1    1    2  502    0  0.77647766229E+02 -0.18080306713E+02  0.66928963099E+03  0.67402127803E+03  0.00000000000E+00 0. -1.
         22    1    3    3    0    0  0.37550048023E+00 -0.12584931656E+01  0.59867019665E+03  0.59867163718E+03  0.00000000000E+00 0. -1.
         22    1    3    3    0    0 -0.14384036818E+03 -0.11703567044E+02  0.79566323812E+03  0.80864517157E+03  0.00000000000E+00 0. -1.
</event>
<event>
 7    1  0.6176857E-006  0.1120536E+03  0.7818608E-02  0.1315194E+00
          2   -1    0    0  502    0  0.00000000000E+00  0.00000000000E+00  0.26833481396E+04  0.26833481396E+04  0.00000000000E+00 0. -1.
          1   -1    0    0  501    0 -0.00000000000E+00 -0.00000000000E+00 -0.59337603270E+03  0.59337603270E+03  0.00000000000E+00 0. -1.
         25    2    1    2    0    0  0.15198211403E+03 -0.52642620893E+02  0.15468561742E+04  0.15602112026E+04  0.12500065723E+03 0.  0.
          2    1    1    2  501    0 -0.89136813493E+02  0.67669318672E+02 -0.58042491249E+03  0.59111554475E+03  0.00000000000E+00 0. -1.
          1    1    1    2  502    0 -0.62845300540E+02 -0.15026697780E+02  0.11235408451E+04  0.11253974250E+04  0.00000000000E+00 0. -1.
         22    1    3    3    0    0  0.16385380052E+03 -0.73521221283E+02  0.13486380425E+04  0.13605432766E+04  0.00000000000E+00 0. -1.
         22    1    3    3    0    0 -0.11871686488E+02  0.20878600390E+02  0.19821813173E+03  0.19966792592E+03  0.00000000000E+00 0. -1.
</event>
<event>
 7    1  0.6176857E-006  0.8612055E+02  0.7818608E-02  0.1356928E+00
          2   -1    0    0  502    0  0.00000000000E+00  0.00000000000E+00  0.13204376096E+04  0.13204376096E+04  0.00000000000E+00 0. -1.
          1   -1    0    0  501    0 -0.00000000000E+00 -0.00000000000E+00 -0.14249176215E+03  0.14249176215E+03  0.00000000000E+00 0. -1.
         25    2    1    2    0    0  0.15471867972E+02  0.99993549212E+02  0.67093690833E+03  0.68994090455E+03  0.12499611289E+03 0.  0.
          2    1    1    2  501    0  0.38329535759E+02 -0.77191036167E+02 -0.11751846601E+03  0.14573331544E+03  0.00000000000E+00 0. -1.
          1    1    1    2  502    0 -0.53801403731E+02 -0.22802513046E+02  0.62452740518E+03  0.62725515181E+03  0.00000000000E+00 0. -1.
         22    1    3    3    0    0 -0.39374709587E+02  0.46892650378E+01  0.85244399664E+02  0.94015768016E+02  0.00000000000E+00 0. -1.
         22    1    3    3    0    0  0.54846577559E+02  0.95304284175E+02  0.58569250866E+03  0.59592513654E+03  0.00000000000E+00 0. -1.
</event>
<event>
 7    1  0.6176857E-006  0.6071075E+02  0.7818608E-02  0.1526554E+00
          2   -1    0    0  502    0  0.00000000000E+00  0.00000000000E+00  0.20014956411E+04  0.20014956411E+04  0.00000000000E+00 0. -1.
          1   -1    0    0  501    0 -0.00000000000E+00 -0.00000000000E+00 -0.16238407184E+04  0.16238407184E+04  0.00000000000E+00 0. -1.
         25    2    1    2    0    0 -0.58889306063E+01  0.57602235162E+02 -0.31324901896E+01  0.13779659913E+03  0.12500157294E+03 0.  0.
          2    1    1    2  501    0 -0.22935948519E+02 -0.41155088335E+01 -0.15528115653E+04  0.15529863980E+04  0.00000000000E+00 0. -1.
          1    1    1    2  502    0  0.28824879125E+02 -0.53486726329E+02  0.19335989781E+04  0.19345533623E+04  0.00000000000E+00 0. -1.
         22    1    3    3    0    0  0.20792912685E+01 -0.15015460440E+02  0.46875929296E+02  0.49266015181E+02  0.00000000000E+00 0.  1.
         22    1    3    3    0    0 -0.79682218749E+01  0.72617695603E+02 -0.50008419486E+02  0.88530583947E+02  0.00000000000E+00 0.  1.
</event>
<event>
 7    1  0.6176857E-006  0.9734510E+02  0.7818608E-02  0.1346681E+00
          2   -1    0    0  502    0  0.00000000000E+00  0.00000000000E+00  0.23172986061E+04  0.23172986061E+04  0.00000000000E+00 0. -1.
          1   -1    0    0  501    0 -0.00000000000E+00 -0.00000000000E+00 -0.78789030316E+02  0.78789030316E+02  0.00000000000E+00 0. -1.
         25    2    1    2    0    0 -0.37266474967E+02 -0.76768243701E+02  0.11294211114E+04  0.11395170332E+04  0.12499947496E+03 0.  0.
          2    1    1    2  501    0 -0.15419563686E+02  0.96911568380E+02 -0.40093491464E+02  0.10600520312E+03  0.00000000000E+00 0. -1.
          1    1    1    2  502    0  0.52686038653E+02 -0.20143324679E+02  0.11491819558E+04  0.11505654001E+04  0.00000000000E+00 0. -1.
         22    1    3    3    0    0  0.24462120166E+02 -0.63539057587E+02  0.86453774123E+03  0.86721457159E+03  0.00000000000E+00 0.  1.
         22    1    3    3    0    0 -0.61728595133E+02 -0.13229186114E+02  0.26488337017E+03  0.27230246164E+03  0.00000000000E+00 0.  1.
</event>
<event>
 7    1  0.6176857E-006  0.9638953E+02  0.7818608E-02  0.1444372E+00
          2   -1    0    0  502    0  0.00000000000E+00  0.00000000000E+00  0.83252382868E+02  0.83252382868E+02  0.00000000000E+00 0. -1.
          1   -1    0    0  501    0 -0.00000000000E+00 -0.00000000000E+00 -0.81839336360E+03  0.81839336360E+03  0.00000000000E+00 0. -1.
         25    2    1    2    0    0 -0.87155844974E+02  0.77152308508E+02 -0.40877695296E+03  0.44302594987E+03  0.12499909986E+03 0.  0.
          2    1    1    2  501    0  0.80003833229E+01 -0.24868505213E+02 -0.35774693219E+03  0.35869947892E+03  0.00000000000E+00 0. -1.
          1    1    1    2  502    0  0.79155461651E+02 -0.52283803296E+02  0.31382904415E+02  0.99920317682E+02  0.00000000000E+00 0. -1.
         22    1    3    3    0    0  0.27808476817E+02  0.37875168183E+02 -0.83668285187E+02  0.95959479437E+02  0.00000000000E+00 0.  1.
         22    1    3    3    0    0 -0.11496432179E+03  0.39277140326E+02 -0.32510866777E+03  0.34706647043E+03  0.00000000000E+00 0.  1.
</event>
<event>
 7    1  0.6176857E-006  0.5019580E+02  0.7818608E-02  0.1453266E+00
          2   -1    0    0  502    0  0.00000000000E+00  0.00000000000E+00  0.20225802259E+03  0.20225802259E+03  0.00000000000E+00 0. -1.
          1   -1    0    0  501    0 -0.00000000000E+00 -0.00000000000E+00 -0.33359384802E+03  0.33359384802E+03  0.00000000000E+00 0. -1.
         25    2    1    2    0    0 -0.23233554087E+02 -0.42635033136E+00 -0.57389637798E+02  0.13949751615E+03  0.12500402664E+03 0.  0.
          2    1    1    2  501    0  0.22963611812E+00  0.46977420275E+02 -0.22851661818E+03  0.23329546831E+03  0.00000000000E+00 0. -1.
          1    1    1    2  502    0  0.23003917969E+02 -0.46551069944E+02  0.15457043055E+03  0.16305888616E+03  0.00000000000E+00 0. -1.
         22    1    3    3    0    0  0.88488646969E+01 -0.58443537138E+02 -0.38573001859E+02  0.70582050919E+02  0.00000000000E+00 0. -1.
         22    1    3    3    0    0 -0.32082418784E+02  0.58017186806E+02 -0.18816635940E+02  0.68915465231E+02  0.00000000000E+00 0. -1.
</event>
<event>
 7    1  0.6176857E-006  0.1001984E+03  0.7818608E-02  0.1280085E+00
          2   -1    0    0  502    0  0.00000000000E+00  0.00000000000E+00  0.17247323392E+04  0.17247323392E+04  0.00000000000E+00 0. -1.
          1   -1    0    0  501    0 -0.00000000000E+00 -0.00000000000E+00 -0.67671750428E+02  0.67671750428E+02  0.00000000000E+00 0. -1.
         25    2    1    2    0    0  0.10178188425E+02 -0.13965163163E+02  0.95132664597E+02  0.15802905776E+03  0.12499735166E+03 0.  0.
          2    1    1    2  501    0  0.92889781993E+02  0.37039232903E+02  0.38291910354E+02  0.10708261657E+03  0.00000000000E+00 0. -1.
          1    1    1    2  502    0 -0.10306797042E+03 -0.23074069739E+02  0.15236360138E+04  0.15272924153E+04  0.00000000000E+00 0. -1.
         22    1    3    3    0    0  0.57148146039E+02  0.24873108325E+02  0.64951062175E+02  0.90017901503E+02  0.00000000000E+00 0. -1.
         22    1    3    3    0    0 -0.46969957615E+02 -0.38838271488E+02  0.30181602422E+02  0.68011156256E+02  0.00000000000E+00 0. -1.
</event>
<event>
 7    1  0.6176857E-006  0.4544217E+02  0.7818608E-02  0.1519017E+00
          2   -1    0    0  502    0  0.00000000000E+00  0.00000000000E+00  0.88984446949E+02  0.88984446949E+02  0.00000000000E+00 0. -1.
          1   -1    0    0  501    0 -0.00000000000E+00 -0.00000000000E+00 -0.43016676190E+03  0.43016676190E+03  0.00000000000E+00 0. -1.
         25    2    1    2    0    0  0.90286004056E+01 -0.45612480991E+02 -0.47495531837E+02  0.14157469822E+03  0.12500222231E+03 0.  0.
          2    1    1    2  501    0  0.23133783324E+02  0.39517593272E+02 -0.32739933888E+03  0.33058605416E+03  0.00000000000E+00 0. -1.
          1    1    1    2  502    0 -0.32162383730E+02  0.60948877193E+01  0.33712555761E+02  0.46990456472E+02  0.00000000000E+00 0. -1.
         22    1    3    3    0    0 -0.35125851676E+02 -0.72667956242E+02 -0.20968852494E+02  0.83391546905E+02  0.00000000000E+00 0. -1.
         22    1    3    3    0    0  0.44154452082E+02  0.27055475250E+02 -0.26526679343E+02  0.58183151312E+02  0.00000000000E+00 0. -1.
</event>
<event>
 7    1  0.6176857E-006  0.1293890E+03  0.7818608E-02  0.1248094E+00
          2   -1    0    0  502    0  0.00000000000E+00  0.00000000000E+00  0.30732522516E+03  0.30732522516E+03  0.00000000000E+00 0. -1.
          1   -1    0    0  501    0 -0.00000000000E+00 -0.00000000000E+00 -0.55924364075E+03  0.55924364075E+03  0.00000000000E+00 0. -1.
         25    2    1    2    0    0 -0.19445297055E+03 -0.77955676070E+02  0.73179528047E+02  0.25469121051E+03  0.12499329661E+03 0.  0.
          2    1    1    2  501    0  0.10509022772E+03  0.12531085297E+02 -0.43984604672E+03  0.45239974456E+03  0.00000000000E+00 0. -1.
          1    1    1    2  502    0  0.89362742832E+02  0.65424590772E+02  0.11474810308E+03  0.15947791084E+03  0.00000000000E+00 0. -1.
         22    1    3    3    0    0 -0.86721923427E+02 -0.90758369914E+02  0.31620020458E+01  0.12556978924E+03  0.00000000000E+00 0.  1.
         22    1    3    3    0    0 -0.10773104712E+03  0.12802693844E+02  0.70017526002E+02  0.12912142127E+03  0.00000000000E+00 0.  1.
</event>
<event>
 7    1  0.6176857E-006  0.1253438E+03  0.7818608E-02  0.1419346E+00
          2   -1    0    0  502    0  0.00000000000E+00  0.00000000000E+00  0.34324563020E+03  0.34324563020E+03  0.00000000000E+00 0. -1.
          1   -1    0    0  501    0 -0.00000000000E+00 -0.00000000000E+00 -0.34602213469E+03  0.34602213469E+03  0.00000000000E+00 0. -1.
         25    2    1    2    0    0  0.94188620030E+02 -0.70196964892E+02  0.26380502338E+03  0.31467019299E+03  0.12500051988E+03 0.  0.
          2    1    1    2  501    0 -0.85025116824E+02  0.92674677922E+02 -0.30457007915E+03  0.32951600801E+03  0.00000000000E+00 0. -1.
          1    1    1    2  502    0 -0.91635032061E+01 -0.22477713030E+02  0.37988551280E+02  0.45081563886E+02  0.00000000000E+00 0. -1.
         22    1    3    3    0    0  0.34138538181E+02 -0.69723727355E+02  0.23609932019E+03  0.24853516239E+03  0.00000000000E+00 0. -1.
         22    1    3    3    0    0  0.60050081849E+02 -0.47323753657E+00  0.27705703188E+02  0.66135030604E+02  0.00000000000E+00 0. -1.
</event>
<event>
 7    1  0.6176857E-006  0.5258948E+02  0.7818608E-02  0.1559391E+00
          2   -1    0    0  502    0  0.00000000000E+00  0.00000000000E+00  0.77733882497E+02  0.77733882497E+02  0.00000000000E+00 0. -1.
          1   -1    0    0  501    0 -0.00000000000E+00 -0.00000000000E+00 -0.16566041219E+04  0.16566041219E+04  0.00000000000E+00 0. -1.
         25    2    1    2    0    0  0.28646949413E+02  0.54662632493E+02 -0.15606545744E+03  0.20925947404E+03  0.12499779746E+03 0.  0.
          2    1    1    2  501    0 -0.38749933840E+02 -0.35410663589E+02 -0.14711412039E+04  0.14720774145E+04  0.00000000000E+00 0. -1.
          1    1    1    2  502    0  0.10102984427E+02 -0.19251968904E+02  0.48336421912E+02  0.53001115878E+02  0.00000000000E+00 0. -1.
         22    1    3    3    0    0  0.19547885436E+02 -0.37900998944E+02 -0.73068617678E+02  0.84602768486E+02  0.00000000000E+00 0.  1.
         22    1    3    3    0    0  0.90990639768E+01  0.92563631437E+02 -0.82996839763E+02  0.12465670556E+03  0.00000000000E+00 0.  1.
</event>
<event>
 7    1  0.6176857E-006  0.5593450E+02  0.7818608E-02  0.1439595E+00
          2   -1    0    0  502    0  0.00000000000E+00  0.00000000000E+00  0.21490016042E+04  0.21490016042E+04  0.00000000000E+00 0. -1.
          1   -1    0    0  501    0 -0.00000000000E+00 -0.00000000000E+00 -0.44301698840E+02  0.44301698840E+02  0.00000000000E+00 0. -1.
         25    2    1    2    0    0  0.34813905442E+02 -0.29777534070E+02  0.80270745269E+03  0.81367276053E+03  0.12500158833E+03 0.  0.
          2    1    1    2  501    0  0.23246872317E+02  0.40444058269E+02 -0.23906485501E+02  0.52418116819E+02  0.00000000000E+00 0. -1.
          1    1    1    2  502    0 -0.58060777759E+02 -0.10666524199E+02  0.13258989382E+04  0.13272124257E+04  0.00000000000E+00 0. -1.
         22    1    3    3    0    0 -0.42910418201E+02  0.48485896290E+01  0.38301916031E+03  0.38544583274E+03  0.00000000000E+00 0.  1.
         22    1    3    3    0    0  0.77724323643E+02 -0.34626123699E+02  0.41968829238E+03  0.42822692779E+03  0.00000000000E+00 0.  1.
</event>
<event>
 7    1  0.6176857E-006  0.2026899E+03  0.7818608E-02  0.1298410E+00
          2   -1    0    0  502    0  0.00000000000E+00  0.00000000000E+00  0.26910141526E+03  0.26910141526E+03  0.00000000000E+00 0. -1.
          1   -1    0    0  501    0 -0.00000000000E+00 -0.00000000000E+00 -0.68350390476E+03  0.68350390476E+03  0.00000000000E+00 0. -1.
         25    2    1    2    0    0  0.17253317612E+03 -0.30910011251E+02 -0.17704095932E+03  0.27873322214E+03  0.12500232874E+03 0.  0.
          2    1    1    2  501    0 -0.21410029333E+03  0.33214027745E+02 -0.42747905475E+03  0.47924988210E+03  0.00000000000E+00 0. -1.
          1    1    1    2  502    0  0.41567117210E+02 -0.23040164937E+01  0.19011752458E+03  0.19462221578E+03  0.00000000000E+00 0. -1.
         22    1    3    3    0    0  0.15842977411E+03 -0.68660248253E+02 -0.15845556814E+03  0.23435526469E+03  0.00000000000E+00 0.  1.
         22    1    3    3    0    0  0.14103402008E+02  0.37750237002E+02 -0.18585391179E+02  0.44377957447E+02  0.00000000000E+00 0.  1.
</event>
<event>
 7    1  0.6176857E-006  0.2498912E+03  0.7818608E-02  0.1228390E+00
          2   -1    0    0  502    0  0.00000000000E+00  0.00000000000E+00  0.11403072426E+04  0.11403072426E+04  0.00000000000E+00 0. -1.
          1   -1    0    0  501    0 -0.00000000000E+00 -0.00000000000E+00 -0.19299819397E+03  0.19299819397E+03  0.00000000000E+00 0. -1.
         25    2    1    2    0    0 -0.11710214062E+03  0.20347648328E+03  0.13418204052E+03  0.29790127524E+03  0.12499903681E+03 0.  0.
          2    1    1    2  501    0 -0.62802379927E+02 -0.23279151160E+02 -0.81358836992E+02  0.10538177338E+03  0.00000000000E+00 0. -1.
          1    1    1    2  502    0  0.17990452055E+03 -0.18019733212E+03  0.89448584508E+03  0.93002238794E+03  0.00000000000E+00 0. -1.
         22    1    3    3    0    0 -0.26423948006E+02  0.56640408001E+02  0.10597496251E+03  0.12303273356E+03  0.00000000000E+00 0.  1.
         22    1    3    3    0    0 -0.90678192612E+02  0.14683607528E+03  0.28207078001E+02  0.17486854168E+03  0.00000000000E+00 0.  1.
</event>
<event>
 7    1  0.6176857E-006  0.8506411E+02  0.7818608E-02  0.1413633E+00
          2   -1    0    0  502    0  0.00000000000E+00  0.00000000000E+00  0.18511527731E+04  0.18511527731E+04  0.00000000000E+00 0. -1.
          1   -1    0    0  501    0 -0.00000000000E+00 -0.00000000000E+00 -0.15928438701E+02  0.15928438701E+02  0.00000000000E+00 0. -1.
         25    2    1    2    0    0  0.70036771236E+02 -0.15776498008E+02  0.58582681003E+03  0.60329979441E+03  0.12499417332E+03 0.  0.
          2    1    1    2  501    0  0.84383448527E+00 -0.37373317454E+02  0.57424078793E+02  0.68520082745E+02  0.00000000000E+00 0. -1.
          1    1    1    2  502    0 -0.70880605722E+02  0.53149815462E+02  0.11919734455E+04  0.11952613346E+04  0.00000000000E+00 0. -1.
         22    1    3    3    0    0  0.69459582986E+02 -0.43803044860E+02  0.19654596426E+03  0.21301093041E+03  0.00000000000E+00 0. -1.
         22    1    3    3    0    0  0.57718825031E+00  0.28026546851E+02  0.38928084577E+03  0.39028886400E+03  0.00000000000E+00 0. -1.
</event>
<event>
 7    1  0.6176857E-006  0.5626968E+02  0.7818608E-02  0.1456282E+00
          2   -1    0    0  502    0  0.00000000000E+00  0.00000000000E+00  0.12247440335E+03  0.12247440335E+03  0.00000000000E+00 0. -1.
          1   -1    0    0  501    0 -0.00000000000E+00 -0.00000000000E+00 -0.29961299074E+03  0.29961299074E+03  0.00000000000E+00 0. -1.
         25    2    1    2    0    0 -0.22692638335E+02  0.90575088993E+01 -0.21930905922E+02  0.12924461157E+03  0.12500484264E+03 0.  0.
          2    1    1    2  501    0 -0.40091000649E+02 -0.85474673535E+01 -0.20726696988E+03  0.21128167061E+03  0.00000000000E+00 0. -1.
          1    1    1    2  502    0  0.62783638984E+02 -0.51004154579E+00  0.52059288407E+02  0.81561111909E+02  0.00000000000E+00 0. -1.
         22    1    3    3    0    0 -0.24907191945E+02 -0.63408529996E+00 -0.73042602325E+02  0.77175073885E+02  0.00000000000E+00 0. -1.
         22    1    3    3    0    0  0.22145536094E+01  0.96915941993E+01  0.51111696402E+02  0.52069537687E+02  0.00000000000E+00 0. -1.
</event>
<event>
 7    1  0.6176857E-006  0.1132910E+03  0.7818608E-02  0.1286852E+00
          2   -1    0    0  502    0  0.00000000000E+00  0.00000000000E+00  0.18956913281E+03  0.18956913281E+03  0.00000000000E+00 0. -1.
          1   -1    0    0  501    0 -0.00000000000E+00 -0.00000000000E+00 -0.16892978057E+04  0.16892978057E+04  0.00000000000E+00 0. -1.
         25    2    1    2    0    0 -0.76387614563E+02 -0.13298707391E+03 -0.92899419009E+02  0.21857511538E+03  0.12499659806E+03 0.  0.
          2    1    1    2  501    0  0.79701544777E+02  0.23019890461E+02 -0.15083271617E+04  0.15106068577E+04  0.00000000000E+00 0. -1.
          1    1    1    2  502    0 -0.33139302141E+01  0.10996718345E+03  0.10149790789E+03  0.14968496543E+03  0.00000000000E+00 0. -1.
         22    1    3    3    0    0  0.32471633306E+02 -0.41459122359E+02 -0.89320659174E+01  0.53413927003E+02  0.00000000000E+00 0.  1.
         22    1    3    3    0    0 -0.10885924787E+03 -0.91527951549E+02 -0.83967353092E+02  0.16516118838E+03  0.00000000000E+00 0.  1.
</event>
<event>
 7    1  0.6176857E-006  0.3922963E+02  0.7818608E-02  0.1524325E+00
          2   -1    0    0  502    0  0.00000000000E+00  0.00000000000E+00  0.51356479302E+03  0.51356479302E+03  0.00000000000E+00 0. -1.
          1   -1    0    0  501    0 -0.00000000000E+00 -0.00000000000E+00 -0.13684944255E+03  0.13684944255E+03  0.00000000000E+00 0. -1.
         25    2    1    2    0    0  0.91616053727E+01  0.74148207362E+02 -0.80636868953E+01  0.14584957957E+03  0.12500074059E+03 0.  0.
          2    1    1    2  501    0 -0.96287447879E+01 -0.35310079278E+02 -0.53361015788E+02  0.64706355412E+02  0.00000000000E+00 0. -1.
          1    1    1    2  502    0  0.46713941517E+00 -0.38838128084E+02  0.43814005315E+03  0.43985830058E+03  0.00000000000E+00 0. -1.
         22    1    3    3    0    0  0.41741655956E+02  0.79436140516E+02  0.30788135327E+02  0.94870309049E+02  0.00000000000E+00 0. -1.
         22    1    3    3    0    0 -0.32580050583E+02 -0.52879331544E+01 -0.38851822223E+02  0.50979270523E+02  0.00000000000E+00 0. -1.
</event>
<event>
 7    1  0.6176857E-006  0.8546983E+02  0.7818608E-02  0.1332614E+00
          2   -1    0    0  502    0  0.00000000000E+00  0.00000000000E+00  0.27903338686E+03  0.27903338686E+03  0.00000000000E+00 0. -1.
          1   -1    0    0  501    0 -0.00000000000E+00 -0.00000000000E+00 -0.42717217183E+03  0.42717217183E+03  0.00000000000E+00 0. -1.
         25    2    1    2    0    0 -0.20680262972E+02 -0.73100642089E+02  0.83265311621E+02  0.16831312413E+03  0.12499927394E+03 0.  0.
          2    1    1    2  501    0  0.72096788200E+02 -0.82968144860E+01 -0.36559962941E+03  0.37273297818E+03  0.00000000000E+00 0. -1.
          1    1    1    2  502    0 -0.51416525227E+02  0.81397456575E+02  0.13419553282E+03  0.16515945638E+03  0.00000000000E+00 0. -1.
         22    1    3    3    0    0 -0.49546970987E+02  0.16412253841E+02  0.28156498895E+02  0.59304745511E+02  0.00000000000E+00 0. -1.
         22    1    3    3    0    0  0.28866708015E+02 -0.89512895930E+02  0.55108812726E+02  0.10900837862E+03  0.00000000000E+00 0. -1.
</event>
<event>
 7    1  0.6176857E-006  0.1124038E+03  0.7818608E-02  0.1391883E+00
          2   -1    0    0  502    0  0.00000000000E+00  0.00000000000E+00  0.17659379843E+04  0.17659379843E+04  0.00000000000E+00 0. -1.
          1   -1    0    0  501    0 -0.00000000000E+00 -0.00000000000E+00 -0.29412349323E+03  0.29412349323E+03  0.00000000000E+00 0. -1.
         25    2    1    2    0    0 -0.10420100724E+03 -0.81765811456E+02  0.12246393207E+03  0.21946888747E+03  0.12500272027E+03 0.  0.
          2    1    1    2  501    0  0.34978009544E+01  0.33401409902E+02 -0.24250618801E+03  0.24482062825E+03  0.00000000000E+00 0. -1.
          1    1    1    2  502    0  0.10070320629E+03  0.48364401554E+02  0.15918567470E+04  0.15957719618E+04  0.00000000000E+00 0. -1.
         22    1    3    3    0    0 -0.52580759433E+02 -0.11091308796E+03  0.85928365967E+02  0.14983368587E+03  0.00000000000E+00 0.  1.
         22    1    3    3    0    0 -0.51620247809E+02  0.29147276504E+02  0.36535566102E+02  0.69635201600E+02  0.00000000000E+00 0.  1.
</event>
<event>
 7    1  0.6176857E-006  0.2391443E+03  0.7818608E-02  0.1193680E+00
          2   -1    0    0  502    0  0.00000000000E+00  0.00000000000E+00  0.74411806497E+03  0.74411806497E+03  0.00000000000E+00 0. -1.
          1   -1    0    0  501    0 -0.00000000000E+00 -0.00000000000E+00 -0.22272836214E+03  0.22272836214E+03  0.00000000000E+00 0. -1.
         25    2    1    2    0    0 -0.40499409718E+02  0.15428768239E+03 -0.10686288916E+03  0.22910544816E+03  0.12499895268E+03 0.  0.
          2    1    1    2  501    0 -0.71285246119E+02  0.72009873344E+02  0.64628774302E+02  0.12018272189E+03  0.00000000000E+00 0. -1.
          1    1    1    2  502    0  0.11178465584E+03 -0.22629755574E+03  0.56362381769E+03  0.61755825707E+03  0.00000000000E+00 0. -1.
         22    1    3    3    0    0 -0.47117020754E+02  0.15007519683E+03 -0.13038444520E+03  0.20431025892E+03  0.00000000000E+00 0.  1.
         22    1    3    3    0    0  0.66176110363E+01  0.42124855636E+01  0.23521556047E+02  0.24795189238E+02  0.00000000000E+00 0.  1.
</event>
<event>
 7    1  0.6176857E-006  0.2760509E+02  0.7818608E-02  0.1664044E+00
          2   -1    0    0  502    0  0.00000000000E+00  0.00000000000E+00  0.29178353647E+03  0.29178353647E+03  0.00000000000E+00 0. -1.
          1   -1    0    0  501    0 -0.00000000000E+00 -0.00000000000E+00 -0.17296274046E+04  0.17296274046E+04  0.00000000000E+00 0. -1.
         25    2    1    2    0    0  0.13749103065E+02  0.10469068144E+02  0.26299066722E+02  0.12890003602E+03  0.12499975661E+03 0.  0.
          2    1    1    2  501    0  0.43380185515E+00 -0.27627113031E+02 -0.16776344320E+04  0.16778619529E+04  0.00000000000E+00 0. -1.
          1    1    1    2  502    0 -0.14182904921E+02  0.17158044887E+02  0.21349149715E+03  0.21464895214E+03  0.00000000000E+00 0. -1.
         22    1    3    3    0    0  0.12749583906E+02  0.66397251002E+02  0.27401742841E+02  0.72952055085E+02  0.00000000000E+00 0. -1.
         22    1    3    3    0    0  0.99951915980E+00 -0.55928182858E+02 -0.11026761192E+01  0.55947980938E+02  0.00000000000E+00 0. -1.
</event>
<event>
 7    1  0.6176857E-006  0.8109007E+02  0.7818608E-02  0.1384056E+00
          2   -1    0    0  502    0  0.00000000000E+00  0.00000000000E+00  0.22658346883E+04  0.22658346883E+04  0.00000000000E+00 0. -1.
          1   -1    0    0  501    0 -0.00000000000E+00 -0.00000000000E+00 -0.10005305712E+04  0.10005305712E+04  0.00000000000E+00 0. -1.
         25    2    1    2    0    0  0.55241832930E+02 -0.11071416002E+03  0.83164755576E+03  0.85004248672E+03  0.12500114754E+03 0.  0.
          2    1    1    2  501    0 -0.16942683845E+02  0.79222327097E+02 -0.98924540014E+03  0.99255714865E+03  0.00000000000E+00 0. -1.
          1    1    1    2  502    0 -0.38299149084E+02  0.31491832926E+02  0.14229019615E+04  0.14237656241E+04  0.00000000000E+00 0. -1.
         22    1    3    3    0    0 -0.16135042904E+02 -0.75183966009E+02  0.21651992075E+03  0.22976911114E+03  0.00000000000E+00 0. -1.
         22    1    3    3    0    0  0.71376875834E+02 -0.35530194014E+02  0.61512763501E+03  0.62027337557E+03  0.00000000000E+00 0. -1.
</event>
<event>
 7    1  0.6176857E-006  0.2071781E+03  0.7818608E-02  0.1197275E+00
          2   -1    0    0  502    0  0.00000000000E+00  0.00000000000E+00  0.46672000203E+03  0.46672000203E+03  0.00000000000E+00 0. -1.
          1   -1    0    0  501    0 -0.00000000000E+00 -0.00000000000E+00 -0.95906331311E+03  0.95906331311E+03  0.00000000000E+00 0. -1.
         25    2    1    2    0    0 -0.14098031124E+03  0.19110892571E+03 -0.36965537154E+02  0.27090532413E+03  0.12500069624E+03 0.  0.
          2    1    1    2  501    0  0.29332116067E+02 -0.20449472373E+03 -0.78232072564E+03  0.80913792572E+03  0.00000000000E+00 0. -1.
          1    1    1    2  502    0  0.11164819517E+03  0.13385798025E+02  0.32694295171E+03  0.34574006529E+03  0.00000000000E+00 0. -1.
         22    1    3    3    0    0  0.92758317399E+01 -0.77120604792E+01  0.11903088921E+02  0.16946989620E+02  0.00000000000E+00 0. -1.
         22    1    3    3    0    0 -0.15025614298E+03  0.19882098619E+03 -0.48868626075E+02  0.25395833451E+03  0.00000000000E+00 0. -1.
</event>
<event>
 7    1  0.6176857E-006  0.1660923E+03  0.7818608E-02  0.1220964E+00
          2   -1    0    0  502    0  0.00000000000E+00  0.00000000000E+00  0.85495980594E+03  0.85495980594E+03  0.00000000000E+00 0. -1.
          1   -1    0    0  501    0 -0.00000000000E+00 -0.00000000000E+00 -0.11132333194E+04  0.11132333194E+04  0.00000000000E+00 0. -1.
         25    2    1    2    0    0  0.14873171788E+03  0.16363031662E+03 -0.78658418174E+03  0.82658572812E+03  0.12503314175E+03 0.  0.
          2    1    1    2  501    0 -0.47911533202E+02 -0.12253313879E+03 -0.28875710446E+03  0.31731774374E+03  0.00000000000E+00 0. -1.
          1    1    1    2  502    0 -0.10082018468E+03 -0.41097177828E+02  0.81706777272E+03  0.82428965351E+03  0.00000000000E+00 0. -1.
         22    1    3    3    0    0  0.16098589685E+03  0.17088096213E+03 -0.76855078284E+03  0.80360877796E+03  0.00000000000E+00 0. -1.
         22    1    3    3    0    0 -0.12254178971E+02 -0.72506455152E+01 -0.18033398904E+02  0.22976950161E+02  0.00000000000E+00 0. -1.
</event>
<event>
 7    1  0.6176857E-006  0.1782189E+03  0.7818608E-02  0.1261904E+00
          2   -1    0    0  502    0  0.00000000000E+00  0.00000000000E+00  0.21263430562E+03  0.21263430562E+03  0.00000000000E+00 0. -1.
          1   -1    0    0  501    0 -0.00000000000E+00 -0.00000000000E+00 -0.15144035674E+04  0.15144035674E+04  0.00000000000E+00 0. -1.
         25    2    1    2    0    0  0.20028839688E+03 -0.93802942523E+01 -0.76536083772E+02  0.24837887960E+03  0.12502345326E+03 0.  0.
          2    1    1    2  501    0 -0.34286669866E+02  0.57575378008E+02 -0.12917198700E+04  0.12934568885E+04  0.00000000000E+00 0. -1.
          1    1    1    2  502    0 -0.16600172702E+03 -0.48195083756E+02  0.66486691948E+02  0.18520210495E+03  0.00000000000E+00 0. -1.
         22    1    3    3    0    0 -0.13677352731E+02  0.12190996152E+02  0.39811939788E+01  0.18749407202E+02  0.00000000000E+00 0.  1.
         22    1    3    3    0    0  0.21396574961E+03 -0.21571290404E+02 -0.80517277750E+02  0.22962947240E+03  0.00000000000E+00 0.  1.
</event>
<event>
 7    1  0.6176857E-006  0.7279234E+02  0.7818608E-02  0.1366255E+00
          2   -1    0    0  502    0  0.00000000000E+00  0.00000000000E+00  0.73636611657E+02  0.73636611657E+02  0.00000000000E+00 0. -1.
          1   -1    0    0  501    0 -0.00000000000E+00 -0.00000000000E+00 -0.81138156237E+03  0.81138156237E+03  0.00000000000E+00 0. -1.
         25    2    1    2    0    0  0.51651835940E+02 -0.11504470678E+03 -0.41438527473E+03  0.45082522137E+03  0.12500011040E+03 0.  0.
          2    1    1    2  501    0 -0.14661557391E+02  0.62898697282E+02 -0.35641527727E+03  0.36221962572E+03  0.00000000000E+00 0. -1.
          1    1    1    2  502    0 -0.36990278549E+02  0.52146009503E+02  0.33055601283E+02  0.71973326937E+02  0.00000000000E+00 0. -1.
         22    1    3    3    0    0 -0.20832232283E+02 -0.12818529851E+02 -0.20756607731E+03  0.20900232788E+03  0.00000000000E+00 0.  1.
         22    1    3    3    0    0  0.72484068223E+02 -0.10222617693E+03 -0.20681919742E+03  0.24182289349E+03  0.00000000000E+00 0.  1.
</event>
<event>
 7    1  0.6176857E-006  0.7509036E+02  0.7818608E-02  0.1376817E+00
          2   -1    0    0  502    0  0.00000000000E+00  0.00000000000E+00  0.14899985762E+04  0.14899985762E+04  0.00000000000E+00 0. -1.
          1   -1    0    0  501    0 -0.00000000000E+00 -0.00000000000E+00 -0.19369382990E+03  0.19369382990E+03  0.00000000000E+00 0. -1.
         25    2    1    2    0    0 -0.53228149639E+01  0.70232230335E+02  0.18461812792E+03  0.23380177019E+03  0.12497406151E+03 0.  0.
          2    1    1    2  501    0  0.58083057542E+02 -0.49194734941E+02 -0.15987029982E+03  0.17706574000E+03  0.00000000000E+00 0. -1.
          1    1    1    2  502    0 -0.52760242578E+02 -0.21037495393E+02  0.12715569182E+04  0.12728248959E+04  0.00000000000E+00 0. -1.
         22    1    3    3    0    0 -0.32103449435E+02 -0.23468764854E+02  0.88016090894E+02  0.96582848610E+02  0.00000000000E+00 0. -1.
         22    1    3    3    0    0  0.26780634471E+02  0.93700995189E+02  0.96602037026E+02  0.13721892158E+03  0.00000000000E+00 0. -1.
</event>
<event>
 7    1  0.6176857E-006  0.1191768E+03  0.7818608E-02  0.1406112E+00
          2   -1    0    0  502    0  0.00000000000E+00  0.00000000000E+00  0.10236507760E+04  0.10236507760E+04  0.00000000000E+00 0. -1.
          1   -1    0    0  501    0 -0.00000000000E+00 -0.00000000000E+00 -0.81488583415E+03  0.81488583415E+03  0.00000000000E+00 0. -1.
         25    2    1    2    0    0  0.38744539740E+02 -0.13888796563E+03 -0.25640463729E+02  0.19254563598E+03  0.12500152878E+03 0.  0.
          2    1    1    2  501    0 -0.22827063543E+02  0.11549403437E+03 -0.70066793148E+03  0.71048961781E+03  0.00000000000E+00 0. -1.
          1    1    1    2  502    0 -0.15917476196E+02  0.23393931264E+02  0.93507333708E+03  0.93550135638E+03  0.00000000000E+00 0. -1.
         22    1    3    3    0    0 -0.29422692577E+02 -0.11274666331E+03 -0.47991717912E+01  0.11662134014E+03  0.00000000000E+00 0. -1.
         22    1    3    3    0    0  0.68167232316E+02 -0.26141302322E+02 -0.20841291938E+02  0.75924295838E+02  0.00000000000E+00 0. -1.
</event>
<event>
 7    1  0.6176857E-006  0.8195997E+02  0.7818608E-02  0.1356164E+00
          2   -1    0    0  502    0  0.00000000000E+00  0.00000000000E+00  0.72205569145E+03  0.72205569145E+03  0.00000000000E+00 0. -1.
          1   -1    0    0  501    0 -0.00000000000E+00 -0.00000000000E+00 -0.67145450238E+03  0.67145450238E+03  0.00000000000E+00 0. -1.
         25    2    1    2    0    0 -0.19038886667E+02  0.22728116206E+02  0.10457722378E+03  0.16565088793E+03  0.12499909787E+03 0.  0.
          2    1    1    2  501    0 -0.59521489069E+02  0.16617532971E+02 -0.63612376566E+03  0.63911845170E+03  0.00000000000E+00 0. -1.
          1    1    1    2  502    0  0.78560375736E+02 -0.39345649177E+02  0.58214773096E+03  0.58874085420E+03  0.00000000000E+00 0. -1.
         22    1    3    3    0    0 -0.59837509811E+02  0.24135521002E+02  0.13607049826E+02  0.65940903538E+02  0.00000000000E+00 0.  1.
         22    1    3    3    0    0  0.40798623144E+02 -0.14074047966E+01  0.90970173954E+02  0.99709984394E+02  0.00000000000E+00 0.  1.
</event>
<event>
 7    1  0.6176857E-006  0.8220723E+02  0.7818608E-02  0.1416768E+00
          2   -1    0    0  502    0  0.00000000000E+00  0.00000000000E+00  0.17781751973E+04  0.17781751973E+04  0.00000000000E+00 0. -1.
          1   -1    0    0  501    0 -0.00000000000E+00 -0.00000000000E+00 -0.56925602048E+03  0.56925602048E+03  0.00000000000E+00 0. -1.
         25    2    1    2    0    0  0.80011340108E+01 -0.11451112951E+03  0.17319842314E+03  0.24248502180E+03  0.12499790035E+03 0.  0.
          2    1    1    2  501    0 -0.20902501970E+02  0.79029652381E+02 -0.53125904295E+03  0.53751164756E+03  0.00000000000E+00 0. -1.
          1    1    1    2  502    0  0.12901367959E+02  0.35481477130E+02  0.15669797966E+04  0.15674345484E+04  0.00000000000E+00 0. -1.
         22    1    3    3    0    0 -0.58231629272E+02 -0.44356983967E+02  0.72543613944E+02  0.10305843293E+03  0.00000000000E+00 0. -1.
         22    1    3    3    0    0  0.66232763283E+02 -0.70154145544E+02  0.10065480920E+03  0.13942658887E+03  0.00000000000E+00 0. -1.
</event>
<event>
 7    1  0.6176857E-006  0.1061230E+03  0.7818608E-02  0.1289409E+00
          2   -1    0    0  502    0  0.00000000000E+00  0.00000000000E+00  0.24966017211E+04  0.24966017211E+04  0.00000000000E+00 0. -1.
          1   -1    0    0  501    0 -0.00000000000E+00 -0.00000000000E+00 -0.12271298002E+03  0.12271298002E+03  0.00000000000E+00 0. -1.
         25    2    1    2    0    0  0.20813461429E+02 -0.89560031961E+02  0.11202926638E+04  0.11309885681E+04  0.12500115638E+03 0.  0.
          2    1    1    2  501    0  0.83425491201E+02  0.22708135747E+02 -0.98217951514E+02  0.13085196984E+03  0.00000000000E+00 0. -1.
          1    1    1    2  502    0 -0.10423895263E+03  0.66851896213E+02  0.13518140288E+04  0.13574741632E+04  0.00000000000E+00 0. -1.
         22    1    3    3    0    0 -0.11204091767E+00  0.30666449864E+02  0.31690403376E+03  0.31838437511E+03  0.00000000000E+00 0. -1.
         22    1    3    3    0    0  0.20925502347E+02 -0.12022648182E+03  0.80338863006E+03  0.81260419301E+03  0.00000000000E+00 0. -1.
</event>
<event>
 7    1  0.6176857E-006  0.9142341E+02  0.7818608E-02  0.1342862E+00
          2   -1    0    0  502    0  0.00000000000E+00  0.00000000000E+00  0.16082806838E+04  0.16082806838E+04  0.00000000000E+00 0. -1.
          1   -1    0    0  501    0 -0.00000000000E+00 -0.00000000000E+00 -0.81092558691E+02  0.81092558691E+02  0.00000000000E+00 0. -1.
         25    2    1    2    0    0  0.14140123690E+03 -0.31814065683E+02  0.24924376421E+03  0.31425332521E+03  0.12500501522E+03 0.  0.
          2    1    1    2  501    0 -0.79411016979E+02  0.28784832190E+02 -0.10557440232E+02  0.85124237007E+02  0.00000000000E+00 0. -1.
          1    1    1    2  502    0 -0.61990219925E+02  0.30292334929E+01  0.12885018012E+04  0.12899956803E+04  0.00000000000E+00 0. -1.
         22    1    3    3    0    0  0.11416509301E+03  0.54857676014E+01  0.81788838933E+02  0.14054599347E+03  0.00000000000E+00 0. -1.
         22    1    3    3    0    0  0.27236143898E+02 -0.37299833284E+02  0.16745492528E+03  0.17370733173E+03  0.00000000000E+00 0. -1.
</event>
<event>
 7    1  0.6176857E-006  0.5180805E+02  0.7818608E-02  0.1482163E+00
          2   -1    0    0  502    0  0.00000000000E+00  0.00000000000E+00  0.30789065464E+04  0.30789065464E+04  0.00000000000E+00 0. -1.
          1   -1    0    0  501    0 -0.00000000000E+00 -0.00000000000E+00 -0.11334317542E+03  0.11334317542E+03  0.00000000000E+00 0. -1.
         25    2    1    2    0    0  0.20655131893E+02  0.71172655891E+00  0.82156565530E+02  0.15100275211E+03  0.12499995543E+03 0.  0.
          2    1    1    2  501    0  0.23105528489E+02 -0.28874088576E+02 -0.74346437323E+02  0.83035963175E+02  0.00000000000E+00 0. -1.
          1    1    1    2  502    0 -0.43760660382E+02  0.28162362017E+02  0.29577532427E+04  0.29582110065E+04  0.00000000000E+00 0. -1.
         22    1    3    3    0    0 -0.34364943755E+02  0.13719679639E+02 -0.13913117930E+02  0.39531681209E+02  0.00000000000E+00 0. -1.
         22    1    3    3    0    0  0.55020075648E+02 -0.13007953080E+02  0.96069683461E+02  0.11147107090E+03  0.00000000000E+00 0. -1.
</event>
<event>
 7    1  0.6176857E-006  0.2577720E+03  0.7818608E-02  0.1233255E+00
          2   -1    0    0  502    0  0.00000000000E+00  0.00000000000E+00  0.23985038416E+04  0.23985038416E+04  0.00000000000E+00 0. -1.
          1   -1    0    0  501    0 -0.00000000000E+00 -0.00000000000E+00 -0.18173821197E+03  0.18173821197E+03  0.00000000000E+00 0. -1.
         25    2    1    2    0    0  0.11153698963E+03 -0.20031325713E+03  0.25916859488E+03  0.36791180304E+03  0.12499933281E+03 0.  0.
          2    1    1    2  501    0 -0.17240887967E+03  0.21071193027E+03  0.19183031761E+02  0.27293282700E+03  0.00000000000E+00 0. -1.
          1    1    1    2  502    0  0.60871890045E+02 -0.10398673142E+02  0.19384140029E+04  0.19393974235E+04  0.00000000000E+00 0. -1.
         22    1    3    3    0    0  0.11561118000E+03 -0.10526783880E+03  0.11069137972E+03  0.19157203442E+03  0.00000000000E+00 0.  1.
         22    1    3    3    0    0 -0.40741903763E+01 -0.95045418331E+02  0.14847721516E+03  0.17633976862E+03  0.00000000000E+00 0.  1.
</event>
<event>
 7    1  0.6176857E-006  0.1124460E+03  0.7818608E-02  0.1307748E+00
          2   -1    0    0  502    0  0.00000000000E+00  0.00000000000E+00  0.45273052946E+03  0.45273052946E+03  0.00000000000E+00 0. -1.
          1   -1    0    0  501    0 -0.00000000000E+00 -0.00000000000E+00 -0.57997350228E+03  0.57997350228E+03  0.00000000000E+00 0. -1.
         25    2    1    2    0    0 -0.41950456451E+01 -0.70573215979E+02 -0.21146723229E+03  0.25562206168E+03  0.12500428338E+03 0.  0.
          2    1    1    2  501    0 -0.19083361467E+01  0.13918398746E+03 -0.32948284806E+03  0.35767970487E+03  0.00000000000E+00 0. -1.
          1    1    1    2  502    0  0.61033817918E+01 -0.68610771476E+02  0.41370710753E+03  0.41940226520E+03  0.00000000000E+00 0. -1.
         22    1    3    3    0    0  0.25745093408E+02  0.27768488439E+02 -0.81882024686E+02  0.90213994211E+02  0.00000000000E+00 0.  1.
         22    1    3    3    0    0 -0.29940139054E+02 -0.98341704418E+02 -0.12958520761E+03  0.16540806747E+03  0.00000000000E+00 0.  1.
</event>
<event>
 7    1  0.6176857E-006  0.6600373E+02  0.7818608E-02  0.1412373E+00
          2   -1    0    0  502    0  0.00000000000E+00  0.00000000000E+00  0.15855109533E+04  0.15855109533E+04  0.00000000000E+00 0. -1.
          1   -1    0    0  501    0 -0.00000000000E+00 -0.00000000000E+00 -0.34303733447E+04  0.34303733447E+04  0.00000000000E+00 0. -1.
         25    2    1    2    0    0 -0.65150750166E+02  0.85573608898E+02 -0.43460331391E+02  0.17052894296E+03  0.12499542869E+03 0.  0.
          2    1    1    2  501    0  0.42388409847E+02 -0.23879986020E+02 -0.33224902293E+04  0.33228464236E+04  0.00000000000E+00 0. -1.
          1    1    1    2  502    0  0.22762340319E+02 -0.61693622878E+02  0.15210881693E+04  0.15225089314E+04  0.00000000000E+00 0. -1.
         22    1    3    3    0    0 -0.10166763039E+03  0.64162234874E+02 -0.19217450067E+02  0.12174731964E+03  0.00000000000E+00 0. -1.
         22    1    3    3    0    0  0.36516880220E+02  0.21411374024E+02 -0.24242881325E+02  0.48781623318E+02  0.00000000000E+00 0. -1.
</event>
<event>
 7    1  0.6176857E-006  0.4427023E+02  0.7818608E-02  0.1531272E+00
          2   -1    0    0  502    0  0.00000000000E+00  0.00000000000E+00  0.58639796969E+03  0.58639796969E+03  0.00000000000E+00 0. -1.
          1   -1    0    0  501    0 -0.00000000000E+00 -0.00000000000E+00 -0.14267801052E+03  0.14267801052E+03  0.00000000000E+00 0. -1.
         25    2    1    2    0    0  0.74566253661E+02 -0.52182712670E+01  0.32891739504E+03  0.35970605236E+03  0.12495773208E+03 0.  0.
          2    1    1    2  501    0 -0.43591918775E+02  0.54654290364E+01 -0.12245573935E+03  0.13009817215E+03  0.00000000000E+00 0. -1.
          1    1    1    2  502    0 -0.30974334886E+02 -0.24715776935E+00  0.23725830347E+03  0.23927175570E+03  0.00000000000E+00 0. -1.
         22    1    3    3    0    0 -0.31045878469E+02 -0.11140591975E+02  0.38906270221E+02  0.51006442946E+02  0.00000000000E+00 0. -1.
         22    1    3    3    0    0  0.10561213213E+03  0.59223207081E+01  0.29001112482E+03  0.30869960941E+03  0.00000000000E+00 0. -1.
</event>
<event>
 7    1  0.6176857E-006  0.7453712E+02  0.7818608E-02  0.1446915E+00
          2   -1    0    0  502    0  0.00000000000E+00  0.00000000000E+00  0.10395444506E+04  0.10395444506E+04  0.00000000000E+00 0. -1.
          1   -1    0    0  501    0 -0.00000000000E+00 -0.00000000000E+00 -0.34057184219E+02  0.34057184219E+02  0.00000000000E+00 0. -1.
         25    2    1    2    0    0 -0.38107793252E+02  0.41192010017E+02  0.50859620098E+03  0.52673021704E+03  0.12500256116E+03 0.  0.
          2    1    1    2  501    0  0.31626241732E+01  0.33000374265E+02 -0.90196788338E+01  0.34356680567E+02  0.00000000000E+00 0. -1.
          1    1    1    2  502    0  0.34945169079E+02 -0.74192384282E+02  0.50591074428E+03  0.51251473726E+03  0.00000000000E+00 0. -1.
         22    1    3    3    0    0  0.29811660555E+02 -0.20160197095E+02  0.24648445974E+03  0.24909788748E+03  0.00000000000E+00 0. -1.
         22    1    3    3    0    0 -0.67919453807E+02  0.61352207112E+02  0.26211174123E+03  0.27763232956E+03  0.00000000000E+00 0. -1.
</event>
<event>
 7    1  0.6176857E-006  0.4540205E+02  0.7818608E-02  0.1491401E+00
          2   -1    0    0  502    0  0.00000000000E+00  0.00000000000E+00  0.11570439330E+04  0.11570439330E+04  0.00000000000E+00 0. -1.
          1   -1    0    0  501    0 -0.00000000000E+00 -0.00000000000E+00 -0.40800689943E+03  0.40800689943E+03  0.00000000000E+00 0. -1.
         25    2    1    2    0    0  0.72061505759E+01  0.49780450337E+02  0.52309540669E+03  0.54017061607E+03  0.12500187247E+03 0.  0.
          2    1    1    2  501    0 -0.36956273441E+02 -0.14106452571E+02 -0.39762402925E+03  0.39958682008E+03  0.00000000000E+00 0. -1.
          1    1    1    2  502    0  0.29750122865E+02 -0.35673997766E+02  0.62356565617E+03  0.62529339632E+03  0.00000000000E+00 0. -1.
         22    1    3    3    0    0  0.63417213058E+02  0.29732307861E+02  0.20807824164E+03  0.21955023955E+03  0.00000000000E+00 0. -1.
         22    1    3    3    0    0 -0.56211062483E+02  0.20048142476E+02  0.31501716505E+03  0.32062037652E+03  0.00000000000E+00 0. -1.
</event>
<event>
 7    1  0.6176857E-006  0.9325192E+03  0.7818608E-02  0.1208740E+00
          2   -1    0    0  502    0  0.00000000000E+00  0.00000000000E+00  0.29742333550E+04  0.29742333550E+04  0.00000000000E+00 0. -1.
          1   -1    0    0  501    0 -0.00000000000E+00 -0.00000000000E+00 -0.97931324855E+03  0.97931324855E+03  0.00000000000E+00 0. -1.
         25    2    1    2    0    0  0.33745028509E+03  0.88480768306E+03  0.76427200630E+03  0.12233128007E+04  0.12500071142E+03 0.  0.
          2    1    1    2  501    0 -0.21044419609E+01 -0.21971256255E+02 -0.64141680956E+03  0.64179645399E+03  0.00000000000E+00 0. -1.
          1    1    1    2  502    0 -0.33534584313E+03 -0.86283642681E+03  0.18720649097E+04  0.20884373488E+04  0.00000000000E+00 0. -1.
         22    1    3    3    0    0  0.28062511528E+02  0.99778362754E+02  0.39304072299E+02  0.11085141554E+03  0.00000000000E+00 0. -1.
         22    1    3    3    0    0  0.30938777356E+03  0.78502932031E+03  0.72496793400E+03  0.11124613852E+04  0.00000000000E+00 0. -1.
</event>
<event>
 7    1  0.6176857E-006  0.1567859E+03  0.7818608E-02  0.1364229E+00
          2   -1    0    0  502    0  0.00000000000E+00  0.00000000000E+00  0.27052846560E+03  0.27052846560E+03  0.00000000000E+00 0. -1.
          1   -1    0    0  501    0 -0.00000000000E+00 -0.00000000000E+00 -0.95922187100E+03  0.95922187100E+03  0.00000000000E+00 0. -1.
         25    2    1    2    0    0 -0.16773788685E+03  0.73292064963E+02 -0.71561800505E+03  0.74916036693E+03  0.12499760298E+03 0.  0.
          2    1    1    2  501    0  0.20379718588E+02 -0.22271425142E+02 -0.20164502288E+03  0.20389228666E+03  0.00000000000E+00 0. -1.
          1    1    1    2  502    0  0.14735816826E+03 -0.51020639822E+02  0.22856962253E+03  0.27669768301E+03  0.00000000000E+00 0. -1.
         22    1    3    3    0    0  0.53266560904E+01  0.32393572335E+02 -0.22348458582E+03  0.22588288313E+03  0.00000000000E+00 0. -1.
         22    1    3    3    0    0 -0.17306454294E+03  0.40898492629E+02 -0.49213341924E+03  0.52327748380E+03  0.00000000000E+00 0. -1.
</event>
<event>
 7    1  0.6176857E-006  0.7412758E+02  0.7818608E-02  0.1480019E+00
          2   -1    0    0  502    0  0.00000000000E+00  0.00000000000E+00  0.51929951746E+03  0.51929951746E+03  0.00000000000E+00 0. -1.
          1   -1    0    0  501    0 -0.00000000000E+00 -0.00000000000E+00 -0.19946760977E+03  0.19946760977E+03  0.00000000000E+00 0. -1.
         25    2    1    2    0    0 -0.33760028864E+02  0.91557720614E+02  0.18311455621E+03  0.24223472315E+03  0.12499665856E+03 0.  0.
          2    1    1    2  501    0  0.17154274751E+02 -0.71240712683E+02 -0.16140372615E+03  0.17725876875E+03  0.00000000000E+00 0. -1.
          1    1    1    2  502    0  0.16605754112E+02 -0.20317007931E+02  0.29812107762E+03  0.29927363533E+03  0.00000000000E+00 0. -1.
         22    1    3    3    0    0 -0.44237615806E+02  0.11982763151E+03  0.15658300043E+03  0.20207390715E+03  0.00000000000E+00 0. -1.
         22    1    3    3    0    0  0.10477586943E+02 -0.28269910894E+02  0.26531555780E+02  0.40160816005E+02  0.00000000000E+00 0. -1.
</event>
<event>
 7    1  0.6176857E-006  0.1748474E+03  0.7818608E-02  0.1266014E+00
          2   -1    0    0  502    0  0.00000000000E+00  0.00000000000E+00  0.55611888643E+03  0.55611888643E+03  0.00000000000E+00 0. -1.
          1   -1    0    0  501    0 -0.00000000000E+00 -0.00000000000E+00 -0.29745863881E+03  0.29745863881E+03  0.00000000000E+00 0. -1.
         25    2    1    2    0    0  0.80477205307E+02 -0.94063424711E+02  0.75223170263E+02  0.19133527034E+03  0.12500460747E+03 0.  0.
          2    1    1    2  501    0 -0.12534387323E+03  0.14194391308E+03 -0.19871737081E+03  0.27449545438E+03  0.00000000000E+00 0. -1.
          1    1    1    2  502    0  0.44866667918E+02 -0.47880488370E+02  0.38215444816E+03  0.38774680051E+03  0.00000000000E+00 0. -1.
         22    1    3    3    0    0  0.80820591832E+02 -0.12289749053E+03  0.62667741130E+02  0.15988435515E+03  0.00000000000E+00 0.  1.
         22    1    3    3    0    0 -0.34338652567E+00  0.28834065817E+02  0.12555429133E+02  0.31450915194E+02  0.00000000000E+00 0.  1.
</event>
<event>
 7    1  0.6176857E-006  0.7904747E+02  0.7818608E-02  0.1397416E+00
          2   -1    0    0  502    0  0.00000000000E+00  0.00000000000E+00  0.43714944138E+03  0.43714944138E+03  0.00000000000E+00 0. -1.
          1   -1    0    0  501    0 -0.00000000000E+00 -0.00000000000E+00 -0.73793627315E+03  0.73793627315E+03  0.00000000000E+00 0. -1.
         25    2    1    2    0    0  0.35975846671E+02 -0.19127535022E+02 -0.22548564295E+03  0.26101003455E+03  0.12498935481E+03 0.  0.
          2    1    1    2  501    0  0.43548757601E+02  0.13833129239E+02 -0.48982892438E+03  0.49195551111E+03  0.00000000000E+00 0. -1.
          1    1    1    2  502    0 -0.79524604272E+02  0.52944057826E+01  0.41452773556E+03  0.42212016887E+03  0.00000000000E+00 0. -1.
         22    1    3    3    0    0  0.40078452041E+02 -0.68630090640E+02 -0.16160032451E+03  0.18008619198E+03  0.00000000000E+00 0. -1.
         22    1    3    3    0    0 -0.41026053698E+01  0.49502555618E+02 -0.63885318441E+02  0.80923842568E+02  0.00000000000E+00 0. -1.
</event>
<event>
 7    1  0.6176857E-006  0.5525778E+02  0.7818608E-02  0.1453229E+00
          2   -1    0    0  502    0  0.00000000000E+00  0.00000000000E+00  0.10981806025E+04  0.10981806025E+04  0.00000000000E+00 0. -1.
          1   -1    0    0  501    0 -0.00000000000E+00 -0.00000000000E+00 -0.10536804361E+03  0.10536804361E+03  0.00000000000E+00 0. -1.
         25    2    1    2    0    0  0.58195241254E+02 -0.62154592656E+02  0.67100070360E+03  0.68784131388E+03  0.12503539240E+03 0.  0.
          2    1    1    2  501    0 -0.51224347848E+02  0.20041558176E+02 -0.87946652772E+02  0.10373143979E+03  0.00000000000E+00 0. -1.
          1    1    1    2  502    0 -0.69708934060E+01  0.42113034480E+02  0.40975850811E+03  0.41197589249E+03  0.00000000000E+00 0. -1.
         22    1    3    3    0    0  0.34002259954E+01  0.34896868607E+02  0.97532193514E+02  0.10364304968E+03  0.00000000000E+00 0.  1.
         22    1    3    3    0    0  0.54795015259E+02 -0.97051461263E+02  0.57346851009E+03  0.58419826420E+03  0.00000000000E+00 0.  1.
</event>
<event>
 7    1  0.6176857E-006  0.7176958E+02  0.7818608E-02  0.1378924E+00
          2   -1    0    0  502    0  0.00000000000E+00  0.00000000000E+00  0.82032880383E+03  0.82032880383E+03  0.00000000000E+00 0. -1.
          1   -1    0    0  501    0 -0.00000000000E+00 -0.00000000000E+00 -0.28606186787E+03  0.28606186787E+03  0.00000000000E+00 0. -1.
         25    2    1    2    0    0  0.16568213776E+02 -0.42280923449E+01  0.16676559296E+03  0.20911237067E+03  0.12499935240E+03 0.  0.
          2    1    1    2  501    0 -0.71781328097E+02 -0.14837979813E+02 -0.25843175920E+03  0.26862557374E+03  0.00000000000E+00 0. -1.
          1    1    1    2  502    0  0.55213114320E+02  0.19066072158E+02  0.62593310219E+03  0.62865272728E+03  0.00000000000E+00 0. -1.
         22    1    3    3    0    0  0.36606521769E+02  0.47661227229E+01  0.17981421899E+03  0.18356444839E+03  0.00000000000E+00 0.  1.
         22    1    3    3    0    0 -0.20038307993E+02 -0.89942150678E+01 -0.13048626027E+02  0.25547922285E+02  0.00000000000E+00 0.  1.
</event>
<event>
 7    1  0.6176857E-006  0.2831838E+03  0.7818608E-02  0.1216900E+00
          2   -1    0    0  502    0  0.00000000000E+00  0.00000000000E+00  0.19752474277E+04  0.19752474277E+04  0.00000000000E+00 0. -1.
          1   -1    0    0  501    0 -0.00000000000E+00 -0.00000000000E+00 -0.23577533181E+04  0.23577533181E+04  0.00000000000E+00 0. -1.
         25    2    1    2    0    0 -0.18392309097E+03  0.24065500954E+03  0.14109473538E+04  0.14484957741E+04  0.12500014120E+03 0.  0.
          2    1    1    2  501    0  0.21644785452E+03 -0.18248448301E+03 -0.23283367239E+04  0.23454854849E+04  0.00000000000E+00 0. -1.
          1    1    1    2  502    0 -0.32524763552E+02 -0.58170526525E+02  0.53488347965E+03  0.53901948685E+03  0.00000000000E+00 0. -1.
         22    1    3    3    0    0 -0.17115149976E+03  0.25577954303E+03  0.13343852369E+04  0.13694159233E+04  0.00000000000E+00 0. -1.
         22    1    3    3    0    0 -0.12771591209E+02 -0.15124533495E+02  0.76562116959E+02  0.79079850839E+02  0.00000000000E+00 0. -1.
</event>
<event>
 7    1  0.6176857E-006  0.5676067E+02  0.7818608E-02  0.1548854E+00
          2   -1    0    0  502    0  0.00000000000E+00  0.00000000000E+00  0.49045373521E+03  0.49045373521E+03  0.00000000000E+00 0. -1.
          1   -1    0    0  501    0 -0.00000000000E+00 -0.00000000000E+00 -0.60885738920E+03  0.60885738920E+03  0.00000000000E+00 0. -1.
         25    2    1    2    0    0  0.19038075987E+02  0.31021564751E+02  0.55797028136E+02  0.14166220687E+03  0.12502034510E+03 0.  0.
          2    1    1    2  501    0 -0.36076448296E+02 -0.44210691849E+02 -0.56418826303E+03  0.56706656711E+03  0.00000000000E+00 0. -1.
          1    1    1    2  502    0  0.17038372309E+02  0.13189127098E+02  0.38998758090E+03  0.39058235042E+03  0.00000000000E+00 0. -1.
         22    1    3    3    0    0 -0.27216546354E+02  0.60140871599E+02  0.36408402881E+01  0.66112937842E+02  0.00000000000E+00 0.  1.
         22    1    3    3    0    0  0.46254622341E+02 -0.29119306848E+02  0.52156187848E+02  0.75549269024E+02  0.00000000000E+00 0.  1.
</event>
<event>
 7    1  0.6176857E-006  0.6168967E+02  0.7818608E-02  0.1522136E+00
          2   -1    0    0  502    0  0.00000000000E+00  0.00000000000E+00  0.51943092508E+03  0.51943092508E+03  0.00000000000E+00 0. -1.
          1   -1    0    0  501    0 -0.00000000000E+00 -0.00000000000E+00 -0.10156854552E+04  0.10156854552E+04  0.00000000000E+00 0. -1.
         25    2    1    2    0    0 -0.53555714104E+02 -0.40780138960E+02 -0.24596599260E+02  0.14408712830E+03  0.12499949439E+03 0.  0.
          2    1    1    2  501    0 -0.54705602674E+01  0.22973667027E+02 -0.92912560909E+03  0.92942569034E+03  0.00000000000E+00 0. -1.
          1    1    1    2  502    0  0.59026274371E+02  0.17806471933E+02  0.45746767822E+03  0.46160356164E+03  0.00000000000E+00 0. -1.
         22    1    3    3    0    0 -0.13450501124E+02  0.44317398690E+02 -0.18313732698E+02  0.49803018106E+02  0.00000000000E+00 0.  1.
         22    1    3    3    0    0 -0.40105212980E+02 -0.85097537650E+02 -0.62828665620E+01  0.94284110191E+02  0.00000000000E+00 0.  1.
</event>
<event>
 7    1  0.6176857E-006  0.7848978E+02  0.7818608E-02  0.1497222E+00
          2   -1    0    0  502    0  0.00000000000E+00  0.00000000000E+00  0.79360234612E+01  0.79360234612E+01  0.00000000000E+00 0. -1.
          1   -1    0    0  501    0 -0.00000000000E+00 -0.00000000000E+00 -0.25139450914E+04  0.25139450914E+04  0.00000000000E+00 0. -1.
         25    2    1    2    0    0 -0.58148393509E+01  0.78003323488E+02 -0.10200094076E+04  0.10306129930E+04  0.12500247580E+03 0.  0.
          2    1    1    2  501    0  0.27453273715E+02 -0.74157798553E+02 -0.14083482716E+04  0.14105665228E+04  0.00000000000E+00 0. -1.
          1    1    1    2  502    0 -0.21638434364E+02 -0.38455249342E+01 -0.77651388773E+02  0.80701599006E+02  0.00000000000E+00 0. -1.
         22    1    3    3    0    0 -0.15187546814E+02  0.66285755724E+02 -0.10106351371E+04  0.10129204526E+04  0.00000000000E+00 0.  1.
         22    1    3    3    0    0  0.93727074631E+01  0.11717567763E+02 -0.93742705620E+01  0.17692540463E+02  0.00000000000E+00 0.  1.
</event>
<event>
 7    1  0.6176857E-006  0.5812466E+02  0.7818608E-02  0.1465900E+00
          2   -1    0    0  502    0  0.00000000000E+00  0.00000000000E+00  0.15019800015E+04  0.15019800015E+04  0.00000000000E+00 0. -1.
          1   -1    0    0  501    0 -0.00000000000E+00 -0.00000000000E+00 -0.80263714197E+03  0.80263714197E+03  0.00000000000E+00 0. -1.
         25    2    1    2    0    0 -0.86682080920E+02 -0.59760196070E+00  0.31939716783E+02  0.15542592300E+03  0.12499172674E+03 0.  0.
          2    1    1    2  501    0  0.54605116062E+02  0.19058480744E+02 -0.73952163318E+03  0.74177974516E+03  0.00000000000E+00 0. -1.
          1    1    1    2  502    0  0.32076964858E+02 -0.18460878784E+02  0.14069247759E+04  0.14074114753E+04  0.00000000000E+00 0. -1.
         22    1    3    3    0    0  0.12140819388E+02 -0.29280537974E+02 -0.22633339675E+02  0.38948908384E+02  0.00000000000E+00 0. -1.
         22    1    3    3    0    0 -0.98822900308E+02  0.28682936014E+02  0.54573056457E+02  0.11647701462E+03  0.00000000000E+00 0. -1.
</event>
<event>
 7    1  0.6176857E-006  0.7141772E+02  0.7818608E-02  0.1413678E+00
          2   -1    0    0  502    0  0.00000000000E+00  0.00000000000E+00  0.73136437129E+03  0.73136437129E+03  0.00000000000E+00 0. -1.
          1   -1    0    0  501    0 -0.00000000000E+00 -0.00000000000E+00 -0.31230327537E+03  0.31230327537E+03  0.00000000000E+00 0. -1.
         25    2    1    2    0    0  0.73409983488E+02 -0.37466596139E+02  0.13686312010E+02  0.15035697032E+03  0.12500852725E+03 0.  0.
          2    1    1    2  501    0 -0.37339181361E+02 -0.24227182622E+02 -0.23994872046E+03  0.24404212606E+03  0.00000000000E+00 0. -1.
          1    1    1    2  502    0 -0.36070802127E+02  0.61693778761E+02  0.64532350436E+03  0.64926855028E+03  0.00000000000E+00 0. -1.
         22    1    3    3    0    0  0.60234905836E+02  0.26913292894E+02  0.42632568867E+02  0.78550016828E+02  0.00000000000E+00 0. -1.
         22    1    3    3    0    0  0.13175077653E+02 -0.64379889033E+02 -0.28946256858E+02  0.71806953487E+02  0.00000000000E+00 0. -1.
</event>
<event>
 7    1  0.6176857E-006  0.7999801E+02  0.7818608E-02  0.1368317E+00
          2   -1    0    0  502    0  0.00000000000E+00  0.00000000000E+00  0.43180796488E+02  0.43180796488E+02  0.00000000000E+00 0. -1.
          1   -1    0    0  501    0 -0.00000000000E+00 -0.00000000000E+00 -0.14591433513E+04  0.14591433513E+04  0.00000000000E+00 0. -1.
         25    2    1    2    0    0 -0.69038453060E+02 -0.41965933680E+02 -0.47272331805E+03  0.49559423152E+03  0.12497543479E+03 0.  0.
          2    1    1    2  501    0 -0.11704545246E+02  0.55975817454E+02 -0.91968694274E+03  0.92146316322E+03  0.00000000000E+00 0. -1.
          1    1    1    2  502    0  0.80742998306E+02 -0.14009883774E+02 -0.23552294001E+02  0.85266753026E+02  0.00000000000E+00 0. -1.
         22    1    3    3    0    0 -0.88016670131E+01 -0.37242242009E+02 -0.39643031485E+03  0.39827308278E+03  0.00000000000E+00 0. -1.
         22    1    3    3    0    0 -0.60236786047E+02 -0.47236916705E+01 -0.76293003196E+02  0.97321148745E+02  0.00000000000E+00 0. -1.
</event>
<event>
 7    1  0.6176857E-006  0.1044780E+03  0.7818608E-02  0.1289509E+00
          2   -1    0    0  502    0  0.00000000000E+00  0.00000000000E+00  0.15468696711E+03  0.15468696711E+03  0.00000000000E+00 0. -1.
          1   -1    0    0  501    0 -0.00000000000E+00 -0.00000000000E+00 -0.78487582485E+03  0.78487582485E+03  0.00000000000E+00 0. -1.
         25    2    1    2    0    0 -0.22739787482E+02  0.76687615716E+02 -0.80681815712E+02  0.16890628510E+03  0.12498675699E+03 0.  0.
          2    1    1    2  501    0  0.10257689458E+03 -0.40294522648E+02 -0.63716805330E+03  0.64662879305E+03  0.00000000000E+00 0. -1.
          1    1    1    2  502    0 -0.79837107096E+02 -0.36393093068E+02  0.87661011276E+02  0.12402771380E+03  0.00000000000E+00 0. -1.
         22    1    3    3    0    0  0.74736335623E+01  0.10539335363E+03 -0.66689081119E+02  0.12494417845E+03  0.00000000000E+00 0. -1.
         22    1    3    3    0    0 -0.30213421044E+02 -0.28705737912E+02 -0.13992734593E+02  0.43962106656E+02  0.00000000000E+00 0. -1.
</event>
<event>
 7    1  0.6176857E-006  0.1551345E+03  0.7818608E-02  0.1232212E+00
          2   -1    0    0  502    0  0.00000000000E+00  0.00000000000E+00  0.10244488686E+04  0.10244488686E+04  0.00000000000E+00 0. -1.
          1   -1    0    0  501    0 -0.00000000000E+00 -0.00000000000E+00 -0.30441716095E+03  0.30441716095E+03  0.00000000000E+00 0. -1.
         25    2    1    2    0    0 -0.14789270468E+02 -0.11049451080E+03  0.51868494415E+03  0.54505673241E+03  0.12500004328E+03 0.  0.
          2    1    1    2  501    0  0.11834394362E+03  0.10471190790E+03 -0.26365448897E+03  0.30738178573E+03  0.00000000000E+00 0. -1.
          1    1    1    2  502    0 -0.10355467315E+03  0.57826029008E+01  0.46500125243E+03  0.47642751136E+03  0.00000000000E+00 0. -1.
         22    1    3    3    0    0  0.16315208971E+02  0.24153001454E+02  0.81920327435E+02  0.86951098728E+02  0.00000000000E+00 0. -1.
         22    1    3    3    0    0 -0.31104479439E+02 -0.13464751226E+03  0.43676461672E+03  0.45810563369E+03  0.00000000000E+00 0. -1.
</event>
<event>
 7    1  0.6176857E-006  0.8603963E+02  0.7818608E-02  0.1362656E+00
          2   -1    0    0  502    0  0.00000000000E+00  0.00000000000E+00  0.26080647165E+04  0.26080647165E+04  0.00000000000E+00 0. -1.
          1   -1    0    0  501    0 -0.00000000000E+00 -0.00000000000E+00 -0.27913028062E+02  0.27913028062E+02  0.00000000000E+00 0. -1.
         25    2    1    2    0    0 -0.76488007073E+02 -0.10774926333E+03  0.12614366801E+04  0.12744836721E+04  0.12500325432E+03 0.  0.
          2    1    1    2  501    0  0.29418946298E+02  0.77892985914E+02  0.62669913978E+02  0.10421281003E+03  0.00000000000E+00 0. -1.
          1    1    1    2  502    0  0.47069060775E+02  0.29856277421E+02  0.12560450944E+04  0.12572812625E+04  0.00000000000E+00 0. -1.
         22    1    3    3    0    0  0.14417131776E+02  0.97106856352E+01  0.39695184823E+03  0.39733225507E+03  0.00000000000E+00 0.  1.
         22    1    3    3    0    0 -0.90905138849E+02 -0.11745994897E+03  0.86448483189E+03  0.87715141706E+03  0.00000000000E+00 0.  1.
</event>
<event>
 7    1  0.6176857E-006  0.9701859E+02  0.7818608E-02  0.1325372E+00
          2   -1    0    0  502    0  0.00000000000E+00  0.00000000000E+00  0.35315078536E+03  0.35315078536E+03  0.00000000000E+00 0. -1.
          1   -1    0    0  501    0 -0.00000000000E+00 -0.00000000000E+00 -0.16417107167E+03  0.16417107167E+03  0.00000000000E+00 0. -1.
         25    2    1    2    0    0  0.34045807147E+01  0.57992962054E+02  0.12665956769E+03  0.18719966762E+03  0.12500517850E+03 0.  0.
          2    1    1    2  501    0 -0.19891036108E+02  0.65178829143E+02 -0.10287816885E+03  0.12340117792E+03  0.00000000000E+00 0. -1.
          1    1    1    2  502    0  0.16486455394E+02 -0.12317179120E+03  0.16519831486E+03  0.20672101149E+03  0.00000000000E+00 0. -1.
         22    1    3    3    0    0 -0.40841303764E+02  0.65160570169E+02  0.33627497612E+02  0.83932833823E+02  0.00000000000E+00 0. -1.
         22    1    3    3    0    0  0.44245884479E+02 -0.71676081154E+01  0.93032070076E+02  0.10326683379E+03  0.00000000000E+00 0. -1.
</event>
<event>
 7    1  0.6176857E-006  0.1835354E+03  0.7818608E-02  0.1294740E+00
          2   -1    0    0  502    0  0.00000000000E+00  0.00000000000E+00  0.47545030278E+03  0.47545030278E+03  0.00000000000E+00 0. -1.
          1   -1    0    0  501    0 -0.00000000000E+00 -0.00000000000E+00 -0.69526476617E+03  0.69526476617E+03  0.00000000000E+00 0. -1.
         25    2    1    2    0    0  0.17232114427E+03 -0.95204324883E+02  0.44666784849E+02  0.23744151233E+03  0.12499963948E+03 0.  0.
          2    1    1    2  501    0 -0.13434505018E+03  0.12384631848E+03 -0.58313376904E+03  0.61109041533E+03  0.00000000000E+00 0. -1.
          1    1    1    2  502    0 -0.37976094095E+02 -0.28641993602E+02  0.31865252080E+03  0.32218314129E+03  0.00000000000E+00 0. -1.
         22    1    3    3    0    0  0.48052229091E+02 -0.91553340118E+02  0.45864653808E+02  0.11311320558E+03  0.00000000000E+00 0. -1.
         22    1    3    3    0    0  0.12426891518E+03 -0.36509847649E+01 -0.11978689593E+01  0.12432830675E+03  0.00000000000E+00 0. -1.
</event>
<event>
 7    1  0.6176857E-006  0.2339243E+03  0.7818608E-02  0.1142985E+00
          2   -1    0    0  502    0  0.00000000000E+00  0.00000000000E+00  0.14258744917E+04  0.14258744917E+04  0.00000000000E+00 0. -1.
          1   -1    0    0  501    0 -0.00000000000E+00 -0.00000000000E+00 -0.11886826833E+04  0.11886826833E+04  0.00000000000E+00 0. -1.
         25    2    1    2    0    0 -0.10198058922E+01  0.64476210567E+02  0.28968094353E+03  0.32202277202E+03  0.12500157969E+03 0.  0.
          2    1    1    2  501    0  0.10925758728E+03 -0.21492387740E+03 -0.11522814284E+04  0.11772348889E+04  0.00000000000E+00 0. -1.
          1    1    1    2  502    0 -0.10823778139E+03  0.15044766683E+03  0.10997922932E+04  0.11152995140E+04  0.00000000000E+00 0. -1.
         22    1    3    3    0    0 -0.35735501348E+02  0.87340513619E+02  0.15906315667E+03  0.18494993697E+03  0.00000000000E+00 0.  1.
         22    1    3    3    0    0  0.34715695456E+02 -0.22864303051E+02  0.13061778686E+03  0.13707283505E+03  0.00000000000E+00 0.  1.
</event>
<event>
 7    1  0.6176857E-006  0.4698204E+02  0.7818608E-02  0.1462539E+00
          2   -1    0    0  502    0  0.00000000000E+00  0.00000000000E+00  0.11531263000E+03  0.11531263000E+03  0.00000000000E+00 0. -1.
          1   -1    0    0  501    0 -0.00000000000E+00 -0.00000000000E+00 -0.12018933939E+04  0.12018933939E+04  0.00000000000E+00 0. -1.
         25    2    1    2    0    0  0.14425662807E+01  0.45449584083E+01 -0.39520216530E+03  0.41452648538E+03  0.12499887192E+03 0.  0.
          2    1    1    2  501    0  0.17359825425E+02 -0.47524677339E+02 -0.79097292267E+03  0.79258950465E+03  0.00000000000E+00 0. -1.
          1    1    1    2  502    0 -0.18802391706E+02  0.42979718931E+02  0.99594324062E+02  0.11009003387E+03  0.00000000000E+00 0. -1.
         22    1    3    3    0    0  0.55467470602E+02 -0.49275508407E+01 -0.29579891547E+03  0.30099488275E+03  0.00000000000E+00 0.  1.
         22    1    3    3    0    0 -0.54024904321E+02  0.94725092491E+01 -0.99403249832E+02  0.11353160263E+03  0.00000000000E+00 0.  1.
</event>
<event>
 7    1  0.6176857E-006  0.7247799E+02  0.7818608E-02  0.1453465E+00
          2   -1    0    0  502    0  0.00000000000E+00  0.00000000000E+00  0.53709648199E+02  0.53709648199E+02  0.00000000000E+00 0. -1.
          1   -1    0    0  501    0 -0.00000000000E+00 -0.00000000000E+00 -0.16833281900E+04  0.16833281900E+04  0.00000000000E+00 0. -1.
         25    2    1    2    0    0 -0.46819932336E+02 -0.90127668853E+02 -0.34464311686E+03  0.38041889606E+03  0.12499822288E+03 0.  0.
          2    1    1    2  501    0  0.98719014562E+01  0.30951750258E+02 -0.12864301098E+04  0.12868402747E+04  0.00000000000E+00 0. -1.
          1    1    1    2  502    0  0.36948030880E+02  0.59175918595E+02  0.14546847835E+01  0.69778667480E+02  0.00000000000E+00 0. -1.
         22    1    3    3    0    0  0.85193058666E+01 -0.82480977954E+02 -0.29240710810E+03  0.30393684733E+03  0.00000000000E+00 0.  1.
         22    1    3    3    0    0 -0.55339238202E+02 -0.76466908985E+01 -0.52236008752E+02  0.76482048723E+02  0.00000000000E+00 0.  1.
</event>
<event>
 7    1  0.6176857E-006  0.1229265E+03  0.7818608E-02  0.1311355E+00
          2   -1    0    0  502    0  0.00000000000E+00  0.00000000000E+00  0.89180955849E+03  0.89180955849E+03  0.00000000000E+00 0. -1.
          1   -1    0    0  501    0 -0.00000000000E+00 -0.00000000000E+00 -0.41506277638E+02  0.41506277638E+02  0.00000000000E+00 0. -1.
         25    2    1    2    0    0  0.10181228204E+03 -0.10584129523E+03  0.60458840189E+03  0.63459756281E+03  0.12497523945E+03 0.  0.
          2    1    1    2  501    0 -0.60196042156E+02  0.97381661941E+01  0.60222338774E+02  0.85703707384E+02  0.00000000000E+00 0. -1.
          1    1    1    2  502    0 -0.41616239888E+02  0.96103129039E+02  0.18549254019E+03  0.21301456593E+03  0.00000000000E+00 0. -1.
         22    1    3    3    0    0 -0.15874452703E+02 -0.34967824107E+02  0.27283529845E+03  0.27552467594E+03  0.00000000000E+00 0. -1.
         22    1    3    3    0    0  0.11768673475E+03 -0.70873471126E+02  0.33175310344E+03  0.35907288687E+03  0.00000000000E+00 0. -1.
</event>
<event>
 7    1  0.6176857E-006  0.5888195E+02  0.7818608E-02  0.1459579E+00
          2   -1    0    0  502    0  0.00000000000E+00  0.00000000000E+00  0.86156406810E+03  0.86156406810E+03  0.00000000000E+00 0. -1.
          1   -1    0    0  501    0 -0.00000000000E+00 -0.00000000000E+00 -0.63377334247E+03  0.63377334247E+03  0.00000000000E+00 0. -1.
         25    2    1    2    0    0 -0.52294669915E+02  0.76148244817E+02  0.14873876447E+03  0.21512821527E+03  0.12499456491E+03 0.  0.
          2    1    1    2  501    0  0.30897775167E+02 -0.22537108100E+02 -0.59874178387E+03  0.59996193005E+03  0.00000000000E+00 0. -1.
          1    1    1    2  502    0  0.21396894748E+02 -0.53611136717E+02  0.67779374503E+03  0.68024726526E+03  0.00000000000E+00 0. -1.
         22    1    3    3    0    0 -0.14214613775E+02 -0.34053480718E+02  0.51211310902E+02  0.63121257577E+02  0.00000000000E+00 0. -1.
         22    1    3    3    0    0 -0.38080056140E+02  0.11020172553E+03  0.97527453567E+02  0.15200695769E+03  0.00000000000E+00 0. -1.
</event>
<event>
 7    1  0.6176857E-006  0.2293969E+03  0.7818608E-02  0.1356247E+00
          2   -1    0    0  502    0  0.00000000000E+00  0.00000000000E+00  0.20454788353E+04  0.20454788353E+04  0.00000000000E+00 0. -1.
          1   -1    0    0  501    0 -0.00000000000E+00 -0.00000000000E+00 -0.10419070449E+03  0.10419070449E+03  0.00000000000E+00 0. -1.
         25    2    1    2    0    0 -0.23720387492E+03 -0.33715206688E+02  0.21726574861E+03  0.34674540138E+03  0.12500229766E+03 0.  0.
          2    1    1    2  501    0  0.21709547336E+03  0.24633812701E+02  0.26378369460E+03  0.34251876857E+03  0.00000000000E+00 0. -1.
          1    1    1    2  502    0  0.20108401554E+02  0.90813939869E+01  0.14602386875E+04  0.14604053698E+04  0.00000000000E+00 0. -1.
         22    1    3    3    0    0 -0.82590728755E+02 -0.33614440383E+02  0.15748607090E+03  0.18097795890E+03  0.00000000000E+00 0. -1.
         22    1    3    3    0    0 -0.15461314616E+03 -0.10076630454E+00  0.59779677713E+02  0.16576744248E+03  0.00000000000E+00 0. -1.
</event>
<event>
 7    1  0.6176857E-006  0.1093586E+03  0.7818608E-02  0.1427261E+00
          2   -1    0    0  502    0  0.00000000000E+00  0.00000000000E+00  0.34079780057E+03  0.34079780057E+03  0.00000000000E+00 0. -1.
          1   -1    0    0  501    0 -0.00000000000E+00 -0.00000000000E+00 -0.49237700182E+03  0.49237700182E+03  0.00000000000E+00 0. -1.
         25    2    1    2    0    0  0.47149635840E+01  0.10119254219E+03  0.28928590640E+03  0.33101629882E+03  0.12499317168E+03 0.  0.
          2    1    1    2  501    0 -0.30588621616E+02 -0.10522835529E+03 -0.45795831930E+03  0.47088692140E+03  0.00000000000E+00 0. -1.
          1    1    1    2  502    0  0.25873658032E+02  0.40358131014E+01  0.17093211645E+02  0.31271582174E+02  0.00000000000E+00 0. -1.
         22    1    3    3    0    0  0.25214542989E+02  0.45362801417E+02  0.25923865690E+03  0.26438274936E+03  0.00000000000E+00 0.  1.
         22    1    3    3    0    0 -0.20499579405E+02  0.55829740774E+02  0.30047249504E+02  0.66633549459E+02  0.00000000000E+00 0.  1.
</event>
<event>
 7    1  0.6176857E-006  0.7231544E+02  0.7818608E-02  0.1502892E+00
          2   -1    0    0  502    0  0.00000000000E+00  0.00000000000E+00  0.11868167074E+04  0.11868167074E+04  0.00000000000E+00 0. -1.
          1   -1    0    0  501    0 -0.00000000000E+00 -0.00000000000E+00 -0.58170203085E+03  0.58170203085E+03  0.00000000000E+00 0. -1.
         25    2    1    2    0    0  0.83736527967E+02  0.34252015040E+02  0.34004591370E+03  0.37341863866E+03  0.12500099851E+03 0.  0.
          2    1    1    2  501    0 -0.70524281475E+02 -0.15495621970E+02 -0.56254912731E+03  0.56716427004E+03  0.00000000000E+00 0. -1.
          1    1    1    2  502    0 -0.13212246492E+02 -0.18756393071E+02  0.82761789013E+03  0.82793582952E+03  0.00000000000E+00 0. -1.
         22    1    3    3    0    0  0.16547642893E+02  0.12361791987E+02 -0.49664210885E+01  0.21243910301E+02  0.00000000000E+00 0.  1.
         22    1    3    3    0    0  0.67188885074E+02  0.21890223054E+02  0.34501233479E+03  0.35217472836E+03  0.00000000000E+00 0.  1.
</event>
<event>
 7    1  0.6176857E-006  0.1349339E+03  0.7818608E-02  0.1320312E+00
          2   -1    0    0  502    0  0.00000000000E+00  0.00000000000E+00  0.80655095857E+03  0.80655095857E+03  0.00000000000E+00 0. -1.
          1   -1    0    0  501    0 -0.00000000000E+00 -0.00000000000E+00 -0.10190461867E+04  0.10190461867E+04  0.00000000000E+00 0. -1.
         25    2    1    2    0    0 -0.53591541115E+02 -0.17402091965E+03 -0.35174698139E+02  0.22364644205E+03  0.12500055158E+03 0.  0.
          2    1    1    2  501    0  0.49402580934E+02  0.12293902247E+03 -0.88376897347E+03  0.89364546478E+03  0.00000000000E+00 0. -1.
          1    1    1    2  502    0  0.41889601810E+01  0.51081897183E+02  0.70644844345E+03  0.70830523848E+03  0.00000000000E+00 0. -1.
         22    1    3    3    0    0 -0.62080986605E+02 -0.40616379753E+02 -0.49532509143E+02  0.89203187522E+02  0.00000000000E+00 0.  1.
         22    1    3    3    0    0  0.84894454901E+01 -0.13340453990E+03  0.14357811004E+02  0.13444325453E+03  0.00000000000E+00 0.  1.
</event>
<event>
 7    1  0.6176857E-006  0.4760259E+02  0.7818608E-02  0.1495479E+00
          2   -1    0    0  502    0  0.00000000000E+00  0.00000000000E+00  0.23056216148E+04  0.23056216148E+04  0.00000000000E+00 0. -1.
          1   -1    0    0  501    0 -0.00000000000E+00 -0.00000000000E+00 -0.11722414674E+04  0.11722414674E+04  0.00000000000E+00 0. -1.
         25    2    1    2    0    0 -0.29646193842E+02  0.20530229249E+02  0.14414150835E+04  0.14472747443E+04  0.12500542084E+03 0.  0.
          2    1    1    2  501    0  0.46630624316E+01 -0.47381834337E+02 -0.11684361580E+04  0.11694057626E+04  0.00000000000E+00 0. -1.
          1    1    1    2  502    0  0.24983131410E+02  0.26851605088E+02  0.86040122179E+03  0.86118257530E+03  0.00000000000E+00 0. -1.
         22    1    3    3    0    0  0.64142751649E+00 -0.45498067632E+02  0.28781513704E+03  0.29138983973E+03  0.00000000000E+00 0. -1.
         22    1    3    3    0    0 -0.30287621358E+02  0.66028296881E+02  0.11535999465E+04  0.11558849045E+04  0.00000000000E+00 0. -1.
</event>
<event>
 7    1  0.6176857E-006  0.7003192E+02  0.7818608E-02  0.1440934E+00
          2   -1    0    0  502    0  0.00000000000E+00  0.00000000000E+00  0.55724156218E+03  0.55724156218E+03  0.00000000000E+00 0. -1.
          1   -1    0    0  501    0 -0.00000000000E+00 -0.00000000000E+00 -0.13911559740E+04  0.13911559740E+04  0.00000000000E+00 0. -1.
         25    2    1    2    0    0 -0.67557996707E+02  0.74991436223E+02 -0.27456387467E+03  0.31811434290E+03  0.12499446171E+03 0.  0.
          2    1    1    2  501    0  0.55701703018E+02 -0.40060816278E+02 -0.10931047018E+04  0.10952558778E+04  0.00000000000E+00 0. -1.
          1    1    1    2  502    0  0.11856293689E+02 -0.34930619945E+02  0.53375416472E+03  0.53502731543E+03  0.00000000000E+00 0. -1.
         22    1    3    3    0    0  0.23387110726E+02 -0.13330593288E+01 -0.12489053925E+03  0.12706840988E+03  0.00000000000E+00 0.  1.
         22    1    3    3    0    0 -0.90945107433E+02  0.76324495552E+02 -0.14967333541E+03  0.19104593301E+03  0.00000000000E+00 0.  1.
</event>
<event>
 7    1  0.6176857E-006  0.8447343E+02  0.7818608E-02  0.1417598E+00
          2   -1    0    0  502    0  0.00000000000E+00  0.00000000000E+00  0.81267491798E+03  0.81267491798E+03  0.00000000000E+00 0. -1.
          1   -1    0    0  501    0 -0.00000000000E+00 -0.00000000000E+00 -0.71294263519E+03  0.71294263519E+03  0.00000000000E+00 0. -1.
         25    2    1    2    0    0 -0.51805001509E+02 -0.26641596927E+02 -0.21884765145E+02  0.13963471352E+03  0.12500150961E+03 0.  0.
          2    1    1    2  501    0  0.85128541609E+02  0.11732946727E+02 -0.62881687103E+03  0.63466147506E+03  0.00000000000E+00 0. -1.
          1    1    1    2  502    0 -0.33323540099E+02  0.14908650200E+02  0.75043391896E+03  0.75132136460E+03  0.00000000000E+00 0. -1.
         22    1    3    3    0    0 -0.43927870144E+02  0.42754849049E+02  0.11262966265E+02  0.62325671290E+02  0.00000000000E+00 0.  1.
         22    1    3    3    0    0 -0.78771313649E+01 -0.69396445977E+02 -0.33147731409E+02  0.77309042229E+02  0.00000000000E+00 0.  1.
</event>
<event>
 7    1  0.6176857E-006  0.1159331E+03  0.7818608E-02  0.1335815E+00
          2   -1    0    0  502    0  0.00000000000E+00  0.00000000000E+00  0.42521422957E+04  0.42521422957E+04  0.00000000000E+00 0. -1.
          1   -1    0    0  501    0 -0.00000000000E+00 -0.00000000000E+00 -0.11024374578E+04  0.11024374578E+04  0.00000000000E+00 0. -1.
         25    2    1    2    0    0  0.80244882979E+02  0.14470147139E+03 -0.28699096980E+03  0.35407293167E+03  0.12500426846E+03 0.  0.
          2    1    1    2  501    0 -0.35790617055E+02 -0.37760222010E+02 -0.78024416279E+03  0.78197682588E+03  0.00000000000E+00 0. -1.
          1    1    1    2  502    0 -0.44454265923E+02 -0.10694124938E+03  0.42169399705E+04  0.42185299960E+04  0.00000000000E+00 0. -1.
         22    1    3    3    0    0  0.53374769176E+02 -0.65214675643E+01 -0.75976102492E+02  0.93079340746E+02  0.00000000000E+00 0. -1.
         22    1    3    3    0    0  0.26870113803E+02  0.15122293895E+03 -0.21101486731E+03  0.26099359093E+03  0.00000000000E+00 0. -1.
</event>
<event>
 7    1  0.6176857E-006  0.8097850E+02  0.7818608E-02  0.1372390E+00
          2   -1    0    0  502    0  0.00000000000E+00  0.00000000000E+00  0.14081950598E+04  0.14081950598E+04  0.00000000000E+00 0. -1.
          1   -1    0    0  501    0 -0.00000000000E+00 -0.00000000000E+00 -0.37807984492E+03  0.37807984492E+03  0.00000000000E+00 0. -1.
         25    2    1    2    0    0  0.29129330491E+02 -0.30206363578E+02  0.41098126387E+03  0.43162052036E+03  0.12501892676E+03 0.  0.
          2    1    1    2  501    0 -0.80609755325E+02  0.11949120872E+02 -0.36247730514E+03  0.37152457642E+03  0.00000000000E+00 0. -1.
          1    1    1    2  502    0  0.51480424833E+02  0.18257242705E+02  0.98161125613E+03  0.98312980792E+03  0.00000000000E+00 0. -1.
         22    1    3    3    0    0  0.18493246204E+02 -0.77149183607E+02  0.19873640387E+03  0.21398634281E+03  0.00000000000E+00 0. -1.
         22    1    3    3    0    0  0.10636084287E+02  0.46942820030E+02  0.21224486000E+03  0.21763417755E+03  0.00000000000E+00 0. -1.
</event>
<event>
 7    1  0.6176857E-006  0.1190155E+03  0.7818608E-02  0.1307010E+00
          2   -1    0    0  502    0  0.00000000000E+00  0.00000000000E+00  0.30574798610E+03  0.30574798610E+03  0.00000000000E+00 0. -1.
          1   -1    0    0  501    0 -0.00000000000E+00 -0.00000000000E+00 -0.12275580498E+04  0.12275580498E+04  0.00000000000E+00 0. -1.
         25    2    1    2    0    0 -0.11434063236E+03  0.30137231001E+02 -0.38958782806E+03  0.42588980170E+03  0.12498565725E+03 0.  0.
          2    1    1    2  501    0  0.84946560599E+02 -0.88692190229E+02 -0.81140615780E+03  0.82064741252E+03  0.00000000000E+00 0. -1.
          1    1    1    2  502    0  0.29394071760E+02  0.58554959227E+02  0.27918392215E+03  0.28676882169E+03  0.00000000000E+00 0. -1.
         22    1    3    3    0    0 -0.82566023098E+02 -0.41757447849E+02 -0.18844965073E+03  0.20993833256E+03  0.00000000000E+00 0. -1.
         22    1    3    3    0    0 -0.31774609260E+02  0.71894678850E+02 -0.20113817733E+03  0.21595146914E+03  0.00000000000E+00 0. -1.
</event>
<event>
 7    1  0.6176857E-006  0.6322854E+02  0.7818608E-02  0.1473491E+00
          2   -1    0    0  502    0  0.00000000000E+00  0.00000000000E+00  0.29271263764E+03  0.29271263764E+03  0.00000000000E+00 0. -1.
          1   -1    0    0  501    0 -0.00000000000E+00 -0.00000000000E+00 -0.29127093914E+03  0.29127093914E+03  0.00000000000E+00 0. -1.
         25    2    1    2    0    0  0.78782887734E+02 -0.45490525836E+02 -0.97279095638E+00  0.15460033091E+03  0.12499673857E+03 0.  0.
          2    1    1    2  501    0 -0.47051029099E+02  0.39895473299E+02 -0.20777456007E+03  0.21673881965E+03  0.00000000000E+00 0. -1.
          1    1    1    2  502    0 -0.31731858635E+02  0.55950525369E+01  0.21018904953E+03  0.21264442623E+03  0.00000000000E+00 0. -1.
         22    1    3    3    0    0  0.84683517906E+02 -0.11999846824E+02  0.45605817153E+02  0.96928762949E+02  0.00000000000E+00 0.  1.
         22    1    3    3    0    0 -0.59006301720E+01 -0.33490679012E+02 -0.46578608109E+02  0.57671567956E+02  0.00000000000E+00 0.  1.
</event>
<event>
 7    1  0.6176857E-006  0.2148978E+03  0.7818608E-02  0.1205181E+00
          2   -1    0    0  502    0  0.00000000000E+00  0.00000000000E+00  0.20280858674E+03  0.20280858674E+03  0.00000000000E+00 0. -1.
          1   -1    0    0  501    0 -0.00000000000E+00 -0.00000000000E+00 -0.99650011026E+03  0.99650011026E+03  0.00000000000E+00 0. -1.
         25    2    1    2    0    0  0.17936920968E+03 -0.25430044393E+02 -0.34608497832E+02  0.22280693828E+03  0.12500073234E+03 0.  0.
          2    1    1    2  501    0 -0.18449622553E+03  0.12480503796E+03 -0.82670830658E+03  0.85619027027E+03  0.00000000000E+00 0. -1.
          1    1    1    2  502    0  0.51270158476E+01 -0.99374993567E+02  0.67625280888E+02  0.12031148845E+03  0.00000000000E+00 0. -1.
         22    1    3    3    0    0  0.10128857097E+03  0.14442154407E+02 -0.74423210879E+02  0.12651784360E+03  0.00000000000E+00 0. -1.
         22    1    3    3    0    0  0.78080638715E+02 -0.39872198800E+02  0.39814713047E+02  0.96289094680E+02  0.00000000000E+00 0. -1.
</event>
<event>
 7    1  0.6176857E-006  0.1050787E+03  0.7818608E-02  0.1350334E+00
          2   -1    0    0  502    0  0.00000000000E+00  0.00000000000E+00  0.19178775813E+03  0.19178775813E+03  0.00000000000E+00 0. -1.
          1   -1    0    0  501    0 -0.00000000000E+00 -0.00000000000E+00 -0.60318021780E+03  0.60318021780E+03  0.00000000000E+00 0. -1.
         25    2    1    2    0    0  0.75367737071E+02 -0.10351439267E+03 -0.19691005487E+02  0.18001200134E+03  0.12498423759E+03 0.  0.
          2    1    1    2  501    0 -0.88633170421E+02  0.54635090698E+02 -0.49183894912E+03  0.50273888243E+03  0.00000000000E+00 0. -1.
          1    1    1    2  502    0  0.13265433350E+02  0.48879301976E+02  0.10013749493E+03  0.11221709217E+03  0.00000000000E+00 0. -1.
         22    1    3    3    0    0  0.72475294938E+02 -0.81866882925E+02  0.40020043521E+02  0.11643220680E+03  0.00000000000E+00 0. -1.
         22    1    3    3    0    0  0.28924421322E+01 -0.21647509749E+02 -0.59711049008E+02  0.63579794537E+02  0.00000000000E+00 0. -1.
</event>
<event>
 7    1  0.6176857E-006  0.1216324E+03  0.7818608E-02  0.1278189E+00
          2   -1    0    0  502    0  0.00000000000E+00  0.00000000000E+00  0.13135477917E+04  0.13135477917E+04  0.00000000000E+00 0. -1.
          1   -1    0    0  501    0 -0.00000000000E+00 -0.00000000000E+00 -0.18097142827E+03  0.18097142827E+03  0.00000000000E+00 0. -1.
         25    2    1    2    0    0  0.12774210105E+03 -0.10327927191E+03 -0.49059848960E+02  0.21217138182E+03  0.12500069639E+03 0.  0.
          2    1    1    2  501    0 -0.96228336156E+02  0.25542162805E+02  0.18441572664E+01  0.99577586214E+02  0.00000000000E+00 0. -1.
          1    1    1    2  502    0 -0.31513764894E+02  0.77737109102E+02  0.11797920551E+04  0.11827702520E+04  0.00000000000E+00 0. -1.
         22    1    3    3    0    0  0.12971668349E+02 -0.61292738431E+02  0.27005926208E+02  0.68223046065E+02  0.00000000000E+00 0. -1.
         22    1    3    3    0    0  0.11477043270E+03 -0.41986533476E+02 -0.76065775168E+02  0.14394833576E+03  0.00000000000E+00 0. -1.
</event>
<event>
 7    1  0.6176857E-006  0.1459344E+03  0.7818608E-02  0.1336634E+00
          2   -1    0    0  502    0  0.00000000000E+00  0.00000000000E+00  0.17954944554E+04  0.17954944554E+04  0.00000000000E+00 0. -1.
          1   -1    0    0  501    0 -0.00000000000E+00 -0.00000000000E+00 -0.22431331631E+03  0.22431331631E+03  0.00000000000E+00 0. -1.
         25    2    1    2    0    0  0.16660073758E+03 -0.35954095163E+02 -0.63619222040E+02  0.22072385890E+03  0.12499245479E+03 0.  0.
          2    1    1    2  501    0 -0.12807287060E+03  0.21823466446E+02 -0.30359071452E+02  0.13341887831E+03  0.00000000000E+00 0. -1.
          1    1    1    2  502    0 -0.38527866986E+02  0.14130628717E+02  0.16651594325E+04  0.16656650344E+04  0.00000000000E+00 0. -1.
         22    1    3    3    0    0  0.16090835529E+02 -0.41262421359E+02 -0.53963870567E+02  0.69811186289E+02  0.00000000000E+00 0. -1.
         22    1    3    3    0    0  0.15050990205E+03  0.53083261961E+01 -0.96553514732E+01  0.15091267261E+03  0.00000000000E+00 0. -1.
</event>
<event>
 7    1  0.6176857E-006  0.8912776E+02  0.7818608E-02  0.1349473E+00
          2   -1    0    0  502    0  0.00000000000E+00  0.00000000000E+00  0.11579713170E+03  0.11579713170E+03  0.00000000000E+00 0. -1.
          1   -1    0    0  501    0 -0.00000000000E+00 -0.00000000000E+00 -0.22144733835E+03  0.22144733835E+03  0.00000000000E+00 0. -1.
         25    2    1    2    0    0  0.73156260210E+02 -0.65588260405E+02 -0.51583104658E+02  0.16714916156E+03  0.12499746882E+03 0.  0.
          2    1    1    2  501    0 -0.90226870386E+02  0.79096274288E+01 -0.20887067364E+01  0.90596981415E+02  0.00000000000E+00 0. -1.
          1    1    1    2  502    0  0.17070610176E+02  0.57678632976E+02 -0.51978395260E+02  0.79498327074E+02  0.00000000000E+00 0. -1.
         22    1    3    3    0    0  0.83664879151E+01 -0.78144162237E+02 -0.62301157535E+02  0.10028929376E+03  0.00000000000E+00 0. -1.
         22    1    3    3    0    0  0.64789772294E+02  0.12555901832E+02  0.10718052877E+02  0.66859867800E+02  0.00000000000E+00 0. -1.
</event>
<event>
 7    1  0.6176857E-006  0.1262358E+03  0.7818608E-02  0.1347771E+00
          2   -1    0    0  502    0  0.00000000000E+00  0.00000000000E+00  0.34557380318E+03  0.34557380318E+03  0.00000000000E+00 0. -1.
          1   -1    0    0  501    0 -0.00000000000E+00 -0.00000000000E+00 -0.13160465136E+04  0.13160465136E+04  0.00000000000E+00 0. -1.
         25    2    1    2    0    0  0.10638698053E+03  0.50331802819E+02 -0.28874234387E+03  0.33592677124E+03  0.12499269776E+03 0.  0.
          2    1    1    2  501    0  0.19882781516E+02 -0.38230747596E+02 -0.99073207741E+03  0.99166877750E+03  0.00000000000E+00 0. -1.
          1    1    1    2  502    0 -0.12626976204E+03 -0.12101055224E+02  0.30900171086E+03  0.33402476803E+03  0.00000000000E+00 0. -1.
         22    1    3    3    0    0  0.99957971216E+02 -0.45234110798E+01 -0.24760759648E+03  0.26706100257E+03  0.00000000000E+00 0.  1.
         22    1    3    3    0    0  0.64290093095E+01  0.54855213899E+02 -0.41134747390E+02  0.68865768677E+02  0.00000000000E+00 0.  1.
</event>
<event>
 7    1  0.6176857E-006  0.1229252E+03  0.7818608E-02  0.1382220E+00
          2   -1    0    0  502    0  0.00000000000E+00  0.00000000000E+00  0.35195861179E+03  0.35195861179E+03  0.00000000000E+00 0. -1.
          1   -1    0    0  501    0 -0.00000000000E+00 -0.00000000000E+00 -0.12688620586E+04  0.12688620586E+04  0.00000000000E+00 0. -1.
         25    2    1    2    0    0 -0.42163292879E+02  0.81161538765E+02  0.12983483825E+02  0.15542466786E+03  0.12499327136E+03 0.  0.
          2    1    1    2  501    0  0.63226086515E+02 -0.10682497393E+03 -0.11933804240E+04  0.11998191320E+04  0.00000000000E+00 0. -1.
          1    1    1    2  502    0 -0.21062793636E+02  0.25663435167E+02  0.26349349332E+03  0.26557687060E+03  0.00000000000E+00 0. -1.
         22    1    3    3    0    0  0.13315529363E+02  0.93859403119E+02 -0.71171014655E+01  0.95065998177E+02  0.00000000000E+00 0.  1.
         22    1    3    3    0    0 -0.55478822242E+02 -0.12697864354E+02  0.20100585290E+02  0.60358669680E+02  0.00000000000E+00 0.  1.
</event>
<event>
 7    1  0.6176857E-006  0.1706407E+03  0.7818608E-02  0.1264369E+00
          2   -1    0    0  502    0  0.00000000000E+00  0.00000000000E+00  0.37911192299E+04  0.37911192299E+04  0.00000000000E+00 0. -1.
          1   -1    0    0  501    0 -0.00000000000E+00 -0.00000000000E+00 -0.22658738525E+03  0.22658738525E+03  0.00000000000E+00 0. -1.
         25    2    1    2    0    0  0.96350931351E+02  0.46636546941E+02  0.18847556063E+03  0.25021345381E+03  0.12500106411E+03 0.  0.
          2    1    1    2  501    0  0.64567460885E+02  0.22332711702E+02 -0.18754094873E+03  0.19959788192E+03  0.00000000000E+00 0. -1.
          1    1    1    2  502    0 -0.16091839224E+03 -0.68969258644E+02  0.35635972327E+04  0.35678952794E+04  0.00000000000E+00 0. -1.
         22    1    3    3    0    0 -0.26052544219E+02  0.79840887873E+01  0.73624092896E+01  0.28225623192E+02  0.00000000000E+00 0. -1.
         22    1    3    3    0    0  0.12240347557E+03  0.38652458154E+02  0.18111315134E+03  0.22198783062E+03  0.00000000000E+00 0. -1.
</event>
<event>
 7    1  0.6176857E-006  0.1931540E+03  0.7818608E-02  0.1313311E+00
          2   -1    0    0  502    0  0.00000000000E+00  0.00000000000E+00  0.21291761174E+04  0.21291761174E+04  0.00000000000E+00 0. -1.
          1   -1    0    0  501    0 -0.00000000000E+00 -0.00000000000E+00 -0.34435395074E+03  0.34435395074E+03  0.00000000000E+00 0. -1.
         25    2    1    2    0    0 -0.46021451391E+02 -0.18056859935E+03  0.57170978773E+03  0.61416732885E+03  0.12500573338E+03 0.  0.
          2    1    1    2  501    0  0.83685362407E+02  0.17464163799E+03 -0.29384658642E+03  0.35192152243E+03  0.00000000000E+00 0. -1.
          1    1    1    2  502    0 -0.37663911016E+02  0.59269613622E+01  0.15069589653E+04  0.15074412169E+04  0.00000000000E+00 0. -1.
         22    1    3    3    0    0 -0.13134218695E+02 -0.90904029369E+02  0.11299444698E+03  0.14561523033E+03  0.00000000000E+00 0. -1.
         22    1    3    3    0    0 -0.32887232696E+02 -0.89664569981E+02  0.45871534075E+03  0.46855209852E+03  0.00000000000E+00 0. -1.
</event>
<event>
 7    1  0.6176857E-006  0.9103764E+02  0.7818608E-02  0.1409291E+00
          2   -1    0    0  502    0  0.00000000000E+00  0.00000000000E+00  0.41368944680E+03  0.41368944680E+03  0.00000000000E+00 0. -1.
          1   -1    0    0  501    0 -0.00000000000E+00 -0.00000000000E+00 -0.21596204074E+03  0.21596204074E+03  0.00000000000E+00 0. -1.
         25    2    1    2    0    0 -0.63694799194E+02 -0.13900639938E+02 -0.12113928449E+03  0.18587746556E+03  0.12500180288E+03 0.  0.
          2    1    1    2  501    0 -0.15895493724E+02 -0.32446596551E+02 -0.51062124608E+02  0.62552289470E+02  0.00000000000E+00 0. -1.
          1    1    1    2  502    0  0.79590292918E+02  0.46347236489E+02  0.36992881516E+03  0.38122173251E+03  0.00000000000E+00 0. -1.
         22    1    3    3    0    0 -0.56656965075E+02 -0.65433728720E+02 -0.58546427473E+02  0.10449530475E+03  0.00000000000E+00 0.  1.
         22    1    3    3    0    0 -0.70378341188E+01  0.51533088782E+02 -0.62592857017E+02  0.81382160810E+02  0.00000000000E+00 0.  1.
</event>
<event>
 7    1  0.6176857E-006  0.8372957E+02  0.7818608E-02  0.1362270E+00
          2   -1    0    0  502    0  0.00000000000E+00  0.00000000000E+00  0.10359901873E+04  0.10359901873E+04  0.00000000000E+00 0. -1.
          1   -1    0    0  501    0 -0.00000000000E+00 -0.00000000000E+00 -0.13431410387E+03  0.13431410387E+03  0.00000000000E+00 0. -1.
         25    2    1    2    0    0  0.98710436939E+02 -0.86926354790E+02  0.93510156760E+02  0.20414209016E+03  0.12501960662E+03 0.  0.
          2    1    1    2  501    0 -0.54759419428E+02  0.17418154691E+02 -0.66357899805E+02  0.87780162881E+02  0.00000000000E+00 0. -1.
          1    1    1    2  502    0 -0.43951017511E+02  0.69508200099E+02  0.87452382647E+03  0.87838203811E+03  0.00000000000E+00 0. -1.
         22    1    3    3    0    0  0.82779675266E+02 -0.10367985528E+03  0.29262076694E+02  0.13586116502E+03  0.00000000000E+00 0. -1.
         22    1    3    3    0    0  0.15930761672E+02  0.16753500489E+02  0.64248080066E+02  0.68280925142E+02  0.00000000000E+00 0. -1.
</event>
<event>
 7    1  0.6176857E-006  0.6162308E+02  0.7818608E-02  0.1457210E+00
          2   -1    0    0  502    0  0.00000000000E+00  0.00000000000E+00  0.16463374165E+03  0.16463374165E+03  0.00000000000E+00 0. -1.
          1   -1    0    0  501    0 -0.00000000000E+00 -0.00000000000E+00 -0.65981394374E+03  0.65981394374E+03  0.00000000000E+00 0. -1.
         25    2    1    2    0    0 -0.36342655202E+02  0.19376316798E+02  0.43516185978E+02  0.13860533676E+03  0.12498620203E+03 0.  0.
          2    1    1    2  501    0  0.27775034892E+02 -0.55554215918E+02 -0.60588131037E+03  0.60905655380E+03  0.00000000000E+00 0. -1.
          1    1    1    2  502    0  0.85676203101E+01  0.36177899120E+02  0.67184922307E+02  0.76785794832E+02  0.00000000000E+00 0. -1.
         22    1    3    3    0    0  0.25894771044E+02  0.38450593840E+02  0.55608696270E+02  0.72396922828E+02  0.00000000000E+00 0.  1.
         22    1    3    3    0    0 -0.62237426246E+02 -0.19074277042E+02 -0.12092510293E+02  0.66208413933E+02  0.00000000000E+00 0.  1.
</event>
<event>
 7    1  0.6176857E-006  0.8124077E+02  0.7818608E-02  0.1328875E+00
          2   -1    0    0  502    0  0.00000000000E+00  0.00000000000E+00  0.13954183914E+04  0.13954183914E+04  0.00000000000E+00 0. -1.
          1   -1    0    0  501    0 -0.00000000000E+00 -0.00000000000E+00 -0.47417698981E+03  0.47417698981E+03  0.00000000000E+00 0. -1.
         25    2    1    2    0    0  0.16951241043E+01  0.12784663615E+03  0.10839565899E+03  0.20909838041E+03  0.12499951192E+03 0.  0.
          2    1    1    2  501    0 -0.48540581539E+02 -0.62202453843E+02 -0.41882338252E+03  0.42619051968E+03  0.00000000000E+00 0. -1.
          1    1    1    2  502    0  0.46845457435E+02 -0.65644182306E+02  0.12316691252E+04  0.12343064812E+04  0.00000000000E+00 0. -1.
         22    1    3    3    0    0 -0.33333443000E+02  0.10868587228E+03  0.12215259594E+03  0.16686819334E+03  0.00000000000E+00 0. -1.
         22    1    3    3    0    0  0.35028567104E+02  0.19160763871E+02 -0.13756936947E+02  0.42230187066E+02  0.00000000000E+00 0. -1.
</event>
<event>
 7    1  0.6176857E-006  0.8446287E+02  0.7818608E-02  0.1412215E+00
          2   -1    0    0  502    0  0.00000000000E+00  0.00000000000E+00  0.20748778635E+04  0.20748778635E+04  0.00000000000E+00 0. -1.
          1   -1    0    0  501    0 -0.00000000000E+00 -0.00000000000E+00 -0.86800884876E+02  0.86800884876E+02  0.00000000000E+00 0. -1.
         25    2    1    2    0    0 -0.14764192675E+02 -0.47872242751E+02  0.12048943007E+04  0.12123959422E+04  0.12499564724E+03 0.  0.
          2    1    1    2  501    0  0.42910400368E+02  0.73500622232E+02 -0.60702724656E+02  0.10453929744E+03  0.00000000000E+00 0. -1.
          1    1    1    2  502    0 -0.28146207693E+02 -0.25628379480E+02  0.84388540264E+03  0.84474350879E+03  0.00000000000E+00 0. -1.
         22    1    3    3    0    0 -0.11746430422E+02 -0.62492719863E+01  0.10912559106E+04  0.10913370215E+04  0.00000000000E+00 0. -1.
         22    1    3    3    0    0 -0.30177622530E+01 -0.41622970765E+02  0.11363839002E+03  0.12105892065E+03  0.00000000000E+00 0. -1.
</event>
<event>
 7    1  0.6176857E-006  0.4231263E+03  0.7818608E-02  0.1270860E+00
          2   -1    0    0  502    0  0.00000000000E+00  0.00000000000E+00  0.91270881187E+03  0.91270881187E+03  0.00000000000E+00 0. -1.
          1   -1    0    0  501    0 -0.00000000000E+00 -0.00000000000E+00 -0.10405818113E+04  0.10405818113E+04  0.00000000000E+00 0. -1.
         25    2    1    2    0    0 -0.35487565325E+03 -0.20531059144E+03  0.18414045866E+03  0.46650002674E+03  0.12500159279E+03 0.  0.
          2    1    1    2  501    0 -0.95262890650E+01 -0.24052640096E+02 -0.82026369504E+03  0.82067155981E+03  0.00000000000E+00 0. -1.
          1    1    1    2  502    0  0.36440194232E+03  0.22936323153E+03  0.50825023697E+03  0.66611903660E+03  0.00000000000E+00 0. -1.
         22    1    3    3    0    0 -0.20864844748E+03 -0.59827892782E+02  0.57829978378E+02  0.22462826578E+03  0.00000000000E+00 0. -1.
         22    1    3    3    0    0 -0.14622720578E+03 -0.14548269866E+03  0.12631048028E+03  0.24187176095E+03  0.00000000000E+00 0. -1.
</event>
<event>
 7    1  0.6176857E-006  0.3012594E+03  0.7818608E-02  0.1327340E+00
          2   -1    0    0  502    0  0.00000000000E+00  0.00000000000E+00  0.23322928576E+04  0.23322928576E+04  0.00000000000E+00 0. -1.
          1   -1    0    0  501    0 -0.00000000000E+00 -0.00000000000E+00 -0.15146385085E+04  0.15146385085E+04  0.00000000000E+00 0. -1.
         25    2    1    2    0    0  0.61690537625E+02  0.31055492357E+03 -0.33152213015E+03  0.47516533872E+03  0.12500037342E+03 0.  0.
          2    1    1    2  501    0 -0.17230814127E+02 -0.12971084366E+02 -0.11011761101E+04  0.11013872958E+04  0.00000000000E+00 0. -1.
          1    1    1    2  502    0 -0.44459723498E+02 -0.29758383921E+03  0.22503525893E+04  0.22703787315E+04  0.00000000000E+00 0. -1.
         22    1    3    3    0    0  0.10289325381E+02  0.17473045592E+03 -0.99206274327E+02  0.20119266216E+03  0.00000000000E+00 0.  1.
         22    1    3    3    0    0  0.51401212244E+02  0.13582446766E+03 -0.23231585582E+03  0.27397267656E+03  0.00000000000E+00 0.  1.
</event>
<event>
 7    1  0.6176857E-006  0.4201450E+02  0.7818608E-02  0.1534379E+00
          2   -1    0    0  502    0  0.00000000000E+00  0.00000000000E+00  0.49341085200E+02  0.49341085200E+02  0.00000000000E+00 0. -1.
          1   -1    0    0  501    0 -0.00000000000E+00 -0.00000000000E+00 -0.79746332537E+03  0.79746332537E+03  0.00000000000E+00 0. -1.
         25    2    1    2    0    0 -0.44162240024E+02 -0.43410496042E+02 -0.44572496885E+03  0.46704321053E+03  0.12499535204E+03 0.  0.
          2    1    1    2  501    0  0.38615966760E+02  0.11916405640E+02 -0.33303292456E+03  0.33547596405E+03  0.00000000000E+00 0. -1.
          1    1    1    2  502    0  0.55462732635E+01  0.31494090402E+02  0.30635653243E+02  0.44285235993E+02  0.00000000000E+00 0. -1.
         22    1    3    3    0    0  0.21931374767E+02 -0.65098248555E+02 -0.25255442790E+03  0.26172983440E+03  0.00000000000E+00 0.  1.
         22    1    3    3    0    0 -0.66093614790E+02  0.21687752513E+02 -0.19317054095E+03  0.20531337613E+03  0.00000000000E+00 0.  1.
</event>
<event>
 7    1  0.6176857E-006  0.1267381E+03  0.7818608E-02  0.1368719E+00
          2   -1    0    0  502    0  0.00000000000E+00  0.00000000000E+00  0.15162587362E+04  0.15162587362E+04  0.00000000000E+00 0. -1.
          1   -1    0    0  501    0 -0.00000000000E+00 -0.00000000000E+00 -0.12153289561E+04  0.12153289561E+04  0.00000000000E+00 0. -1.
         25    2    1    2    0    0 -0.10289031486E+03  0.48757425056E+02  0.39034920447E+03  0.42539590109E+03  0.12500187138E+03 0.  0.
          2    1    1    2  501    0  0.95182564151E+02 -0.83898303047E+02 -0.11941519380E+04  0.12008736390E+04  0.00000000000E+00 0. -1.
          1    1    1    2  502    0  0.77077507042E+01  0.35140877991E+02  0.11047325137E+04  0.11053181522E+04  0.00000000000E+00 0. -1.
         22    1    3    3    0    0 -0.26847065780E+02  0.81848340368E+02  0.19622075490E+03  0.21429535789E+03  0.00000000000E+00 0.  1.
         22    1    3    3    0    0 -0.76043249075E+02 -0.33090915312E+02  0.19412844957E+03  0.21110054320E+03  0.00000000000E+00 0.  1.
</event>
<event>
 7    1  0.6176857E-006  0.5051232E+02  0.7818608E-02  0.1457012E+00
          2   -1    0    0  502    0  0.00000000000E+00  0.00000000000E+00  0.29543704336E+03  0.29543704336E+03  0.00000000000E+00 0. -1.
          1   -1    0    0  501    0 -0.00000000000E+00 -0.00000000000E+00 -0.46046905502E+03  0.46046905502E+03  0.00000000000E+00 0. -1.
         25    2    1    2    0    0  0.18929019102E+00  0.24074213487E+02 -0.12306606479E+03  0.17705936794E+03  0.12500063954E+03 0.  0.
          2    1    1    2  501    0 -0.45365512956E+02 -0.28790808227E+02 -0.30612829287E+03  0.31080777355E+03  0.00000000000E+00 0. -1.
          1    1    1    2  502    0  0.45176222765E+02  0.47165947401E+01  0.26416234600E+03  0.26803895689E+03  0.00000000000E+00 0. -1.
         22    1    3    3    0    0  0.22329065329E+02  0.61914963997E+02 -0.26399143476E+02  0.70915193728E+02  0.00000000000E+00 0.  1.
         22    1    3    3    0    0 -0.22139775138E+02 -0.37840750510E+02 -0.96666921312E+02  0.10614417421E+03  0.00000000000E+00 0.  1.
</event>
<event>
 7    1  0.6176857E-006  0.1413744E+03  0.7818608E-02  0.1300721E+00
          2   -1    0    0  502    0  0.00000000000E+00  0.00000000000E+00  0.36629820879E+03  0.36629820879E+03  0.00000000000E+00 0. -1.
          1   -1    0    0  501    0 -0.00000000000E+00 -0.00000000000E+00 -0.12436122425E+04  0.12436122425E+04  0.00000000000E+00 0. -1.
         25    2    1    2    0    0 -0.14625724599E+03 -0.11489196109E+03 -0.62005651258E+02  0.23251081560E+03  0.12500093542E+03 0.  0.
          2    1    1    2  501    0  0.24334218087E+02  0.53119529484E+02 -0.10788992113E+04  0.10804801464E+04  0.00000000000E+00 0. -1.
          1    1    1    2  502    0  0.12192302791E+03  0.61772431608E+02  0.26359082888E+03  0.29691948927E+03  0.00000000000E+00 0. -1.
         22    1    3    3    0    0 -0.58805873627E+02  0.61774630458E+01  0.19633211372E+02  0.62303730318E+02  0.00000000000E+00 0.  1.
         22    1    3    3    0    0 -0.87451372367E+02 -0.12106942414E+03 -0.81638862630E+02  0.17020708529E+03  0.00000000000E+00 0.  1.
</event>
<event>
 7    1  0.6176857E-006  0.1192575E+03  0.7818608E-02  0.1332645E+00
          2   -1    0    0  502    0  0.00000000000E+00  0.00000000000E+00  0.82917468197E+03  0.82917468197E+03  0.00000000000E+00 0. -1.
          1   -1    0    0  501    0 -0.00000000000E+00 -0.00000000000E+00 -0.31987483044E+03  0.31987483044E+03  0.00000000000E+00 0. -1.
         25    2    1    2    0    0  0.20184318145E+02 -0.12585879176E+03  0.25016867239E+02  0.18029512500E+03  0.12503058142E+03 0.  0.
          2    1    1    2  501    0  0.30757584711E+02  0.11543389151E+03 -0.22649958409E+03  0.25607239976E+03  0.00000000000E+00 0. -1.
          1    1    1    2  502    0 -0.50941902856E+02  0.10424900253E+02  0.71078256838E+03  0.71268198765E+03  0.00000000000E+00 0. -1.
         22    1    3    3    0    0  0.36575768224E+02  0.82510901327E+01  0.25219156238E+02  0.45187090534E+02  0.00000000000E+00 0.  1.
         22    1    3    3    0    0 -0.16391450079E+02 -0.13410988189E+03 -0.20228899934E+00  0.13510803447E+03  0.00000000000E+00 0.  1.
</event>
<event>
 7    1  0.6176857E-006  0.1564838E+03  0.7818608E-02  0.1219804E+00
          2   -1    0    0  502    0  0.00000000000E+00  0.00000000000E+00  0.17887977309E+03  0.17887977309E+03  0.00000000000E+00 0. -1.
          1   -1    0    0  501    0 -0.00000000000E+00 -0.00000000000E+00 -0.19304387775E+04  0.19304387775E+04  0.00000000000E+00 0. -1.
         25    2    1    2    0    0  0.16014310058E+03 -0.16717025578E+03 -0.76862545000E+03  0.81240335289E+03  0.12498967290E+03 0.  0.
          2    1    1    2  501    0 -0.14924075466E+02  0.11601960628E+03 -0.10983076992E+04  0.11045193883E+04  0.00000000000E+00 0. -1.
          1    1    1    2  502    0 -0.14521902511E+03  0.51150649502E+02  0.11537414475E+03  0.19239580940E+03  0.00000000000E+00 0. -1.
         22    1    3    3    0    0  0.17527357562E+03 -0.12764489215E+03 -0.68780009185E+03  0.72116781068E+03  0.00000000000E+00 0. -1.
         22    1    3    3    0    0 -0.15130475041E+02 -0.39525363629E+02 -0.80825358141E+02  0.91235542217E+02  0.00000000000E+00 0. -1.
</event>
<event>
 7    1  0.6176857E-006  0.9714778E+02  0.7818608E-02  0.1387597E+00
          2   -1    0    0  502    0  0.00000000000E+00  0.00000000000E+00  0.12973505470E+03  0.12973505470E+03  0.00000000000E+00 0. -1.
          1   -1    0    0  501    0 -0.00000000000E+00 -0.00000000000E+00 -0.33083010831E+03  0.33083010831E+03  0.00000000000E+00 0. -1.
         25    2    1    2    0    0  0.32714606820E+02 -0.67176664119E+02 -0.80827558246E+02  0.16656166200E+03  0.12500697331E+03 0.  0.
          2    1    1    2  501    0  0.39566120661E+02 -0.72239124423E+01 -0.17301774698E+03  0.17763108845E+03  0.00000000000E+00 0. -1.
          1    1    1    2  502    0 -0.72280727481E+02  0.74400576561E+02  0.52750251619E+02  0.11637241255E+03  0.00000000000E+00 0. -1.
         22    1    3    3    0    0 -0.22272389306E+02 -0.58067704081E+02  0.69540458155E+01  0.62580159283E+02  0.00000000000E+00 0.  1.
         22    1    3    3    0    0  0.54986996126E+02 -0.91089600381E+01 -0.87781604061E+02  0.10398150272E+03  0.00000000000E+00 0.  1.
</event>
<event>
 7    1  0.6176857E-006  0.2187624E+03  0.7818608E-02  0.1305486E+00
          2   -1    0    0  502    0  0.00000000000E+00  0.00000000000E+00  0.10678983927E+04  0.10678983927E+04  0.00000000000E+00 0. -1.
          1   -1    0    0  501    0 -0.00000000000E+00 -0.00000000000E+00 -0.29710963657E+03  0.29710963657E+03  0.00000000000E+00 0. -1.
         25    2    1    2    0    0 -0.19248039779E+03  0.13445963388E+03 -0.16197445882E+02  0.26648593170E+03  0.12499719143E+03 0.  0.
          2    1    1    2  501    0  0.18546487647E+03 -0.99002947637E+02 -0.84285273158E+02  0.22650123910E+03  0.00000000000E+00 0. -1.
          1    1    1    2  502    0  0.70155213214E+01 -0.35456686239E+02  0.87127147522E+03  0.87202085851E+03  0.00000000000E+00 0. -1.
         22    1    3    3    0    0 -0.41836780621E+02 -0.23129591769E+02 -0.66822343434E+01  0.48269519201E+02  0.00000000000E+00 0. -1.
         22    1    3    3    0    0 -0.15064361717E+03  0.15758922564E+03 -0.95152115391E+01  0.21821641250E+03  0.00000000000E+00 0. -1.
</event>
<event>
 7    1  0.6176857E-006  0.5270515E+02  0.7818608E-02  0.1452879E+00
          2   -1    0    0  502    0  0.00000000000E+00  0.00000000000E+00  0.12916148425E+04  0.12916148425E+04  0.00000000000E+00 0. -1.
          1   -1    0    0  501    0 -0.00000000000E+00 -0.00000000000E+00 -0.15238673478E+03  0.15238673478E+03  0.00000000000E+00 0. -1.
         25    2    1    2    0    0  0.69969401368E+02  0.37007737278E+02  0.10236802252E+03  0.17991371360E+03  0.12499777022E+03 0.  0.
          2    1    1    2  501    0 -0.44032609297E+02  0.86189167378E+01 -0.10855963035E+03  0.11746637710E+03  0.00000000000E+00 0. -1.
          1    1    1    2  502    0 -0.25936792071E+02 -0.45626654016E+02  0.11454197155E+04  0.11466214866E+04  0.00000000000E+00 0. -1.
         22    1    3    3    0    0  0.21165335066E+02 -0.27818923928E+02 -0.14329021064E+02  0.37778099232E+02  0.00000000000E+00 0.  1.
         22    1    3    3    0    0  0.48804066302E+02  0.64826661206E+02  0.11669704358E+03  0.14213561437E+03  0.00000000000E+00 0.  1.
</event>
<event>
 7    1  0.8708272E-006  0.6441502E+02  0.7818608E-02  0.1396472E+00
          2   -1    0    0  502    0  0.00000000000E+00  0.00000000000E+00  0.16176650999E+04  0.16176650999E+04  0.00000000000E+00 0. -1.
          1   -1    0    0  501    0 -0.00000000000E+00 -0.00000000000E+00 -0.10892522002E+04  0.10892522002E+04  0.00000000000E+00 0. -1.
         25    2    1    2    0    0  0.38478048040E+02 -0.52816824504E+02 -0.15312816416E+03  0.20819053048E+03  0.12499954077E+03 0.  0.
          2    1    1    2  501    0 -0.65309745179E+02  0.31001019571E+01 -0.90691377242E+03  0.90926759761E+03  0.00000000000E+00 0. -1.
          1    1    1    2  502    0  0.26831697140E+02  0.49716722547E+02  0.15884548363E+04  0.15894591720E+04  0.00000000000E+00 0. -1.
         22    1    3    3    0    0  0.37664505190E+02 -0.91645579651E+02 -0.12825679131E+03  0.16207199554E+03  0.00000000000E+00 0. -1.
         22    1    3    3    0    0  0.81354284968E+00  0.38828755147E+02 -0.24871372852E+02  0.46118534949E+02  0.00000000000E+00 0. -1.
</event>
<event>
 7    1  0.6176857E-006  0.3473955E+02  0.7818608E-02  0.1571611E+00
          2   -1    0    0  502    0  0.00000000000E+00  0.00000000000E+00  0.63461059789E+03  0.63461059789E+03  0.00000000000E+00 0. -1.
          1   -1    0    0  501    0 -0.00000000000E+00 -0.00000000000E+00 -0.51570685456E+02  0.51570685456E+02  0.00000000000E+00 0. -1.
         25    2    1    2    0    0 -0.37764420235E+01  0.52151453940E+02  0.22022201727E+03  0.25856710441E+03  0.12500069973E+03 0.  0.
          2    1    1    2  501    0 -0.17365184015E+02 -0.25046298606E+02 -0.24296375112E+02  0.38976666524E+02  0.00000000000E+00 0. -1.
          1    1    1    2  502    0  0.21141626039E+02 -0.27105155335E+02  0.38711427028E+03  0.38863751241E+03  0.00000000000E+00 0. -1.
         22    1    3    3    0    0  0.32433073364E+00  0.75734773956E+00 -0.16386143976E+02  0.16406842488E+02  0.00000000000E+00 0. -1.
         22    1    3    3    0    0 -0.41007727571E+01  0.51394106201E+02  0.23660816124E+03  0.24216026193E+03  0.00000000000E+00 0. -1.
</event>
<event>
 7    1  0.6176857E-006  0.1670288E+03  0.7818608E-02  0.1279903E+00
          2   -1    0    0  502    0  0.00000000000E+00  0.00000000000E+00  0.19113471551E+04  0.19113471551E+04  0.00000000000E+00 0. -1.
          1   -1    0    0  501    0 -0.00000000000E+00 -0.00000000000E+00 -0.16208726231E+04  0.16208726231E+04  0.00000000000E+00 0. -1.
         25    2    1    2    0    0  0.21033872291E+03 -0.47972130953E+00 -0.57988862982E+02  0.25146211668E+03  0.12501151710E+03 0.  0.
          2    1    1    2  501    0 -0.16134841849E+03  0.35283109564E+02 -0.14609953941E+04  0.14703012452E+04  0.00000000000E+00 0. -1.
          1    1    1    2  502    0 -0.48990304422E+02 -0.34803388254E+02  0.18094587891E+04  0.18104564163E+04  0.00000000000E+00 0. -1.
         22    1    3    3    0    0  0.21430803424E+01 -0.22679074876E+02  0.17676154819E+02  0.28833655332E+02  0.00000000000E+00 0. -1.
         22    1    3    3    0    0  0.20819564257E+03  0.22199353567E+02 -0.75665017801E+02  0.22262846135E+03  0.00000000000E+00 0. -1.
</event>
<event>
 7    1  0.6176857E-006  0.1226157E+03  0.7818608E-02  0.1323044E+00
          2   -1    0    0  502    0  0.00000000000E+00  0.00000000000E+00  0.35498515264E+04  0.35498515264E+04  0.00000000000E+00 0. -1.
          1   -1    0    0  501    0 -0.00000000000E+00 -0.00000000000E+00 -0.44749462867E+03  0.44749462867E+03  0.00000000000E+00 0. -1.
         25    2    1    2    0    0 -0.32551453679E+02  0.14491403654E+03  0.29622602641E+02  0.19637286523E+03  0.12500051396E+03 0.  0.
          2    1    1    2  501    0  0.66207919066E+02 -0.10135602041E+03 -0.35382933198E+03  0.37396754885E+03  0.00000000000E+00 0. -1.
          1    1    1    2  502    0 -0.33656465387E+02 -0.43558016130E+02  0.34265636270E+04  0.34270057409E+04  0.00000000000E+00 0. -1.
         22    1    3    3    0    0  0.28087677653E+01  0.15054489752E+03  0.45368832834E+02  0.15725770677E+03  0.00000000000E+00 0.  1.
         22    1    3    3    0    0 -0.35360221444E+02 -0.56308609866E+01 -0.15746230193E+02  0.39115158460E+02  0.00000000000E+00 0.  1.
</event>
<event>
 7    1  0.6176857E-006  0.8300991E+02  0.7818608E-02  0.1469806E+00
          2   -1    0    0  502    0  0.00000000000E+00  0.00000000000E+00  0.34837503262E+03  0.34837503262E+03  0.00000000000E+00 0. -1.
          1   -1    0    0  501    0 -0.00000000000E+00 -0.00000000000E+00 -0.82016548640E+03  0.82016548640E+03  0.00000000000E+00 0. -1.
         25    2    1    2    0    0 -0.82906491652E+02 -0.59685596132E+02  0.13633144401E+02  0.16200693453E+03  0.12499810985E+03 0.  0.
          2    1    1    2  501    0  0.57717443246E+02  0.59018463845E+02 -0.74307836531E+03  0.74764960999E+03  0.00000000000E+00 0. -1.
          1    1    1    2  502    0  0.25189048405E+02  0.66713228732E+00  0.25765476713E+03  0.25888397449E+03  0.00000000000E+00 0. -1.
         22    1    3    3    0    0 -0.26204531842E+02  0.36983767279E+02  0.20454261809E+02  0.49727792605E+02  0.00000000000E+00 0.  1.
         22    1    3    3    0    0 -0.56701959810E+02 -0.96669363411E+02 -0.68211174079E+01  0.11227914192E+03  0.00000000000E+00 0.  1.
</event>
<event>
 7    1  0.6176857E-006  0.1997062E+03  0.7818608E-02  0.1177718E+00
          2   -1    0    0  502    0  0.00000000000E+00  0.00000000000E+00  0.12595151497E+04  0.12595151497E+04  0.00000000000E+00 0. -1.
          1   -1    0    0  501    0 -0.00000000000E+00 -0.00000000000E+00 -0.22831385900E+03  0.22831385900E+03  0.00000000000E+00 0. -1.
         25    2    1    2    0    0 -0.62534347342E+02  0.12031545588E+03  0.35514364252E+03  0.40017579288E+03  0.12500921912E+03 0.  0.
          2    1    1    2  501    0  0.33257614276E+02  0.14105759433E+03 -0.15723688576E+03  0.21383814456E+03  0.00000000000E+00 0. -1.
          1    1    1    2  502    0  0.29276733066E+02 -0.26137305021E+03  0.83329453391E+03  0.87381507124E+03  0.00000000000E+00 0. -1.
         22    1    3    3    0    0  0.28945182118E+02 -0.47035688511E+01  0.50137850374E+02  0.58084000963E+02  0.00000000000E+00 0.  1.
         22    1    3    3    0    0 -0.91479529460E+02  0.12501902473E+03  0.30500579214E+03  0.34209179192E+03  0.00000000000E+00 0.  1.
</event>
<event>
 7    1  0.6176857E-006  0.3840386E+02  0.7818608E-02  0.1580008E+00
          2   -1    0    0  502    0  0.00000000000E+00  0.00000000000E+00  0.17966405663E+04  0.17966405663E+04  0.00000000000E+00 0. -1.
          1   -1    0    0  501    0 -0.00000000000E+00 -0.00000000000E+00 -0.51791113000E+02  0.51791113000E+02  0.00000000000E+00 0. -1.
         25    2    1    2    0    0 -0.55831170115E+02  0.27023311388E+02  0.98273584211E+03  0.99259344481E+03  0.12499852962E+03 0.  0.
          2    1    1    2  501    0  0.29851533148E+02 -0.23881294879E+02 -0.38816492114E+02  0.54480733625E+02  0.00000000000E+00 0. -1.
          1    1    1    2  502    0  0.25979636967E+02 -0.31420165091E+01  0.80093010333E+03  0.80135750089E+03  0.00000000000E+00 0. -1.
         22    1    3    3    0    0 -0.30394994811E+01  0.58903392063E+02  0.73247618619E+03  0.73484706674E+03  0.00000000000E+00 0. -1.
         22    1    3    3    0    0 -0.52791670634E+02 -0.31880080676E+02  0.25025965591E+03  0.25774637807E+03  0.00000000000E+00 0. -1.
</event>
<event>
 7    1  0.6176857E-006  0.1555865E+03  0.7818608E-02  0.1243891E+00
          2   -1    0    0  502    0  0.00000000000E+00  0.00000000000E+00  0.10889505601E+04  0.10889505601E+04  0.00000000000E+00 0. -1.
          1   -1    0    0  501    0 -0.00000000000E+00 -0.00000000000E+00 -0.35523902838E+03  0.35523902838E+03  0.00000000000E+00 0. -1.
         25    2    1    2    0    0 -0.68904650328E+02 -0.23310351274E+03  0.39132517078E+03  0.47733193812E+03  0.12500116548E+03 0.  0.
          2    1    1    2  501    0  0.50799502309E+02  0.14309243252E+03 -0.29026339023E+03  0.32758032509E+03  0.00000000000E+00 0. -1.
          1    1    1    2  502    0  0.18105148019E+02  0.90011080220E+02  0.63264975120E+03  0.63927732530E+03  0.00000000000E+00 0. -1.
         22    1    3    3    0    0  0.33969189275E+02 -0.96109229771E+02  0.15147116227E+03  0.18257711485E+03  0.00000000000E+00 0. -1.
         22    1    3    3    0    0 -0.10287383960E+03 -0.13699428297E+03  0.23985400851E+03  0.29475482327E+03  0.00000000000E+00 0. -1.
</event>
<event>
 7    1  0.6176857E-006  0.9074943E+02  0.7818608E-02  0.1374793E+00
          2   -1    0    0  502    0  0.00000000000E+00  0.00000000000E+00  0.63408239789E+03  0.63408239789E+03  0.00000000000E+00 0. -1.
          1   -1    0    0  501    0 -0.00000000000E+00 -0.00000000000E+00 -0.11229842098E+04  0.11229842098E+04  0.00000000000E+00 0. -1.
         25    2    1    2    0    0 -0.16912674466E+02  0.11541095554E+03 -0.46677633481E+03  0.49710166058E+03  0.12499674795E+03 0.  0.
          2    1    1    2  501    0 -0.29520103157E+02 -0.37577368426E+02 -0.63682732443E+03  0.63861767611E+03  0.00000000000E+00 0. -1.
          1    1    1    2  502    0  0.46432777623E+02 -0.77833587118E+02  0.61470184730E+03  0.62134727102E+03  0.00000000000E+00 0. -1.
         22    1    3    3    0    0  0.54454614273E+02  0.51676280581E+02 -0.21757319898E+03  0.23016046556E+03  0.00000000000E+00 0. -1.
         22    1    3    3    0    0 -0.71367288739E+02  0.63734674964E+02 -0.24920313583E+03  0.26694119502E+03  0.00000000000E+00 0. -1.
</event>
<event>
 7    1  0.6176857E-006  0.9330731E+02  0.7818608E-02  0.1348895E+00
          2   -1    0    0  502    0  0.00000000000E+00  0.00000000000E+00  0.11860994056E+04  0.11860994056E+04  0.00000000000E+00 0. -1.
          1   -1    0    0  501    0 -0.00000000000E+00 -0.00000000000E+00 -0.39270361103E+02  0.39270361103E+02  0.00000000000E+00 0. -1.
         25    2    1    2    0    0 -0.28061017017E+02 -0.55320501532E+02  0.40327886707E+03  0.42674061815E+03  0.12500372790E+03 0.  0.
          2    1    1    2  501    0  0.29043941977E+02 -0.49905341338E+02  0.11275633374E+02  0.58832249385E+02  0.00000000000E+00 0. -1.
          1    1    1    2  502    0 -0.98292496069E+00  0.10522584287E+03  0.73227454402E+03  0.73979689914E+03  0.00000000000E+00 0. -1.
         22    1    3    3    0    0  0.19909094251E+02  0.16436103291E+02  0.16943066351E+02  0.30880171999E+02  0.00000000000E+00 0. -1.
         22    1    3    3    0    0 -0.47970111268E+02 -0.71756604823E+02  0.38633580071E+03  0.39586044615E+03  0.00000000000E+00 0. -1.
</event>
<event>
 7    1  0.6176857E-006  0.6521815E+02  0.7818608E-02  0.1396588E+00
          2   -1    0    0  502    0  0.00000000000E+00  0.00000000000E+00  0.14959839592E+04  0.14959839592E+04  0.00000000000E+00 0. -1.
          1   -1    0    0  501    0 -0.00000000000E+00 -0.00000000000E+00 -0.11367911220E+03  0.11367911220E+03  0.00000000000E+00 0. -1.
         25    2    1    2    0    0  0.99823528038E+02  0.63639090933E+02  0.34324604508E+03  0.38400046515E+03  0.12499535642E+03 0.  0.
          2    1    1    2  501    0 -0.49117477739E+02 -0.26368194333E+02 -0.84014375015E+02  0.10082769213E+03  0.00000000000E+00 0. -1.
          1    1    1    2  502    0 -0.50706050299E+02 -0.37270896600E+02  0.11230731770E+04  0.11248349142E+04  0.00000000000E+00 0. -1.
         22    1    3    3    0    0  0.79952660307E+02  0.98318230999E+02  0.21390530086E+03  0.24862497898E+03  0.00000000000E+00 0. -1.
         22    1    3    3    0    0  0.19870867731E+02 -0.34679140067E+02  0.12934074422E+03  0.13537548617E+03  0.00000000000E+00 0. -1.
</event>
<event>
 7    1  0.6176857E-006  0.7903582E+02  0.7818608E-02  0.1425831E+00
          2   -1    0    0  502    0  0.00000000000E+00  0.00000000000E+00  0.21068572072E+04  0.21068572072E+04  0.00000000000E+00 0. -1.
          1   -1    0    0  501    0 -0.00000000000E+00 -0.00000000000E+00 -0.10354496744E+02  0.10354496744E+02  0.00000000000E+00 0. -1.
         25    2    1    2    0    0  0.88742141303E+02 -0.30136268522E+02  0.10778122135E+04  0.10890766168E+04  0.12500138954E+03 0.  0.
          2    1    1    2  501    0 -0.30901522645E+02 -0.19668827523E+02  0.10394151072E+03  0.11020709836E+03  0.00000000000E+00 0. -1.
          1    1    1    2  502    0 -0.57840618657E+02  0.49805096045E+02  0.91474898624E+03  0.91792798878E+03  0.00000000000E+00 0. -1.
         22    1    3    3    0    0  0.27903889601E+02 -0.73084353023E+02  0.66668808857E+03  0.67126221192E+03  0.00000000000E+00 0.  1.
         22    1    3    3    0    0  0.60838251702E+02  0.42948084501E+02  0.41112412491E+03  0.41781440486E+03  0.00000000000E+00 0.  1.
</event>
<event>
 7    1  0.6176857E-006  0.8333061E+02  0.7818608E-02  0.1368143E+00
          2   -1    0    0  502    0  0.00000000000E+00  0.00000000000E+00  0.14730528187E+03  0.14730528187E+03  0.00000000000E+00 0. -1.
          1   -1    0    0  501    0 -0.00000000000E+00 -0.00000000000E+00 -0.56020574920E+03  0.56020574920E+03  0.00000000000E+00 0. -1.
         25    2    1    2    0    0  0.90417066379E+02  0.10022754009E+03 -0.21282940576E+03  0.28132296785E+03  0.12500180238E+03 0.  0.
          2    1    1    2  501    0 -0.39922892174E+02 -0.37799681771E+02 -0.29601629612E+03  0.30107856256E+03  0.00000000000E+00 0. -1.
          1    1    1    2  502    0 -0.50494174205E+02 -0.62427858322E+02  0.95945234548E+02  0.12510950066E+03  0.00000000000E+00 0. -1.
         22    1    3    3    0    0  0.11838259455E+03  0.67891953203E+02 -0.18656012830E+03  0.23114592247E+03  0.00000000000E+00 0.  1.
         22    1    3    3    0    0 -0.27965528168E+02  0.32335586889E+02 -0.26269277456E+02  0.50177045382E+02  0.00000000000E+00 0.  1.
</event>
<event>
 7    1  0.6176857E-006  0.9386222E+02  0.7818608E-02  0.1359461E+00
          2   -1    0    0  502    0  0.00000000000E+00  0.00000000000E+00  0.97821132067E+03  0.97821132067E+03  0.00000000000E+00 0. -1.
          1   -1    0    0  501    0 -0.00000000000E+00 -0.00000000000E+00 -0.25732378558E+04  0.25732378558E+04  0.00000000000E+00 0. -1.
         25    2    1    2    0    0  0.62558256518E+01 -0.11703990046E+03  0.12800384906E+03  0.21388768187E+03  0.12500192571E+03 0.  0.
          2    1    1    2  501    0 -0.45401777508E+02  0.82083305930E+02 -0.25285723687E+04  0.25303116833E+04  0.00000000000E+00 0. -1.
          1    1    1    2  502    0  0.39145951856E+02  0.34956594527E+02  0.80554198454E+03  0.80724981134E+03  0.00000000000E+00 0. -1.
         22    1    3    3    0    0 -0.35427377712E+02 -0.62856075624E+02  0.12635637681E+03  0.14550573630E+03  0.00000000000E+00 0.  1.
         22    1    3    3    0    0  0.41683203364E+02 -0.54183824834E+02  0.16474722461E+01  0.68381945578E+02  0.00000000000E+00 0.  1.
</event>
<event>
 7    1  0.6176857E-006  0.1554207E+03  0.7818608E-02  0.1334360E+00
          2   -1    0    0  502    0  0.00000000000E+00  0.00000000000E+00  0.80501731482E+03  0.80501731482E+03  0.00000000000E+00 0. -1.
          1   -1    0    0  501    0 -0.00000000000E+00 -0.00000000000E+00 -0.17049903991E+03  0.17049903991E+03  0.00000000000E+00 0. -1.
         25    2    1    2    0    0  0.13875463909E+03 -0.11600397364E+03  0.53942129608E+03  0.58250485938E+03  0.12500721885E+03 0.  0.
          2    1    1    2  501    0 -0.13303693072E+03  0.77117334487E+02 -0.10686573891E+03  0.18725969766E+03  0.00000000000E+00 0. -1.
          1    1    1    2  502    0 -0.57177083638E+01  0.38886639153E+02  0.20196271774E+03  0.20575179769E+03  0.00000000000E+00 0. -1.
         22    1    3    3    0    0  0.77968173792E+02 -0.71781355430E+02  0.13743772078E+03  0.17355323738E+03  0.00000000000E+00 0.  1.
         22    1    3    3    0    0  0.60786465296E+02 -0.44222618210E+02  0.40198357529E+03  0.40895162199E+03  0.00000000000E+00 0.  1.
</event>
<event>
 7    1  0.6176857E-006  0.1119588E+03  0.7818608E-02  0.1288361E+00
          2   -1    0    0  502    0  0.00000000000E+00  0.00000000000E+00  0.10838843309E+04  0.10838843309E+04  0.00000000000E+00 0. -1.
          1   -1    0    0  501    0 -0.00000000000E+00 -0.00000000000E+00 -0.15701923162E+03  0.15701923162E+03  0.00000000000E+00 0. -1.
         25    2    1    2    0    0 -0.47514624204E+02  0.12208123364E+03  0.51681169950E+03  0.54761328337E+03  0.12499803303E+03 0.  0.
          2    1    1    2  501    0  0.97366413109E+02 -0.56015399635E+02 -0.11558474954E+03  0.16117623189E+03  0.00000000000E+00 0. -1.
          1    1    1    2  502    0 -0.49851788905E+02 -0.66065834006E+02  0.52563814929E+03  0.53211404724E+03  0.00000000000E+00 0. -1.
         22    1    3    3    0    0 -0.37957357315E+02  0.10407327669E+03  0.51540726503E+03  0.52717801239E+03  0.00000000000E+00 0. -1.
         22    1    3    3    0    0 -0.95572668888E+01  0.18007956946E+02  0.14044344645E+01  0.20435270978E+02  0.00000000000E+00 0. -1.
</event>
<event>
 7    1  0.6176857E-006  0.1272530E+03  0.7818608E-02  0.1348530E+00
          2   -1    0    0  502    0  0.00000000000E+00  0.00000000000E+00  0.11172458034E+04  0.11172458034E+04  0.00000000000E+00 0. -1.
          1   -1    0    0  501    0 -0.00000000000E+00 -0.00000000000E+00 -0.64976687191E+03  0.64976687191E+03  0.00000000000E+00 0. -1.
         25    2    1    2    0    0  0.35369511682E+02 -0.80719415690E+02  0.63731331319E+03  0.65540822942E+03  0.12500024639E+03 0.  0.
          2    1    1    2  501    0 -0.33576496014E+02  0.12315259712E+03 -0.63338130498E+03  0.64611594993E+03  0.00000000000E+00 0. -1.
          1    1    1    2  502    0 -0.17930156685E+01 -0.42433181430E+02  0.46354692331E+03  0.46548849600E+03  0.00000000000E+00 0. -1.
         22    1    3    3    0    0 -0.24196361054E+02  0.70684580636E+01  0.31345955746E+02  0.40224320122E+02  0.00000000000E+00 0.  1.
         22    1    3    3    0    0  0.59565872736E+02 -0.87787873753E+02  0.60596735745E+03  0.61518390930E+03  0.00000000000E+00 0.  1.
</event>
<event>
 7    1  0.6176857E-006  0.5514630E+02  0.7818608E-02  0.1554020E+00
          2   -1    0    0  502    0  0.00000000000E+00  0.00000000000E+00  0.24358843840E+04  0.24358843840E+04  0.00000000000E+00 0. -1.
          1   -1    0    0  501    0 -0.00000000000E+00 -0.00000000000E+00 -0.56058307991E+02  0.56058307991E+02  0.00000000000E+00 0. -1.
         25    2    1    2    0    0  0.48508306194E+02 -0.53559235956E+02  0.10243829288E+04  0.10345079343E+04  0.12499853569E+03 0.  0.
          2    1    1    2  501    0 -0.19721450569E+02  0.84488610603E+01 -0.48206517587E+02  0.52765397787E+02  0.00000000000E+00 0. -1.
          1    1    1    2  502    0 -0.28786855625E+02  0.45110374895E+02  0.14036496649E+04  0.14046693599E+04  0.00000000000E+00 0. -1.
         22    1    3    3    0    0 -0.12110860161E+02  0.31936815180E+02  0.14852925272E+03  0.15240594480E+03  0.00000000000E+00 0. -1.
         22    1    3    3    0    0  0.60619166355E+02 -0.85496051135E+02  0.87585367604E+03  0.88210198952E+03  0.00000000000E+00 0. -1.
</event>
<event>
 7    1  0.6176857E-006  0.6127165E+02  0.7818608E-02  0.1410844E+00
          2   -1    0    0  502    0  0.00000000000E+00  0.00000000000E+00  0.73838355407E+03  0.73838355407E+03  0.00000000000E+00 0. -1.
          1   -1    0    0  501    0 -0.00000000000E+00 -0.00000000000E+00 -0.85988117513E+02  0.85988117513E+02  0.00000000000E+00 0. -1.
         25    2    1    2    0    0  0.91901890513E+02 -0.16156002532E+02  0.86047840989E+02  0.17814894574E+03  0.12500336808E+03 0.  0.
          2    1    1    2  501    0 -0.43564318768E+02  0.37982844434E+02 -0.17174573821E+02  0.60295209818E+02  0.00000000000E+00 0. -1.
          1    1    1    2  502    0 -0.48337571745E+02 -0.21826841903E+02  0.58352216939E+03  0.58592751602E+03  0.00000000000E+00 0. -1.
         22    1    3    3    0    0  0.26666850397E+00  0.54148740544E+01 -0.28995158883E+02  0.29497647563E+02  0.00000000000E+00 0. -1.
         22    1    3    3    0    0  0.91635222009E+02 -0.21570876586E+02  0.11504299987E+03  0.14865129817E+03  0.00000000000E+00 0. -1.
</event>
<event>
 7    1  0.6176857E-006  0.1154169E+03  0.7818608E-02  0.1322748E+00
          2   -1    0    0  502    0  0.00000000000E+00  0.00000000000E+00  0.54620181946E+03  0.54620181946E+03  0.00000000000E+00 0. -1.
          1   -1    0    0  501    0 -0.00000000000E+00 -0.00000000000E+00 -0.28455711907E+03  0.28455711907E+03  0.00000000000E+00 0. -1.
         25    2    1    2    0    0  0.12540132102E+03 -0.10695690170E+03  0.27883261233E+03  0.34718570058E+03  0.12500005942E+03 0.  0.
          2    1    1    2  501    0 -0.69312550072E+02  0.89870621674E+02 -0.23341102744E+03  0.25954126063E+03  0.00000000000E+00 0. -1.
          1    1    1    2  502    0 -0.56088770950E+02  0.17086280021E+02  0.21622311550E+03  0.22403197733E+03  0.00000000000E+00 0. -1.
         22    1    3    3    0    0  0.14958272047E+03 -0.92796153019E+02  0.21790440478E+03  0.28012219816E+03  0.00000000000E+00 0.  1.
         22    1    3    3    0    0 -0.24181399445E+02 -0.14160748676E+02  0.60928207545E+02  0.67063502420E+02  0.00000000000E+00 0.  1.
</event>
<event>
 7    1  0.6176857E-006  0.7908431E+02  0.7818608E-02  0.1350613E+00
          2   -1    0    0  502    0  0.00000000000E+00  0.00000000000E+00  0.23463255842E+04  0.23463255842E+04  0.00000000000E+00 0. -1.
          1   -1    0    0  501    0 -0.00000000000E+00 -0.00000000000E+00 -0.10115109521E+03  0.10115109521E+03  0.00000000000E+00 0. -1.
         25    2    1    2    0    0  0.19805168854E+02 -0.61078198043E+02  0.45270698065E+03  0.47401580795E+03  0.12499833946E+03 0.  0.
          2    1    1    2  501    0 -0.66809545178E+02 -0.65993090726E+01 -0.77012120422E+02  0.10216620233E+03  0.00000000000E+00 0. -1.
          1    1    1    2  502    0  0.47004376324E+02  0.67677507115E+02  0.18694796288E+04  0.18712946692E+04  0.00000000000E+00 0. -1.
         22    1    3    3    0    0 -0.13036723569E+02 -0.62880664628E+02  0.42822478756E+03  0.43301316703E+03  0.00000000000E+00 0.  1.
         22    1    3    3    0    0  0.32841892422E+02  0.18024665852E+01  0.24482193094E+02  0.41002640920E+02  0.00000000000E+00 0.  1.
</event>
<event>
 7    1  0.6176857E-006  0.1176608E+03  0.7818608E-02  0.1286726E+00
          2   -1    0    0  502    0  0.00000000000E+00  0.00000000000E+00  0.24169513757E+04  0.24169513757E+04  0.00000000000E+00 0. -1.
          1   -1    0    0  501    0 -0.00000000000E+00 -0.00000000000E+00 -0.69243294014E+03  0.69243294014E+03  0.00000000000E+00 0. -1.
         25    2    1    2    0    0  0.45747260635E+02  0.31110567857E+02  0.28725671736E+03  0.31812232576E+03  0.12499885277E+03 0.  0.
          2    1    1    2  501    0 -0.42581381935E+02 -0.11102106348E+03 -0.67101500996E+03  0.68146899725E+03  0.00000000000E+00 0. -1.
          1    1    1    2  502    0 -0.31658787006E+01  0.79910495622E+02  0.21082767282E+04  0.21097929929E+04  0.00000000000E+00 0. -1.
         22    1    3    3    0    0  0.66468049708E+01  0.66466691442E+02  0.79773636322E+02  0.10404726878E+03  0.00000000000E+00 0.  1.
         22    1    3    3    0    0  0.39100455665E+02 -0.35356123585E+02  0.20748308104E+03  0.21407505699E+03  0.00000000000E+00 0.  1.
</event>
<event>
 7    1  0.6176857E-006  0.1170978E+03  0.7818608E-02  0.1415572E+00
          2   -1    0    0  502    0  0.00000000000E+00  0.00000000000E+00  0.47211794345E+03  0.47211794345E+03  0.00000000000E+00 0. -1.
          1   -1    0    0  501    0 -0.00000000000E+00 -0.00000000000E+00 -0.13603324122E+03  0.13603324122E+03  0.00000000000E+00 0. -1.
         25    2    1    2    0    0  0.92245705928E+02  0.35117903790E+02  0.33152594269E+03  0.36780093320E+03  0.12500215339E+03 0.  0.
          2    1    1    2  501    0 -0.10268894792E+03 -0.59746432479E+02 -0.85519361702E+02  0.14638380186E+03  0.00000000000E+00 0. -1.
          1    1    1    2  502    0  0.10443241996E+02  0.24628528689E+02  0.90078121235E+02  0.93966449619E+02  0.00000000000E+00 0. -1.
         22    1    3    3    0    0  0.78802595270E+02 -0.25223729712E+02  0.10899843304E+03  0.13684569400E+03  0.00000000000E+00 0. -1.
         22    1    3    3    0    0  0.13443110658E+02  0.60341633502E+02  0.22252750966E+03  0.23095523920E+03  0.00000000000E+00 0. -1.
</event>
<event>
 7    1  0.6176857E-006  0.1195052E+03  0.7818608E-02  0.1408126E+00
          2   -1    0    0  502    0  0.00000000000E+00  0.00000000000E+00  0.13674795215E+04  0.13674795215E+04  0.00000000000E+00 0. -1.
          1   -1    0    0  501    0 -0.00000000000E+00 -0.00000000000E+00 -0.27262648173E+03  0.27262648173E+03  0.00000000000E+00 0. -1.
         25    2    1    2    0    0 -0.11547974456E+03 -0.32060752447E+02  0.66354100170E+03  0.68576714426E+03  0.12500580767E+03 0.  0.
          2    1    1    2  501    0  0.10473267442E+03  0.57673416414E+02 -0.24754875725E+03  0.27491006397E+03  0.00000000000E+00 0. -1.
          1    1    1    2  502    0  0.10747070134E+02 -0.25612663967E+02  0.67886079535E+03  0.67942879504E+03  0.00000000000E+00 0. -1.
         22    1    3    3    0    0 -0.13122882851E+03 -0.45087266404E+02  0.63869963163E+03  0.65359856676E+03  0.00000000000E+00 0. -1.
         22    1    3    3    0    0  0.15749083952E+02  0.13026513957E+02  0.24841370066E+02  0.32168577494E+02  0.00000000000E+00 0. -1.
</event>
<event>
 7    1  0.6176857E-006  0.1030328E+03  0.7818608E-02  0.1364136E+00
          2   -1    0    0  502    0  0.00000000000E+00  0.00000000000E+00  0.12449572800E+04  0.12449572800E+04  0.00000000000E+00 0. -1.
          1   -1    0    0  501    0 -0.00000000000E+00 -0.00000000000E+00 -0.95389906688E+02  0.95389906688E+02  0.00000000000E+00 0. -1.
         25    2    1    2    0    0  0.61217028692E+02 -0.96430881364E+02  0.65712265455E+03  0.67858858332E+03  0.12500337116E+03 0.  0.
          2    1    1    2  501    0 -0.45840086147E+02 -0.35048556562E+01 -0.73586507463E+02  0.86767341735E+02  0.00000000000E+00 0. -1.
          1    1    1    2  502    0 -0.15376942545E+02  0.99935737021E+02  0.56603122623E+03  0.57499126164E+03  0.00000000000E+00 0. -1.
         22    1    3    3    0    0  0.77007232610E+02 -0.27176668732E+02  0.49353039956E+03  0.50024088246E+03  0.00000000000E+00 0. -1.
         22    1    3    3    0    0 -0.15790203917E+02 -0.69254212633E+02  0.16359225500E+03  0.17834770086E+03  0.00000000000E+00 0. -1.
</event>
<event>
 7    1  0.6176857E-006  0.3178822E+02  0.7818608E-02  0.1623203E+00
          2   -1    0    0  502    0  0.00000000000E+00  0.00000000000E+00  0.90378385962E+02  0.90378385962E+02  0.00000000000E+00 0. -1.
          1   -1    0    0  501    0 -0.00000000000E+00 -0.00000000000E+00 -0.89416114804E+03  0.89416114804E+03  0.00000000000E+00 0. -1.
         25    2    1    2    0    0  0.35095130056E+02  0.27323209031E+02 -0.64729099877E+02  0.14763292568E+03  0.12500959350E+03 0.  0.
          2    1    1    2  501    0 -0.24287738096E+02  0.22493434236E+01 -0.78270496840E+03  0.78308493877E+03  0.00000000000E+00 0. -1.
          1    1    1    2  502    0 -0.10807391960E+02 -0.29572552455E+02  0.43651306205E+02  0.53821669549E+02  0.00000000000E+00 0. -1.
         22    1    3    3    0    0 -0.47994941785E+01 -0.46496378040E+02 -0.35793560667E+02  0.58873825257E+02  0.00000000000E+00 0. -1.
         22    1    3    3    0    0  0.39894624234E+02  0.73819587072E+02 -0.28935539210E+02  0.88759100421E+02  0.00000000000E+00 0. -1.
</event>
<event>
 7    1  0.6176857E-006  0.7147203E+02  0.7818608E-02  0.1520883E+00
          2   -1    0    0  502    0  0.00000000000E+00  0.00000000000E+00  0.71980780569E+02  0.71980780569E+02  0.00000000000E+00 0. -1.
          1   -1    0    0  501    0 -0.00000000000E+00 -0.00000000000E+00 -0.12872806461E+04  0.12872806461E+04  0.00000000000E+00 0. -1.
         25    2    1    2    0    0 -0.20240185380E+01  0.52483120193E+02 -0.14129469232E+03  0.19582286523E+03  0.12499531957E+03 0.  0.
          2    1    1    2  501    0 -0.38032173283E+01 -0.72194568757E+02 -0.11151257894E+04  0.11174667988E+04  0.00000000000E+00 0. -1.
          1    1    1    2  502    0  0.58272358664E+01  0.19711448564E+02  0.41120616202E+02  0.45971762629E+02  0.00000000000E+00 0. -1.
         22    1    3    3    0    0 -0.61105865536E+02  0.45163840601E+02 -0.82186810956E+02  0.11193020681E+03  0.00000000000E+00 0. -1.
         22    1    3    3    0    0  0.59081846998E+02  0.73192795920E+01 -0.59107881359E+02  0.83892658423E+02  0.00000000000E+00 0. -1.
</event>
<event>
 7    1  0.6176857E-006  0.1233059E+03  0.7818608E-02  0.1379501E+00
          2   -1    0    0  502    0  0.00000000000E+00  0.00000000000E+00  0.47916897511E+03  0.47916897511E+03  0.00000000000E+00 0. -1.
          1   -1    0    0  501    0 -0.00000000000E+00 -0.00000000000E+00 -0.18289672258E+03  0.18289672258E+03  0.00000000000E+00 0. -1.
         25    2    1    2    0    0  0.87867836397E+02  0.11619819052E+03  0.58888720704E+02  0.20078460188E+03  0.12499519499E+03 0.  0.
          2    1    1    2  501    0 -0.84622872876E+02 -0.82515243887E+02 -0.79598398580E+02  0.14249807418E+03  0.00000000000E+00 0. -1.
          1    1    1    2  502    0 -0.32449635208E+01 -0.33682946633E+02  0.31698193040E+03  0.31878302164E+03  0.00000000000E+00 0. -1.
         22    1    3    3    0    0  0.10806295092E+03  0.12259616259E+03  0.31956556115E+02  0.16651919386E+03  0.00000000000E+00 0.  1.
         22    1    3    3    0    0 -0.20195114526E+02 -0.63979720702E+01  0.26932164588E+02  0.34265408020E+02  0.00000000000E+00 0.  1.
</event>
<event>
 7    1  0.6176857E-006  0.1267152E+03  0.7818608E-02  0.1354703E+00
          2   -1    0    0  502    0  0.00000000000E+00  0.00000000000E+00  0.11456790814E+04  0.11456790814E+04  0.00000000000E+00 0. -1.
          1   -1    0    0  501    0 -0.00000000000E+00 -0.00000000000E+00 -0.78198511022E+03  0.78198511022E+03  0.00000000000E+00 0. -1.
         25    2    1    2    0    0 -0.99705925938E+02 -0.11352636388E+02  0.77094174654E+02  0.17787290158E+03  0.12500041332E+03 0.  0.
          2    1    1    2  501    0 -0.28172984826E+02  0.29051086784E+02 -0.72693860255E+03  0.72806415555E+03  0.00000000000E+00 0. -1.
          1    1    1    2  502    0  0.12787891076E+03 -0.17698450396E+02  0.10135383991E+04  0.10217271345E+04  0.00000000000E+00 0. -1.
         22    1    3    3    0    0  0.28559339841E+02 -0.16944107949E+00  0.15657584114E+01  0.28602730671E+02  0.00000000000E+00 0. -1.
         22    1    3    3    0    0 -0.12826526578E+03 -0.11183195309E+02  0.75528416243E+02  0.14927017091E+03  0.00000000000E+00 0. -1.
</event>
<event>
 7    1  0.6176857E-006  0.1296867E+03  0.7818608E-02  0.1234802E+00
          2   -1    0    0  502    0  0.00000000000E+00  0.00000000000E+00  0.22834698838E+04  0.22834698838E+04  0.00000000000E+00 0. -1.
          1   -1    0    0  501    0 -0.00000000000E+00 -0.00000000000E+00 -0.27644177156E+03  0.27644177156E+03  0.00000000000E+00 0. -1.
         25    2    1    2    0    0  0.43787234702E+02  0.13318265442E+03  0.44210233124E+03  0.48034846708E+03  0.12500094870E+03 0.  0.
          2    1    1    2  501    0  0.74401380197E+02 -0.10814073269E+03 -0.23842511057E+03  0.27217001450E+03  0.00000000000E+00 0. -1.
          1    1    1    2  502    0 -0.11818861490E+03 -0.25041921734E+02  0.18033508916E+04  0.18073931738E+04  0.00000000000E+00 0. -1.
         22    1    3    3    0    0 -0.31067012711E+02  0.24625073675E+02  0.36636296865E+02  0.53979364393E+02  0.00000000000E+00 0. -1.
         22    1    3    3    0    0  0.74854247414E+02  0.10855758075E+03  0.40546603437E+03  0.42636910269E+03  0.00000000000E+00 0. -1.
</event>
<event>
 7    1  0.6176857E-006  0.8316798E+02  0.7818608E-02  0.1406119E+00
          2   -1    0    0  502    0  0.00000000000E+00  0.00000000000E+00  0.19171885688E+02  0.19171885688E+02  0.00000000000E+00 0. -1.
          1   -1    0    0  501    0 -0.00000000000E+00 -0.00000000000E+00 -0.30773383512E+04  0.30773383512E+04  0.00000000000E+00 0. -1.
         25    2    1    2    0    0  0.73793727572E+02 -0.83441670920E+02 -0.83003914541E+03  0.84675781615E+03  0.12500315842E+03 0.  0.
          2    1    1    2  501    0 -0.83002261001E+01  0.39685658469E+02 -0.20926461253E+04  0.20930388556E+04  0.00000000000E+00 0. -1.
          1    1    1    2  502    0 -0.65493501472E+02  0.43756012451E+02 -0.13548119480E+03  0.15671356516E+03  0.00000000000E+00 0. -1.
         22    1    3    3    0    0  0.93237030566E+02 -0.30583562738E+02 -0.66891651117E+03  0.67607528952E+03  0.00000000000E+00 0. -1.
         22    1    3    3    0    0 -0.19443302993E+02 -0.52858108182E+02 -0.16112263424E+03  0.17068252663E+03  0.00000000000E+00 0. -1.
</event>
<event>
 7    1  0.6176857E-006  0.1287773E+03  0.7818608E-02  0.1429968E+00
          2   -1    0    0  502    0  0.00000000000E+00  0.00000000000E+00  0.43073174052E+03  0.43073174052E+03  0.00000000000E+00 0. -1.
          1   -1    0    0  501    0 -0.00000000000E+00 -0.00000000000E+00 -0.16843300701E+04  0.16843300701E+04  0.00000000000E+00 0. -1.
         25    2    1    2    0    0  0.37274440339E+02 -0.10418046394E+03 -0.78978270771E+02  0.18467808423E+03  0.12500189827E+03 0.  0.
          2    1    1    2  501    0 -0.54242440945E+02  0.11784365720E+03 -0.15494750474E+04  0.15548962321E+04  0.00000000000E+00 0. -1.
          1    1    1    2  502    0  0.16968000606E+02 -0.13663193252E+02  0.37485498861E+03  0.37548749431E+03  0.00000000000E+00 0. -1.
         22    1    3    3    0    0 -0.44937566454E+02 -0.53202827351E+02 -0.40576313950E+02  0.80600018429E+02  0.00000000000E+00 0. -1.
         22    1    3    3    0    0  0.82212006792E+02 -0.50977636594E+02 -0.38401956820E+02  0.10407806580E+03  0.00000000000E+00 0. -1.
</event>
<event>
 7    1  0.6176857E-006  0.9967981E+02  0.7818608E-02  0.1468384E+00
          2   -1    0    0  502    0  0.00000000000E+00  0.00000000000E+00  0.11765963278E+03  0.11765963278E+03  0.00000000000E+00 0. -1.
          1   -1    0    0  501    0 -0.00000000000E+00 -0.00000000000E+00 -0.43380779870E+03  0.43380779870E+03  0.00000000000E+00 0. -1.
         25    2    1    2    0    0 -0.87369416477E+02 -0.58775589532E+02 -0.29473588415E+03  0.33701815465E+03  0.12499604114E+03 0.  0.
          2    1    1    2  501    0  0.87616542959E+02  0.37578104031E+02 -0.96963385720E+02  0.13598040547E+03  0.00000000000E+00 0. -1.
          1    1    1    2  502    0 -0.24712648194E+00  0.21197485501E+02  0.75551103954E+02  0.78468871355E+02  0.00000000000E+00 0. -1.
         22    1    3    3    0    0  0.21594923942E+01 -0.66148965902E+02 -0.17668829605E+03  0.18867724573E+03  0.00000000000E+00 0.  1.
         22    1    3    3    0    0 -0.89528908871E+02  0.73733763704E+01 -0.11804758810E+03  0.14834090892E+03  0.00000000000E+00 0.  1.
</event>
<event>
 7    1  0.6176857E-006  0.7147089E+02  0.7818608E-02  0.1411076E+00
          2   -1    0    0  502    0  0.00000000000E+00  0.00000000000E+00  0.46665822114E+02  0.46665822114E+02  0.00000000000E+00 0. -1.
          1   -1    0    0  501    0 -0.00000000000E+00 -0.00000000000E+00 -0.51359687331E+03  0.51359687331E+03  0.00000000000E+00 0. -1.
         25    2    1    2    0    0  0.95677160851E+02 -0.10292676505E+02 -0.28990884119E+03  0.33004822765E+03  0.12499855231E+03 0.  0.
          2    1    1    2  501    0 -0.56660974306E+02  0.33480214748E+02 -0.17246999700E+03  0.18460035388E+03  0.00000000000E+00 0. -1.
          1    1    1    2  502    0 -0.39016186545E+02 -0.23187538243E+02 -0.45522130063E+01  0.45614113885E+02  0.00000000000E+00 0. -1.
         22    1    3    3    0    0 -0.86036771994E+01 -0.45211379787E+02 -0.64410259306E+02  0.79162956157E+02  0.00000000000E+00 0.  1.
         22    1    3    3    0    0  0.10428083805E+03  0.34918703281E+02 -0.22549858188E+03  0.25088527150E+03  0.00000000000E+00 0.  1.
</event>
<event>
 7    1  0.6176857E-006  0.2681854E+02  0.7818608E-02  0.1666068E+00
          2   -1    0    0  502    0  0.00000000000E+00  0.00000000000E+00  0.75891670135E+03  0.75891670135E+03  0.00000000000E+00 0. -1.
          1   -1    0    0  501    0 -0.00000000000E+00 -0.00000000000E+00 -0.64947568683E+02  0.64947568683E+02  0.00000000000E+00 0. -1.
         25    2    1    2    0    0 -0.35230798372E+02  0.31285816523E+02  0.47293285182E+03  0.49143619072E+03  0.12499614297E+03 0.  0.
          2    1    1    2  501    0  0.24054313775E+02 -0.11575641951E+02 -0.52000794332E+02  0.58452443140E+02  0.00000000000E+00 0. -1.
          1    1    1    2  502    0  0.11176484597E+02 -0.19710174571E+02  0.27303707519E+03  0.27397563617E+03  0.00000000000E+00 0. -1.
         22    1    3    3    0    0 -0.76336143539E+02  0.46335062154E+02  0.33691186423E+03  0.34854518940E+03  0.00000000000E+00 0.  1.
         22    1    3    3    0    0  0.41105345167E+02 -0.15049245631E+02  0.13602098758E+03  0.14289100132E+03  0.00000000000E+00 0.  1.
</event>
<event>
 7    1  0.6176857E-006  0.2441281E+03  0.7818608E-02  0.1309250E+00
          2   -1    0    0  502    0  0.00000000000E+00  0.00000000000E+00  0.56904815871E+03  0.56904815871E+03  0.00000000000E+00 0. -1.
          1   -1    0    0  501    0 -0.00000000000E+00 -0.00000000000E+00 -0.12794888922E+04  0.12794888922E+04  0.00000000000E+00 0. -1.
         25    2    1    2    0    0  0.23615307546E+03  0.13526856950E+03 -0.78643855637E+02  0.30963754669E+03  0.12499877340E+03 0.  0.
          2    1    1    2  501    0 -0.20837816358E+03 -0.12084554848E+03 -0.10714194958E+04  0.10981643054E+04  0.00000000000E+00 0. -1.
          1    1    1    2  502    0 -0.27774911879E+02 -0.14423021019E+02  0.43962261795E+03  0.44073519882E+03  0.00000000000E+00 0. -1.
         22    1    3    3    0    0  0.53069123240E+02 -0.20669222666E+02 -0.29641614617E+02  0.64204158153E+02  0.00000000000E+00 0. -1.
         22    1    3    3    0    0  0.18308395221E+03  0.15593779217E+03 -0.49002241020E+02  0.24543338854E+03  0.00000000000E+00 0. -1.
</event>
<event>
 7    1  0.6176857E-006  0.1546263E+03  0.7818608E-02  0.1325515E+00
          2   -1    0    0  502    0  0.00000000000E+00  0.00000000000E+00  0.56459748919E+03  0.56459748919E+03  0.00000000000E+00 0. -1.
          1   -1    0    0  501    0 -0.00000000000E+00 -0.00000000000E+00 -0.17698857844E+03  0.17698857844E+03  0.00000000000E+00 0. -1.
         25    2    1    2    0    0  0.81919378656E+02  0.92499191444E+02  0.17971666338E+03  0.25137382260E+03  0.12499533821E+03 0.  0.
          2    1    1    2  501    0 -0.12271762245E+03 -0.10511252795E+03 -0.92913893577E+02  0.18639004804E+03  0.00000000000E+00 0. -1.
          1    1    1    2  502    0  0.40798243790E+02  0.12613336501E+02  0.30080614094E+03  0.30382219699E+03  0.00000000000E+00 0. -1.
         22    1    3    3    0    0  0.11428889331E+03  0.57006276416E+02  0.13131619628E+03  0.18318190437E+03  0.00000000000E+00 0.  1.
         22    1    3    3    0    0 -0.32369514650E+02  0.35492915028E+02  0.48400467105E+02  0.68191918230E+02  0.00000000000E+00 0.  1.
</event>
<event>
 7    1  0.6176857E-006  0.1253740E+03  0.7818608E-02  0.1288923E+00
          2   -1    0    0  502    0  0.00000000000E+00  0.00000000000E+00  0.55633563318E+03  0.55633563318E+03  0.00000000000E+00 0. -1.
          1   -1    0    0  501    0 -0.00000000000E+00 -0.00000000000E+00 -0.13780337970E+03  0.13780337970E+03  0.00000000000E+00 0. -1.
         25    2    1    2    0    0 -0.83034502653E+02 -0.48777248318E+01  0.19393806205E+03  0.24526649632E+03  0.12500064590E+03 0.  0.
          2    1    1    2  501    0 -0.73370208833E+02 -0.46864902543E+01 -0.78572244576E+02  0.10760459262E+03  0.00000000000E+00 0. -1.
          1    1    1    2  502    0  0.15640471149E+03  0.95642150861E+01  0.30316643602E+03  0.34126792394E+03  0.00000000000E+00 0. -1.
         22    1    3    3    0    0 -0.32305817711E+02 -0.47968466661E+02  0.16086022743E+03  0.17094049380E+03  0.00000000000E+00 0. -1.
         22    1    3    3    0    0 -0.50728684941E+02  0.43090741829E+02  0.33077834613E+02  0.74326002515E+02  0.00000000000E+00 0. -1.
</event>
<event>
 7    1  0.6176857E-006  0.6702716E+02  0.7818608E-02  0.1421425E+00
          2   -1    0    0  502    0  0.00000000000E+00  0.00000000000E+00  0.25176630245E+04  0.25176630245E+04  0.00000000000E+00 0. -1.
          1   -1    0    0  501    0 -0.00000000000E+00 -0.00000000000E+00 -0.72476930880E+01  0.72476930880E+01  0.00000000000E+00 0. -1.
         25    2    1    2    0    0 -0.70007145308E+02  0.19771669806E+02  0.12785857605E+04  0.12867400393E+04  0.12500584970E+03 0.  0.
          2    1    1    2  501    0  0.28189262137E+02  0.34656532670E+02  0.25116163439E+03  0.25510365804E+03  0.00000000000E+00 0. -1.
          1    1    1    2  502    0  0.41817883171E+02 -0.54428202476E+02  0.98066793657E+03  0.98306702030E+03  0.00000000000E+00 0. -1.
         22    1    3    3    0    0 -0.77584116983E+02 -0.20977503062E+02  0.11182247788E+04  0.11211092751E+04  0.00000000000E+00 0.  1.
         22    1    3    3    0    0  0.75769716749E+01  0.40749172868E+02  0.16036098164E+03  0.16563076411E+03  0.00000000000E+00 0.  1.
</event>
<event>
 7    1  0.6176857E-006  0.2129605E+03  0.7818608E-02  0.1290968E+00
          2   -1    0    0  502    0  0.00000000000E+00  0.00000000000E+00  0.70578047309E+03  0.70578047309E+03  0.00000000000E+00 0. -1.
          1   -1    0    0  501    0 -0.00000000000E+00 -0.00000000000E+00 -0.21542905480E+03  0.21542905480E+03  0.00000000000E+00 0. -1.
         25    2    1    2    0    0  0.14738412881E+03  0.12470436748E+03  0.10703438546E+02  0.23024928273E+03  0.12500763140E+03 0.  0.
          2    1    1    2  501    0 -0.17348589066E+03 -0.15819534788E+03  0.27006200482E+02  0.23633124468E+03  0.00000000000E+00 0. -1.
          1    1    1    2  502    0  0.26101761848E+02  0.33490980397E+02  0.45264177926E+03  0.45462900048E+03  0.00000000000E+00 0. -1.
         22    1    3    3    0    0  0.61848683812E+02  0.12757553270E+03  0.23508556179E+02  0.14371300723E+03  0.00000000000E+00 0.  1.
         22    1    3    3    0    0  0.85535444996E+02 -0.28711652187E+01 -0.12805117633E+02  0.86536275503E+02  0.00000000000E+00 0.  1.
</event>
<event>
 7    1  0.6176857E-006  0.1003463E+03  0.7818608E-02  0.1333365E+00
          2   -1    0    0  502    0  0.00000000000E+00  0.00000000000E+00  0.10582442838E+04  0.10582442838E+04  0.00000000000E+00 0. -1.
          1   -1    0    0  501    0 -0.00000000000E+00 -0.00000000000E+00 -0.14125313846E+03  0.14125313846E+03  0.00000000000E+00 0. -1.
         25    2    1    2    0    0  0.75071403213E+02  0.81399751112E+02  0.23224443458E+03  0.28605238886E+03  0.12500742666E+03 0.  0.
          2    1    1    2  501    0  0.22972227149E+02 -0.56949898370E+02 -0.10263647671E+03  0.11960460065E+03  0.00000000000E+00 0. -1.
          1    1    1    2  502    0 -0.98043630362E+02 -0.24449852742E+02  0.78738318745E+03  0.79384043272E+03  0.00000000000E+00 0. -1.
         22    1    3    3    0    0 -0.25548391814E+02  0.39593275839E+02  0.28682490160E+02  0.55163693293E+02  0.00000000000E+00 0. -1.
         22    1    3    3    0    0  0.10061979503E+03  0.41806475273E+02  0.20356194442E+03  0.23088869557E+03  0.00000000000E+00 0. -1.
</event>
<event>
 7    1  0.6176857E-006  0.9150972E+02  0.7818608E-02  0.1389356E+00
          2   -1    0    0  502    0  0.00000000000E+00  0.00000000000E+00  0.24163436817E+04  0.24163436817E+04  0.00000000000E+00 0. -1.
          1   -1    0    0  501    0 -0.00000000000E+00 -0.00000000000E+00 -0.30449512124E+02  0.30449512124E+02  0.00000000000E+00 0. -1.
         25    2    1    2    0    0 -0.12829139397E+03 -0.23475387396E+02  0.34086847313E+03  0.38577765972E+03  0.12499324458E+03 0.  0.
          2    1    1    2  501    0  0.38791443474E+02  0.16352924337E+02  0.56473695631E+02  0.70437720856E+02  0.00000000000E+00 0. -1.
          1    1    1    2  502    0  0.89499950496E+02  0.71224630589E+01  0.19885520008E+04  0.19905778132E+04  0.00000000000E+00 0. -1.
         22    1    3    3    0    0 -0.14338916882E+03 -0.11655703971E+02  0.21649820794E+03  0.25993803725E+03  0.00000000000E+00 0. -1.
         22    1    3    3    0    0  0.15097774846E+02 -0.11819683425E+02  0.12437026519E+03  0.12583962248E+03  0.00000000000E+00 0. -1.
</event>
<event>
 7    1  0.6176857E-006  0.3646847E+02  0.7818608E-02  0.1613521E+00
          2   -1    0    0  502    0  0.00000000000E+00  0.00000000000E+00  0.45177343266E+03  0.45177343266E+03  0.00000000000E+00 0. -1.
          1   -1    0    0  501    0 -0.00000000000E+00 -0.00000000000E+00 -0.15312276877E+04  0.15312276877E+04  0.00000000000E+00 0. -1.
         25    2    1    2    0    0  0.14282654178E+02 -0.10152503833E+01 -0.18203569930E+03  0.22128749662E+03  0.12500454151E+03 0.  0.
          2    1    1    2  501    0  0.21364217727E+02 -0.70778141768E+01 -0.13286976229E+04  0.13288882189E+04  0.00000000000E+00 0. -1.
          1    1    1    2  502    0 -0.35646871905E+02  0.80930645601E+01  0.43127906723E+03  0.43282540476E+03  0.00000000000E+00 0. -1.
         22    1    3    3    0    0  0.17088338252E+02 -0.66048518712E+01  0.15290119653E+02  0.23862588532E+02  0.00000000000E+00 0. -1.
         22    1    3    3    0    0 -0.28056840735E+01  0.55896014879E+01 -0.19732581895E+03  0.19742490809E+03  0.00000000000E+00 0. -1.
</event>
<event>
 7    1  0.6176857E-006  0.1109593E+03  0.7818608E-02  0.1341606E+00
          2   -1    0    0  502    0  0.00000000000E+00  0.00000000000E+00  0.59499549747E+03  0.59499549747E+03  0.00000000000E+00 0. -1.
          1   -1    0    0  501    0 -0.00000000000E+00 -0.00000000000E+00 -0.19786863596E+03  0.19786863596E+03  0.00000000000E+00 0. -1.
         25    2    1    2    0    0  0.29086074313E+01  0.69023867718E+02 -0.11307713588E+03  0.18220292752E+03  0.12505484328E+03 0.  0.
          2    1    1    2  501    0 -0.33290253678E+02  0.39548311078E+02 -0.29355913976E+02  0.59448125155E+02  0.00000000000E+00 0. -1.
          1    1    1    2  502    0  0.30381646247E+02 -0.10857217880E+03  0.53955991136E+03  0.55121308074E+03  0.00000000000E+00 0. -1.
         22    1    3    3    0    0 -0.17039095033E+02  0.55022016272E+02  0.84852425967E+01  0.58221579986E+02  0.00000000000E+00 0. -1.
         22    1    3    3    0    0  0.19947702464E+02  0.14001851446E+02 -0.12156237847E+03  0.12398134754E+03  0.00000000000E+00 0. -1.
</event>
<event>
 7    1  0.6176857E-006  0.9688749E+02  0.7818608E-02  0.1441609E+00
          2   -1    0    0  502    0  0.00000000000E+00  0.00000000000E+00  0.30461473398E+03  0.30461473398E+03  0.00000000000E+00 0. -1.
          1   -1    0    0  501    0 -0.00000000000E+00 -0.00000000000E+00 -0.13277051172E+04  0.13277051172E+04  0.00000000000E+00 0. -1.
         25    2    1    2    0    0  0.21106644787E+02 -0.86310149944E+02  0.20832413648E+02  0.15481961676E+03  0.12506075259E+03 0.  0.
          2    1    1    2  501    0 -0.47585383460E+02  0.84671784536E+02 -0.12580208965E+04  0.12617647387E+04  0.00000000000E+00 0. -1.
          1    1    1    2  502    0  0.26478738673E+02  0.16383654079E+01  0.21409809963E+03  0.21573549570E+03  0.00000000000E+00 0. -1.
         22    1    3    3    0    0 -0.24452520932E+02  0.14378573829E+02 -0.22403729114E+02  0.36146870452E+02  0.00000000000E+00 0.  1.
         22    1    3    3    0    0  0.45559165719E+02 -0.10068872377E+03  0.43236142762E+02  0.11867274631E+03  0.00000000000E+00 0.  1.
</event>
<event>
 7    1  0.6176857E-006  0.2621913E+02  0.7818608E-02  0.1691702E+00
          2   -1    0    0  502    0  0.00000000000E+00  0.00000000000E+00  0.14034580733E+04  0.14034580733E+04  0.00000000000E+00 0. -1.
          1   -1    0    0  501    0 -0.00000000000E+00 -0.00000000000E+00 -0.53571355769E+03  0.53571355769E+03  0.00000000000E+00 0. -1.
         25    2    1    2    0    0 -0.30733895433E+02  0.34501877299E+02  0.10862706123E+03  0.17192717194E+03  0.12499664858E+03 0.  0.
          2    1    1    2  501    0  0.14406265556E+02 -0.14096094464E+02 -0.50372677185E+03  0.50412984542E+03  0.00000000000E+00 0. -1.
          1    1    1    2  502    0  0.16327629877E+02 -0.20405782835E+02  0.12628442262E+04  0.12631146136E+04  0.00000000000E+00 0. -1.
         22    1    3    3    0    0 -0.78762498987E+01  0.13496741259E+02 -0.27865931943E+02  0.31948513270E+02  0.00000000000E+00 0.  1.
         22    1    3    3    0    0 -0.22857645534E+02  0.21005136040E+02  0.13649299317E+03  0.13997865867E+03  0.00000000000E+00 0.  1.
</event>
<event>
 7    1  0.6176857E-006  0.8684742E+03  0.7818608E-02  0.1179794E+00
          2   -1    0    0  502    0  0.00000000000E+00  0.00000000000E+00  0.34336197777E+04  0.34336197777E+04  0.00000000000E+00 0. -1.
          1   -1    0    0  501    0 -0.00000000000E+00 -0.00000000000E+00 -0.20994199288E+04  0.20994199288E+04  0.00000000000E+00 0. -1.
         25    2    1    2    0    0  0.54188174102E+03 -0.70031436442E+03  0.15764278460E+04  0.18124097740E+04  0.12501361926E+03 0.  0.
          2    1    1    2  501    0 -0.23913356786E+02  0.22090706628E+02 -0.18765934839E+04  0.18768758488E+04  0.00000000000E+00 0. -1.
          1    1    1    2  502    0 -0.51796838424E+03  0.67822365779E+03  0.16343654868E+04  0.18437540838E+04  0.00000000000E+00 0. -1.
         22    1    3    3    0    0  0.27341005014E+03 -0.44363187646E+03  0.97514866915E+03  0.11056569198E+04  0.00000000000E+00 0. -1.
         22    1    3    3    0    0  0.26847169089E+03 -0.25668248796E+03  0.60127917683E+03  0.70675285420E+03  0.00000000000E+00 0. -1.
</event>
<event>
 7    1  0.6176857E-006  0.3422610E+02  0.7818608E-02  0.1612999E+00
          2   -1    0    0  502    0  0.00000000000E+00  0.00000000000E+00  0.11391507303E+02  0.11391507303E+02  0.00000000000E+00 0. -1.
          1   -1    0    0  501    0 -0.00000000000E+00 -0.00000000000E+00 -0.13366446544E+04  0.13366446544E+04  0.00000000000E+00 0. -1.
         25    2    1    2    0    0  0.40058907070E+02  0.38963461546E+02 -0.63016756551E+03  0.64487078853E+03  0.12499722361E+03 0.  0.
          2    1    1    2  501    0 -0.19280173751E+02 -0.26844117537E+02 -0.65881255664E+03  0.65964105127E+03  0.00000000000E+00 0. -1.
          1    1    1    2  502    0 -0.20778733319E+02 -0.12119344009E+02 -0.36273024958E+02  0.43524321904E+02  0.00000000000E+00 0. -1.
         22    1    3    3    0    0 -0.10353095992E+02 -0.40732716185E+02 -0.16765996070E+03  0.17284734069E+03  0.00000000000E+00 0. -1.
         22    1    3    3    0    0  0.50412003062E+02  0.79696177731E+02 -0.46250760481E+03  0.47202344783E+03  0.00000000000E+00 0. -1.
</event>
<event>
 7    1  0.6176857E-006  0.1184834E+03  0.7818608E-02  0.1260177E+00
          2   -1    0    0  502    0  0.00000000000E+00  0.00000000000E+00  0.72524387244E+03  0.72524387244E+03  0.00000000000E+00 0. -1.
          1   -1    0    0  501    0 -0.00000000000E+00 -0.00000000000E+00 -0.20327061452E+03  0.20327061452E+03  0.00000000000E+00 0. -1.
         25    2    1    2    0    0 -0.80559562147E+02 -0.88406366666E+02  0.33815475463E+03  0.37984087790E+03  0.12499970290E+03 0.  0.
          2    1    1    2  501    0 -0.17093248512E+02  0.11961717834E+03 -0.15394025191E+03  0.19569887495E+03  0.00000000000E+00 0. -1.
          1    1    1    2  502    0  0.97652810658E+02 -0.31210811674E+02  0.33775875521E+03  0.35297473410E+03  0.00000000000E+00 0. -1.
         22    1    3    3    0    0 -0.22721186186E+02 -0.10787455438E+03  0.24241962558E+03  0.26630893085E+03  0.00000000000E+00 0. -1.
         22    1    3    3    0    0 -0.57838375961E+02  0.19468187713E+02  0.95735129048E+02  0.11353194705E+03  0.00000000000E+00 0. -1.
</event>
<event>
 7    1  0.6176857E-006  0.4778179E+02  0.7818608E-02  0.1584480E+00
          2   -1    0    0  502    0  0.00000000000E+00  0.00000000000E+00  0.23853127458E+02  0.23853127458E+02  0.00000000000E+00 0. -1.
          1   -1    0    0  501    0 -0.00000000000E+00 -0.00000000000E+00 -0.17678343146E+04  0.17678343146E+04  0.00000000000E+00 0. -1.
         25    2    1    2    0    0 -0.55532757284E+02  0.26964082991E+02 -0.52728740074E+03  0.54540633019E+03  0.12500045250E+03 0.  0.
          2    1    1    2  501    0  0.46383159028E+02 -0.86620474952E+01 -0.12237331023E+04  0.12246424516E+04  0.00000000000E+00 0. -1.
          1    1    1    2  502    0  0.91495982561E+01 -0.18302035495E+02  0.70393158984E+01  0.21638660306E+02  0.00000000000E+00 0. -1.
         22    1    3    3    0    0 -0.67718053141E+02 -0.33558970316E+02 -0.33632567837E+03  0.34471278065E+03  0.00000000000E+00 0. -1.
         22    1    3    3    0    0  0.12185295857E+02  0.60523053306E+02 -0.19096172237E+03  0.20069354954E+03  0.00000000000E+00 0. -1.
</event>
<event>
 7    1  0.6176857E-006  0.7485294E+02  0.7818608E-02  0.1375247E+00
          2   -1    0    0  502    0  0.00000000000E+00  0.00000000000E+00  0.16710313442E+04  0.16710313442E+04  0.00000000000E+00 0. -1.
          1   -1    0    0  501    0 -0.00000000000E+00 -0.00000000000E+00 -0.62271852853E+02  0.62271852853E+02  0.00000000000E+00 0. -1.
         25    2    1    2    0    0 -0.36149337642E+02  0.11812455014E+03  0.77838921354E+03  0.79798037213E+03  0.12499089007E+03 0.  0.
          2    1    1    2  501    0 -0.35081309195E+00 -0.73412065219E+02 -0.25343749033E+02  0.77664406291E+02  0.00000000000E+00 0. -1.
          1    1    1    2  502    0  0.36500150734E+02 -0.44712484919E+02  0.85571402680E+03  0.85765841859E+03  0.00000000000E+00 0. -1.
         22    1    3    3    0    0 -0.69407004862E+02  0.34364286864E+02  0.24253526462E+03  0.25460084666E+03  0.00000000000E+00 0.  1.
         22    1    3    3    0    0  0.33257667220E+02  0.83760263274E+02  0.53585394892E+03  0.54337952548E+03  0.00000000000E+00 0.  1.
</event>
<event>
 7    1  0.6176857E-006  0.1151921E+03  0.7818608E-02  0.1355885E+00
          2   -1    0    0  502    0  0.00000000000E+00  0.00000000000E+00  0.11161130898E+04  0.11161130898E+04  0.00000000000E+00 0. -1.
          1   -1    0    0  501    0 -0.00000000000E+00 -0.00000000000E+00 -0.14011409357E+04  0.14011409357E+04  0.00000000000E+00 0. -1.
         25    2    1    2    0    0  0.28511701276E+02  0.12662972536E+03  0.18254882698E+02  0.18111856438E+03  0.12499075632E+03 0.  0.
          2    1    1    2  501    0 -0.42246293035E+02 -0.12558100324E+02 -0.13160921291E+04  0.13168298855E+04  0.00000000000E+00 0. -1.
          1    1    1    2  502    0  0.13734591759E+02 -0.11407162504E+03  0.10128094005E+04  0.10193055756E+04  0.00000000000E+00 0. -1.
         22    1    3    3    0    0  0.32744040647E+02  0.10412534219E+03 -0.41771893846E+02  0.11687236713E+03  0.00000000000E+00 0.  1.
         22    1    3    3    0    0 -0.42323393712E+01  0.22504383171E+02  0.60026776544E+02  0.64246197247E+02  0.00000000000E+00 0.  1.
</event>
<event>
 7    1  0.6176857E-006  0.7275549E+02  0.7818608E-02  0.1478013E+00
          2   -1    0    0  502    0  0.00000000000E+00  0.00000000000E+00  0.12915798366E+04  0.12915798366E+04  0.00000000000E+00 0. -1.
          1   -1    0    0  501    0 -0.00000000000E+00 -0.00000000000E+00 -0.18773912728E+03  0.18773912728E+03  0.00000000000E+00 0. -1.
         25    2    1    2    0    0 -0.57894880388E+02  0.80059390499E+02  0.30675581784E+03  0.34566610697E+03  0.12499841016E+03 0.  0.
          2    1    1    2  501    0  0.38762667050E+02 -0.60842774423E+02 -0.16035163426E+03  0.17583240363E+03  0.00000000000E+00 0. -1.
          1    1    1    2  502    0  0.19132213338E+02 -0.19216616076E+02  0.95743652576E+03  0.95782045331E+03  0.00000000000E+00 0. -1.
         22    1    3    3    0    0 -0.85482141900E+01  0.10404652515E+03  0.20571943882E+03  0.23069295367E+03  0.00000000000E+00 0.  1.
         22    1    3    3    0    0 -0.49346666198E+02 -0.23987134654E+02  0.10103637902E+03  0.11497315330E+03  0.00000000000E+00 0.  1.
</event>
<event>
 7    1  0.6176857E-006  0.7481192E+02  0.7818608E-02  0.1451623E+00
          2   -1    0    0  502    0  0.00000000000E+00  0.00000000000E+00  0.58143854263E+03  0.58143854263E+03  0.00000000000E+00 0. -1.
          1   -1    0    0  501    0 -0.00000000000E+00 -0.00000000000E+00 -0.21046967950E+03  0.21046967950E+03  0.00000000000E+00 0. -1.
         25    2    1    2    0    0 -0.51666793101E+02  0.37923028155E+00  0.22682400276E+03  0.26408916507E+03  0.12499743018E+03 0.  0.
          2    1    1    2  501    0 -0.27897540098E+02  0.15476415363E+02 -0.18555840686E+03  0.18828094575E+03  0.00000000000E+00 0. -1.
          1    1    1    2  502    0  0.79564333199E+02 -0.15855645644E+02  0.32970326723E+03  0.33953811132E+03  0.00000000000E+00 0. -1.
         22    1    3    3    0    0 -0.77372561412E+02  0.23345601672E+02  0.81668479949E+02  0.11489678409E+03  0.00000000000E+00 0. -1.
         22    1    3    3    0    0  0.25705768311E+02 -0.22966371390E+02  0.14515552281E+03  0.14919238098E+03  0.00000000000E+00 0. -1.
</event>
<event>
 7    1  0.6176857E-006  0.1668128E+03  0.7818608E-02  0.1312844E+00
          2   -1    0    0  502    0  0.00000000000E+00  0.00000000000E+00  0.12795097451E+04  0.12795097451E+04  0.00000000000E+00 0. -1.
          1   -1    0    0  501    0 -0.00000000000E+00 -0.00000000000E+00 -0.99471030087E+02  0.99471030087E+02  0.00000000000E+00 0. -1.
         25    2    1    2    0    0  0.42580850936E+02  0.19183391220E+03  0.21080839714E+03  0.31411475635E+03  0.12495807743E+03 0.  0.
          2    1    1    2  501    0 -0.39945408943E+02 -0.14757778297E+03  0.76361864023E+02  0.17089754825E+03  0.00000000000E+00 0. -1.
          1    1    1    2  502    0 -0.26354419931E+01 -0.44256129233E+02  0.89286845388E+03  0.89396847063E+03  0.00000000000E+00 0. -1.
         22    1    3    3    0    0  0.20832899022E+02  0.20589377601E+03  0.18584412910E+03  0.27814438157E+03  0.00000000000E+00 0. -1.
         22    1    3    3    0    0  0.21747951914E+02 -0.14059863806E+02  0.24964268045E+02  0.35970374778E+02  0.00000000000E+00 0. -1.
</event>
<event>
 7    1  0.6176857E-006  0.1159912E+03  0.7818608E-02  0.1430846E+00
          2   -1    0    0  502    0  0.00000000000E+00  0.00000000000E+00  0.35475932122E+03  0.35475932122E+03  0.00000000000E+00 0. -1.
          1   -1    0    0  501    0 -0.00000000000E+00 -0.00000000000E+00 -0.71412992217E+03  0.71412992217E+03  0.00000000000E+00 0. -1.
         25    2    1    2    0    0 -0.10917908408E+03 -0.34418938877E+02  0.11042085542E+03  0.20228751447E+03  0.12499094945E+03 0.  0.
          2    1    1    2  501    0  0.11557051287E+03  0.11258320564E+02 -0.66239991357E+03  0.67250051206E+03  0.00000000000E+00 0. -1.
          1    1    1    2  502    0 -0.63914287925E+01  0.23160618313E+02  0.19260845720E+03  0.19410121686E+03  0.00000000000E+00 0. -1.
         22    1    3    3    0    0 -0.13123925442E+03 -0.10147666016E+02  0.10637465043E+03  0.16924031222E+03  0.00000000000E+00 0. -1.
         22    1    3    3    0    0  0.22060170341E+02 -0.24271272861E+02  0.40462049873E+01  0.33047202250E+02  0.00000000000E+00 0. -1.
</event>
<event>
 7    1  0.6176857E-006  0.6498406E+02  0.7818608E-02  0.1418429E+00
          2   -1    0    0  502    0  0.00000000000E+00  0.00000000000E+00  0.11689752751E+04  0.11689752751E+04  0.00000000000E+00 0. -1.
          1   -1    0    0  501    0 -0.00000000000E+00 -0.00000000000E+00 -0.30963307995E+02  0.30963307995E+02  0.00000000000E+00 0. -1.
         25    2    1    2    0    0 -0.14186739595E+02 -0.26105235879E+02  0.48136354088E+03  0.49822374570E+03  0.12503317708E+03 0.  0.
          2    1    1    2  501    0  0.21474821950E+01 -0.47103349206E+02  0.67942760921E+01  0.47639262944E+02  0.00000000000E+00 0. -1.
          1    1    1    2  502    0  0.12039257400E+02  0.73208585085E+02  0.64985415013E+03  0.65407557445E+03  0.00000000000E+00 0. -1.
         22    1    3    3    0    0  0.13926534265E+02  0.20402376857E+02  0.39765660485E+03  0.39842311770E+03  0.00000000000E+00 0.  1.
         22    1    3    3    0    0 -0.28113273859E+02 -0.46507612736E+02  0.83706936037E+02  0.99800628005E+02  0.00000000000E+00 0.  1.
</event>
<event>
 7    1  0.6176857E-006  0.3860158E+02  0.7818608E-02  0.1549436E+00
          2   -1    0    0  502    0  0.00000000000E+00  0.00000000000E+00  0.35225431213E+03  0.35225431213E+03  0.00000000000E+00 0. -1.
          1   -1    0    0  501    0 -0.00000000000E+00 -0.00000000000E+00 -0.11029153307E+04  0.11029153307E+04  0.00000000000E+00 0. -1.
         25    2    1    2    0    0 -0.74160580601E+01 -0.45734382364E+02 -0.55107393713E+03  0.56696890234E+03  0.12499848158E+03 0.  0.
          2    1    1    2  501    0  0.30469881104E+02  0.24174446345E+02 -0.54247273584E+03  0.54386532032E+03  0.00000000000E+00 0. -1.
          1    1    1    2  502    0 -0.23053823044E+02  0.21559936019E+02  0.34288565439E+03  0.34433542017E+03  0.00000000000E+00 0. -1.
         22    1    3    3    0    0  0.16137318301E+02 -0.16761372913E+02 -0.51339757278E+03  0.51392453181E+03  0.00000000000E+00 0. -1.
         22    1    3    3    0    0 -0.23553376361E+02 -0.28973009451E+02 -0.37676364350E+02  0.53044370533E+02  0.00000000000E+00 0. -1.
</event>
<event>
 7    1  0.6176857E-006  0.3887560E+03  0.7818608E-02  0.1133926E+00
          2   -1    0    0  502    0  0.00000000000E+00  0.00000000000E+00  0.61259523151E+03  0.61259523151E+03  0.00000000000E+00 0. -1.
          1   -1    0    0  501    0 -0.00000000000E+00 -0.00000000000E+00 -0.66944313097E+03  0.66944313097E+03  0.00000000000E+00 0. -1.
         25    2    1    2    0    0 -0.12157960589E+03 -0.31405082616E+03  0.12437368572E+03  0.38013423994E+03  0.12499481867E+03 0.  0.
          2    1    1    2  501    0  0.18254247110E+02 -0.12308852491E+03 -0.38795975148E+03  0.40742701343E+03  0.00000000000E+00 0. -1.
          1    1    1    2  502    0  0.10332535878E+03  0.43713935107E+03  0.20673816630E+03  0.49447710910E+03  0.00000000000E+00 0. -1.
         22    1    3    3    0    0 -0.14780799837E+03 -0.26719547560E+03  0.10980449891E+03  0.32449600082E+03  0.00000000000E+00 0. -1.
         22    1    3    3    0    0  0.26228392484E+02 -0.46855350560E+02  0.14569186807E+02  0.55638239122E+02  0.00000000000E+00 0. -1.
</event>
<event>
 7    1  0.6176857E-006  0.1498972E+03  0.7818608E-02  0.1395017E+00
          2   -1    0    0  502    0  0.00000000000E+00  0.00000000000E+00  0.22785901684E+03  0.22785901684E+03  0.00000000000E+00 0. -1.
          1   -1    0    0  501    0 -0.00000000000E+00 -0.00000000000E+00 -0.19141733792E+04  0.19141733792E+04  0.00000000000E+00 0. -1.
         25    2    1    2    0    0  0.25795218167E+02  0.12721076059E+03 -0.38409754513E+03  0.42426935985E+03  0.12500237853E+03 0.  0.
          2    1    1    2  501    0  0.16720560009E+02  0.17990243898E+02 -0.14823315321E+04  0.14825349902E+04  0.00000000000E+00 0. -1.
          1    1    1    2  502    0 -0.42515778176E+02 -0.14520100449E+03  0.18011471491E+03  0.23522804600E+03  0.00000000000E+00 0. -1.
         22    1    3    3    0    0  0.32365526490E+02  0.15057063365E+03 -0.35031891056E+03  0.38267790911E+03  0.00000000000E+00 0. -1.
         22    1    3    3    0    0 -0.65703083228E+01 -0.23359873064E+02 -0.33778634574E+02  0.41591450740E+02  0.00000000000E+00 0. -1.
</event>
<event>
 7    1  0.6176857E-006  0.1462473E+03  0.7818608E-02  0.1274811E+00
          2   -1    0    0  502    0  0.00000000000E+00  0.00000000000E+00  0.11287326833E+04  0.11287326833E+04  0.00000000000E+00 0. -1.
          1   -1    0    0  501    0 -0.00000000000E+00 -0.00000000000E+00 -0.41474782042E+03  0.41474782042E+03  0.00000000000E+00 0. -1.
         25    2    1    2    0    0 -0.96171768795E+02  0.66690440534E+02  0.66880467751E+03  0.69037836430E+03  0.12500386096E+03 0.  0.
          2    1    1    2  501    0  0.65329159685E+02 -0.13181107554E+03 -0.38748835124E+03  0.41447470501E+03  0.00000000000E+00 0. -1.
          1    1    1    2  502    0  0.30842609110E+02  0.65120635010E+02  0.43266853664E+03  0.43862743444E+03  0.00000000000E+00 0. -1.
         22    1    3    3    0    0 -0.44339166191E+02  0.42094517941E+01  0.51080279262E+03  0.51274084496E+03  0.00000000000E+00 0. -1.
         22    1    3    3    0    0 -0.51832602604E+02  0.62480988740E+02  0.15800188490E+03  0.17763751934E+03  0.00000000000E+00 0. -1.
</event>
<event>
 7    1  0.6176857E-006  0.6966914E+02  0.7818608E-02  0.1443257E+00
          2   -1    0    0  502    0  0.00000000000E+00  0.00000000000E+00  0.11625708611E+04  0.11625708611E+04  0.00000000000E+00 0. -1.
          1   -1    0    0  501    0 -0.00000000000E+00 -0.00000000000E+00 -0.63904761930E+03  0.63904761930E+03  0.00000000000E+00 0. -1.
         25    2    1    2    0    0 -0.18401052342E+01  0.34279436213E+02 -0.13611909613E+03  0.18796832101E+03  0.12500086255E+03 0.  0.
          2    1    1    2  501    0  0.93573476597E+01  0.35221868470E+02 -0.47523073359E+03  0.47662604851E+03  0.00000000000E+00 0. -1.
          1    1    1    2  502    0 -0.75172424255E+01 -0.69501304683E+02  0.11348730716E+04  0.11370241109E+04  0.00000000000E+00 0. -1.
         22    1    3    3    0    0  0.68239712746E+01  0.81102712902E+02 -0.76830036919E+02  0.11192439947E+03  0.00000000000E+00 0. -1.
         22    1    3    3    0    0 -0.86640765088E+01 -0.46823276689E+02 -0.59289059207E+02  0.76043921540E+02  0.00000000000E+00 0. -1.
</event>
<event>
 7    1  0.6176857E-006  0.5480409E+02  0.7818608E-02  0.1447819E+00
          2   -1    0    0  502    0  0.00000000000E+00  0.00000000000E+00  0.30275372563E+04  0.30275372563E+04  0.00000000000E+00 0. -1.
          1   -1    0    0  501    0 -0.00000000000E+00 -0.00000000000E+00 -0.19359270828E+02  0.19359270828E+02  0.00000000000E+00 0. -1.
         25    2    1    2    0    0  0.32602138778E+02 -0.52239633448E+02  0.12480603583E+04  0.12558153663E+04  0.12500278997E+03 0.  0.
          2    1    1    2  501    0  0.21706696141E+02  0.39176346429E+02  0.18322997143E+02  0.48391104567E+02  0.00000000000E+00 0. -1.
          1    1    1    2  502    0 -0.54308834919E+02  0.13063287018E+02  0.17417946301E+04  0.17426900564E+04  0.00000000000E+00 0. -1.
         22    1    3    3    0    0  0.13161426573E+02 -0.43603624385E+02  0.13357150615E+03  0.14112351492E+03  0.00000000000E+00 0. -1.
         22    1    3    3    0    0  0.19440712205E+02 -0.86360090627E+01  0.11144888521E+04  0.11146918513E+04  0.00000000000E+00 0. -1.
</event>
<event>
 7    1  0.6176857E-006  0.4266893E+03  0.7818608E-02  0.1101807E+00
          2   -1    0    0  502    0  0.00000000000E+00  0.00000000000E+00  0.13113584176E+04  0.13113584176E+04  0.00000000000E+00 0. -1.
          1   -1    0    0  501    0 -0.00000000000E+00 -0.00000000000E+00 -0.95299578435E+03  0.95299578435E+03  0.00000000000E+00 0. -1.
         25    2    1    2    0    0  0.27365581766E+02  0.33200867544E+03  0.11596357808E+03  0.37423458551E+03  0.12500135167E+03 0.  0.
          2    1    1    2  501    0 -0.11121381575E+03  0.12816344204E+03 -0.76278625542E+03  0.78143281998E+03  0.00000000000E+00 0. -1.
          1    1    1    2  502    0  0.83848233984E+02 -0.46017211747E+03  0.10051853106E+04  0.11086867965E+04  0.00000000000E+00 0. -1.
         22    1    3    3    0    0  0.42388705610E+00  0.26346400884E+03  0.36653288757E+02  0.26600174287E+03  0.00000000000E+00 0. -1.
         22    1    3    3    0    0  0.26941694710E+02  0.68544666598E+02  0.79310289325E+02  0.10823284264E+03  0.00000000000E+00 0. -1.
</event>
<event>
 7    1  0.6176857E-006  0.1326357E+03  0.7818608E-02  0.1402943E+00
          2   -1    0    0  502    0  0.00000000000E+00  0.00000000000E+00  0.65063676419E+03  0.65063676419E+03  0.00000000000E+00 0. -1.
          1   -1    0    0  501    0 -0.00000000000E+00 -0.00000000000E+00 -0.26002960877E+04  0.26002960877E+04  0.00000000000E+00 0. -1.
         25    2    1    2    0    0 -0.14292289906E+03 -0.36734623321E+02 -0.32946441491E+03  0.38202757505E+03  0.12498751848E+03 0.  0.
          2    1    1    2  501    0  0.13094601090E+03  0.13582923154E+02 -0.22423465729E+04  0.22462078058E+04  0.00000000000E+00 0. -1.
          1    1    1    2  502    0  0.11976888164E+02  0.23151700166E+02  0.62215166432E+03  0.62269747108E+03  0.00000000000E+00 0. -1.
         22    1    3    3    0    0 -0.37011992361E+02 -0.41315093987E+02 -0.27333065861E+02  0.61837861049E+02  0.00000000000E+00 0.  1.
         22    1    3    3    0    0 -0.10591090670E+03  0.45804706664E+01 -0.30213134905E+03  0.32018971400E+03  0.00000000000E+00 0.  1.
</event>
<event>
 7    1  0.6176857E-006  0.2023129E+03  0.7818608E-02  0.1368399E+00
          2   -1    0    0  502    0  0.00000000000E+00  0.00000000000E+00  0.34898583338E+03  0.34898583338E+03  0.00000000000E+00 0. -1.
          1   -1    0    0  501    0 -0.00000000000E+00 -0.00000000000E+00 -0.15593940050E+04  0.15593940050E+04  0.00000000000E+00 0. -1.
         25    2    1    2    0    0  0.15975807985E+03  0.87140610220E+02 -0.76419943506E+03  0.79545068695E+03  0.12499955518E+03 0.  0.
          2    1    1    2  501    0  0.14385149780E+02  0.17426826248E+02 -0.74843991757E+03  0.74878096732E+03  0.00000000000E+00 0. -1.
          1    1    1    2  502    0 -0.17414322963E+03 -0.10456743647E+03  0.30223118102E+03  0.36414818409E+03  0.00000000000E+00 0. -1.
         22    1    3    3    0    0  0.42994745508E+02  0.89398246205E+01 -0.45863629584E+02  0.63497567860E+02  0.00000000000E+00 0. -1.
         22    1    3    3    0    0  0.11676333434E+03  0.78200785599E+02 -0.71833580548E+03  0.73195311909E+03  0.00000000000E+00 0. -1.
</event>
<event>
 7    1  0.6176857E-006  0.5991445E+02  0.7818608E-02  0.1447445E+00
          2   -1    0    0  502    0  0.00000000000E+00  0.00000000000E+00  0.16913312808E+04  0.16913312808E+04  0.00000000000E+00 0. -1.
          1   -1    0    0  501    0 -0.00000000000E+00 -0.00000000000E+00 -0.12750111213E+04  0.12750111213E+04  0.00000000000E+00 0. -1.
         25    2    1    2    0    0 -0.11628859407E+02  0.16883478780E+02  0.34994001386E+03  0.37216080799E+03  0.12500148592E+03 0.  0.
          2    1    1    2  501    0  0.16535178912E+02 -0.57670639035E+02 -0.12628712667E+04  0.12642955157E+04  0.00000000000E+00 0. -1.
          1    1    1    2  502    0 -0.49063195051E+01  0.40787160255E+02  0.13292514124E+04  0.13298860785E+04  0.00000000000E+00 0. -1.
         22    1    3    3    0    0  0.19874113317E+02  0.37777513156E+02  0.32283647477E+03  0.32564629635E+03  0.00000000000E+00 0. -1.
         22    1    3    3    0    0 -0.31502972724E+02 -0.20894034376E+02  0.27103539084E+02  0.46514511648E+02  0.00000000000E+00 0. -1.
</event>
<event>
 7    1  0.6176857E-006  0.9856112E+02  0.7818608E-02  0.1356153E+00
          2   -1    0    0  502    0  0.00000000000E+00  0.00000000000E+00  0.15202440002E+04  0.15202440002E+04  0.00000000000E+00 0. -1.
          1   -1    0    0  501    0 -0.00000000000E+00 -0.00000000000E+00 -0.19967790981E+02  0.19967790981E+02  0.00000000000E+00 0. -1.
         25    2    1    2    0    0 -0.60556561851E+02  0.28652567371E+02  0.42128525676E+03  0.44451610386E+03  0.12500092888E+03 0.  0.
          2    1    1    2  501    0 -0.44761401627E+02  0.25253027100E+02  0.60435293994E+03  0.60653423190E+03  0.00000000000E+00 0. -1.
          1    1    1    2  502    0  0.10531796348E+03 -0.53905594470E+02  0.47463801249E+03  0.48916145540E+03  0.00000000000E+00 0. -1.
         22    1    3    3    0    0 -0.46784669691E+02 -0.26984309175E+01  0.40296505207E+03  0.40568081054E+03  0.00000000000E+00 0.  1.
         22    1    3    3    0    0 -0.13771892160E+02  0.31350998288E+02  0.18320204695E+02  0.38835293322E+02  0.00000000000E+00 0.  1.
</event>
<event>
 7    1  0.6176857E-006  0.9703045E+02  0.7818608E-02  0.1467592E+00
          2   -1    0    0  502    0  0.00000000000E+00  0.00000000000E+00  0.30543895140E+03  0.30543895140E+03  0.00000000000E+00 0. -1.
          1   -1    0    0  501    0 -0.00000000000E+00 -0.00000000000E+00 -0.93134404751E+02  0.93134404751E+02  0.00000000000E+00 0. -1.
         25    2    1    2    0    0  0.74236752472E+02  0.25253954968E+02  0.21072099993E+03  0.25724985995E+03  0.12500117190E+03 0.  0.
          2    1    1    2  501    0 -0.95898616884E+02 -0.28489085604E+02 -0.28583438834E+02  0.10404415262E+03  0.00000000000E+00 0. -1.
          1    1    1    2  502    0  0.21661864412E+02  0.32351306364E+01  0.30166985550E+02  0.37279343573E+02  0.00000000000E+00 0. -1.
         22    1    3    3    0    0 -0.31847905926E+02  0.26240902488E+02  0.53043704685E+02  0.67204975128E+02  0.00000000000E+00 0.  1.
         22    1    3    3    0    0  0.10608465840E+03 -0.98694752025E+00  0.15767729524E+03  0.19004488483E+03  0.00000000000E+00 0.  1.
</event>
<event>
 7    1  0.6176857E-006  0.7437374E+02  0.7818608E-02  0.1503741E+00
          2   -1    0    0  502    0  0.00000000000E+00  0.00000000000E+00  0.36894683654E+04  0.36894683654E+04  0.00000000000E+00 0. -1.
          1   -1    0    0  501    0 -0.00000000000E+00 -0.00000000000E+00 -0.82412038655E+03  0.82412038655E+03  0.00000000000E+00 0. -1.
         25    2    1    2    0    0 -0.85512045359E+02 -0.44998766400E+01 -0.17957894804E+03  0.23496089724E+03  0.12500186342E+03 0.  0.
          2    1    1    2  501    0  0.12455729830E+02  0.18350580402E+02 -0.61627348101E+03  0.61667243526E+03  0.00000000000E+00 0. -1.
          1    1    1    2  502    0  0.73056315529E+02 -0.13850703762E+02  0.36612004079E+04  0.36619554195E+04  0.00000000000E+00 0. -1.
         22    1    3    3    0    0  0.16168469072E+02 -0.38111473315E+02 -0.72696485194E+02  0.83658130208E+02  0.00000000000E+00 0.  1.
         22    1    3    3    0    0 -0.10168051443E+03  0.33611596675E+02 -0.10688246285E+03  0.15130276703E+03  0.00000000000E+00 0.  1.
</event>
<event>
 7    1  0.6176857E-006  0.6087260E+02  0.7818608E-02  0.1426478E+00
          2   -1    0    0  502    0  0.00000000000E+00  0.00000000000E+00  0.18521225321E+03  0.18521225321E+03  0.00000000000E+00 0. -1.
          1   -1    0    0  501    0 -0.00000000000E+00 -0.00000000000E+00 -0.20532350468E+04  0.20532350468E+04  0.00000000000E+00 0. -1.
         25    2    1    2    0    0 -0.74631799658E+02 -0.75874830680E+02 -0.16067320132E+03  0.22971301065E+03  0.12500117674E+03 0.  0.
          2    1    1    2  501    0  0.36323132611E+02  0.30337600937E+02 -0.18518529434E+04  0.18524575741E+04  0.00000000000E+00 0. -1.
          1    1    1    2  502    0  0.38308667047E+02  0.45537229743E+02  0.14450335109E+03  0.15627671528E+03  0.00000000000E+00 0. -1.
         22    1    3    3    0    0 -0.23363502697E+02 -0.99857238496E+02 -0.12918748386E+03  0.16494461896E+03  0.00000000000E+00 0. -1.
         22    1    3    3    0    0 -0.51268296960E+02  0.23982407816E+02 -0.31485717466E+02  0.64768391691E+02  0.00000000000E+00 0. -1.
</event>
<event>
 7    1  0.6176857E-006  0.9085415E+02  0.7818608E-02  0.1409009E+00
          2   -1    0    0  502    0  0.00000000000E+00  0.00000000000E+00  0.70389745413E+03  0.70389745413E+03  0.00000000000E+00 0. -1.
          1   -1    0    0  501    0 -0.00000000000E+00 -0.00000000000E+00 -0.10345382888E+03  0.10345382888E+03  0.00000000000E+00 0. -1.
         25    2    1    2    0    0 -0.66778979622E+02 -0.50616775052E+02  0.12931389149E+03  0.19840830682E+03  0.12498913412E+03 0.  0.
          2    1    1    2  501    0  0.46666331216E+02  0.80816187227E+02 -0.36361956553E+02  0.10015585091E+03  0.00000000000E+00 0. -1.
          1    1    1    2  502    0  0.20112648406E+02 -0.30199412175E+02  0.50749169031E+03  0.50878712529E+03  0.00000000000E+00 0. -1.
         22    1    3    3    0    0 -0.93026874605E+02 -0.31953147119E+02  0.13361494122E+03  0.16591550719E+03  0.00000000000E+00 0. -1.
         22    1    3    3    0    0  0.26247894982E+02 -0.18663627933E+02 -0.43010497360E+01  0.32492799625E+02  0.00000000000E+00 0. -1.
</event>
<event>
 7    1  0.6176857E-006  0.9328955E+02  0.7818608E-02  0.1303732E+00
          2   -1    0    0  502    0  0.00000000000E+00  0.00000000000E+00  0.95663448759E+03  0.95663448759E+03  0.00000000000E+00 0. -1.
          1   -1    0    0  501    0 -0.00000000000E+00 -0.00000000000E+00 -0.37106834563E+03  0.37106834563E+03  0.00000000000E+00 0. -1.
         25    2    1    2    0    0  0.36357302721E+02  0.31364173533E+02  0.24898091354E+03  0.28270813147E+03  0.12500730959E+03 0.  0.
          2    1    1    2  501    0 -0.37529698294E+02  0.77521611239E+02 -0.34457983589E+03  0.35518071705E+03  0.00000000000E+00 0. -1.
          1    1    1    2  502    0  0.11723955723E+01 -0.10888578477E+03  0.68116506432E+03  0.68981398470E+03  0.00000000000E+00 0. -1.
         22    1    3    3    0    0  0.39293034844E+02 -0.61821256093E+01  0.24093635106E+03  0.24419763825E+03  0.00000000000E+00 0.  1.
         22    1    3    3    0    0 -0.29357321227E+01  0.37546299142E+02  0.80445624737E+01  0.38510493216E+02  0.00000000000E+00 0.  1.
</event>
<event>
 7    1  0.6176857E-006  0.8638431E+02  0.7818608E-02  0.1338438E+00
          2   -1    0    0  502    0  0.00000000000E+00  0.00000000000E+00  0.93329354490E+03  0.93329354490E+03  0.00000000000E+00 0. -1.
          1   -1    0    0  501    0 -0.00000000000E+00 -0.00000000000E+00 -0.82396780810E+03  0.82396780810E+03  0.00000000000E+00 0. -1.
         25    2    1    2    0    0 -0.19519107905E+02 -0.19323464284E+02  0.24319904878E+02  0.13027248758E+03  0.12500028560E+03 0.  0.
          2    1    1    2  501    0  0.87496944819E+02  0.13255429666E+02 -0.76708321548E+03  0.77217101813E+03  0.00000000000E+00 0. -1.
          1    1    1    2  502    0 -0.67977836913E+02  0.60680346174E+01  0.85208904740E+03  0.85481784730E+03  0.00000000000E+00 0. -1.
         22    1    3    3    0    0 -0.52649378721E+01  0.59870865483E+01 -0.49919615889E+02  0.50552278155E+02  0.00000000000E+00 0. -1.
         22    1    3    3    0    0 -0.14254170033E+02 -0.25310550832E+02  0.74239520767E+02  0.79720209423E+02  0.00000000000E+00 0. -1.
</event>
<event>
 7    1  0.6176857E-006  0.1310180E+03  0.7818608E-02  0.1352832E+00
          2   -1    0    0  502    0  0.00000000000E+00  0.00000000000E+00  0.11370287423E+04  0.11370287423E+04  0.00000000000E+00 0. -1.
          1   -1    0    0  501    0 -0.00000000000E+00 -0.00000000000E+00 -0.19919507184E+03  0.19919507184E+03  0.00000000000E+00 0. -1.
         25    2    1    2    0    0 -0.10207250444E+03  0.56459035782E+01  0.10193178331E+03  0.19096120834E+03  0.12500168900E+03 0.  0.
          2    1    1    2  501    0 -0.27651559072E+02  0.28577489797E+02 -0.14749231132E+03  0.15275884112E+03  0.00000000000E+00 0. -1.
          1    1    1    2  502    0  0.12972406351E+03 -0.34223393375E+02  0.98339419852E+03  0.99250376472E+03  0.00000000000E+00 0. -1.
         22    1    3    3    0    0 -0.85587803794E+02  0.17408701922E+02  0.12983828957E+03  0.15648104198E+03  0.00000000000E+00 0.  1.
         22    1    3    3    0    0 -0.16484700642E+02 -0.11762798344E+02 -0.27906506262E+02  0.34480166356E+02  0.00000000000E+00 0.  1.
</event>
<event>
 7    1  0.6176857E-006  0.2664742E+03  0.7818608E-02  0.1202974E+00
          2   -1    0    0  502    0  0.00000000000E+00  0.00000000000E+00  0.30308745673E+03  0.30308745673E+03  0.00000000000E+00 0. -1.
          1   -1    0    0  501    0 -0.00000000000E+00 -0.00000000000E+00 -0.34518406495E+04  0.34518406495E+04  0.00000000000E+00 0. -1.
         25    2    1    2    0    0  0.55000496059E+01 -0.21275365079E+03 -0.37148952030E+03  0.44600847516E+03  0.12499891902E+03 0.  0.
          2    1    1    2  501    0 -0.57116835710E+02 -0.59086082605E+02 -0.29703665789E+04  0.29715031736E+04  0.00000000000E+00 0. -1.
          1    1    1    2  502    0  0.51616786104E+02  0.27183973339E+03  0.19310290642E+03  0.33741645741E+03  0.00000000000E+00 0. -1.
         22    1    3    3    0    0 -0.15680132725E+02 -0.15685776973E+03 -0.34752947768E+03  0.38161101182E+03  0.00000000000E+00 0.  1.
         22    1    3    3    0    0  0.21180182331E+02 -0.55895881052E+02 -0.23960042617E+02  0.64397463338E+02  0.00000000000E+00 0.  1.
</event>
<event>
 7    1  0.6176857E-006  0.7917133E+02  0.7818608E-02  0.1402882E+00
          2   -1    0    0  502    0  0.00000000000E+00  0.00000000000E+00  0.48011706049E+03  0.48011706049E+03  0.00000000000E+00 0. -1.
          1   -1    0    0  501    0 -0.00000000000E+00 -0.00000000000E+00 -0.16283957525E+04  0.16283957525E+04  0.00000000000E+00 0. -1.
         25    2    1    2    0    0 -0.39546833517E+02  0.10978707697E+03 -0.15144455373E+03  0.22842306474E+03  0.12499795734E+03 0.  0.
          2    1    1    2  501    0  0.41716744779E+02 -0.66151571486E+02 -0.14363150086E+04  0.14384426027E+04  0.00000000000E+00 0. -1.
          1    1    1    2  502    0 -0.21699112622E+01 -0.43635505483E+02  0.43948087031E+03  0.44164714561E+03  0.00000000000E+00 0. -1.
         22    1    3    3    0    0 -0.51568197783E+02  0.68839301848E+02 -0.17407484418E+02  0.87756190752E+02  0.00000000000E+00 0. -1.
         22    1    3    3    0    0  0.12021364266E+02  0.40947775121E+02 -0.13403706932E+03  0.14066687399E+03  0.00000000000E+00 0. -1.
</event>
<event>
 7    1  0.6176857E-006  0.9981700E+02  0.7818608E-02  0.1380963E+00
          2   -1    0    0  502    0  0.00000000000E+00  0.00000000000E+00  0.41063057746E+04  0.41063057746E+04  0.00000000000E+00 0. -1.
          1   -1    0    0  501    0 -0.00000000000E+00 -0.00000000000E+00 -0.81480909055E+03  0.81480909055E+03  0.00000000000E+00 0. -1.
         25    2    1    2    0    0  0.77702992419E+01 -0.11288529198E+03  0.49848470735E+03  0.52622759865E+03  0.12500006170E+03 0.  0.
          2    1    1    2  501    0 -0.37255544355E+02  0.17839363446E+02 -0.79971564152E+03  0.80078169669E+03  0.00000000000E+00 0. -1.
          1    1    1    2  502    0  0.29485245113E+02  0.95045928537E+02  0.35927276182E+04  0.35941055698E+04  0.00000000000E+00 0. -1.
         22    1    3    3    0    0  0.10142000747E+02 -0.10785862548E+03  0.19806679106E+03  0.22575827115E+03  0.00000000000E+00 0. -1.
         22    1    3    3    0    0 -0.23717015048E+01 -0.50266665013E+01  0.30041791629E+03  0.30046932750E+03  0.00000000000E+00 0. -1.
</event>
<event>
 7    1  0.6176857E-006  0.1125737E+03  0.7818608E-02  0.1264652E+00
          2   -1    0    0  502    0  0.00000000000E+00  0.00000000000E+00  0.71108755674E+03  0.71108755674E+03  0.00000000000E+00 0. -1.
          1   -1    0    0  501    0 -0.00000000000E+00 -0.00000000000E+00 -0.85197319737E+03  0.85197319737E+03  0.00000000000E+00 0. -1.
         25    2    1    2    0    0  0.86584697078E+02  0.66470237679E+02  0.62276012618E+01  0.16606959269E+03  0.12500049734E+03 0.  0.
          2    1    1    2  501    0 -0.90802650922E+02  0.49201591889E+02 -0.76318454217E+03  0.77014061279E+03  0.00000000000E+00 0. -1.
          1    1    1    2  502    0  0.42179538439E+01 -0.11567182957E+03  0.61607130028E+03  0.62685054863E+03  0.00000000000E+00 0. -1.
         22    1    3    3    0    0  0.36352893378E+02  0.92018446390E+02 -0.24436018247E+02  0.10191195377E+03  0.00000000000E+00 0. -1.
         22    1    3    3    0    0  0.50231803700E+02 -0.25548208711E+02  0.30663619509E+02  0.64157638927E+02  0.00000000000E+00 0. -1.
</event>
<event>
 7    1  0.6176857E-006  0.7127211E+02  0.7818608E-02  0.1423445E+00
          2   -1    0    0  502    0  0.00000000000E+00  0.00000000000E+00  0.13886120603E+03  0.13886120603E+03  0.00000000000E+00 0. -1.
          1   -1    0    0  501    0 -0.00000000000E+00 -0.00000000000E+00 -0.17447970902E+04  0.17447970902E+04  0.00000000000E+00 0. -1.
         25    2    1    2    0    0 -0.28156082951E+02 -0.78481479579E+02 -0.17885434954E+03  0.23359371145E+03  0.12500014415E+03 0.  0.
          2    1    1    2  501    0  0.40508326929E+02  0.83865987843E+01 -0.15269049966E+04  0.15274652625E+04  0.00000000000E+00 0. -1.
          1    1    1    2  502    0 -0.12352243978E+02  0.70094880795E+02  0.99823461997E+02  0.12259932222E+03  0.00000000000E+00 0. -1.
         22    1    3    3    0    0 -0.47062327370E+02 -0.10626778755E+03 -0.14579656720E+03  0.18645198936E+03  0.00000000000E+00 0. -1.
         22    1    3    3    0    0  0.18906244420E+02  0.27786307974E+02 -0.33057782333E+02  0.47141722091E+02  0.00000000000E+00 0. -1.
</event>
<event>
 7    1  0.6176857E-006  0.3639065E+02  0.7818608E-02  0.1628941E+00
          2   -1    0    0  502    0  0.00000000000E+00  0.00000000000E+00  0.72899725718E+03  0.72899725718E+03  0.00000000000E+00 0. -1.
          1   -1    0    0  501    0 -0.00000000000E+00 -0.00000000000E+00 -0.33761661570E+02  0.33761661570E+02  0.00000000000E+00 0. -1.
         25    2    1    2    0    0 -0.22333961059E+02  0.34935886649E+02  0.22933789132E+03  0.26446250652E+03  0.12500090786E+03 0.  0.
          2    1    1    2  501    0  0.32241507822E+02 -0.16866811319E+02  0.47581490869E+01  0.36696650166E+02  0.00000000000E+00 0. -1.
          1    1    1    2  502    0 -0.99075467631E+01 -0.18069075330E+02  0.46113955520E+03  0.46159976206E+03  0.00000000000E+00 0. -1.
         22    1    3    3    0    0 -0.51324918947E+02 -0.22430442953E+02  0.54364368876E+02  0.78056752938E+02  0.00000000000E+00 0.  1.
         22    1    3    3    0    0  0.28990957888E+02  0.57366329602E+02  0.17497352244E+03  0.18640575358E+03  0.00000000000E+00 0.  1.
</event>
<event>
 7    1  0.6176857E-006  0.5921316E+02  0.7818608E-02  0.1438227E+00
          2   -1    0    0  502    0  0.00000000000E+00  0.00000000000E+00  0.49880286638E+03  0.49880286638E+03  0.00000000000E+00 0. -1.
          1   -1    0    0  501    0 -0.00000000000E+00 -0.00000000000E+00 -0.49924728309E+03  0.49924728309E+03  0.00000000000E+00 0. -1.
         25    2    1    2    0    0  0.69068250667E+02  0.44604572761E+02  0.20975112448E+02  0.15107906480E+03  0.12499974927E+03 0.  0.
          2    1    1    2  501    0 -0.58939887309E+02 -0.12523363673E+01 -0.43098235481E+03  0.43499571126E+03  0.00000000000E+00 0. -1.
          1    1    1    2  502    0 -0.10128363357E+02 -0.43352236393E+02  0.40956282565E+03  0.41197537341E+03  0.00000000000E+00 0. -1.
         22    1    3    3    0    0 -0.21204269850E+02 -0.16813239647E+02  0.31336550404E+02  0.41403930713E+02  0.00000000000E+00 0.  1.
         22    1    3    3    0    0  0.90272520517E+02  0.61417812407E+02 -0.10361437956E+02  0.10967513409E+03  0.00000000000E+00 0.  1.
</event>
<event>
 7    1  0.6176857E-006  0.4354306E+02  0.7818608E-02  0.1545598E+00
          2   -1    0    0  502    0  0.00000000000E+00  0.00000000000E+00  0.68291110235E+02  0.68291110235E+02  0.00000000000E+00 0. -1.
          1   -1    0    0  501    0 -0.00000000000E+00 -0.00000000000E+00 -0.91040855149E+03  0.91040855149E+03  0.00000000000E+00 0. -1.
         25    2    1    2    0    0 -0.22223071361E+02  0.11721832187E+02 -0.59807000534E+03  0.61152063232E+03  0.12505393321E+03 0.  0.
          2    1    1    2  501    0  0.30685820000E+02 -0.39127899826E+02 -0.30011183022E+03  0.30420342327E+03  0.00000000000E+00 0. -1.
          1    1    1    2  502    0 -0.84627486392E+01  0.27406067639E+02  0.56064394310E+02  0.62975606129E+02  0.00000000000E+00 0. -1.
         22    1    3    3    0    0  0.53859913351E+01  0.60745152084E+02 -0.42953032910E+03  0.43383785683E+03  0.00000000000E+00 0.  1.
         22    1    3    3    0    0 -0.27609062696E+02 -0.49023319897E+02 -0.16853967624E+03  0.17768277549E+03  0.00000000000E+00 0.  1.
</event>
<event>
 7    1  0.6176857E-006  0.6681237E+02  0.7818608E-02  0.1396445E+00
          2   -1    0    0  502    0  0.00000000000E+00  0.00000000000E+00  0.79180185389E+03  0.79180185389E+03  0.00000000000E+00 0. -1.
          1   -1    0    0  501    0 -0.00000000000E+00 -0.00000000000E+00 -0.26943157845E+04  0.26943157845E+04  0.00000000000E+00 0. -1.
         25    2    1    2    0    0 -0.42375187276E+02  0.52246156748E+02  0.11006020397E+03  0.17962046643E+03  0.12499978429E+03 0.  0.
          2    1    1    2  501    0 -0.25367087772E+02 -0.48213424306E+02 -0.26574761200E+04  0.26580344903E+04  0.00000000000E+00 0. -1.
          1    1    1    2  502    0  0.67742275048E+02 -0.40327324417E+01  0.64490198538E+03  0.64846268166E+03  0.00000000000E+00 0. -1.
         22    1    3    3    0    0 -0.72346879238E+01  0.66957881277E+02  0.46161350371E+01  0.67505609227E+02  0.00000000000E+00 0. -1.
         22    1    3    3    0    0 -0.35140499352E+02 -0.14711724529E+02  0.10544406893E+03  0.11211485720E+03  0.00000000000E+00 0. -1.
</event>
<event>
 7    1  0.6176857E-006  0.8792949E+02  0.7818608E-02  0.1330251E+00
          2   -1    0    0  502    0  0.00000000000E+00  0.00000000000E+00  0.15676533518E+04  0.15676533518E+04  0.00000000000E+00 0. -1.
          1   -1    0    0  501    0 -0.00000000000E+00 -0.00000000000E+00 -0.56969642055E+03  0.56969642055E+03  0.00000000000E+00 0. -1.
         25    2    1    2    0    0 -0.36223899476E+02  0.73224595541E+02 -0.23746088639E+02  0.15120814985E+03  0.12500406221E+03 0.  0.
          2    1    1    2  501    0  0.71592247743E+02  0.78466390614E+01 -0.47822003070E+03  0.48361287973E+03  0.00000000000E+00 0. -1.
          1    1    1    2  502    0 -0.35368348267E+02 -0.81071234603E+02  0.14999230506E+04  0.15025287427E+04  0.00000000000E+00 0. -1.
         22    1    3    3    0    0  0.21384230847E+02  0.87364800946E+02 -0.12042118092E+02  0.90746384950E+02  0.00000000000E+00 0. -1.
         22    1    3    3    0    0 -0.57608130323E+02 -0.14140205405E+02 -0.11703970547E+02  0.60461764899E+02  0.00000000000E+00 0. -1.
</event>
<event>
 7    1  0.6176857E-006  0.1793084E+03  0.7818608E-02  0.1249017E+00
          2   -1    0    0  502    0  0.00000000000E+00  0.00000000000E+00  0.29377375756E+04  0.29377375756E+04  0.00000000000E+00 0. -1.
          1   -1    0    0  501    0 -0.00000000000E+00 -0.00000000000E+00 -0.66972001249E+03  0.66972001249E+03  0.00000000000E+00 0. -1.
         25    2    1    2    0    0 -0.19936766962E+03 -0.10146847339E+03  0.40437563687E+03  0.47873318977E+03  0.12498996964E+03 0.  0.
          2    1    1    2  501    0  0.12738418091E+03  0.12479443437E+03 -0.61938492020E+03  0.64454484698E+03  0.00000000000E+00 0. -1.
          1    1    1    2  502    0  0.71983488705E+02 -0.23325960976E+02  0.24830268465E+04  0.24841795514E+04  0.00000000000E+00 0. -1.
         22    1    3    3    0    0  0.97104696814E+01  0.94081012744E+00 -0.23992060182E+01  0.10046618070E+02  0.00000000000E+00 0. -1.
         22    1    3    3    0    0 -0.20907813930E+03 -0.10240928352E+03  0.40677484289E+03  0.46868657170E+03  0.00000000000E+00 0. -1.
</event>
<event>
 7    1  0.6176857E-006  0.5944694E+02  0.7818608E-02  0.1453928E+00
          2   -1    0    0  502    0  0.00000000000E+00  0.00000000000E+00  0.15275523294E+04  0.15275523294E+04  0.00000000000E+00 0. -1.
          1   -1    0    0  501    0 -0.00000000000E+00 -0.00000000000E+00 -0.31247207769E+03  0.31247207769E+03  0.00000000000E+00 0. -1.
         25    2    1    2    0    0  0.14717553842E+02 -0.96037791979E+02 -0.92961168542E+02  0.18359302162E+03  0.12499901940E+03 0.  0.
          2    1    1    2  501    0  0.27487497158E+01  0.39379444771E+02 -0.17135711406E+03  0.17584526390E+03  0.00000000000E+00 0. -1.
          1    1    1    2  502    0 -0.17466303558E+02  0.56658347208E+02  0.14793985343E+04  0.14805861216E+04  0.00000000000E+00 0. -1.
         22    1    3    3    0    0  0.30344472597E+02  0.38579742889E+01 -0.74868705042E+02  0.80876411749E+02  0.00000000000E+00 0. -1.
         22    1    3    3    0    0 -0.15626918754E+02 -0.99895766268E+02 -0.18092463500E+02  0.10271660987E+03  0.00000000000E+00 0. -1.
</event>
<event>
 7    1  0.6176857E-006  0.5880995E+02  0.7818608E-02  0.1463436E+00
          2   -1    0    0  502    0  0.00000000000E+00  0.00000000000E+00  0.21277022747E+04  0.21277022747E+04  0.00000000000E+00 0. -1.
          1   -1    0    0  501    0 -0.00000000000E+00 -0.00000000000E+00 -0.13575007166E+03  0.13575007166E+03  0.00000000000E+00 0. -1.
         25    2    1    2    0    0 -0.23107626422E+02 -0.18758758471E+02  0.90401437624E+03  0.91310067018E+03  0.12499995204E+03 0.  0.
          2    1    1    2  501    0 -0.36908069339E+02 -0.49243391987E+01 -0.12769236246E+03  0.13301050383E+03  0.00000000000E+00 0. -1.
          1    1    1    2  502    0  0.60015695761E+02  0.23683097669E+02  0.12156301893E+04  0.12173411724E+04  0.00000000000E+00 0. -1.
         22    1    3    3    0    0 -0.41833003477E+02  0.43277757228E+02  0.54203342955E+03  0.54536520167E+03  0.00000000000E+00 0.  1.
         22    1    3    3    0    0  0.18725377055E+02 -0.62036515699E+02  0.36198094670E+03  0.36773546851E+03  0.00000000000E+00 0.  1.
</event>
<event>
 7    1  0.6176857E-006  0.8849461E+02  0.7818608E-02  0.1406197E+00
          2   -1    0    0  502    0  0.00000000000E+00  0.00000000000E+00  0.63811538368E+02  0.63811538368E+02  0.00000000000E+00 0. -1.
          1   -1    0    0  501    0 -0.00000000000E+00 -0.00000000000E+00 -0.62788434685E+03  0.62788434685E+03  0.00000000000E+00 0. -1.
         25    2    1    2    0    0 -0.41920012210E+02  0.99273488799E+02 -0.90184032021E+02  0.18807165920E+03  0.12500110544E+03 0.  0.
          2    1    1    2  501    0  0.28622159906E+02 -0.25117824490E+02 -0.38595997055E+03  0.38783402637E+03  0.00000000000E+00 0. -1.
          1    1    1    2  502    0  0.13297852304E+02 -0.74155664309E+02 -0.87928805919E+02  0.11579019965E+03  0.00000000000E+00 0. -1.
         22    1    3    3    0    0 -0.98764946979E+01  0.45925877492E+02  0.27868747141E+02  0.54620494671E+02  0.00000000000E+00 0.  1.
         22    1    3    3    0    0 -0.32043517513E+02  0.53347611307E+02 -0.11805277916E+03  0.13345116453E+03  0.00000000000E+00 0.  1.
</event>
<event>
 7    1  0.6176857E-006  0.1331535E+03  0.7818608E-02  0.1315223E+00
          2   -1    0    0  502    0  0.00000000000E+00  0.00000000000E+00  0.24878264954E+03  0.24878264954E+03  0.00000000000E+00 0. -1.
          1   -1    0    0  501    0 -0.00000000000E+00 -0.00000000000E+00 -0.14631980579E+03  0.14631980579E+03  0.00000000000E+00 0. -1.
         25    2    1    2    0    0 -0.88924882576E+02  0.54871931369E+02  0.81962218565E+02  0.18237712018E+03  0.12500018040E+03 0.  0.
          2    1    1    2  501    0  0.10422057204E+03 -0.10703891495E+03 -0.11163714486E+02  0.14981283480E+03  0.00000000000E+00 0. -1.
          1    1    1    2  502    0 -0.15295689462E+02  0.52166983582E+02  0.31664339678E+02  0.62912500343E+02  0.00000000000E+00 0. -1.
         22    1    3    3    0    0 -0.11277570174E+03  0.59295406233E+02  0.90910615202E+02  0.15652170475E+03  0.00000000000E+00 0. -1.
         22    1    3    3    0    0  0.23850819162E+02 -0.44234748645E+01 -0.89483966372E+01  0.25855415428E+02  0.00000000000E+00 0. -1.
</event>
<event>
 7    1  0.6176857E-006  0.9591433E+02  0.7818608E-02  0.1388606E+00
          2   -1    0    0  502    0  0.00000000000E+00  0.00000000000E+00  0.29926912934E+04  0.29926912934E+04  0.00000000000E+00 0. -1.
          1   -1    0    0  501    0 -0.00000000000E+00 -0.00000000000E+00 -0.28731401162E+03  0.28731401162E+03  0.00000000000E+00 0. -1.
         25    2    1    2    0    0  0.28978013783E+02  0.55201082034E+02 -0.11667544436E+03  0.18200040236E+03  0.12499640956E+03 0.  0.
          2    1    1    2  501    0 -0.10306809896E+02  0.39070951567E+02 -0.13421999170E+03  0.14017052386E+03  0.00000000000E+00 0. -1.
          1    1    1    2  502    0 -0.18671203887E+02 -0.94272033601E+02  0.29562727179E+04  0.29578343788E+04  0.00000000000E+00 0. -1.
         22    1    3    3    0    0 -0.43868524851E+02  0.31146031315E+02 -0.81376845931E+02  0.97553645719E+02  0.00000000000E+00 0. -1.
         22    1    3    3    0    0  0.72846538634E+02  0.24055050719E+02 -0.35298598429E+02  0.84446756641E+02  0.00000000000E+00 0. -1.
</event>
<event>
 7    1  0.6176857E-006  0.1039723E+03  0.7818608E-02  0.1435632E+00
          2   -1    0    0  502    0  0.00000000000E+00  0.00000000000E+00  0.82325984303E+03  0.82325984303E+03  0.00000000000E+00 0. -1.
          1   -1    0    0  501    0 -0.00000000000E+00 -0.00000000000E+00 -0.46693292749E+02  0.46693292749E+02  0.00000000000E+00 0. -1.
         25    2    1    2    0    0 -0.19237549019E+02  0.11873721375E+03  0.19641437225E+03  0.26205437512E+03  0.12500112270E+03 0.  0.
          2    1    1    2  501    0  0.19638632103E+02 -0.16813954474E+02  0.84752137411E+01  0.27206877511E+02  0.00000000000E+00 0. -1.
          1    1    1    2  502    0 -0.40108308397E+00 -0.10192325927E+03  0.57167696430E+03  0.58069188315E+03  0.00000000000E+00 0. -1.
         22    1    3    3    0    0 -0.54599210250E+02  0.12461406352E+03  0.14002077725E+03  0.19523205846E+03  0.00000000000E+00 0.  1.
         22    1    3    3    0    0  0.35361661231E+02 -0.58768497726E+01  0.56393594995E+02  0.66822316667E+02  0.00000000000E+00 0.  1.
</event>
<event>
 7    1  0.6176857E-006  0.1440942E+03  0.7818608E-02  0.1215555E+00
          2   -1    0    0  502    0  0.00000000000E+00  0.00000000000E+00  0.17929618324E+04  0.17929618324E+04  0.00000000000E+00 0. -1.
          1   -1    0    0  501    0 -0.00000000000E+00 -0.00000000000E+00 -0.27794739446E+03  0.27794739446E+03  0.00000000000E+00 0. -1.
         25    2    1    2    0    0  0.58698404930E+02  0.52051438034E+02  0.27977147572E+03  0.31631131586E+03  0.12500365985E+03 0.  0.
          2    1    1    2  501    0  0.32728105486E+02 -0.14843887262E+03 -0.23417695971E+03  0.27918466335E+03  0.00000000000E+00 0. -1.
          1    1    1    2  502    0 -0.91426510416E+02  0.96387434588E+02  0.14694199219E+04  0.14754132476E+04  0.00000000000E+00 0. -1.
         22    1    3    3    0    0  0.74083475792E+02  0.71629788948E+02  0.27096699612E+03  0.28990050196E+03  0.00000000000E+00 0.  1.
         22    1    3    3    0    0 -0.15385070862E+02 -0.19578350914E+02  0.88044795946E+01  0.26410813901E+02  0.00000000000E+00 0.  1.
</event>
<event>
 7    1  0.6176857E-006  0.1063882E+03  0.7818608E-02  0.1335331E+00
          2   -1    0    0  502    0  0.00000000000E+00  0.00000000000E+00  0.28291438998E+03  0.28291438998E+03  0.00000000000E+00 0. -1.
          1   -1    0    0  501    0 -0.00000000000E+00 -0.00000000000E+00 -0.37911727471E+03  0.37911727471E+03  0.00000000000E+00 0. -1.
         25    2    1    2    0    0 -0.15755408291E+03 -0.12813937260E+02  0.10137965392E+02  0.20178423421E+03  0.12500645105E+03 0.  0.
          2    1    1    2  501    0  0.10187032749E+03  0.94405591555E+00 -0.26914215256E+03  0.28777761058E+03  0.00000000000E+00 0. -1.
          1    1    1    2  502    0  0.55683755416E+02  0.11869881345E+02  0.16280130244E+03  0.17246981990E+03  0.00000000000E+00 0. -1.
         22    1    3    3    0    0  0.96954445681E+00 -0.34453332753E+02  0.22743692644E+02  0.41294645044E+02  0.00000000000E+00 0.  1.
         22    1    3    3    0    0 -0.15852362737E+03  0.21639395493E+02 -0.12605727252E+02  0.16048958916E+03  0.00000000000E+00 0.  1.
</event>
<event>
 7    1  0.6176857E-006  0.1969509E+03  0.7818608E-02  0.1255105E+00
          2   -1    0    0  502    0  0.00000000000E+00  0.00000000000E+00  0.54489729494E+03  0.54489729494E+03  0.00000000000E+00 0. -1.
          1   -1    0    0  501    0 -0.00000000000E+00 -0.00000000000E+00 -0.21003415827E+03  0.21003415827E+03  0.00000000000E+00 0. -1.
         25    2    1    2    0    0  0.18354882072E+03  0.57950676419E+01  0.16709859570E+03  0.27797539459E+03  0.12499850765E+03 0.  0.
          2    1    1    2  501    0 -0.19487404156E+03  0.58046533275E+02 -0.81750762428E+02  0.21915400808E+03  0.00000000000E+00 0. -1.
          1    1    1    2  502    0  0.11325220839E+02 -0.63841600917E+02  0.24951530340E+03  0.25780205054E+03  0.00000000000E+00 0. -1.
         22    1    3    3    0    0  0.17639879136E+02  0.29531979206E+02  0.84282901129E+02  0.91032469781E+02  0.00000000000E+00 0. -1.
         22    1    3    3    0    0  0.16590894159E+03 -0.23736911564E+02  0.82815694567E+02  0.18694292481E+03  0.00000000000E+00 0. -1.
</event>
<event>
 7    1  0.6176857E-006  0.9387503E+02  0.7818608E-02  0.1332957E+00
          2   -1    0    0  502    0  0.00000000000E+00  0.00000000000E+00  0.55984476597E+03  0.55984476597E+03  0.00000000000E+00 0. -1.
          1   -1    0    0  501    0 -0.00000000000E+00 -0.00000000000E+00 -0.41690177167E+04  0.41690177167E+04  0.00000000000E+00 0. -1.
         25    2    1    2    0    0 -0.15093565169E+02 -0.38414806519E+02  0.20885533394E+03  0.24687795513E+03  0.12499864456E+03 0.  0.
          2    1    1    2  501    0 -0.25107626803E+02  0.90602865146E+02 -0.41462001620E+04  0.41472659736E+04  0.00000000000E+00 0. -1.
          1    1    1    2  502    0  0.40201191972E+02 -0.52188058627E+02  0.32817187734E+03  0.33471855398E+03  0.00000000000E+00 0. -1.
         22    1    3    3    0    0  0.17502587913E+02 -0.50440949276E+02  0.20509564213E+03  0.21193124444E+03  0.00000000000E+00 0. -1.
         22    1    3    3    0    0 -0.32596153082E+02  0.12026142757E+02  0.37596918060E+01  0.34946710686E+02  0.00000000000E+00 0. -1.
</event>
<event>
 7    1  0.6176857E-006  0.8040785E+02  0.7818608E-02  0.1480435E+00
          2   -1    0    0  502    0  0.00000000000E+00  0.00000000000E+00  0.22949635812E+04  0.22949635812E+04  0.00000000000E+00 0. -1.
          1   -1    0    0  501    0 -0.00000000000E+00 -0.00000000000E+00 -0.36745097944E+03  0.36745097944E+03  0.00000000000E+00 0. -1.
         25    2    1    2    0    0 -0.58330529884E+02 -0.61835604983E+01  0.77968411995E+03  0.79181682683E+03  0.12500349279E+03 0.  0.
          2    1    1    2  501    0  0.80463891135E+02 -0.34008293648E+01 -0.35679986085E+03  0.36577608467E+03  0.00000000000E+00 0. -1.
          1    1    1    2  502    0 -0.22133361251E+02  0.95843898631E+01  0.15046283427E+04  0.15048216491E+04  0.00000000000E+00 0. -1.
         22    1    3    3    0    0 -0.64372008215E+02 -0.55650274688E+01  0.16642038572E+03  0.17852302304E+03  0.00000000000E+00 0. -1.
         22    1    3    3    0    0  0.60414783316E+01 -0.61853302951E+00  0.61326373423E+03  0.61329380379E+03  0.00000000000E+00 0. -1.
</event>
<event>
 7    1  0.6176857E-006  0.3729658E+03  0.7818608E-02  0.1256151E+00
          2   -1    0    0  502    0  0.00000000000E+00  0.00000000000E+00  0.27449463013E+04  0.27449463013E+04  0.00000000000E+00 0. -1.
          1   -1    0    0  501    0 -0.00000000000E+00 -0.00000000000E+00 -0.18076701640E+03  0.18076701640E+03  0.00000000000E+00 0. -1.
         25    2    1    2    0    0  0.92254957357E+02 -0.36002757340E+03  0.37012098826E+03  0.53920871590E+03  0.12500265034E+03 0.  0.
          2    1    1    2  501    0 -0.59834429208E+02  0.36988718600E+03  0.26926067851E+03  0.46140871500E+03  0.00000000000E+00 0. -1.
          1    1    1    2  502    0 -0.32420528149E+02 -0.98596126035E+01  0.19247976181E+04  0.19250958868E+04  0.00000000000E+00 0. -1.
         22    1    3    3    0    0 -0.30857553091E+02 -0.57483103919E+02  0.54712687125E+02  0.85146778867E+02  0.00000000000E+00 0. -1.
         22    1    3    3    0    0  0.12311251045E+03 -0.30254446948E+03  0.31540830114E+03  0.45406193704E+03  0.00000000000E+00 0. -1.
</event>
<event>
 7    1  0.6176857E-006  0.4565380E+02  0.7818608E-02  0.1561683E+00
          2   -1    0    0  502    0  0.00000000000E+00  0.00000000000E+00  0.15984266946E+04  0.15984266946E+04  0.00000000000E+00 0. -1.
          1   -1    0    0  501    0 -0.00000000000E+00 -0.00000000000E+00 -0.58532230757E+03  0.58532230757E+03  0.00000000000E+00 0. -1.
         25    2    1    2    0    0 -0.59746290825E+02  0.35458849037E+02 -0.37236313658E+02  0.14778006713E+03  0.12500182376E+03 0.  0.
          2    1    1    2  501    0  0.18258084408E+02 -0.16611295901E+02 -0.49216834476E+03  0.49278694421E+03  0.00000000000E+00 0. -1.
          1    1    1    2  502    0  0.41488206417E+02 -0.18847553136E+02  0.15425090454E+04  0.15431819908E+04  0.00000000000E+00 0. -1.
         22    1    3    3    0    0 -0.27767188958E+02  0.45430162438E+02  0.38006785507E+02  0.65417369149E+02  0.00000000000E+00 0. -1.
         22    1    3    3    0    0 -0.31979101867E+02 -0.99713134001E+01 -0.75243099165E+02  0.82362697983E+02  0.00000000000E+00 0. -1.
</event>
<event>
 7    1  0.6176857E-006  0.1367765E+03  0.7818608E-02  0.1312301E+00
          2   -1    0    0  502    0  0.00000000000E+00  0.00000000000E+00  0.17813144296E+04  0.17813144296E+04  0.00000000000E+00 0. -1.
          1   -1    0    0  501    0 -0.00000000000E+00 -0.00000000000E+00 -0.80469972102E+02  0.80469972102E+02  0.00000000000E+00 0. -1.
         25    2    1    2    0    0  0.23477504117E+02  0.86773211294E+02  0.15486705006E+03  0.21837305462E+03  0.12498881707E+03 0.  0.
          2    1    1    2  501    0  0.33415521382E+02  0.42847112420E+02 -0.29336380659E+02  0.61750265927E+02  0.00000000000E+00 0. -1.
          1    1    1    2  502    0 -0.56893025499E+02 -0.12962032371E+03  0.15753137881E+04  0.15816610812E+04  0.00000000000E+00 0. -1.
         22    1    3    3    0    0 -0.41834432328E+01  0.88526097780E+02  0.34905162210E+02  0.95250939809E+02  0.00000000000E+00 0.  1.
         22    1    3    3    0    0  0.27660947349E+02 -0.17528864867E+01  0.11996188785E+03  0.12312211481E+03  0.00000000000E+00 0.  1.
</event>
<event>
 7    1  0.6176857E-006  0.7011811E+02  0.7818608E-02  0.1369163E+00
          2   -1    0    0  502    0  0.00000000000E+00  0.00000000000E+00  0.58070479929E+03  0.58070479929E+03  0.00000000000E+00 0. -1.
          1   -1    0    0  501    0 -0.00000000000E+00 -0.00000000000E+00 -0.71864835542E+03  0.71864835542E+03  0.00000000000E+00 0. -1.
         25    2    1    2    0    0  0.11411212511E+02 -0.68060488234E+01 -0.43015487557E+02  0.13286146538E+03  0.12500119497E+03 0.  0.
          2    1    1    2  501    0  0.54904586930E+02  0.34394044923E+02 -0.62662499650E+03  0.62996535638E+03  0.00000000000E+00 0. -1.
          1    1    1    2  502    0 -0.66315799441E+02 -0.27587996099E+02  0.53169692793E+03  0.53652633295E+03  0.00000000000E+00 0. -1.
         22    1    3    3    0    0  0.31745968159E+02  0.14693412739E+02  0.34962013600E+02  0.49457509715E+02  0.00000000000E+00 0.  1.
         22    1    3    3    0    0 -0.20334755648E+02 -0.21499461562E+02 -0.77977501157E+02  0.83403955670E+02  0.00000000000E+00 0.  1.
</event>
<event>
 7    1  0.6176857E-006  0.6643070E+02  0.7818608E-02  0.1405725E+00
          2   -1    0    0  502    0  0.00000000000E+00  0.00000000000E+00  0.14168338326E+04  0.14168338326E+04  0.00000000000E+00 0. -1.
          1   -1    0    0  501    0 -0.00000000000E+00 -0.00000000000E+00 -0.64966184947E+03  0.64966184947E+03  0.00000000000E+00 0. -1.
         25    2    1    2    0    0 -0.70308861274E+02 -0.71374786637E+02  0.40561300828E+03  0.43609106474E+03  0.12496322705E+03 0.  0.
          2    1    1    2  501    0  0.20047092629E+02  0.63234493338E+02 -0.63203510789E+03  0.63550677784E+03  0.00000000000E+00 0. -1.
          1    1    1    2  502    0  0.50261768645E+02  0.81402932990E+01  0.99359408276E+03  0.99489783951E+03  0.00000000000E+00 0. -1.
         22    1    3    3    0    0 -0.87475859371E+02 -0.92538677196E+02  0.28060176287E+03  0.30814409304E+03  0.00000000000E+00 0.  1.
         22    1    3    3    0    0  0.17166998097E+02  0.21163890559E+02  0.12501124541E+03  0.12794697170E+03  0.00000000000E+00 0.  1.
</event>
<event>
 7    1  0.6176857E-006  0.1021989E+03  0.7818608E-02  0.1364030E+00
          2   -1    0    0  502    0  0.00000000000E+00  0.00000000000E+00  0.12917362556E+04  0.12917362556E+04  0.00000000000E+00 0. -1.
          1   -1    0    0  501    0 -0.00000000000E+00 -0.00000000000E+00 -0.14793261033E+03  0.14793261033E+03  0.00000000000E+00 0. -1.
         25    2    1    2    0    0  0.13841476549E+02  0.64690297814E+02  0.20085690699E+03  0.24565200965E+03  0.12499996661E+03 0.  0.
          2    1    1    2  501    0 -0.50268794371E+02 -0.93414968622E+02 -0.10251780430E+03  0.14752358540E+03  0.00000000000E+00 0. -1.
          1    1    1    2  502    0  0.36427317822E+02  0.28724670807E+02  0.10454645426E+04  0.10464932709E+04  0.00000000000E+00 0. -1.
         22    1    3    3    0    0  0.88018667843E+00  0.62799626134E+02  0.21639763230E+03  0.22532754611E+03  0.00000000000E+00 0. -1.
         22    1    3    3    0    0  0.12961289871E+02  0.18906716802E+01 -0.15540725314E+02  0.20324463531E+02  0.00000000000E+00 0. -1.
</event>
<event>
 7    1  0.6176857E-006  0.1793574E+03  0.7818608E-02  0.1235364E+00
          2   -1    0    0  502    0  0.00000000000E+00  0.00000000000E+00  0.39261799179E+03  0.39261799179E+03  0.00000000000E+00 0. -1.
          1   -1    0    0  501    0 -0.00000000000E+00 -0.00000000000E+00 -0.20908215503E+04  0.20908215503E+04  0.00000000000E+00 0. -1.
         25    2    1    2    0    0  0.42362561263E+02  0.87831702451E+02  0.13410132814E+03  0.20765696823E+03  0.12501702161E+03 0.  0.
          2    1    1    2  501    0 -0.10553745846E+03 -0.14743508710E+03 -0.20413634455E+04  0.20493999065E+04  0.00000000000E+00 0. -1.
          1    1    1    2  502    0  0.63174897194E+02  0.59603384653E+02  0.20905855882E+03  0.22638266743E+03  0.00000000000E+00 0. -1.
         22    1    3    3    0    0 -0.23956973541E+02  0.36661179421E+02  0.11312256530E+03  0.12130413612E+03  0.00000000000E+00 0. -1.
         22    1    3    3    0    0  0.66319534804E+02  0.51170523030E+02  0.20978762833E+02  0.86352832112E+02  0.00000000000E+00 0. -1.
</event>
<event>
 7    1  0.6176857E-006  0.8447640E+02  0.7818608E-02  0.1451964E+00
          2   -1    0    0  502    0  0.00000000000E+00  0.00000000000E+00  0.51047825315E+03  0.51047825315E+03  0.00000000000E+00 0. -1.
          1   -1    0    0  501    0 -0.00000000000E+00 -0.00000000000E+00 -0.51785874762E+02  0.51785874762E+02  0.00000000000E+00 0. -1.
         25    2    1    2    0    0 -0.93104201525E+02 -0.44410578770E+02  0.29427810895E+03  0.33595301668E+03  0.12499652860E+03 0.  0.
          2    1    1    2  501    0  0.78928512486E+02  0.20053154055E+02  0.26638083355E+02  0.85682125065E+02  0.00000000000E+00 0. -1.
          1    1    1    2  502    0  0.14175689039E+02  0.24357424715E+02  0.13777618609E+03  0.14062898617E+03  0.00000000000E+00 0. -1.
         22    1    3    3    0    0 -0.84516108791E+02  0.15649684364E+02  0.97225129010E+02  0.12977137965E+03  0.00000000000E+00 0.  1.
         22    1    3    3    0    0 -0.85880927344E+01 -0.60060263134E+02  0.19705297994E+03  0.20618163703E+03  0.00000000000E+00 0.  1.
</event>
<event>
 7    1  0.6176857E-006  0.1486116E+03  0.7818608E-02  0.1229116E+00
          2   -1    0    0  502    0  0.00000000000E+00  0.00000000000E+00  0.17384599500E+04  0.17384599500E+04  0.00000000000E+00 0. -1.
          1   -1    0    0  501    0 -0.00000000000E+00 -0.00000000000E+00 -0.11622820383E+03  0.11622820383E+03  0.00000000000E+00 0. -1.
         25    2    1    2    0    0 -0.24410265143E+03 -0.52094661121E+02  0.37326684417E+03  0.46610434464E+03  0.12500065992E+03 0.  0.
          2    1    1    2  501    0  0.11163036741E+03  0.57926186557E+01 -0.18562964217E+02  0.11331141602E+03  0.00000000000E+00 0. -1.
          1    1    1    2  502    0  0.13247228402E+03  0.46302042465E+02  0.12675278662E+04  0.12752723932E+04  0.00000000000E+00 0. -1.
         22    1    3    3    0    0  0.92402092353E+01  0.62578603739E+01 -0.78331218008E-01  0.11160126296E+02  0.00000000000E+00 0. -1.
         22    1    3    3    0    0 -0.25334286067E+03 -0.58352521495E+02  0.37334517539E+03  0.45494421834E+03  0.00000000000E+00 0. -1.
</event>
<event>
 7    1  0.6176857E-006  0.6781080E+02  0.7818608E-02  0.1446656E+00
          2   -1    0    0  502    0  0.00000000000E+00  0.00000000000E+00  0.64459335407E+03  0.64459335407E+03  0.00000000000E+00 0. -1.
          1   -1    0    0  501    0 -0.00000000000E+00 -0.00000000000E+00 -0.16603325702E+03  0.16603325702E+03  0.00000000000E+00 0. -1.
         25    2    1    2    0    0  0.43450814913E+02  0.73891683115E+02  0.46346714014E+03  0.48762149284E+03  0.12499990456E+03 0.  0.
          2    1    1    2  501    0 -0.75555731400E+01 -0.67219446637E+02 -0.14436199687E+03  0.15942373359E+03  0.00000000000E+00 0. -1.
          1    1    1    2  502    0 -0.35895241773E+02 -0.66722364782E+01  0.15945495378E+03  0.16358138466E+03  0.00000000000E+00 0. -1.
         22    1    3    3    0    0  0.19931841003E+02 -0.33477763751E+02  0.16559703238E+03  0.17011882931E+03  0.00000000000E+00 0.  1.
         22    1    3    3    0    0  0.23518973910E+02  0.10736944687E+03  0.29787010776E+03  0.31750266353E+03  0.00000000000E+00 0.  1.
</event>
<event>
 7    1  0.6176857E-006  0.1199239E+03  0.7818608E-02  0.1292931E+00
          2   -1    0    0  502    0  0.00000000000E+00  0.00000000000E+00  0.41808815110E+03  0.41808815110E+03  0.00000000000E+00 0. -1.
          1   -1    0    0  501    0 -0.00000000000E+00 -0.00000000000E+00 -0.74497679684E+03  0.74497679684E+03  0.00000000000E+00 0. -1.
         25    2    1    2    0    0  0.12710548373E+02 -0.17659523630E+03 -0.47694978603E+02  0.22192900129E+03  0.12502093868E+03 0.  0.
          2    1    1    2  501    0 -0.38305552951E+02  0.63353025468E+02 -0.59762867964E+03  0.60219677843E+03  0.00000000000E+00 0. -1.
          1    1    1    2  502    0  0.25595004578E+02  0.11324221083E+03  0.31843501250E+03  0.33893916823E+03  0.00000000000E+00 0. -1.
         22    1    3    3    0    0 -0.85709970493E+01 -0.74886770800E+02 -0.83061958413E+02  0.11216407342E+03  0.00000000000E+00 0. -1.
         22    1    3    3    0    0  0.21281545423E+02 -0.10170846550E+03  0.35366979810E+02  0.10976492787E+03  0.00000000000E+00 0. -1.
</event>
<event>
 7    1  0.6176857E-006  0.8702659E+02  0.7818608E-02  0.1421122E+00
          2   -1    0    0  502    0  0.00000000000E+00  0.00000000000E+00  0.38626490179E+02  0.38626490179E+02  0.00000000000E+00 0. -1.
          1   -1    0    0  501    0 -0.00000000000E+00 -0.00000000000E+00 -0.99555745299E+03  0.99555745299E+03  0.00000000000E+00 0. -1.
         25    2    1    2    0    0  0.33839870931E+02  0.45186422202E+02 -0.64705683571E+03  0.66143300119E+03  0.12499646718E+03 0.  0.
          2    1    1    2  501    0  0.12689503845E+02  0.32067987881E+02 -0.27324328753E+03  0.27541109915E+03  0.00000000000E+00 0. -1.
          1    1    1    2  502    0 -0.46529374776E+02 -0.77254410083E+02 -0.36630839570E+02  0.97339842828E+02  0.00000000000E+00 0. -1.
         22    1    3    3    0    0  0.53032163092E+02 -0.26309608040E+02 -0.36766018682E+03  0.37239578243E+03  0.00000000000E+00 0. -1.
         22    1    3    3    0    0 -0.19192292161E+02  0.71496030242E+02 -0.27939664889E+03  0.28903721876E+03  0.00000000000E+00 0. -1.
</event>
<event>
 7    1  0.6176857E-006  0.1451433E+03  0.7818608E-02  0.1312283E+00
          2   -1    0    0  502    0  0.00000000000E+00  0.00000000000E+00  0.97657344161E+03  0.97657344161E+03  0.00000000000E+00 0. -1.
          1   -1    0    0  501    0 -0.00000000000E+00 -0.00000000000E+00 -0.43649526751E+03  0.43649526751E+03  0.00000000000E+00 0. -1.
         25    2    1    2    0    0 -0.15116077520E+03  0.15768184477E+02  0.53800841633E+03  0.57286475296E+03  0.12499101385E+03 0.  0.
          2    1    1    2  501    0  0.21411236912E+02  0.46522258403E+02 -0.40511061702E+03  0.40833487926E+03  0.00000000000E+00 0. -1.
          1    1    1    2  502    0  0.12974953829E+03 -0.62290442880E+02  0.40718037480E+03  0.43186907690E+03  0.00000000000E+00 0. -1.
         22    1    3    3    0    0 -0.89114151657E+02  0.39418541182E+02  0.14769472665E+03  0.17694317080E+03  0.00000000000E+00 0. -1.
         22    1    3    3    0    0 -0.62046623547E+02 -0.23650356705E+02  0.39031368968E+03  0.39592158216E+03  0.00000000000E+00 0. -1.
</event>
<event>
 7    1  0.6176857E-006  0.4818137E+02  0.7818608E-02  0.1466627E+00
          2   -1    0    0  502    0  0.00000000000E+00  0.00000000000E+00  0.21963034875E+03  0.21963034875E+03  0.00000000000E+00 0. -1.
          1   -1    0    0  501    0 -0.00000000000E+00 -0.00000000000E+00 -0.22382830368E+03  0.22382830368E+03  0.00000000000E+00 0. -1.
         25    2    1    2    0    0 -0.17033611803E+02  0.19400719149E+02  0.10767238083E+03  0.16699372938E+03  0.12500812863E+03 0.  0.
          2    1    1    2  501    0  0.20764163684E+02  0.39262108662E+02 -0.18062645264E+03  0.18600693284E+03  0.00000000000E+00 0. -1.
          1    1    1    2  502    0 -0.37305518805E+01 -0.58662827811E+02  0.68756116881E+02  0.90457990209E+02  0.00000000000E+00 0. -1.
         22    1    3    3    0    0 -0.59686365123E+02  0.47189163392E+02  0.56135617575E+02  0.94554147893E+02  0.00000000000E+00 0. -1.
         22    1    3    3    0    0  0.42652753320E+02 -0.27788444243E+02  0.51536763259E+02  0.72439581490E+02  0.00000000000E+00 0. -1.
</event>
<event>
 7    1  0.6176857E-006  0.8456584E+02  0.7818608E-02  0.1418213E+00
          2   -1    0    0  502    0  0.00000000000E+00  0.00000000000E+00  0.92894835401E+03  0.92894835401E+03  0.00000000000E+00 0. -1.
          1   -1    0    0  501    0 -0.00000000000E+00 -0.00000000000E+00 -0.17661375325E+04  0.17661375325E+04  0.00000000000E+00 0. -1.
         25    2    1    2    0    0 -0.12034896882E+03  0.88965746562E+00  0.43182956077E+03  0.46538785198E+03  0.12499766967E+03 0.  0.
          2    1    1    2  501    0  0.84320199103E+02 -0.52719627822E+01 -0.17476508861E+04  0.17496917755E+04  0.00000000000E+00 0. -1.
          1    1    1    2  502    0  0.36028769713E+02  0.43823053166E+01  0.47863214678E+03  0.48000625910E+03  0.00000000000E+00 0. -1.
         22    1    3    3    0    0 -0.61192912179E+02  0.51441985781E+02  0.31522260784E+03  0.32520169572E+03  0.00000000000E+00 0. -1.
         22    1    3    3    0    0 -0.59156056638E+02 -0.50552328316E+02  0.11660695293E+03  0.14018615626E+03  0.00000000000E+00 0. -1.
</event>
<event>
 7    1  0.6176857E-006  0.6257358E+02  0.7818608E-02  0.1478474E+00
          2   -1    0    0  502    0  0.00000000000E+00  0.00000000000E+00  0.17841332552E+04  0.17841332552E+04  0.00000000000E+00 0. -1.
          1   -1    0    0  501    0 -0.00000000000E+00 -0.00000000000E+00 -0.10708617333E+03  0.10708617333E+03  0.00000000000E+00 0. -1.
         25    2    1    2    0    0  0.67748974754E+02 -0.64017667590E+02  0.39527163148E+03  0.42491024311E+03  0.12498346574E+03 0.  0.
          2    1    1    2  501    0 -0.44370119152E+02  0.43016622404E+02 -0.81717390139E+02  0.10245422943E+03  0.00000000000E+00 0. -1.
          1    1    1    2  502    0 -0.23378855602E+02  0.21001045186E+02  0.13634928405E+04  0.13638549560E+04  0.00000000000E+00 0. -1.
         22    1    3    3    0    0  0.77241439050E+02 -0.88049017987E+01  0.11317086629E+03  0.13730044129E+03  0.00000000000E+00 0.  1.
         22    1    3    3    0    0 -0.94924642965E+01 -0.55212765791E+02  0.28210076519E+03  0.28760980182E+03  0.00000000000E+00 0.  1.
</event>
<event>
 7    1  0.6176857E-006  0.1121983E+03  0.7818608E-02  0.1265548E+00
          2   -1    0    0  502    0  0.00000000000E+00  0.00000000000E+00  0.22837936643E+04  0.22837936643E+04  0.00000000000E+00 0. -1.
          1   -1    0    0  501    0 -0.00000000000E+00 -0.00000000000E+00 -0.10473045867E+04  0.10473045867E+04  0.00000000000E+00 0. -1.
         25    2    1    2    0    0  0.23285110013E+02 -0.10532787325E+03  0.13955322662E+03  0.21620111730E+03  0.12502664848E+03 0.  0.
          2    1    1    2  501    0  0.76952365551E+02  0.82877615656E+02 -0.10045530657E+04  0.10108992173E+04  0.00000000000E+00 0. -1.
          1    1    1    2  502    0 -0.10023747556E+03  0.22450257590E+02  0.21014889166E+04  0.21039979164E+04  0.00000000000E+00 0. -1.
         22    1    3    3    0    0  0.23208409797E+02 -0.90907224257E+02  0.16334918576E+03  0.18837651180E+03  0.00000000000E+00 0. -1.
         22    1    3    3    0    0  0.76700215443E-01 -0.14420648989E+02 -0.23795959139E+02  0.27824605505E+02  0.00000000000E+00 0. -1.
</event>
<event>
 7    1  0.6176857E-006  0.6892039E+02  0.7818608E-02  0.1374355E+00
          2   -1    0    0  502    0  0.00000000000E+00  0.00000000000E+00  0.14532649912E+04  0.14532649912E+04  0.00000000000E+00 0. -1.
          1   -1    0    0  501    0 -0.00000000000E+00 -0.00000000000E+00 -0.29200630750E+02  0.29200630750E+02  0.00000000000E+00 0. -1.
         25    2    1    2    0    0 -0.16669035907E+02 -0.19354845638E+02  0.56351282141E+03  0.57777562490E+03  0.12500202411E+03 0.  0.
          2    1    1    2  501    0  0.47786571119E+02 -0.49663503230E+02  0.38078952613E+02  0.78740247425E+02  0.00000000000E+00 0. -1.
          1    1    1    2  502    0 -0.31117535212E+02  0.69018348868E+02  0.82247258643E+03  0.82594974962E+03  0.00000000000E+00 0. -1.
         22    1    3    3    0    0  0.29079422845E+01 -0.65883858468E+02  0.19565497645E+03  0.20647035803E+03  0.00000000000E+00 0. -1.
         22    1    3    3    0    0 -0.19576978191E+02  0.46529012830E+02  0.36785784496E+03  0.37130526687E+03  0.00000000000E+00 0. -1.
</event>
<event>
 7    1  0.6176857E-006  0.1105470E+03  0.7818608E-02  0.1333688E+00
          2   -1    0    0  502    0  0.00000000000E+00  0.00000000000E+00  0.16053688639E+04  0.16053688639E+04  0.00000000000E+00 0. -1.
          1   -1    0    0  501    0 -0.00000000000E+00 -0.00000000000E+00 -0.26833045452E+03  0.26833045452E+03  0.00000000000E+00 0. -1.
         25    2    1    2    0    0  0.49057366069E+02 -0.77433913908E+02 -0.26729578831E+01  0.15503174973E+03  0.12500025012E+03 0.  0.
          2    1    1    2  501    0  0.49409510181E+02  0.25463358951E+02 -0.18332518793E+03  0.19156671651E+03  0.00000000000E+00 0. -1.
          1    1    1    2  502    0 -0.98466876250E+02  0.51970554958E+02  0.15230365552E+04  0.15271008522E+04  0.00000000000E+00 0. -1.
         22    1    3    3    0    0 -0.21381304252E+02  0.20907513364E+02 -0.14971068533E+02  0.33442744797E+02  0.00000000000E+00 0.  1.
         22    1    3    3    0    0  0.70438670321E+02 -0.98341427272E+02  0.12298110650E+02  0.12158900493E+03  0.00000000000E+00 0.  1.
</event>
<event>
 7    1  0.6176857E-006  0.8832885E+02  0.7818608E-02  0.1366709E+00
          2   -1    0    0  502    0  0.00000000000E+00  0.00000000000E+00  0.69420309173E+03  0.69420309173E+03  0.00000000000E+00 0. -1.
          1   -1    0    0  501    0 -0.00000000000E+00 -0.00000000000E+00 -0.11879829184E+04  0.11879829184E+04  0.00000000000E+00 0. -1.
         25    2    1    2    0    0 -0.70821543099E+02 -0.15388278963E+02  0.44449981434E+02  0.15115158150E+03  0.12497403587E+03 0.  0.
          2    1    1    2  501    0 -0.11972629848E+02  0.51105814226E+02 -0.11306115536E+04  0.11318293304E+04  0.00000000000E+00 0. -1.
          1    1    1    2  502    0  0.82794172948E+02 -0.35717535262E+02  0.59238174545E+03  0.59920509823E+03  0.00000000000E+00 0. -1.
         22    1    3    3    0    0  0.34272122138E+02  0.27592289561E+01 -0.28154915869E+01  0.34498096950E+02  0.00000000000E+00 0.  1.
         22    1    3    3    0    0 -0.10509366524E+03 -0.18147507920E+02  0.47265473021E+02  0.11665348455E+03  0.00000000000E+00 0.  1.
</event>
<event>
 7    1  0.6176857E-006  0.1053666E+03  0.7818608E-02  0.1463468E+00
          2   -1    0    0  502    0  0.00000000000E+00  0.00000000000E+00  0.10376663642E+04  0.10376663642E+04  0.00000000000E+00 0. -1.
          1   -1    0    0  501    0 -0.00000000000E+00 -0.00000000000E+00 -0.23110448551E+03  0.23110448551E+03  0.00000000000E+00 0. -1.
         25    2    1    2    0    0 -0.96144586735E+02  0.59196513592E+02  0.42637900081E+02  0.17375508952E+03  0.12499932733E+03 0.  0.
          2    1    1    2  501    0  0.97111778181E+02 -0.38441224549E+02 -0.14894248693E+03  0.18191286271E+03  0.00000000000E+00 0. -1.
          1    1    1    2  502    0 -0.96719144583E+00 -0.20755289043E+02  0.91286646552E+03  0.91310289746E+03  0.00000000000E+00 0. -1.
         22    1    3    3    0    0 -0.24494895775E+02  0.26200233625E+01 -0.42370412594E+02  0.49011389542E+02  0.00000000000E+00 0. -1.
         22    1    3    3    0    0 -0.71649690960E+02  0.56576490229E+02  0.85008312675E+02  0.12474369998E+03  0.00000000000E+00 0. -1.
</event>
<event>
 7    1  0.6176857E-006  0.5573736E+02  0.7818608E-02  0.1451694E+00
          2   -1    0    0  502    0  0.00000000000E+00  0.00000000000E+00  0.86013596366E+03  0.86013596366E+03  0.00000000000E+00 0. -1.
          1   -1    0    0  501    0 -0.00000000000E+00 -0.00000000000E+00 -0.49410415913E+03  0.49410415913E+03  0.00000000000E+00 0. -1.
         25    2    1    2    0    0 -0.38235901152E+02  0.75150810531E+02  0.11662033348E+03  0.19061879843E+03  0.12500238267E+03 0.  0.
          2    1    1    2  501    0  0.37838115900E+02 -0.19998949524E+02 -0.45502287531E+03  0.45703117842E+03  0.00000000000E+00 0. -1.
          1    1    1    2  502    0  0.39778525215E+00 -0.55151861006E+02  0.70443434636E+03  0.70659014594E+03  0.00000000000E+00 0. -1.
         22    1    3    3    0    0  0.36445762643E+01 -0.65624755227E+01 -0.22617623588E+02  0.23830776696E+02  0.00000000000E+00 0.  1.
         22    1    3    3    0    0 -0.41880477416E+02  0.81713286053E+02  0.13923795707E+03  0.16678802174E+03  0.00000000000E+00 0.  1.
</event>
<event>
 7    1  0.6176857E-006  0.1133054E+03  0.7818608E-02  0.1328011E+00
          2   -1    0    0  502    0  0.00000000000E+00  0.00000000000E+00  0.17536918759E+04  0.17536918759E+04  0.00000000000E+00 0. -1.
          1   -1    0    0  501    0 -0.00000000000E+00 -0.00000000000E+00 -0.10545915095E+03  0.10545915095E+03  0.00000000000E+00 0. -1.
         25    2    1    2    0    0 -0.13634326988E+03  0.60246532621E+02  0.94245657738E+03  0.96232461457E+03  0.12500052648E+03 0.  0.
          2    1    1    2  501    0  0.56825248709E+02  0.45240781150E+01 -0.83396456764E+02  0.10101754884E+03  0.00000000000E+00 0. -1.
          1    1    1    2  502    0  0.79518021168E+02 -0.64770610736E+02  0.78917260434E+03  0.79580886345E+03  0.00000000000E+00 0. -1.
         22    1    3    3    0    0 -0.29261595024E+02  0.73238636973E+02  0.53718597597E+03  0.54294466723E+03  0.00000000000E+00 0.  1.
         22    1    3    3    0    0 -0.10708167485E+03 -0.12992104351E+02  0.40527060141E+03  0.41937994734E+03  0.00000000000E+00 0.  1.
</event>
<event>
 7    1  0.6176857E-006  0.1620961E+03  0.7818608E-02  0.1205290E+00
          2   -1    0    0  502    0  0.00000000000E+00  0.00000000000E+00  0.10893364650E+04  0.10893364650E+04  0.00000000000E+00 0. -1.
          1   -1    0    0  501    0 -0.00000000000E+00 -0.00000000000E+00 -0.11412550885E+04  0.11412550885E+04  0.00000000000E+00 0. -1.
         25    2    1    2    0    0  0.22508365870E+03  0.15248879050E+03 -0.22229573300E+03  0.37276861815E+03  0.12500226048E+03 0.  0.
          2    1    1    2  501    0 -0.14512391545E+03 -0.47757872536E+02 -0.83246137794E+03  0.84636499868E+03  0.00000000000E+00 0. -1.
          1    1    1    2  502    0 -0.79959743256E+02 -0.10473091797E+03  0.10028384875E+04  0.10114579367E+04  0.00000000000E+00 0. -1.
         22    1    3    3    0    0  0.23020489374E+03  0.11290725276E+03 -0.17284581111E+03  0.30922162804E+03  0.00000000000E+00 0. -1.
         22    1    3    3    0    0 -0.51212350349E+01  0.39581537741E+02 -0.49449921882E+02  0.63546990113E+02  0.00000000000E+00 0. -1.
</event>
<event>
 7    1  0.6176857E-006  0.1757003E+03  0.7818608E-02  0.1185525E+00
          2   -1    0    0  502    0  0.00000000000E+00  0.00000000000E+00  0.14379406625E+04  0.14379406625E+04  0.00000000000E+00 0. -1.
          1   -1    0    0  501    0 -0.00000000000E+00 -0.00000000000E+00 -0.13136628418E+04  0.13136628418E+04  0.00000000000E+00 0. -1.
         25    2    1    2    0    0 -0.10750711080E+03 -0.22855182716E+02  0.27258299464E+03  0.31938434665E+03  0.12499893466E+03 0.  0.
          2    1    1    2  501    0  0.62332387297E+02  0.16686012123E+03 -0.12790769189E+04  0.12914199128E+04  0.00000000000E+00 0. -1.
          1    1    1    2  502    0  0.45174723503E+02 -0.14400493851E+03  0.11307717449E+04  0.11407992449E+04  0.00000000000E+00 0. -1.
         22    1    3    3    0    0 -0.11388022549E+03  0.20517446847E+01  0.12311209177E+03  0.16771852179E+03  0.00000000000E+00 0.  1.
         22    1    3    3    0    0  0.63731146863E+01 -0.24906927400E+02  0.14947090287E+03  0.15166582485E+03  0.00000000000E+00 0.  1.
</event>
<event>
 7    1  0.6176857E-006  0.6242666E+02  0.7818608E-02  0.1399389E+00
          2   -1    0    0  502    0  0.00000000000E+00  0.00000000000E+00  0.95614118453E+03  0.95614118453E+03  0.00000000000E+00 0. -1.
          1   -1    0    0  501    0 -0.00000000000E+00 -0.00000000000E+00 -0.11301500059E+04  0.11301500059E+04  0.00000000000E+00 0. -1.
         25    2    1    2    0    0 -0.52004607473E+02 -0.10226414695E+03  0.38583199780E+03  0.42148774988E+03  0.12499263107E+03 0.  0.
          2    1    1    2  501    0  0.28834907291E+02  0.49121603826E+02 -0.11100690759E+04  0.11115294585E+04  0.00000000000E+00 0. -1.
          1    1    1    2  502    0  0.23169700182E+02  0.53142543120E+02  0.55022825664E+03  0.55327398213E+03  0.00000000000E+00 0. -1.
         22    1    3    3    0    0  0.60291296965E+01 -0.61192875775E+01 -0.81326674577E+01  0.11829470205E+02  0.00000000000E+00 0.  1.
         22    1    3    3    0    0 -0.58033737169E+02 -0.96144859369E+02  0.39396466526E+03  0.40965827968E+03  0.00000000000E+00 0.  1.
</event>
<event>
 7    1  0.6176857E-006  0.8693638E+02  0.7818608E-02  0.1413054E+00
          2   -1    0    0  502    0  0.00000000000E+00  0.00000000000E+00  0.14083248519E+04  0.14083248519E+04  0.00000000000E+00 0. -1.
          1   -1    0    0  501    0 -0.00000000000E+00 -0.00000000000E+00 -0.11425451478E+04  0.11425451478E+04  0.00000000000E+00 0. -1.
         25    2    1    2    0    0  0.82853835440E+01  0.12066865740E+03  0.11884927427E+03  0.21066231755E+03  0.12499555825E+03 0.  0.
          2    1    1    2  501    0  0.50825438441E+01 -0.86444084652E+02 -0.10946570198E+04  0.10980766835E+04  0.00000000000E+00 0. -1.
          1    1    1    2  502    0 -0.13367927388E+02 -0.34224572744E+02  0.12415874495E+04  0.12421309986E+04  0.00000000000E+00 0. -1.
         22    1    3    3    0    0  0.45955188135E+02  0.95091161850E+02  0.12617639971E+03  0.16454389148E+03  0.00000000000E+00 0. -1.
         22    1    3    3    0    0 -0.37669804591E+02  0.25577495546E+02 -0.73271254353E+01  0.46118426073E+02  0.00000000000E+00 0. -1.
</event>
<event>
 7    1  0.6176857E-006  0.4995188E+02  0.7818608E-02  0.1560073E+00
          2   -1    0    0  502    0  0.00000000000E+00  0.00000000000E+00  0.59475333046E+03  0.59475333046E+03  0.00000000000E+00 0. -1.
          1   -1    0    0  501    0 -0.00000000000E+00 -0.00000000000E+00 -0.11118149597E+03  0.11118149597E+03  0.00000000000E+00 0. -1.
         25    2    1    2    0    0 -0.48324012414E+02  0.48236903914E+02  0.69758903387E+02  0.15860434141E+03  0.12500809348E+03 0.  0.
          2    1    1    2  501    0  0.64770350738E+01 -0.21851424589E+02 -0.63497171469E+02  0.67463527364E+02  0.00000000000E+00 0. -1.
          1    1    1    2  502    0  0.41846977341E+02 -0.26385479325E+02  0.47731010258E+03  0.47986695766E+03  0.00000000000E+00 0. -1.
         22    1    3    3    0    0 -0.41907307429E+02  0.43953324212E+02  0.10566770023E+03  0.12187608460E+03  0.00000000000E+00 0. -1.
         22    1    3    3    0    0 -0.64167049853E+01  0.42835797021E+01 -0.35908796839E+02  0.36728256811E+02  0.00000000000E+00 0. -1.
</event>
<event>
 7    1  0.6176857E-006  0.4131406E+02  0.7818608E-02  0.1593154E+00
          2   -1    0    0  502    0  0.00000000000E+00  0.00000000000E+00  0.10282164845E+04  0.10282164845E+04  0.00000000000E+00 0. -1.
          1   -1    0    0  501    0 -0.00000000000E+00 -0.00000000000E+00 -0.10713645085E+03  0.10713645085E+03  0.00000000000E+00 0. -1.
         25    2    1    2    0    0 -0.12688297382E+01 -0.62647385607E+02  0.11891669449E+03  0.18355402997E+03  0.12499838734E+03 0.  0.
          2    1    1    2  501    0  0.38901662787E+01  0.40356446733E+02 -0.69170042569E+02  0.80176498898E+02  0.00000000000E+00 0. -1.
          1    1    1    2  502    0 -0.26213365405E+01  0.22290938873E+02  0.87133338171E+03  0.87162240646E+03  0.00000000000E+00 0. -1.
         22    1    3    3    0    0 -0.16596610244E+02 -0.88638572682E+02  0.39223852415E+02  0.98339995103E+02  0.00000000000E+00 0. -1.
         22    1    3    3    0    0  0.15327780505E+02  0.25991187075E+02  0.79692842075E+02  0.85214034870E+02  0.00000000000E+00 0. -1.
</event>
<event>
 7    1  0.6176857E-006  0.7011104E+02  0.7818608E-02  0.1426874E+00
          2   -1    0    0  502    0  0.00000000000E+00  0.00000000000E+00  0.62350682854E+03  0.62350682854E+03  0.00000000000E+00 0. -1.
          1   -1    0    0  501    0 -0.00000000000E+00 -0.00000000000E+00 -0.45090319821E+03  0.45090319821E+03  0.00000000000E+00 0. -1.
         25    2    1    2    0    0 -0.81154374045E+02 -0.46857476116E+02 -0.78134140699E+02  0.17467503913E+03  0.12499907943E+03 0.  0.
          2    1    1    2  501    0  0.39856473624E+02 -0.94701014457E+01 -0.32107221021E+03  0.32367512336E+03  0.00000000000E+00 0. -1.
          1    1    1    2  502    0  0.41297900421E+02  0.56327577562E+02  0.57180998124E+03  0.57605986426E+03  0.00000000000E+00 0. -1.
         22    1    3    3    0    0 -0.10778703657E+03 -0.10670410543E+02 -0.39096059172E+02  0.11515383083E+03  0.00000000000E+00 0. -1.
         22    1    3    3    0    0  0.26632662522E+02 -0.36187065573E+02 -0.39038081527E+02  0.59521208297E+02  0.00000000000E+00 0. -1.
</event>
<event>
 7    1  0.6176857E-006  0.2353982E+03  0.7818608E-02  0.1144975E+00
          2   -1    0    0  502    0  0.00000000000E+00  0.00000000000E+00  0.19376888851E+04  0.19376888851E+04  0.00000000000E+00 0. -1.
          1   -1    0    0  501    0 -0.00000000000E+00 -0.00000000000E+00 -0.17204298262E+04  0.17204298262E+04  0.00000000000E+00 0. -1.
         25    2    1    2    0    0  0.28865541292E+03  0.25802571607E+03 -0.55236389493E+03  0.68602509858E+03  0.12500138359E+03 0.  0.
          2    1    1    2  501    0 -0.74768326178E+02 -0.16355868115E+03 -0.10865092723E+04  0.11012920338E+04  0.00000000000E+00 0. -1.
          1    1    1    2  502    0 -0.21388708674E+03 -0.94467034923E+02  0.18561322262E+04  0.18708015789E+04  0.00000000000E+00 0. -1.
         22    1    3    3    0    0  0.21646047289E+03  0.14240399208E+03 -0.28021010924E+03  0.38164347053E+03  0.00000000000E+00 0.  1.
         22    1    3    3    0    0  0.72194940032E+02  0.11562172399E+03 -0.27215378570E+03  0.30438162805E+03  0.00000000000E+00 0.  1.
</event>
<event>
 7    1  0.6176857E-006  0.1409426E+03  0.7818608E-02  0.1383838E+00
          2   -1    0    0  502    0  0.00000000000E+00  0.00000000000E+00  0.47784967135E+03  0.47784967135E+03  0.00000000000E+00 0. -1.
          1   -1    0    0  501    0 -0.00000000000E+00 -0.00000000000E+00 -0.14199267559E+03  0.14199267559E+03  0.00000000000E+00 0. -1.
         25    2    1    2    0    0 -0.13477838372E+03 -0.39608749940E+02  0.19217017406E+03  0.26886581501E+03  0.12500153955E+03 0.  0.
          2    1    1    2  501    0  0.14105899680E+03  0.11729159057E+02 -0.53805382453E+02  0.15142731897E+03  0.00000000000E+00 0. -1.
          1    1    1    2  502    0 -0.62806130770E+01  0.27879590883E+02  0.19749220415E+03  0.19954921295E+03  0.00000000000E+00 0. -1.
         22    1    3    3    0    0 -0.12437123708E+03 -0.77194364423E+02  0.16867791778E+03  0.22333699751E+03  0.00000000000E+00 0.  1.
         22    1    3    3    0    0 -0.10407146639E+02  0.37585614484E+02  0.23492256287E+02  0.45528817498E+02  0.00000000000E+00 0.  1.
</event>
<event>
 7    1  0.6176857E-006  0.1963914E+03  0.7818608E-02  0.1264065E+00
          2   -1    0    0  502    0  0.00000000000E+00  0.00000000000E+00  0.96019565789E+03  0.96019565789E+03  0.00000000000E+00 0. -1.
          1   -1    0    0  501    0 -0.00000000000E+00 -0.00000000000E+00 -0.11103467926E+04  0.11103467926E+04  0.00000000000E+00 0. -1.
         25    2    1    2    0    0  0.15797270941E+03  0.16561989622E+02  0.82410485176E+02  0.21828029585E+03  0.12500049227E+03 0.  0.
          2    1    1    2  501    0  0.35804276350E+02  0.47570635850E+02 -0.10286762220E+04  0.10303978267E+04  0.00000000000E+00 0. -1.
          1    1    1    2  502    0 -0.19377698576E+03 -0.64132625472E+02  0.79611460210E+03  0.82186432794E+03  0.00000000000E+00 0. -1.
         22    1    3    3    0    0  0.11067668603E+02  0.21007478877E+02 -0.26329269169E+02  0.35454729897E+02  0.00000000000E+00 0.  1.
         22    1    3    3    0    0  0.14690504081E+03 -0.44454892546E+01  0.10873975435E+03  0.18282556595E+03  0.00000000000E+00 0.  1.
</event>
<event>
 7    1  0.6176857E-006  0.6749047E+02  0.7818608E-02  0.1415064E+00
          2   -1    0    0  502    0  0.00000000000E+00  0.00000000000E+00  0.70103632969E+01  0.70103632969E+01  0.00000000000E+00 0. -1.
          1   -1    0    0  501    0 -0.00000000000E+00 -0.00000000000E+00 -0.36619554972E+04  0.36619554972E+04  0.00000000000E+00 0. -1.
         25    2    1    2    0    0 -0.77285736114E+02 -0.73448592637E+02 -0.16302045168E+04  0.16384625701E+04  0.12500018500E+03 0.  0.
          2    1    1    2  501    0  0.52468421471E+02  0.34010183040E+02 -0.17947970474E+04  0.17958858731E+04  0.00000000000E+00 0. -1.
          1    1    1    2  502    0  0.24817314643E+02  0.39438409597E+02 -0.22994356970E+03  0.23461741731E+03  0.00000000000E+00 0. -1.
         22    1    3    3    0    0  0.87333105167E+01  0.28503749332E+02 -0.37778297099E+03  0.37895739551E+03  0.00000000000E+00 0.  1.
         22    1    3    3    0    0 -0.86019046631E+02 -0.10195234197E+03 -0.12524215458E+04  0.12595051746E+04  0.00000000000E+00 0.  1.
</event>
<event>
 7    1  0.6176857E-006  0.2457078E+03  0.7818608E-02  0.1315282E+00
          2   -1    0    0  502    0  0.00000000000E+00  0.00000000000E+00  0.18313308435E+04  0.18313308435E+04  0.00000000000E+00 0. -1.
          1   -1    0    0  501    0 -0.00000000000E+00 -0.00000000000E+00 -0.28968526105E+03  0.28968526105E+03  0.00000000000E+00 0. -1.
         25    2    1    2    0    0  0.20575217007E+03  0.10356695147E+03  0.18175923767E+03  0.31893804433E+03  0.12499994685E+03 0.  0.
          2    1    1    2  501    0  0.37455598212E+01  0.29205429063E+02 -0.21033628462E+03  0.21238723816E+03  0.00000000000E+00 0. -1.
          1    1    1    2  502    0 -0.20949772989E+03 -0.13277238053E+03  0.15702226294E+04  0.15896908221E+04  0.00000000000E+00 0. -1.
         22    1    3    3    0    0  0.10507918216E+03  0.80331865999E+01  0.22628186714E+02  0.10778776111E+03  0.00000000000E+00 0.  1.
         22    1    3    3    0    0  0.10067298791E+03  0.95533764869E+02  0.15913105096E+03  0.21115028322E+03  0.00000000000E+00 0.  1.
</event>
<event>
 7    1  0.6176857E-006  0.1193870E+03  0.7818608E-02  0.1345130E+00
          2   -1    0    0  502    0  0.00000000000E+00  0.00000000000E+00  0.34109890917E+03  0.34109890917E+03  0.00000000000E+00 0. -1.
          1   -1    0    0  501    0 -0.00000000000E+00 -0.00000000000E+00 -0.12787749728E+04  0.12787749728E+04  0.00000000000E+00 0. -1.
         25    2    1    2    0    0  0.10566908072E+03 -0.99775552811E+01 -0.15561119750E+03  0.22605884960E+03  0.12498900937E+03 0.  0.
          2    1    1    2  501    0 -0.10739327520E+03  0.56553587579E+02 -0.10827537606E+04  0.10895353734E+04  0.00000000000E+00 0. -1.
          1    1    1    2  502    0  0.17241944795E+01 -0.46576032298E+02  0.30068889445E+03  0.30427965899E+03  0.00000000000E+00 0. -1.
         22    1    3    3    0    0  0.69436810705E+02 -0.15075526810E+02 -0.17190106087E+03  0.18600730340E+03  0.00000000000E+00 0. -1.
         22    1    3    3    0    0  0.36232270014E+02  0.50979715286E+01  0.16289863370E+02  0.40051546196E+02  0.00000000000E+00 0. -1.
</event>
<event>
 7    1  0.6176857E-006  0.7304409E+02  0.7818608E-02  0.1468699E+00
          2   -1    0    0  502    0  0.00000000000E+00  0.00000000000E+00  0.14750696705E+03  0.14750696705E+03  0.00000000000E+00 0. -1.
          1   -1    0    0  501    0 -0.00000000000E+00 -0.00000000000E+00 -0.33850301654E+03  0.33850301654E+03  0.00000000000E+00 0. -1.
         25    2    1    2    0    0  0.20948307087E+02  0.46900872390E+02 -0.12523623205E+03  0.18424273778E+03  0.12499099649E+03 0.  0.
          2    1    1    2  501    0  0.26776288941E+02  0.10777854588E+02 -0.17055415337E+03  0.17297933700E+03  0.00000000000E+00 0. -1.
          1    1    1    2  502    0 -0.47724596027E+02 -0.57678726978E+02  0.10479433593E+03  0.12878790881E+03  0.00000000000E+00 0. -1.
         22    1    3    3    0    0  0.71578742204E+02  0.16598724703E+02 -0.51141203123E+02  0.89523497776E+02  0.00000000000E+00 0.  1.
         22    1    3    3    0    0 -0.50630435117E+02  0.30302147687E+02 -0.74095028929E+02  0.94719240002E+02  0.00000000000E+00 0.  1.
</event>
<event>
 7    1  0.6176857E-006  0.4410046E+02  0.7818608E-02  0.1522762E+00
          2   -1    0    0  502    0  0.00000000000E+00  0.00000000000E+00  0.26629779189E+03  0.26629779189E+03  0.00000000000E+00 0. -1.
          1   -1    0    0  501    0 -0.00000000000E+00 -0.00000000000E+00 -0.28666422959E+03  0.28666422959E+03  0.00000000000E+00 0. -1.
         25    2    1    2    0    0  0.44468602750E+02  0.43679324737E+02 -0.21617740089E+03  0.25737747807E+03  0.12500063009E+03 0.  0.
          2    1    1    2  501    0 -0.18054971946E+01 -0.32847956571E+02 -0.42216851217E+02  0.53521122911E+02  0.00000000000E+00 0. -1.
          1    1    1    2  502    0 -0.42663105555E+02 -0.10831368166E+02  0.23802781441E+03  0.24206342050E+03  0.00000000000E+00 0. -1.
         22    1    3    3    0    0  0.81933996603E+02  0.57106357460E+02 -0.15320030573E+03  0.18287878373E+03  0.00000000000E+00 0. -1.
         22    1    3    3    0    0 -0.37465393854E+02 -0.13427032723E+02 -0.62977095152E+02  0.74498694338E+02  0.00000000000E+00 0. -1.
</event>
<event>
 7    1  0.6176857E-006  0.4498286E+02  0.7818608E-02  0.1540961E+00
          2   -1    0    0  502    0  0.00000000000E+00  0.00000000000E+00  0.79599171050E+03  0.79599171050E+03  0.00000000000E+00 0. -1.
          1   -1    0    0  501    0 -0.00000000000E+00 -0.00000000000E+00 -0.63329910116E+02  0.63329910116E+02  0.00000000000E+00 0. -1.
         25    2    1    2    0    0 -0.99493137695E+01 -0.27969256156E+02  0.59766792121E+03  0.61132115090E+03  0.12500134942E+03 0.  0.
          2    1    1    2  501    0 -0.14423027177E+02  0.42957089251E+02 -0.46110919630E+02  0.64649455829E+02  0.00000000000E+00 0. -1.
          1    1    1    2  502    0  0.24372340947E+02 -0.14987833094E+02  0.18110479880E+03  0.18335101389E+03  0.00000000000E+00 0. -1.
         22    1    3    3    0    0 -0.56213995869E+01 -0.21574017895E+02  0.60203642055E+03  0.60244907673E+03  0.00000000000E+00 0.  1.
         22    1    3    3    0    0 -0.43279141825E+01 -0.63952382612E+01 -0.43684993406E+01  0.88720741700E+01  0.00000000000E+00 0.  1.
</event>
<event>
 7    1  0.6176857E-006  0.7192571E+02  0.7818608E-02  0.1449314E+00
          2   -1    0    0  502    0  0.00000000000E+00  0.00000000000E+00  0.49190967762E+03  0.49190967762E+03  0.00000000000E+00 0. -1.
          1   -1    0    0  501    0 -0.00000000000E+00 -0.00000000000E+00 -0.82652985076E+03  0.82652985076E+03  0.00000000000E+00 0. -1.
         25    2    1    2    0    0 -0.11670463791E+02  0.84734285260E+02 -0.50205871786E+03  0.52440823832E+03  0.12499978163E+03 0.  0.
          2    1    1    2  501    0  0.30109893418E+02 -0.15250485082E+02 -0.30968676890E+03  0.31152058971E+03  0.00000000000E+00 0. -1.
          1    1    1    2  502    0 -0.18439429627E+02 -0.69483800178E+02  0.47712531363E+03  0.48251070036E+03  0.00000000000E+00 0. -1.
         22    1    3    3    0    0 -0.48361724207E+02  0.94488494404E+02 -0.28648552814E+03  0.30551741321E+03  0.00000000000E+00 0.  1.
         22    1    3    3    0    0  0.36691260417E+02 -0.97542091439E+01 -0.21557318972E+03  0.21889082510E+03  0.00000000000E+00 0.  1.
</event>
<event>
 7    1  0.6176857E-006  0.9548208E+02  0.7818608E-02  0.1375313E+00
          2   -1    0    0  502    0  0.00000000000E+00  0.00000000000E+00  0.82519080601E+03  0.82519080601E+03  0.00000000000E+00 0. -1.
          1   -1    0    0  501    0 -0.00000000000E+00 -0.00000000000E+00 -0.14090836975E+03  0.14090836975E+03  0.00000000000E+00 0. -1.
         25    2    1    2    0    0 -0.31072850947E+02 -0.64386763839E+02  0.30705785877E+03  0.33914634989E+03  0.12499816233E+03 0.  0.
          2    1    1    2  501    0  0.62529269777E-01  0.97304209628E+02 -0.10468653483E+03  0.14292439854E+03  0.00000000000E+00 0. -1.
          1    1    1    2  502    0  0.31010321677E+02 -0.32917445789E+02  0.48191111232E+03  0.48402842734E+03  0.00000000000E+00 0. -1.
         22    1    3    3    0    0 -0.10597663552E+02 -0.23015106545E+02  0.28815173972E+03  0.28926360073E+03  0.00000000000E+00 0. -1.
         22    1    3    3    0    0 -0.20475187395E+02 -0.41371657295E+02  0.18906119052E+02  0.49882749160E+02  0.00000000000E+00 0. -1.
</event>
<event>
 7    1  0.6176857E-006  0.7966885E+02  0.7818608E-02  0.1362739E+00
          2   -1    0    0  502    0  0.00000000000E+00  0.00000000000E+00  0.41894667830E+04  0.41894667830E+04  0.00000000000E+00 0. -1.
          1   -1    0    0  501    0 -0.00000000000E+00 -0.00000000000E+00 -0.79292779931E+02  0.79292779931E+02  0.00000000000E+00 0. -1.
         25    2    1    2    0    0 -0.42981678062E+02  0.14586090281E+02  0.21885295622E+03  0.25608997750E+03  0.12500112580E+03 0.  0.
          2    1    1    2  501    0  0.41438394625E+02 -0.74721485184E+02 -0.30248331082E+02  0.90638857178E+02  0.00000000000E+00 0. -1.
          1    1    1    2  502    0  0.15432834368E+01  0.60135394903E+02  0.39215693779E+04  0.39220307283E+04  0.00000000000E+00 0. -1.
         22    1    3    3    0    0 -0.68846849243E+02  0.33729356303E-01  0.51116806296E+02  0.85748572433E+02  0.00000000000E+00 0.  1.
         22    1    3    3    0    0  0.25865171181E+02  0.14552360925E+02  0.16773614992E+03  0.17034140507E+03  0.00000000000E+00 0.  1.
</event>
<event>
 7    1  0.6176857E-006  0.7230003E+02  0.7818608E-02  0.1498845E+00
          2   -1    0    0  502    0  0.00000000000E+00  0.00000000000E+00  0.25701225004E+03  0.25701225004E+03  0.00000000000E+00 0. -1.
          1   -1    0    0  501    0 -0.00000000000E+00 -0.00000000000E+00 -0.15938811141E+04  0.15938811141E+04  0.00000000000E+00 0. -1.
         25    2    1    2    0    0  0.85387573633E+02 -0.17072344909E+02 -0.39036134267E+03  0.41903331892E+03  0.12499776727E+03 0.  0.
          2    1    1    2  501    0 -0.65118696765E+02  0.29148696949E+02 -0.11875371775E+04  0.11896783763E+04  0.00000000000E+00 0. -1.
          1    1    1    2  502    0 -0.20268876868E+02 -0.12076352040E+02  0.24102965607E+03  0.24218166891E+03  0.00000000000E+00 0. -1.
         22    1    3    3    0    0  0.33760978655E+01  0.74462610439E+01  0.80836994447E+01  0.11497436107E+02  0.00000000000E+00 0.  1.
         22    1    3    3    0    0  0.82011475768E+02 -0.24518605953E+02 -0.39844504211E+03  0.40753588281E+03  0.00000000000E+00 0.  1.
</event>
<event>
 7    1  0.6176857E-006  0.7450048E+02  0.7818608E-02  0.1371260E+00
          2   -1    0    0  502    0  0.00000000000E+00  0.00000000000E+00  0.63690808866E+02  0.63690808866E+02  0.00000000000E+00 0. -1.
          1   -1    0    0  501    0 -0.00000000000E+00 -0.00000000000E+00 -0.16596064281E+04  0.16596064281E+04  0.00000000000E+00 0. -1.
         25    2    1    2    0    0 -0.94837077158E+02 -0.48492877482E+02 -0.16743622335E+03  0.23453977662E+03  0.12501354949E+03 0.  0.
          2    1    1    2  501    0  0.73668538235E+02 -0.75716925768E+01 -0.14268880125E+04  0.14288085191E+04  0.00000000000E+00 0. -1.
          1    1    1    2  502    0  0.21168538923E+02  0.56064570058E+02 -0.15913833945E+01  0.59948941251E+02  0.00000000000E+00 0. -1.
         22    1    3    3    0    0 -0.10712107026E+03 -0.39236294308E+02 -0.18105331374E+03  0.21399699274E+03  0.00000000000E+00 0. -1.
         22    1    3    3    0    0  0.12283993100E+02 -0.92565831734E+01  0.13617090397E+02  0.20542783877E+02  0.00000000000E+00 0. -1.
</event>
<event>
 7    1  0.6176857E-006  0.7920447E+02  0.7818608E-02  0.1473879E+00
          2   -1    0    0  502    0  0.00000000000E+00  0.00000000000E+00  0.65802830190E+03  0.65802830190E+03  0.00000000000E+00 0. -1.
          1   -1    0    0  501    0 -0.00000000000E+00 -0.00000000000E+00 -0.36062569763E+03  0.36062569763E+03  0.00000000000E+00 0. -1.
         25    2    1    2    0    0 -0.76846897797E+02 -0.62563758540E+02 -0.16905389994E+03  0.23243200849E+03  0.12500299158E+03 0.  0.
          2    1    1    2  501    0  0.54662929674E+02  0.49685349492E+02 -0.15106994758E+03  0.16816301286E+03  0.00000000000E+00 0. -1.
          1    1    1    2  502    0  0.22183968123E+02  0.12878409048E+02  0.61752645178E+03  0.61805897818E+03  0.00000000000E+00 0. -1.
         22    1    3    3    0    0  0.17858623894E+01 -0.15740878016E+02  0.18128335254E+02  0.24074905696E+02  0.00000000000E+00 0. -1.
         22    1    3    3    0    0 -0.78632760186E+02 -0.46822880524E+02 -0.18718223519E+03  0.20835710280E+03  0.00000000000E+00 0. -1.
</event>
<event>
 7    1  0.6176857E-006  0.8286115E+02  0.7818608E-02  0.1342681E+00
          2   -1    0    0  502    0  0.00000000000E+00  0.00000000000E+00  0.41998554855E+04  0.41998554855E+04  0.00000000000E+00 0. -1.
          1   -1    0    0  501    0 -0.00000000000E+00 -0.00000000000E+00 -0.11441160893E+04  0.11441160893E+04  0.00000000000E+00 0. -1.
         25    2    1    2    0    0  0.10952658346E+03  0.90647368767E+02  0.19114915729E+04  0.19208433024E+04  0.12500376454E+03 0.  0.
          2    1    1    2  501    0 -0.45442556810E+02 -0.51369620155E+02 -0.11377888654E+04  0.11398540986E+04  0.00000000000E+00 0. -1.
          1    1    1    2  502    0 -0.64084026655E+02 -0.39277748612E+02  0.22820366887E+04  0.22832741738E+04  0.00000000000E+00 0. -1.
         22    1    3    3    0    0 -0.22595896837E+02  0.14375432365E+02  0.58412291083E+03  0.58473652406E+03  0.00000000000E+00 0. -1.
         22    1    3    3    0    0  0.13212248030E+03  0.76271936402E+02  0.13273686621E+04  0.13361067784E+04  0.00000000000E+00 0. -1.
</event>
<event>
 7    1  0.6176857E-006  0.3025453E+03  0.7818608E-02  0.1205665E+00
          2   -1    0    0  502    0  0.00000000000E+00  0.00000000000E+00  0.11912515228E+04  0.11912515228E+04  0.00000000000E+00 0. -1.
          1   -1    0    0  501    0 -0.00000000000E+00 -0.00000000000E+00 -0.11870144175E+04  0.11870144175E+04  0.00000000000E+00 0. -1.
         25    2    1    2    0    0 -0.23944299398E+03  0.13378030296E+03  0.36513967422E+02  0.30362776193E+03  0.12500572454E+03 0.  0.
          2    1    1    2  501    0 -0.55393607015E+02 -0.43306161863E+02 -0.10289449797E+04  0.10313445819E+04  0.00000000000E+00 0. -1.
          1    1    1    2  502    0  0.29483660100E+03 -0.90474141094E+02  0.99666811766E+03  0.10432935964E+04  0.00000000000E+00 0. -1.
         22    1    3    3    0    0 -0.11627154369E+03  0.22067679232E+02  0.64841988241E+02  0.13494642559E+03  0.00000000000E+00 0.  1.
         22    1    3    3    0    0 -0.12317145029E+03  0.11171262373E+03 -0.28328020819E+02  0.16868133634E+03  0.00000000000E+00 0.  1.
</event>
<event>
 7    1  0.6176857E-006  0.7404361E+02  0.7818608E-02  0.1397033E+00
          2   -1    0    0  502    0  0.00000000000E+00  0.00000000000E+00  0.74889829092E+03  0.74889829092E+03  0.00000000000E+00 0. -1.
          1   -1    0    0  501    0 -0.00000000000E+00 -0.00000000000E+00 -0.10946627474E+04  0.10946627474E+04  0.00000000000E+00 0. -1.
         25    2    1    2    0    0  0.85162334395E+02 -0.41730003070E+02  0.18898644307E+03  0.24562965736E+03  0.12499614615E+03 0.  0.
          2    1    1    2  501    0 -0.40575274055E+02  0.61882239040E+02 -0.10639273545E+04  0.10664976231E+04  0.00000000000E+00 0. -1.
          1    1    1    2  502    0 -0.44587060340E+02 -0.20152235970E+02  0.52917645494E+03  0.53143375789E+03  0.00000000000E+00 0. -1.
         22    1    3    3    0    0 -0.27938915769E+02  0.13146069996E+02  0.43672168387E+02  0.53485142444E+02  0.00000000000E+00 0.  1.
         22    1    3    3    0    0  0.11310125016E+03 -0.54876073066E+02  0.14531427469E+03  0.19214451491E+03  0.00000000000E+00 0.  1.
</event>
<event>
 7    1  0.6176857E-006  0.5706743E+02  0.7818608E-02  0.1529386E+00
          2   -1    0    0  502    0  0.00000000000E+00  0.00000000000E+00  0.11998695086E+04  0.11998695086E+04  0.00000000000E+00 0. -1.
          1   -1    0    0  501    0 -0.00000000000E+00 -0.00000000000E+00 -0.66735231124E+02  0.66735231124E+02  0.00000000000E+00 0. -1.
         25    2    1    2    0    0 -0.36597580543E+02  0.55328157134E+01  0.30819309377E+03  0.33462904396E+03  0.12499447612E+03 0.  0.
          2    1    1    2  501    0  0.53254537802E+02 -0.23266669800E+02 -0.37517889199E+02  0.69173518995E+02  0.00000000000E+00 0. -1.
          1    1    1    2  502    0 -0.16656957260E+02  0.17733854086E+02  0.86245907289E+03  0.86280217676E+03  0.00000000000E+00 0. -1.
         22    1    3    3    0    0 -0.30236722408E+02  0.55652540352E+02  0.86242868181E+02  0.10700138757E+03  0.00000000000E+00 0.  1.
         22    1    3    3    0    0 -0.63608581353E+01 -0.50119724639E+02  0.22195022559E+03  0.22762765639E+03  0.00000000000E+00 0.  1.
</event>
<event>
 7    1  0.6176857E-006  0.4466646E+02  0.7818608E-02  0.1560673E+00
          2   -1    0    0  502    0  0.00000000000E+00  0.00000000000E+00  0.14856755878E+04  0.14856755878E+04  0.00000000000E+00 0. -1.
          1   -1    0    0  501    0 -0.00000000000E+00 -0.00000000000E+00 -0.44170575823E+02  0.44170575823E+02  0.00000000000E+00 0. -1.
         25    2    1    2    0    0 -0.50492629680E+02  0.39188632186E+02  0.24554473812E+03  0.28284681083E+03  0.12499938173E+03 0.  0.
          2    1    1    2  501    0  0.25238980289E+02 -0.27779108110E+01 -0.18697983357E+02  0.31533117451E+02  0.00000000000E+00 0. -1.
          1    1    1    2  502    0  0.25253649390E+02 -0.36410721375E+02  0.12146582572E+04  0.12154662354E+04  0.00000000000E+00 0. -1.
         22    1    3    3    0    0 -0.74635481047E+02 -0.13549503021E+02  0.95357320678E+02  0.12184852346E+03  0.00000000000E+00 0.  1.
         22    1    3    3    0    0  0.24142851367E+02  0.52738135208E+02  0.15018741744E+03  0.16099828736E+03  0.00000000000E+00 0.  1.
</event>
<event>
 7    1  0.6176857E-006  0.1146953E+03  0.7818608E-02  0.1286285E+00
          2   -1    0    0  502    0  0.00000000000E+00  0.00000000000E+00  0.17508478003E+04  0.17508478003E+04  0.00000000000E+00 0. -1.
          1   -1    0    0  501    0 -0.00000000000E+00 -0.00000000000E+00 -0.15775126483E+03  0.15775126483E+03  0.00000000000E+00 0. -1.
         25    2    1    2    0    0  0.31412377893E+02 -0.43406330721E+02  0.39512619265E+03  0.41787679024E+03  0.12500182670E+03 0.  0.
          2    1    1    2  501    0  0.16210381364E+02 -0.80771774193E+02 -0.13119695503E+03  0.15491771035E+03  0.00000000000E+00 0. -1.
          1    1    1    2  502    0 -0.47622759257E+02  0.12417810491E+03  0.13291672979E+04  0.13358045646E+04  0.00000000000E+00 0. -1.
         22    1    3    3    0    0  0.57149623116E+02 -0.24001778368E+01  0.76111016999E+02  0.95208860851E+02  0.00000000000E+00 0.  1.
         22    1    3    3    0    0 -0.25737245223E+02 -0.41006152885E+02  0.31901517565E+03  0.32266792939E+03  0.00000000000E+00 0.  1.
</event>
<event>
 7    1  0.6176857E-006  0.6956180E+02  0.7818608E-02  0.1436583E+00
          2   -1    0    0  502    0  0.00000000000E+00  0.00000000000E+00  0.70528462894E+03  0.70528462894E+03  0.00000000000E+00 0. -1.
          1   -1    0    0  501    0 -0.00000000000E+00 -0.00000000000E+00 -0.24531027117E+03  0.24531027117E+03  0.00000000000E+00 0. -1.
         25    2    1    2    0    0  0.36530063630E+02 -0.72270456162E+02  0.21961439353E+03  0.26535394437E+03  0.12499907826E+03 0.  0.
          2    1    1    2  501    0  0.17360588697E+01  0.69495027477E+02 -0.21618483224E+03  0.22708688741E+03  0.00000000000E+00 0. -1.
          1    1    1    2  502    0 -0.38266122500E+02  0.27754286859E+01  0.45654479647E+03  0.45815406832E+03  0.00000000000E+00 0. -1.
         22    1    3    3    0    0  0.72787215510E+02 -0.14993568077E+02  0.74709543398E+02  0.10537695052E+03  0.00000000000E+00 0.  1.
         22    1    3    3    0    0 -0.36257151879E+02 -0.57276888086E+02  0.14490485013E+03  0.15997699386E+03  0.00000000000E+00 0.  1.
</event>
<event>
 7    1  0.6176857E-006  0.8972802E+02  0.7818608E-02  0.1415898E+00
          2   -1    0    0  502    0  0.00000000000E+00  0.00000000000E+00  0.12243746521E+04  0.12243746521E+04  0.00000000000E+00 0. -1.
          1   -1    0    0  501    0 -0.00000000000E+00 -0.00000000000E+00 -0.27106085122E+03  0.27106085122E+03  0.00000000000E+00 0. -1.
         25    2    1    2    0    0  0.72247381015E+02 -0.37576480644E+02 -0.10226230443E+03  0.18087048001E+03  0.12499950268E+03 0.  0.
          2    1    1    2  501    0  0.17352697079E+02  0.30191702154E+02 -0.12541349279E+03  0.13015836181E+03  0.00000000000E+00 0. -1.
          1    1    1    2  502    0 -0.89600078093E+02  0.73847784902E+01  0.11809895981E+04  0.11844066615E+04  0.00000000000E+00 0. -1.
         22    1    3    3    0    0 -0.33118731219E+02 -0.82852875610E+01 -0.47686618735E+02  0.58647335437E+02  0.00000000000E+00 0. -1.
         22    1    3    3    0    0  0.10536611223E+03 -0.29291193083E+02 -0.54575685697E+02  0.12222314457E+03  0.00000000000E+00 0. -1.
</event>
<event>
 7    1  0.6176857E-006  0.5402000E+02  0.7818608E-02  0.1461463E+00
          2   -1    0    0  502    0  0.00000000000E+00  0.00000000000E+00  0.37362211218E+03  0.37362211218E+03  0.00000000000E+00 0. -1.
          1   -1    0    0  501    0 -0.00000000000E+00 -0.00000000000E+00 -0.49468859564E+02  0.49468859564E+02  0.00000000000E+00 0. -1.
         25    2    1    2    0    0 -0.17283407833E+01 -0.50194133502E+02  0.17474966367E+03  0.22064701865E+03  0.12500089475E+03 0.  0.
          2    1    1    2  501    0 -0.38538213260E+02  0.41861324094E+02  0.10859659425E+02  0.57926647918E+02  0.00000000000E+00 0. -1.
          1    1    1    2  502    0  0.40266554043E+02  0.83328094074E+01  0.13854392952E+03  0.14451730517E+03  0.00000000000E+00 0. -1.
         22    1    3    3    0    0  0.39186379815E+02 -0.74707081902E+02  0.13166556924E+03  0.15637308775E+03  0.00000000000E+00 0. -1.
         22    1    3    3    0    0 -0.40914720599E+02  0.24512948400E+02  0.43084094433E+02  0.64273930906E+02  0.00000000000E+00 0. -1.
</event>
<event>
 7    1  0.6176857E-006  0.1163901E+03  0.7818608E-02  0.1313075E+00
          2   -1    0    0  502    0  0.00000000000E+00  0.00000000000E+00  0.47719120586E+04  0.47719120586E+04  0.00000000000E+00 0. -1.
          1   -1    0    0  501    0 -0.00000000000E+00 -0.00000000000E+00 -0.13682634292E+02  0.13682634292E+02  0.00000000000E+00 0. -1.
         25    2    1    2    0    0 -0.69644334010E+02  0.10302639484E+03  0.35362540701E+04  0.35406473183E+04  0.12500325330E+03 0.  0.
          2    1    1    2  501    0  0.62282037761E+02  0.11903246311E+02  0.10955938372E+03  0.12658593154E+03  0.00000000000E+00 0. -1.
          1    1    1    2  502    0  0.73622962489E+01 -0.11492964115E+03  0.11124159705E+04  0.11183614431E+04  0.00000000000E+00 0. -1.
         22    1    3    3    0    0 -0.47411711832E+02 -0.19413027190E+02  0.11750386628E+04  0.11761550047E+04  0.00000000000E+00 0.  1.
         22    1    3    3    0    0 -0.22232622178E+02  0.12243942203E+03  0.23612154073E+04  0.23644923136E+04  0.00000000000E+00 0.  1.
</event>
<event>
 7    1  0.6176857E-006  0.9971543E+02  0.7818608E-02  0.1331564E+00
          2   -1    0    0  502    0  0.00000000000E+00  0.00000000000E+00  0.73542090749E+03  0.73542090749E+03  0.00000000000E+00 0. -1.
          1   -1    0    0  501    0 -0.00000000000E+00 -0.00000000000E+00 -0.14302552146E+03  0.14302552146E+03  0.00000000000E+00 0. -1.
         25    2    1    2    0    0 -0.32296272973E+02  0.92258893657E+02  0.29673336171E+03  0.33649772564E+03  0.12500111479E+03 0.  0.
          2    1    1    2  501    0 -0.53994530085E+02 -0.32030699054E+02 -0.10793138959E+03  0.12486216328E+03  0.00000000000E+00 0. -1.
          1    1    1    2  502    0  0.86290803057E+02 -0.60228194603E+02  0.40359341392E+03  0.41708654003E+03  0.00000000000E+00 0. -1.
         22    1    3    3    0    0 -0.71759973157E+02  0.53343329887E+02  0.11024143777E+03  0.14194428200E+03  0.00000000000E+00 0. -1.
         22    1    3    3    0    0  0.39463700184E+02  0.38915563770E+02  0.18649192394E+03  0.19455344364E+03  0.00000000000E+00 0. -1.
</event>
<event>
 7    1  0.6176857E-006  0.7260572E+02  0.7818608E-02  0.1428571E+00
          2   -1    0    0  502    0  0.00000000000E+00  0.00000000000E+00  0.57530788313E+03  0.57530788313E+03  0.00000000000E+00 0. -1.
          1   -1    0    0  501    0 -0.00000000000E+00 -0.00000000000E+00 -0.52761098271E+02  0.52761098271E+02  0.00000000000E+00 0. -1.
         25    2    1    2    0    0 -0.82933291492E+02 -0.14062984886E+02  0.15913332227E+03  0.21914375933E+03  0.12499949845E+03 0.  0.
          2    1    1    2  501    0  0.56750208104E+02  0.43036223618E+02  0.37143365118E+02  0.80326410573E+02  0.00000000000E+00 0. -1.
          1    1    1    2  502    0  0.26183083388E+02 -0.28973238733E+02  0.32627009747E+03  0.32859881150E+03  0.00000000000E+00 0. -1.
         22    1    3    3    0    0  0.29574538653E+02 -0.23269927237E+02  0.44122079901E+02  0.57990523234E+02  0.00000000000E+00 0.  1.
         22    1    3    3    0    0 -0.11250783014E+03  0.92069423517E+01  0.11501124237E+03  0.16115323609E+03  0.00000000000E+00 0.  1.
</event>
<event>
 7    1  0.6176857E-006  0.5837392E+02  0.7818608E-02  0.1479887E+00
          2   -1    0    0  502    0  0.00000000000E+00  0.00000000000E+00  0.60310708741E+03  0.60310708741E+03  0.00000000000E+00 0. -1.
          1   -1    0    0  501    0 -0.00000000000E+00 -0.00000000000E+00 -0.23392216027E+04  0.23392216027E+04  0.00000000000E+00 0. -1.
         25    2    1    2    0    0  0.65223040019E+01 -0.50395462857E+02 -0.18311479066E+04  0.18361127033E+04  0.12499984192E+03 0.  0.
          2    1    1    2  501    0 -0.33319563283E+02 -0.14786280231E+01 -0.50361945973E+03  0.50472263657E+03  0.00000000000E+00 0. -1.
          1    1    1    2  502    0  0.26797259281E+02  0.51874090880E+02  0.59865285097E+03  0.60149335024E+03  0.00000000000E+00 0. -1.
         22    1    3    3    0    0  0.12120831079E+02  0.32658203944E+02 -0.10429029681E+04  0.10434845824E+04  0.00000000000E+00 0. -1.
         22    1    3    3    0    0 -0.55985270769E+01 -0.83053666800E+02 -0.78824493851E+03  0.79262812098E+03  0.00000000000E+00 0. -1.
</event>
<event>
 7    1  0.6176857E-006  0.1370630E+03  0.7818608E-02  0.1283604E+00
          2   -1    0    0  502    0  0.00000000000E+00  0.00000000000E+00  0.60929596501E+03  0.60929596501E+03  0.00000000000E+00 0. -1.
          1   -1    0    0  501    0 -0.00000000000E+00 -0.00000000000E+00 -0.23613251500E+04  0.23613251500E+04  0.00000000000E+00 0. -1.
         25    2    1    2    0    0 -0.13811566758E+02 -0.94946424043E+02 -0.35341334400E+02  0.16149619852E+03  0.12500571749E+03 0.  0.
          2    1    1    2  501    0  0.82516749867E+02  0.11164411822E+03 -0.22584778767E+04  0.22627407590E+04  0.00000000000E+00 0. -1.
          1    1    1    2  502    0 -0.68705183109E+02 -0.16697694177E+02  0.54179002608E+03  0.54638415747E+03  0.00000000000E+00 0. -1.
         22    1    3    3    0    0 -0.44070133198E+02 -0.64427529150E+02  0.29717880413E+02  0.83523862271E+02  0.00000000000E+00 0. -1.
         22    1    3    3    0    0  0.30258566441E+02 -0.30518894893E+02 -0.65059214812E+02  0.77972336252E+02  0.00000000000E+00 0. -1.
</event>
<event>
 7    1  0.6176857E-006  0.8774724E+02  0.7818608E-02  0.1360889E+00
          2   -1    0    0  502    0  0.00000000000E+00  0.00000000000E+00  0.20624212308E+04  0.20624212308E+04  0.00000000000E+00 0. -1.
          1   -1    0    0  501    0 -0.00000000000E+00 -0.00000000000E+00 -0.21264834750E+03  0.21264834750E+03  0.00000000000E+00 0. -1.
         25    2    1    2    0    0  0.11889795018E+03  0.43102397370E+02  0.73632509989E+03  0.75749229394E+03  0.12500153373E+03 0.  0.
          2    1    1    2  501    0 -0.54505006144E+02  0.10302435725E+02 -0.19689869876E+03  0.20456303051E+03  0.00000000000E+00 0. -1.
          1    1    1    2  502    0 -0.64392944035E+02 -0.53404833094E+02  0.13103464821E+04  0.13130142538E+04  0.00000000000E+00 0. -1.
         22    1    3    3    0    0  0.78271014104E+02 -0.11387225706E+02  0.17471967313E+03  0.19178890671E+03  0.00000000000E+00 0. -1.
         22    1    3    3    0    0  0.40626936075E+02  0.54489623076E+02  0.56160542676E+03  0.56570338723E+03  0.00000000000E+00 0. -1.
</event>
<event>
 7    1  0.6176857E-006  0.4627787E+03  0.7818608E-02  0.1141758E+00
          2   -1    0    0  502    0  0.00000000000E+00  0.00000000000E+00  0.17468169076E+04  0.17468169076E+04  0.00000000000E+00 0. -1.
          1   -1    0    0  501    0 -0.00000000000E+00 -0.00000000000E+00 -0.35207845147E+03  0.35207845147E+03  0.00000000000E+00 0. -1.
         25    2    1    2    0    0  0.20610660392E+03  0.34721312088E+03  0.54023284243E+03  0.68594091981E+03  0.12500615160E+03 0.  0.
          2    1    1    2  501    0 -0.19716040042E+03 -0.44186561921E+03 -0.65304388272E+02  0.48824390633E+03  0.00000000000E+00 0. -1.
          1    1    1    2  502    0 -0.89462034942E+01  0.94652498328E+02  0.91981000199E+03  0.92471053295E+03  0.00000000000E+00 0. -1.
         22    1    3    3    0    0  0.14403224209E+03  0.29950790489E+03  0.36283389014E+03  0.49203526671E+03  0.00000000000E+00 0. -1.
         22    1    3    3    0    0  0.62074361825E+02  0.47705215990E+02  0.17739895229E+03  0.19390565310E+03  0.00000000000E+00 0. -1.
</event>
<event>
 7    1  0.6176857E-006  0.7579939E+02  0.7818608E-02  0.1449241E+00
          2   -1    0    0  502    0  0.00000000000E+00  0.00000000000E+00  0.97039436953E+03  0.97039436953E+03  0.00000000000E+00 0. -1.
          1   -1    0    0  501    0 -0.00000000000E+00 -0.00000000000E+00 -0.54844059338E+03  0.54844059338E+03  0.00000000000E+00 0. -1.
         25    2    1    2    0    0  0.25796549774E+02 -0.43087952420E+02  0.35213806923E+02  0.13924062968E+03  0.12500362847E+03 0.  0.
          2    1    1    2  501    0 -0.56640093752E+02  0.51777344091E+02 -0.49316810334E+03  0.49910296706E+03  0.00000000000E+00 0. -1.
          1    1    1    2  502    0  0.30843543978E+02 -0.86893916711E+01  0.87990807257E+03  0.88049136617E+03  0.00000000000E+00 0. -1.
         22    1    3    3    0    0 -0.12877002879E+02 -0.76948746344E+02  0.20059137523E+01  0.78044541495E+02  0.00000000000E+00 0. -1.
         22    1    3    3    0    0  0.38673552653E+02  0.33860793925E+02  0.33207893171E+02  0.61196088183E+02  0.00000000000E+00 0. -1.
</event>
<event>
 7    1  0.6176857E-006  0.7317716E+02  0.7818608E-02  0.1364244E+00
          2   -1    0    0  502    0  0.00000000000E+00  0.00000000000E+00  0.10127330226E+03  0.10127330226E+03  0.00000000000E+00 0. -1.
          1   -1    0    0  501    0 -0.00000000000E+00 -0.00000000000E+00 -0.54552129979E+03  0.54552129979E+03  0.00000000000E+00 0. -1.
         25    2    1    2    0    0 -0.18613516643E+02  0.91846155138E+01  0.21022604283E+02  0.12844162322E+03  0.12499792207E+03 0.  0.
          2    1    1    2  501    0  0.16938579308E+02 -0.73835556231E+02 -0.44378597545E+03  0.45020506087E+03  0.00000000000E+00 0. -1.
          1    1    1    2  502    0  0.16749373349E+01  0.64650940717E+02 -0.21484626374E+02  0.68147917952E+02  0.00000000000E+00 0. -1.
         22    1    3    3    0    0 -0.48985209987E+02 -0.18361984144E+02 -0.32068310994E+02  0.61360327812E+02  0.00000000000E+00 0. -1.
         22    1    3    3    0    0  0.30371693344E+02  0.27546599657E+02  0.53090915277E+02  0.67081295413E+02  0.00000000000E+00 0. -1.
</event>
<event>
 7    1  0.6176857E-006  0.1210646E+03  0.7818608E-02  0.1329415E+00
          2   -1    0    0  502    0  0.00000000000E+00  0.00000000000E+00  0.26427836138E+03  0.26427836138E+03  0.00000000000E+00 0. -1.
          1   -1    0    0  501    0 -0.00000000000E+00 -0.00000000000E+00 -0.44550109104E+03  0.44550109104E+03  0.00000000000E+00 0. -1.
         25    2    1    2    0    0 -0.10811728000E+03  0.82307254882E+02  0.14222732303E+03  0.23306208831E+03  0.12500198059E+03 0.  0.
          2    1    1    2  501    0  0.11694900071E+03 -0.30357094304E+02 -0.38040025981E+03  0.39912777353E+03  0.00000000000E+00 0. -1.
          1    1    1    2  502    0 -0.88317207084E+01 -0.51950160578E+02  0.56950207116E+02  0.77589590573E+02  0.00000000000E+00 0. -1.
         22    1    3    3    0    0 -0.81877513459E+02  0.89177690799E+02  0.15999503439E+03  0.20063648416E+03  0.00000000000E+00 0.  1.
         22    1    3    3    0    0 -0.26239766542E+02 -0.68704359170E+01 -0.17767711356E+02  0.32425604153E+02  0.00000000000E+00 0.  1.
</event>
<event>
 7    1  0.6176857E-006  0.2145279E+03  0.7818608E-02  0.1308897E+00
          2   -1    0    0  502    0  0.00000000000E+00  0.00000000000E+00  0.11696526658E+03  0.11696526658E+03  0.00000000000E+00 0. -1.
          1   -1    0    0  501    0 -0.00000000000E+00 -0.00000000000E+00 -0.15844191946E+04  0.15844191946E+04  0.00000000000E+00 0. -1.
         25    2    1    2    0    0  0.15064870343E+02  0.23914461974E+03 -0.66245400050E+03  0.71546305202E+03  0.12499990624E+03 0.  0.
          2    1    1    2  501    0  0.17037699271E+02 -0.31405234714E+02 -0.77237327603E+03  0.77319923014E+03  0.00000000000E+00 0. -1.
          1    1    1    2  502    0 -0.32102569614E+02 -0.20773938503E+03 -0.32626651509E+02  0.21272217904E+03  0.00000000000E+00 0. -1.
         22    1    3    3    0    0  0.20538588454E+02  0.64754135315E+02 -0.68745404450E+02  0.96648136500E+02  0.00000000000E+00 0. -1.
         22    1    3    3    0    0 -0.54737181107E+01  0.17439048443E+03 -0.59370859605E+03  0.61881491552E+03  0.00000000000E+00 0. -1.
</event>
<event>
 7    1  0.6176857E-006  0.6508385E+02  0.7818608E-02  0.1393795E+00
          2   -1    0    0  502    0  0.00000000000E+00  0.00000000000E+00  0.73245998097E+03  0.73245998097E+03  0.00000000000E+00 0. -1.
          1   -1    0    0  501    0 -0.00000000000E+00 -0.00000000000E+00 -0.13463541323E+04  0.13463541323E+04  0.00000000000E+00 0. -1.
         25    2    1    2    0    0  0.11776716558E+03  0.28521298019E+02  0.76863498201E+02  0.19030345217E+03  0.12499934728E+03 0.  0.
          2    1    1    2  501    0 -0.61083549188E+02 -0.21467150536E+02 -0.12874567536E+04  0.12890837563E+04  0.00000000000E+00 0. -1.
          1    1    1    2  502    0 -0.56683616394E+02 -0.70541474827E+01  0.59669910406E+03  0.59942690476E+03  0.00000000000E+00 0. -1.
         22    1    3    3    0    0  0.74706520821E+02  0.74322537839E+02  0.71212213559E+02  0.12718523202E+03  0.00000000000E+00 0.  1.
         22    1    3    3    0    0  0.43060644761E+02 -0.45801239821E+02  0.56512846413E+01  0.63118220146E+02  0.00000000000E+00 0.  1.
</event>
<event>
 7    1  0.6176857E-006  0.4284128E+03  0.7818608E-02  0.1225087E+00
          2   -1    0    0  502    0  0.00000000000E+00  0.00000000000E+00  0.12510536233E+04  0.12510536233E+04  0.00000000000E+00 0. -1.
          1   -1    0    0  501    0 -0.00000000000E+00 -0.00000000000E+00 -0.20149626306E+04  0.20149626306E+04  0.00000000000E+00 0. -1.
         25    2    1    2    0    0 -0.22751620121E+03  0.40769760526E+03  0.35217289209E+03  0.59802669326E+03  0.12501688200E+03 0.  0.
          2    1    1    2  501    0  0.20696929746E+03 -0.37287700647E+03 -0.18674538661E+04  0.19155306038E+04  0.00000000000E+00 0. -1.
          1    1    1    2  502    0  0.20546903747E+02 -0.34820598793E+02  0.75137196674E+03  0.75245895686E+03  0.00000000000E+00 0. -1.
         22    1    3    3    0    0  0.13272551912E+02  0.29550472000E+02  0.41279245116E+02  0.52472536694E+02  0.00000000000E+00 0.  1.
         22    1    3    3    0    0 -0.24078875312E+03  0.37814713326E+03  0.31089364697E+03  0.54555415657E+03  0.00000000000E+00 0.  1.
</event>
<event>
 7    1  0.6176857E-006  0.1021173E+03  0.7818608E-02  0.1427347E+00
          2   -1    0    0  502    0  0.00000000000E+00  0.00000000000E+00  0.19851333060E+04  0.19851333060E+04  0.00000000000E+00 0. -1.
          1   -1    0    0  501    0 -0.00000000000E+00 -0.00000000000E+00 -0.10569659395E+03  0.10569659395E+03  0.00000000000E+00 0. -1.
         25    2    1    2    0    0  0.61816587421E+02  0.97324634909E+02  0.15999444593E+03  0.23348619807E+03  0.12499682765E+03 0.  0.
          2    1    1    2  501    0  0.10626035546E+02 -0.25932425134E+02 -0.64593458204E+02  0.70411065519E+02  0.00000000000E+00 0. -1.
          1    1    1    2  502    0 -0.72442622967E+02 -0.71392209775E+02  0.17840357243E+04  0.17869326364E+04  0.00000000000E+00 0. -1.
         22    1    3    3    0    0  0.95540672793E+02  0.43559667059E+02  0.11476614366E+03  0.15555298931E+03  0.00000000000E+00 0.  1.
         22    1    3    3    0    0 -0.33724085373E+02  0.53764967850E+02  0.45228302271E+02  0.77933208766E+02  0.00000000000E+00 0.  1.
</event>
<event>
 7    1  0.6176857E-006  0.1017462E+03  0.7818608E-02  0.1342023E+00
          2   -1    0    0  502    0  0.00000000000E+00  0.00000000000E+00  0.16890597436E+04  0.16890597436E+04  0.00000000000E+00 0. -1.
          1   -1    0    0  501    0 -0.00000000000E+00 -0.00000000000E+00 -0.23610312048E+03  0.23610312048E+03  0.00000000000E+00 0. -1.
         25    2    1    2    0    0  0.13499527504E+03  0.30753404523E+02  0.15541537303E+03  0.24278303490E+03  0.12498066927E+03 0.  0.
          2    1    1    2  501    0 -0.50692638033E+02  0.24200050140E+02 -0.18657913410E+03  0.19485163397E+03  0.00000000000E+00 0. -1.
          1    1    1    2  502    0 -0.84302637007E+02 -0.54953454663E+02  0.14841203842E+04  0.14875281953E+04  0.00000000000E+00 0. -1.
         22    1    3    3    0    0  0.91300452275E+02  0.31208755886E+02  0.17436256187E+02  0.98049895765E+02  0.00000000000E+00 0.  1.
         22    1    3    3    0    0  0.43694822765E+02 -0.45535136341E+00  0.13797911684E+03  0.14473313914E+03  0.00000000000E+00 0.  1.
</event>
<event>
 7    1  0.6176857E-006  0.5468468E+02  0.7818608E-02  0.1474468E+00
          2   -1    0    0  502    0  0.00000000000E+00  0.00000000000E+00  0.14762964501E+04  0.14762964501E+04  0.00000000000E+00 0. -1.
          1   -1    0    0  501    0 -0.00000000000E+00 -0.00000000000E+00 -0.57912937304E+02  0.57912937304E+02  0.00000000000E+00 0. -1.
         25    2    1    2    0    0  0.22162676316E+02 -0.63025255118E+02  0.11191786043E+03  0.18059498666E+03  0.12500229886E+03 0.  0.
          2    1    1    2  501    0 -0.43109489735E+02  0.32528972901E+02  0.79680675099E+01  0.54589855130E+02  0.00000000000E+00 0. -1.
          1    1    1    2  502    0  0.20946813420E+02  0.30496282217E+02  0.12984975849E+04  0.12990245456E+04  0.00000000000E+00 0. -1.
         22    1    3    3    0    0 -0.46600836684E+02 -0.15361222863E+02  0.12458979442E+02  0.50624414231E+02  0.00000000000E+00 0.  1.
         22    1    3    3    0    0  0.68763513000E+02 -0.47664032255E+02  0.99458880985E+02  0.12997057243E+03  0.00000000000E+00 0.  1.
</event>
<event>
 7    1  0.6176857E-006  0.1090654E+03  0.7818608E-02  0.1331527E+00
          2   -1    0    0  502    0  0.00000000000E+00  0.00000000000E+00  0.64095373020E+03  0.64095373020E+03  0.00000000000E+00 0. -1.
          1   -1    0    0  501    0 -0.00000000000E+00 -0.00000000000E+00 -0.16495824262E+03  0.16495824262E+03  0.00000000000E+00 0. -1.
         25    2    1    2    0    0  0.10726728809E+03 -0.11565730515E+03  0.82233294297E+02  0.21741834499E+03  0.12500215487E+03 0.  0.
          2    1    1    2  501    0 -0.65703866106E+02  0.76044139690E+02 -0.69178668052E+02  0.12200572657E+03  0.00000000000E+00 0. -1.
          1    1    1    2  502    0 -0.41563421983E+02  0.39613165457E+02  0.46294086133E+03  0.46648790125E+03  0.00000000000E+00 0. -1.
         22    1    3    3    0    0  0.73976124107E+02 -0.11475929291E+03  0.10898634373E+03  0.17470027295E+03  0.00000000000E+00 0. -1.
         22    1    3    3    0    0  0.33291163982E+02 -0.89801223257E+00 -0.26753049435E+02  0.42718072046E+02  0.00000000000E+00 0. -1.
</event>
<event>
 7    1  0.6176857E-006  0.9207264E+02  0.7818608E-02  0.1328949E+00
          2   -1    0    0  502    0  0.00000000000E+00  0.00000000000E+00  0.58630716417E+03  0.58630716417E+03  0.00000000000E+00 0. -1.
          1   -1    0    0  501    0 -0.00000000000E+00 -0.00000000000E+00 -0.79422886017E+03  0.79422886017E+03  0.00000000000E+00 0. -1.
         25    2    1    2    0    0 -0.52209601272E+02 -0.12967995668E+02 -0.71278624467E+02  0.15361966224E+03  0.12499738775E+03 0.  0.
          2    1    1    2  501    0  0.50063699707E+02  0.82508163913E+02 -0.67611930418E+03  0.68297238936E+03  0.00000000000E+00 0. -1.
          1    1    1    2  502    0  0.21459015655E+01 -0.69540168245E+02  0.53947623264E+03  0.54394397274E+03  0.00000000000E+00 0. -1.
         22    1    3    3    0    0 -0.72423103628E+02  0.22229994780E+02 -0.81999269420E+02  0.11163851841E+03  0.00000000000E+00 0. -1.
         22    1    3    3    0    0  0.20213502356E+02 -0.35197990449E+02  0.10720644953E+02  0.41981143831E+02  0.00000000000E+00 0. -1.
</event>
<event>
 7    1  0.6176857E-006  0.9056514E+02  0.7818608E-02  0.1323611E+00
          2   -1    0    0  502    0  0.00000000000E+00  0.00000000000E+00  0.10399808768E+04  0.10399808768E+04  0.00000000000E+00 0. -1.
          1   -1    0    0  501    0 -0.00000000000E+00 -0.00000000000E+00 -0.17062773610E+03  0.17062773610E+03  0.00000000000E+00 0. -1.
         25    2    1    2    0    0  0.14024802681E+03 -0.62126635633E+02  0.37906972885E+03  0.42760782998E+03  0.12500147620E+03 0.  0.
          2    1    1    2  501    0 -0.66160313957E+02  0.59046143820E+02 -0.13051452510E+03  0.15778997276E+03  0.00000000000E+00 0. -1.
          1    1    1    2  502    0 -0.74087712857E+02  0.30804918134E+01  0.62079793695E+03  0.62521081016E+03  0.00000000000E+00 0. -1.
         22    1    3    3    0    0  0.75208624596E+02  0.26904951114E+02  0.10305679341E+03  0.13038756182E+03  0.00000000000E+00 0. -1.
         22    1    3    3    0    0  0.65039402218E+02 -0.89031586747E+02  0.27601293544E+03  0.29722026816E+03  0.00000000000E+00 0. -1.
</event>
<event>
 7    1  0.6176857E-006  0.2096418E+03  0.7818608E-02  0.1327638E+00
          2   -1    0    0  502    0  0.00000000000E+00  0.00000000000E+00  0.19236286658E+04  0.19236286658E+04  0.00000000000E+00 0. -1.
          1   -1    0    0  501    0 -0.00000000000E+00 -0.00000000000E+00 -0.20144173241E+03  0.20144173241E+03  0.00000000000E+00 0. -1.
         25    2    1    2    0    0  0.12744311504E+03 -0.16773549491E+03  0.26631978347E+02  0.24639627374E+03  0.12499967048E+03 0.  0.
          2    1    1    2  501    0 -0.26426129351E+02 -0.16036131908E+02 -0.82600874472E+02  0.88195251020E+02  0.00000000000E+00 0. -1.
          1    1    1    2  502    0 -0.10101698569E+03  0.18377162681E+03  0.17781558295E+04  0.17904788735E+04  0.00000000000E+00 0. -1.
         22    1    3    3    0    0  0.14676069508E+03 -0.16870939709E+03  0.15657864810E+02  0.22415782614E+03  0.00000000000E+00 0. -1.
         22    1    3    3    0    0 -0.19317580036E+02  0.97390218875E+00  0.10974113537E+02  0.22238447605E+02  0.00000000000E+00 0. -1.
</event>
<event>
 7    1  0.6176857E-006  0.5485217E+02  0.7818608E-02  0.1463980E+00
          2   -1    0    0  502    0  0.00000000000E+00  0.00000000000E+00  0.10850850519E+04  0.10850850519E+04  0.00000000000E+00 0. -1.
          1   -1    0    0  501    0 -0.00000000000E+00 -0.00000000000E+00 -0.28730339330E+03  0.28730339330E+03  0.00000000000E+00 0. -1.
         25    2    1    2    0    0 -0.86416067347E+02  0.22536620061E+02 -0.13183245408E+03  0.20243514281E+03  0.12499822062E+03 0.  0.
          2    1    1    2  501    0  0.47200748681E+02 -0.15947679276E+02 -0.11461081339E+03  0.12497150754E+03  0.00000000000E+00 0. -1.
          1    1    1    2  502    0  0.39215318665E+02 -0.65889407849E+01  0.10442249261E+04  0.10449817949E+04  0.00000000000E+00 0. -1.
         22    1    3    3    0    0 -0.89385405571E+02 -0.20956583764E+02 -0.12954698992E+03  0.15878082922E+03  0.00000000000E+00 0. -1.
         22    1    3    3    0    0  0.29693382244E+01  0.43493203825E+02 -0.22854641599E+01  0.43654313588E+02  0.00000000000E+00 0. -1.
</event>
<event>
 7    1  0.6593500E-006  0.4865997E+02  0.7818608E-02  0.1533546E+00
          2   -1    0    0  502    0  0.00000000000E+00  0.00000000000E+00  0.20510984998E+04  0.20510984998E+04  0.00000000000E+00 0. -1.
          1   -1    0    0  501    0 -0.00000000000E+00 -0.00000000000E+00 -0.81634535537E+03  0.81634535537E+03  0.00000000000E+00 0. -1.
         25    2    1    2    0    0  0.57588273959E+02 -0.45471304467E+02 -0.48872042471E+03  0.50976132009E+03  0.12499960443E+03 0.  0.
          2    1    1    2  501    0 -0.26591505093E+02  0.79787961536E+01 -0.31620624969E+03  0.31742268613E+03  0.00000000000E+00 0. -1.
          1    1    1    2  502    0 -0.30996768867E+02  0.37492508314E+02  0.20396798188E+04  0.20402598489E+04  0.00000000000E+00 0. -1.
         22    1    3    3    0    0  0.44210137562E+02 -0.75949922362E+02 -0.45088110586E+03  0.45936553919E+03  0.00000000000E+00 0.  1.
         22    1    3    3    0    0  0.13378136397E+02  0.30478617894E+02 -0.37839318849E+02  0.50395780906E+02  0.00000000000E+00 0.  1.
</event>
<event>
 7    1  0.6176857E-006  0.1410219E+03  0.7818608E-02  0.1376643E+00
          2   -1    0    0  502    0  0.00000000000E+00  0.00000000000E+00  0.19997597562E+04  0.19997597562E+04  0.00000000000E+00 0. -1.
          1   -1    0    0  501    0 -0.00000000000E+00 -0.00000000000E+00 -0.66979658979E+03  0.66979658979E+03  0.00000000000E+00 0. -1.
         25    2    1    2    0    0 -0.59525292726E+02  0.10589214043E+03 -0.13193854857E+03  0.21860906622E+03  0.12500294938E+03 0.  0.
          2    1    1    2  501    0  0.87779339785E+02 -0.11680318540E+03 -0.48361001514E+03  0.50519980538E+03  0.00000000000E+00 0. -1.
          1    1    1    2  502    0 -0.28254047059E+02  0.10911044976E+02  0.19455117301E+04  0.19457474744E+04  0.00000000000E+00 0. -1.
         22    1    3    3    0    0  0.21787017111E+02  0.88428810885E+02 -0.71944188590E+02  0.11606159994E+03  0.00000000000E+00 0. -1.
         22    1    3    3    0    0 -0.81312309837E+02  0.17463329541E+02 -0.59994359982E+02  0.10254746627E+03  0.00000000000E+00 0. -1.
</event>
<event>
 7    1  0.6176857E-006  0.5796581E+02  0.7818608E-02  0.1413693E+00
          2   -1    0    0  502    0  0.00000000000E+00  0.00000000000E+00  0.66161272589E+03  0.66161272589E+03  0.00000000000E+00 0. -1.
          1   -1    0    0  501    0 -0.00000000000E+00 -0.00000000000E+00 -0.34215089841E+03  0.34215089841E+03  0.00000000000E+00 0. -1.
         25    2    1    2    0    0  0.28731605002E+02 -0.10169620200E+03  0.45254101141E+02  0.16982611021E+03  0.12500140564E+03 0.  0.
          2    1    1    2  501    0  0.34929049448E+01  0.54722056668E+02 -0.27569352265E+03  0.28109361840E+03  0.00000000000E+00 0. -1.
          1    1    1    2  502    0 -0.32224509947E+02  0.46974145335E+02  0.54990124898E+03  0.55284389569E+03  0.00000000000E+00 0. -1.
         22    1    3    3    0    0  0.32676915212E+02 -0.69793052797E+02  0.87592045828E+02  0.11666712261E+03  0.00000000000E+00 0. -1.
         22    1    3    3    0    0 -0.39453102099E+01 -0.31903149206E+02 -0.42337944687E+02  0.53158987596E+02  0.00000000000E+00 0. -1.
</event>
<event>
 7    1  0.6176857E-006  0.1412806E+03  0.7818608E-02  0.1330757E+00
          2   -1    0    0  502    0  0.00000000000E+00  0.00000000000E+00  0.78206562875E+02  0.78206562875E+02  0.00000000000E+00 0. -1.
          1   -1    0    0  501    0 -0.00000000000E+00 -0.00000000000E+00 -0.17832247251E+04  0.17832247251E+04  0.00000000000E+00 0. -1.
         25    2    1    2    0    0 -0.13536368547E+03  0.44148302554E+02 -0.24020039537E+03  0.30592933010E+03  0.12499650041E+03 0.  0.
          2    1    1    2  501    0  0.19862225391E+02  0.39961480741E+02 -0.13963503148E+04  0.13970632161E+04  0.00000000000E+00 0. -1.
          1    1    1    2  502    0  0.11550146008E+03 -0.84109783295E+02 -0.68467452058E+02  0.15843874185E+03  0.00000000000E+00 0. -1.
         22    1    3    3    0    0 -0.47949852315E+02 -0.42889658838E+02 -0.63188235348E+02  0.90174632013E+02  0.00000000000E+00 0.  1.
         22    1    3    3    0    0 -0.87413833159E+02  0.87037961392E+02 -0.17701216002E+03  0.21575469808E+03  0.00000000000E+00 0.  1.
</event>
<event>
 7    1  0.6176857E-006  0.8191376E+02  0.7818608E-02  0.1336090E+00
          2   -1    0    0  502    0  0.00000000000E+00  0.00000000000E+00  0.51812005615E+03  0.51812005615E+03  0.00000000000E+00 0. -1.
          1   -1    0    0  501    0 -0.00000000000E+00 -0.00000000000E+00 -0.26599863804E+03  0.26599863804E+03  0.00000000000E+00 0. -1.
         25    2    1    2    0    0 -0.10533685516E+03 -0.58581788319E+02  0.12653722723E+03  0.21485332369E+03  0.12499040703E+03 0.  0.
          2    1    1    2  501    0  0.33505780305E+02  0.73957814372E+02 -0.21030666326E+03  0.22543577407E+03  0.00000000000E+00 0. -1.
          1    1    1    2  502    0  0.71831074850E+02 -0.15376026053E+02  0.33589085413E+03  0.34382959643E+03  0.00000000000E+00 0. -1.
         22    1    3    3    0    0 -0.90393455969E+02 -0.53742768519E+02  0.15206122003E+03  0.18488341377E+03  0.00000000000E+00 0.  1.
         22    1    3    3    0    0 -0.14943399187E+02 -0.48390197998E+01 -0.25523992806E+02  0.29969909920E+02  0.00000000000E+00 0.  1.
</event>
<event>
 7    1  0.6176857E-006  0.9961941E+02  0.7818608E-02  0.1332875E+00
          2   -1    0    0  502    0  0.00000000000E+00  0.00000000000E+00  0.17623061806E+04  0.17623061806E+04  0.00000000000E+00 0. -1.
          1   -1    0    0  501    0 -0.00000000000E+00 -0.00000000000E+00 -0.61296251069E+03  0.61296251069E+03  0.00000000000E+00 0. -1.
         25    2    1    2    0    0 -0.11922399661E+03 -0.54524624718E+02  0.11736464822E+03  0.21584007674E+03  0.12500072803E+03 0.  0.
          2    1    1    2  501    0  0.57669565750E+02 -0.23096305252E+02 -0.56046941442E+03  0.56390174909E+03  0.00000000000E+00 0. -1.
          1    1    1    2  502    0  0.61554430864E+02  0.77620929970E+02  0.15924484361E+04  0.15955268655E+04  0.00000000000E+00 0. -1.
         22    1    3    3    0    0 -0.83004074462E+02 -0.27313344654E+02 -0.27917859127E+01  0.87427050974E+02  0.00000000000E+00 0. -1.
         22    1    3    3    0    0 -0.36219922153E+02 -0.27211280064E+02  0.12015643413E+03  0.12841302577E+03  0.00000000000E+00 0. -1.
</event>
<event>
 7    1  0.6176857E-006  0.6762906E+02  0.7818608E-02  0.1414369E+00
          2   -1    0    0  502    0  0.00000000000E+00  0.00000000000E+00  0.92580401841E+03  0.92580401841E+03  0.00000000000E+00 0. -1.
          1   -1    0    0  501    0 -0.00000000000E+00 -0.00000000000E+00 -0.30149248318E+03  0.30149248318E+03  0.00000000000E+00 0. -1.
         25    2    1    2    0    0  0.38318691680E+02 -0.10967507754E+02  0.38192519061E+03  0.40383206182E+03  0.12499949831E+03 0.  0.
          2    1    1    2  501    0  0.34668803274E+02  0.31366786799E+02 -0.28593669696E+03  0.28973366374E+03  0.00000000000E+00 0. -1.
          1    1    1    2  502    0 -0.72987494954E+02 -0.20399279045E+02  0.52832304158E+03  0.53373077602E+03  0.00000000000E+00 0. -1.
         22    1    3    3    0    0  0.91631142012E+01 -0.30015764385E+02  0.36269279286E+03  0.36404803360E+03  0.00000000000E+00 0. -1.
         22    1    3    3    0    0  0.29155577478E+02  0.19048256631E+02  0.19232397749E+02  0.39784028227E+02  0.00000000000E+00 0. -1.
</event>
<event>
 7    1  0.6176857E-006  0.7475280E+02  0.7818608E-02  0.1385310E+00
          2   -1    0    0  502    0  0.00000000000E+00  0.00000000000E+00  0.28160419396E+03  0.28160419396E+03  0.00000000000E+00 0. -1.
          1   -1    0    0  501    0 -0.00000000000E+00 -0.00000000000E+00 -0.24761657247E+04  0.24761657247E+04  0.00000000000E+00 0. -1.
         25    2    1    2    0    0 -0.35326894070E+02  0.26206937383E+02 -0.11768193133E+03  0.17722009576E+03  0.12499252925E+03 0.  0.
          2    1    1    2  501    0 -0.40647840243E+02 -0.34390150487E+02 -0.23226059989E+04  0.23232162093E+04  0.00000000000E+00 0. -1.
          1    1    1    2  502    0  0.75974734313E+02  0.81832131043E+01  0.24572639950E+03  0.25733361351E+03  0.00000000000E+00 0. -1.
         22    1    3    3    0    0 -0.75070681570E+02  0.45090853443E+02 -0.87964096668E+02  0.12412282062E+03  0.00000000000E+00 0.  1.
         22    1    3    3    0    0  0.39743787499E+02 -0.18883916060E+02 -0.29717834657E+02  0.53097275140E+02  0.00000000000E+00 0.  1.
</event>
<event>
 7    1  0.6176857E-006  0.2725445E+02  0.7818608E-02  0.1681612E+00
          2   -1    0    0  502    0  0.00000000000E+00  0.00000000000E+00  0.14436879478E+03  0.14436879478E+03  0.00000000000E+00 0. -1.
          1   -1    0    0  501    0 -0.00000000000E+00 -0.00000000000E+00 -0.17075263817E+03  0.17075263817E+03  0.00000000000E+00 0. -1.
         25    2    1    2    0    0 -0.39000836792E+02  0.34076394804E+01 -0.60608402343E+02  0.14432937858E+03  0.12499965524E+03 0.  0.
          2    1    1    2  501    0  0.24433789468E+02  0.10980348320E+02 -0.64565826524E+02  0.69902246543E+02  0.00000000000E+00 0. -1.
          1    1    1    2  502    0  0.14567047323E+02 -0.14387987800E+02  0.98790385480E+02  0.10088980783E+03  0.00000000000E+00 0. -1.
         22    1    3    3    0    0 -0.80330020421E+02 -0.20182573349E+02 -0.44912709228E+02  0.94219954882E+02  0.00000000000E+00 0.  1.
         22    1    3    3    0    0  0.41329183629E+02  0.23590212830E+02 -0.15695693115E+02  0.50109423696E+02  0.00000000000E+00 0.  1.
</event>
<event>
 7    1  0.6176857E-006  0.5474404E+02  0.7818608E-02  0.1541235E+00
          2   -1    0    0  502    0  0.00000000000E+00  0.00000000000E+00  0.41784322471E+03  0.41784322471E+03  0.00000000000E+00 0. -1.
          1   -1    0    0  501    0 -0.00000000000E+00 -0.00000000000E+00 -0.18879873722E+03  0.18879873722E+03  0.00000000000E+00 0. -1.
         25    2    1    2    0    0 -0.31288645527E+02 -0.59380411667E+02  0.89756700802E+02  0.16788938781E+03  0.12500227426E+03 0.  0.
          2    1    1    2  501    0 -0.79635361485E+01  0.22075943793E+02 -0.14625221217E+03  0.14812317431E+03  0.00000000000E+00 0. -1.
          1    1    1    2  502    0  0.39252181676E+02  0.37304467874E+02  0.28553999886E+03  0.29062939982E+03  0.00000000000E+00 0. -1.
         22    1    3    3    0    0 -0.46807431074E+02 -0.28061488096E+02  0.11329181156E+03  0.12575141067E+03  0.00000000000E+00 0.  1.
         22    1    3    3    0    0  0.15518785546E+02 -0.31318923570E+02 -0.23535110762E+02  0.42137977135E+02  0.00000000000E+00 0.  1.
</event>
<event>
 7    1  0.6176857E-006  0.8214188E+02  0.7818608E-02  0.1382099E+00
          2   -1    0    0  502    0  0.00000000000E+00  0.00000000000E+00  0.10692928032E+04  0.10692928032E+04  0.00000000000E+00 0. -1.
          1   -1    0    0  501    0 -0.00000000000E+00 -0.00000000000E+00 -0.42939852906E+03  0.42939852906E+03  0.00000000000E+00 0. -1.
         25    2    1    2    0    0 -0.71649227295E+02 -0.40233898420E+02  0.43974472855E+03  0.46449241479E+03  0.12500159500E+03 0.  0.
          2    1    1    2  501    0  0.81841364548E+02 -0.84433220027E+01 -0.41194822289E+03  0.42008408323E+03  0.00000000000E+00 0. -1.
          1    1    1    2  502    0 -0.10192137253E+02  0.48677220423E+02  0.61209776852E+03  0.61411483428E+03  0.00000000000E+00 0. -1.
         22    1    3    3    0    0 -0.10715454243E+03 -0.38149268088E+02  0.32239462257E+03  0.34187096291E+03  0.00000000000E+00 0.  1.
         22    1    3    3    0    0  0.35505315137E+02 -0.20846303324E+01  0.11735010598E+03  0.12262145187E+03  0.00000000000E+00 0.  1.
</event>
<event>
 7    1  0.6176857E-006  0.5643859E+02  0.7818608E-02  0.1489513E+00
          2   -1    0    0  502    0  0.00000000000E+00  0.00000000000E+00  0.25259356010E+04  0.25259356010E+04  0.00000000000E+00 0. -1.
          1   -1    0    0  501    0 -0.00000000000E+00 -0.00000000000E+00 -0.17795555663E+02  0.17795555663E+02  0.00000000000E+00 0. -1.
         25    2    1    2    0    0 -0.54988468221E+02 -0.24872367396E+01  0.67009799458E+03  0.68387596506E+03  0.12500038105E+03 0.  0.
          2    1    1    2  501    0  0.87760229503E+01 -0.31025335007E+02  0.14386946564E+02  0.35306858010E+02  0.00000000000E+00 0. -1.
          1    1    1    2  502    0  0.46212445271E+02  0.33512571746E+02  0.18236551042E+04  0.18245483336E+04  0.00000000000E+00 0. -1.
         22    1    3    3    0    0 -0.44298897575E+02 -0.63646194473E+01  0.66418797216E+02  0.80089683048E+02  0.00000000000E+00 0.  1.
         22    1    3    3    0    0 -0.10689570646E+02  0.38773827077E+01  0.60367919736E+03  0.60378628201E+03  0.00000000000E+00 0.  1.
</event>
<event>
 7    1  0.6176857E-006  0.1450435E+03  0.7818608E-02  0.1353074E+00
          2   -1    0    0  502    0  0.00000000000E+00  0.00000000000E+00  0.76109229113E+02  0.76109229113E+02  0.00000000000E+00 0. -1.
          1   -1    0    0  501    0 -0.00000000000E+00 -0.00000000000E+00 -0.14337642407E+04  0.14337642407E+04  0.00000000000E+00 0. -1.
         25    2    1    2    0    0  0.61740891498E+02 -0.14412788906E+03 -0.40439491127E+03  0.45138116317E+03  0.12499969646E+03 0.  0.
          2    1    1    2  501    0 -0.83927791940E+02  0.11597285567E+03 -0.99398359516E+03  0.10042394958E+04  0.00000000000E+00 0. -1.
          1    1    1    2  502    0  0.22186900442E+02  0.28155033385E+02  0.40723494814E+02  0.54252810858E+02  0.00000000000E+00 0. -1.
         22    1    3    3    0    0  0.38789280687E+02 -0.16493109172E+03 -0.33617551324E+03  0.37645829651E+03  0.00000000000E+00 0. -1.
         22    1    3    3    0    0  0.22951610811E+02  0.20803202665E+02 -0.68219398032E+02  0.74922866655E+02  0.00000000000E+00 0. -1.
</event>
<event>
 7    1  0.6176857E-006  0.8642557E+02  0.7818608E-02  0.1429938E+00
          2   -1    0    0  502    0  0.00000000000E+00  0.00000000000E+00  0.58937188110E+03  0.58937188110E+03  0.00000000000E+00 0. -1.
          1   -1    0    0  501    0 -0.00000000000E+00 -0.00000000000E+00 -0.96532942443E+03  0.96532942443E+03  0.00000000000E+00 0. -1.
         25    2    1    2    0    0  0.78738497952E+02  0.41270945663E+02  0.75600622535E+02  0.17100566206E+03  0.12499776123E+03 0.  0.
          2    1    1    2  501    0  0.74101267858E+01 -0.31611155988E+02 -0.91330493617E+03  0.91388187508E+03  0.00000000000E+00 0. -1.
          1    1    1    2  502    0 -0.86148624738E+02 -0.96597896745E+01  0.46174677030E+03  0.46981376839E+03  0.00000000000E+00 0. -1.
         22    1    3    3    0    0 -0.98547887316E+01  0.20925277054E+02  0.76687510575E+02  0.80099677645E+02  0.00000000000E+00 0.  1.
         22    1    3    3    0    0  0.88593286684E+02  0.20345668609E+02 -0.10868880394E+01  0.90905984413E+02  0.00000000000E+00 0.  1.
</event>
<event>
 7    1  0.6176857E-006  0.7383018E+02  0.7818608E-02  0.1371268E+00
          2   -1    0    0  502    0  0.00000000000E+00  0.00000000000E+00  0.23707509979E+04  0.23707509979E+04  0.00000000000E+00 0. -1.
          1   -1    0    0  501    0 -0.00000000000E+00 -0.00000000000E+00 -0.20825606522E+03  0.20825606522E+03  0.00000000000E+00 0. -1.
         25    2    1    2    0    0 -0.31681205136E+02 -0.10302415869E+03 -0.83893995372E+02  0.18515073132E+03  0.12499965927E+03 0.  0.
          2    1    1    2  501    0 -0.24527387456E+02  0.55270396976E+02 -0.60647135163E+02  0.85641605080E+02  0.00000000000E+00 0. -1.
          1    1    1    2  502    0  0.56208592591E+02  0.47753761714E+02  0.23070360632E+04  0.23082147267E+04  0.00000000000E+00 0. -1.
         22    1    3    3    0    0  0.29281421557E+01 -0.45714613975E+02  0.28771689981E+02  0.54094455277E+02  0.00000000000E+00 0. -1.
         22    1    3    3    0    0 -0.34609347291E+02 -0.57309544714E+02 -0.11266568535E+03  0.13105627605E+03  0.00000000000E+00 0. -1.
</event>
<event>
 7    1  0.6176857E-006  0.8708535E+02  0.7818608E-02  0.1360263E+00
          2   -1    0    0  502    0  0.00000000000E+00  0.00000000000E+00  0.82592560071E+02  0.82592560071E+02  0.00000000000E+00 0. -1.
          1   -1    0    0  501    0 -0.00000000000E+00 -0.00000000000E+00 -0.32287747251E+03  0.32287747251E+03  0.00000000000E+00 0. -1.
         25    2    1    2    0    0 -0.29947872450E+02 -0.33564598048E+02 -0.64247957139E+02  0.14756140009E+03  0.12499243775E+03 0.  0.
          2    1    1    2  501    0  0.59428844291E+02  0.81395119699E+02 -0.17472497577E+03  0.20170713969E+03  0.00000000000E+00 0. -1.
          1    1    1    2  502    0 -0.29480971841E+02 -0.47830521650E+02 -0.13119795264E+01  0.56201492795E+02  0.00000000000E+00 0. -1.
         22    1    3    3    0    0 -0.25527563801E+02 -0.61653124898E+02 -0.88050721448E+02  0.11047938211E+03  0.00000000000E+00 0. -1.
         22    1    3    3    0    0 -0.44203086491E+01  0.28088526850E+02  0.23802764309E+02  0.37082017985E+02  0.00000000000E+00 0. -1.
</event>
<event>
 7    1  0.6176857E-006  0.9984041E+02  0.7818608E-02  0.1387558E+00
          2   -1    0    0  502    0  0.00000000000E+00  0.00000000000E+00  0.86063320112E+03  0.86063320112E+03  0.00000000000E+00 0. -1.
          1   -1    0    0  501    0 -0.00000000000E+00 -0.00000000000E+00 -0.15033753470E+04  0.15033753470E+04  0.00000000000E+00 0. -1.
         25    2    1    2    0    0 -0.66619568746E+02  0.17035987071E+02  0.13261212156E+03  0.19478082803E+03  0.12500081754E+03 0.  0.
          2    1    1    2  501    0 -0.37151961155E+02 -0.12340363016E+02 -0.14681579082E+04  0.14686797460E+04  0.00000000000E+00 0. -1.
          1    1    1    2  502    0  0.10377152990E+03 -0.46956240548E+01  0.69280364080E+03  0.70054797409E+03  0.00000000000E+00 0. -1.
         22    1    3    3    0    0 -0.43556342429E+02  0.52573357167E+02  0.13610842424E+03  0.15227152065E+03  0.00000000000E+00 0.  1.
         22    1    3    3    0    0 -0.23063226317E+02 -0.35537370096E+02 -0.34963026793E+01  0.42509307380E+02  0.00000000000E+00 0.  1.
</event>
<event>
 7    1  0.6176857E-006  0.6085605E+02  0.7818608E-02  0.1413218E+00
          2   -1    0    0  502    0  0.00000000000E+00  0.00000000000E+00  0.32620516871E+03  0.32620516871E+03  0.00000000000E+00 0. -1.
          1   -1    0    0  501    0 -0.00000000000E+00 -0.00000000000E+00 -0.18034238232E+04  0.18034238232E+04  0.00000000000E+00 0. -1.
         25    2    1    2    0    0 -0.42278032123E+02 -0.69563142742E+02 -0.20404652516E+03  0.25275919850E+03  0.12500306064E+03 0.  0.
          2    1    1    2  501    0  0.57618717153E+02  0.19435982119E+02 -0.15721527144E+04  0.15733282656E+04  0.00000000000E+00 0. -1.
          1    1    1    2  502    0 -0.15340685030E+02  0.50127160622E+02  0.29898058507E+03  0.30354152780E+03  0.00000000000E+00 0. -1.
         22    1    3    3    0    0 -0.23739756182E+02 -0.10576393779E+03 -0.15253084568E+03  0.18712361006E+03  0.00000000000E+00 0.  1.
         22    1    3    3    0    0 -0.18538275941E+02  0.36200795051E+02 -0.51515679480E+02  0.65635588437E+02  0.00000000000E+00 0.  1.
</event>
<event>
 7    1  0.6176857E-006  0.7309747E+02  0.7818608E-02  0.1368384E+00
          2   -1    0    0  502    0  0.00000000000E+00  0.00000000000E+00  0.52912358238E+04  0.52912358238E+04  0.00000000000E+00 0. -1.
          1   -1    0    0  501    0 -0.00000000000E+00 -0.00000000000E+00 -0.39473349591E+02  0.39473349591E+02  0.00000000000E+00 0. -1.
         25    2    1    2    0    0 -0.72255305767E+02 -0.33964331420E+02  0.98785410047E+03  0.99892690043E+03  0.12499929431E+03 0.  0.
          2    1    1    2  501    0  0.68153296249E+02 -0.28451218679E+02  0.67466457802E+01  0.74161046805E+02  0.00000000000E+00 0. -1.
          1    1    1    2  502    0  0.41020095180E+01  0.62415550100E+02  0.42571617279E+04  0.42576212261E+04  0.00000000000E+00 0. -1.
         22    1    3    3    0    0  0.73218290952E+01 -0.42445568330E+02  0.66161615344E+03  0.66301671920E+03  0.00000000000E+00 0.  1.
         22    1    3    3    0    0 -0.79577134862E+02  0.84812369094E+01  0.32623794703E+03  0.33591018123E+03  0.00000000000E+00 0.  1.
</event>
<event>
 7    1  0.6176857E-006  0.5896486E+02  0.7818608E-02  0.1460519E+00
          2   -1    0    0  502    0  0.00000000000E+00  0.00000000000E+00  0.15503442030E+04  0.15503442030E+04  0.00000000000E+00 0. -1.
          1   -1    0    0  501    0 -0.00000000000E+00 -0.00000000000E+00 -0.52252767956E+03  0.52252767956E+03  0.00000000000E+00 0. -1.
         25    2    1    2    0    0  0.24746914016E+02  0.91989221233E+01  0.10481608121E+03  0.16525436279E+03  0.12500225446E+03 0.  0.
          2    1    1    2  501    0 -0.40074790222E+02 -0.43894042127E+02 -0.49025922365E+03  0.49384894666E+03  0.00000000000E+00 0. -1.
          1    1    1    2  502    0  0.15327876206E+02  0.34695120004E+02  0.14132596659E+04  0.14137685731E+04  0.00000000000E+00 0. -1.
         22    1    3    3    0    0 -0.68979030748E+00 -0.15428261811E+02  0.12401899805E+03  0.12497687366E+03  0.00000000000E+00 0. -1.
         22    1    3    3    0    0  0.25436704324E+02  0.24627183934E+02 -0.19202916837E+02  0.40277489128E+02  0.00000000000E+00 0. -1.
</event>
<event>
 7    1  0.6176857E-006  0.1035075E+03  0.7818608E-02  0.1322928E+00
          2   -1    0    0  502    0  0.00000000000E+00  0.00000000000E+00  0.37422106209E+03  0.37422106209E+03  0.00000000000E+00 0. -1.
          1   -1    0    0  501    0 -0.00000000000E+00 -0.00000000000E+00 -0.10945920584E+04  0.10945920584E+04  0.00000000000E+00 0. -1.
         25    2    1    2    0    0  0.31971561995E+02  0.83342313268E+02 -0.10199658554E+03  0.18437930211E+03  0.12499720648E+03 0.  0.
          2    1    1    2  501    0  0.58416957058E+02 -0.29125648377E+02 -0.94190643196E+03  0.94416554207E+03  0.00000000000E+00 0. -1.
          1    1    1    2  502    0 -0.90388519053E+02 -0.54216664891E+02  0.32353202119E+03  0.34026827631E+03  0.00000000000E+00 0. -1.
         22    1    3    3    0    0 -0.40797752900E+00  0.99684081291E+02 -0.10870780129E+03  0.14749396113E+03  0.00000000000E+00 0. -1.
         22    1    3    3    0    0  0.32379539524E+02 -0.16341768023E+02  0.67112157551E+01  0.36885340975E+02  0.00000000000E+00 0. -1.
</event>
<event>
 7    1  0.6176857E-006  0.6968873E+02  0.7818608E-02  0.1410977E+00
          2   -1    0    0  502    0  0.00000000000E+00  0.00000000000E+00  0.23295765553E+04  0.23295765553E+04  0.00000000000E+00 0. -1.
          1   -1    0    0  501    0 -0.00000000000E+00 -0.00000000000E+00 -0.30141239258E+03  0.30141239258E+03  0.00000000000E+00 0. -1.
         25    2    1    2    0    0  0.65386425621E+01  0.52915925728E+02  0.24075572553E+00  0.13589530165E+03  0.12499850401E+03 0.  0.
          2    1    1    2  501    0 -0.52940026633E+02 -0.48804871712E+02 -0.22779002758E+03  0.23889926451E+03  0.00000000000E+00 0. -1.
          1    1    1    2  502    0  0.46401384071E+02 -0.41110540157E+01  0.22557134345E+04  0.22561943817E+04  0.00000000000E+00 0. -1.
         22    1    3    3    0    0 -0.43759405883E+01  0.88711385434E+02 -0.23121103740E+02  0.91779323378E+02  0.00000000000E+00 0.  1.
         22    1    3    3    0    0  0.10914583150E+02 -0.35795459706E+02  0.23361859465E+02  0.44115978268E+02  0.00000000000E+00 0.  1.
</event>
<event>
 7    1  0.6176857E-006  0.8827014E+02  0.7818608E-02  0.1400585E+00
          2   -1    0    0  502    0  0.00000000000E+00  0.00000000000E+00  0.16740107328E+04  0.16740107328E+04  0.00000000000E+00 0. -1.
          1   -1    0    0  501    0 -0.00000000000E+00 -0.00000000000E+00 -0.30635874320E+03  0.30635874320E+03  0.00000000000E+00 0. -1.
         25    2    1    2    0    0  0.60912421160E+02 -0.86049276531E+01 -0.54786890165E+02  0.14970029183E+03  0.12499682479E+03 0.  0.
          2    1    1    2  501    0  0.24783080023E+02  0.31274290740E+02 -0.20094413688E+03  0.20486783170E+03  0.00000000000E+00 0. -1.
          1    1    1    2  502    0 -0.85695501183E+02 -0.22669363087E+02  0.16233830166E+04  0.16258013524E+04  0.00000000000E+00 0. -1.
         22    1    3    3    0    0  0.34959308603E+02  0.77070179441E+01 -0.93617387080E+02  0.10022857151E+03  0.00000000000E+00 0.  1.
         22    1    3    3    0    0  0.25953112557E+02 -0.16311945597E+02  0.38830496915E+02  0.49471720318E+02  0.00000000000E+00 0.  1.
</event>
<event>
 7    1  0.6176857E-006  0.5406605E+02  0.7818608E-02  0.1493433E+00
          2   -1    0    0  502    0  0.00000000000E+00  0.00000000000E+00  0.21916657578E+03  0.21916657578E+03  0.00000000000E+00 0. -1.
          1   -1    0    0  501    0 -0.00000000000E+00 -0.00000000000E+00 -0.17679938472E+03  0.17679938472E+03  0.00000000000E+00 0. -1.
         25    2    1    2    0    0  0.44906163807E+01 -0.85043562245E+02  0.10832815087E+03  0.18604607457E+03  0.12500232188E+03 0.  0.
          2    1    1    2  501    0 -0.75336258559E+01  0.52432557065E+02 -0.12868418243E+03  0.13916015006E+03  0.00000000000E+00 0. -1.
          1    1    1    2  502    0  0.30430094752E+01  0.32611005180E+02  0.62723222611E+02  0.70759735869E+02  0.00000000000E+00 0. -1.
         22    1    3    3    0    0 -0.85458230589E+01 -0.12945403436E+02  0.11163179585E+03  0.11270435842E+03  0.00000000000E+00 0.  1.
         22    1    3    3    0    0  0.13036439440E+02 -0.72098158809E+02 -0.33036449812E+01  0.73341716145E+02  0.00000000000E+00 0.  1.
</event>
<event>
 7    1  0.6176857E-006  0.7201928E+02  0.7818608E-02  0.1383350E+00
          2   -1    0    0  502    0  0.00000000000E+00  0.00000000000E+00  0.12633020637E+03  0.12633020637E+03  0.00000000000E+00 0. -1.
          1   -1    0    0  501    0 -0.00000000000E+00 -0.00000000000E+00 -0.47962372637E+03  0.47962372637E+03  0.00000000000E+00 0. -1.
         25    2    1    2    0    0  0.11468702593E+03 -0.83299029605E+01 -0.64333460830E+02  0.18160871856E+03  0.12498172376E+03 0.  0.
          2    1    1    2  501    0 -0.66691385669E+02 -0.20811373408E+02 -0.34082230982E+03  0.34790904136E+03  0.00000000000E+00 0. -1.
          1    1    1    2  502    0 -0.47995640257E+02  0.29141276369E+02  0.51862250658E+02  0.76436172820E+02  0.00000000000E+00 0. -1.
         22    1    3    3    0    0  0.72525748849E+01  0.46750140056E+02 -0.30269497346E+02  0.56164204857E+02  0.00000000000E+00 0.  1.
         22    1    3    3    0    0  0.10743445104E+03 -0.55080043016E+02 -0.34063963484E+02  0.12544451370E+03  0.00000000000E+00 0.  1.
</event>
<event>
 7    1  0.6176857E-006  0.9143397E+02  0.7818608E-02  0.1420282E+00
          2   -1    0    0  502    0  0.00000000000E+00  0.00000000000E+00  0.27929827515E+02  0.27929827515E+02  0.00000000000E+00 0. -1.
          1   -1    0    0  501    0 -0.00000000000E+00 -0.00000000000E+00 -0.81768992433E+03  0.81768992433E+03  0.00000000000E+00 0. -1.
         25    2    1    2    0    0 -0.30741804124E+02  0.71879636696E+02 -0.28612629306E+03  0.32187758318E+03  0.12500072914E+03 0.  0.
          2    1    1    2  501    0  0.79061332810E+01 -0.95754359784E+02 -0.45442912581E+03  0.46447522511E+03  0.00000000000E+00 0. -1.
          1    1    1    2  502    0  0.22835670843E+02  0.23874723088E+02 -0.49204677952E+02  0.59266943550E+02  0.00000000000E+00 0. -1.
         22    1    3    3    0    0 -0.36197427971E+01  0.99798418832E+02 -0.24817703153E+03  0.26751573022E+03  0.00000000000E+00 0. -1.
         22    1    3    3    0    0 -0.27122061327E+02 -0.27918782136E+02 -0.37949261531E+02  0.54361852960E+02  0.00000000000E+00 0. -1.
</event>
<event>
 7    1  0.6176857E-006  0.4848911E+02  0.7818608E-02  0.1488718E+00
          2   -1    0    0  502    0  0.00000000000E+00  0.00000000000E+00  0.84960890136E+03  0.84960890136E+03  0.00000000000E+00 0. -1.
          1   -1    0    0  501    0 -0.00000000000E+00 -0.00000000000E+00 -0.21326447992E+03  0.21326447992E+03  0.00000000000E+00 0. -1.
         25    2    1    2    0    0  0.18545973229E+02 -0.46276259569E+02 -0.44963040812E+01  0.13464650269E+03  0.12499607440E+03 0.  0.
          2    1    1    2  501    0 -0.45229903823E+02  0.19591420466E+02 -0.13899632733E+03  0.14747727610E+03  0.00000000000E+00 0. -1.
          1    1    1    2  502    0  0.26683930594E+02  0.26684839102E+02  0.77983705285E+03  0.78074960249E+03  0.00000000000E+00 0. -1.
         22    1    3    3    0    0 -0.38224511802E+00 -0.64112793893E+02  0.45275823263E+02  0.78488831207E+02  0.00000000000E+00 0. -1.
         22    1    3    3    0    0  0.18928218347E+02  0.17836534325E+02 -0.49772127344E+02  0.56157671487E+02  0.00000000000E+00 0. -1.
</event>
<event>
 7    1  0.6176857E-006  0.1585855E+03  0.7818608E-02  0.1388133E+00
          2   -1    0    0  502    0  0.00000000000E+00  0.00000000000E+00  0.82936909584E+03  0.82936909584E+03  0.00000000000E+00 0. -1.
          1   -1    0    0  501    0 -0.00000000000E+00 -0.00000000000E+00 -0.17149208996E+04  0.17149208996E+04  0.00000000000E+00 0. -1.
         25    2    1    2    0    0  0.13918533956E+03  0.69012555391E+02  0.11680770227E+03  0.23109403630E+03  0.12500049102E+03 0.  0.
          2    1    1    2  501    0 -0.15135396064E+03 -0.47711016610E+02 -0.16537483955E+04  0.16613452736E+04  0.00000000000E+00 0. -1.
          1    1    1    2  502    0  0.12168621082E+02 -0.21301538781E+02  0.65138888948E+03  0.65185068553E+03  0.00000000000E+00 0. -1.
         22    1    3    3    0    0  0.85646623905E+02 -0.56341947725E+01  0.44267782504E+01  0.85945824231E+02  0.00000000000E+00 0.  1.
         22    1    3    3    0    0  0.53538715652E+02  0.74646750164E+02  0.11238092402E+03  0.14514821207E+03  0.00000000000E+00 0.  1.
</event>
<event>
 7    1  0.6176857E-006  0.1350676E+03  0.7818608E-02  0.1359750E+00
          2   -1    0    0  502    0  0.00000000000E+00  0.00000000000E+00  0.68300823275E+03  0.68300823275E+03  0.00000000000E+00 0. -1.
          1   -1    0    0  501    0 -0.00000000000E+00 -0.00000000000E+00 -0.26563481283E+03  0.26563481283E+03  0.00000000000E+00 0. -1.
         25    2    1    2    0    0 -0.52675476951E+02  0.12411525871E+03  0.39029290944E+03  0.43143032559E+03  0.12499706940E+03 0.  0.
          2    1    1    2  501    0  0.34295017408E+02  0.12147217882E+02 -0.22615204556E+03  0.22905992847E+03  0.00000000000E+00 0. -1.
          1    1    1    2  502    0  0.18380459544E+02 -0.13626247660E+03  0.25323255604E+03  0.28815279152E+03  0.00000000000E+00 0. -1.
         22    1    3    3    0    0  0.84985321975E-02  0.10795717360E+03  0.34034406881E+03  0.35705578916E+03  0.00000000000E+00 0.  1.
         22    1    3    3    0    0 -0.52683975484E+02  0.16158085110E+02  0.49948840636E+02  0.74374536423E+02  0.00000000000E+00 0.  1.
</event>
<event>
 7    1  0.6176857E-006  0.1133620E+03  0.7818608E-02  0.1287877E+00
          2   -1    0    0  502    0  0.00000000000E+00  0.00000000000E+00  0.37293145340E+03  0.37293145340E+03  0.00000000000E+00 0. -1.
          1   -1    0    0  501    0 -0.00000000000E+00 -0.00000000000E+00 -0.12715601441E+03  0.12715601441E+03  0.00000000000E+00 0. -1.
         25    2    1    2    0    0  0.41496940627E+02  0.33807433722E+02  0.33028390138E+02  0.13992692373E+03  0.12499492299E+03 0.  0.
          2    1    1    2  501    0  0.78693941185E+02  0.23445279217E+02 -0.26571590338E+02  0.86304501098E+02  0.00000000000E+00 0. -1.
          1    1    1    2  502    0 -0.12019088181E+03 -0.57252712938E+02  0.23931863919E+03  0.27385604298E+03  0.00000000000E+00 0. -1.
         22    1    3    3    0    0  0.62304022657E+02  0.51878643589E+02 -0.16973811934E+02  0.82832935427E+02  0.00000000000E+00 0. -1.
         22    1    3    3    0    0 -0.20807082030E+02 -0.18071209868E+02  0.50002202072E+02  0.57093988307E+02  0.00000000000E+00 0. -1.
</event>
<event>
 7    1  0.6176857E-006  0.2434113E+03  0.7818608E-02  0.1204484E+00
          2   -1    0    0  502    0  0.00000000000E+00  0.00000000000E+00  0.22661444592E+04  0.22661444592E+04  0.00000000000E+00 0. -1.
          1   -1    0    0  501    0 -0.00000000000E+00 -0.00000000000E+00 -0.92210865908E+03  0.92210865908E+03  0.00000000000E+00 0. -1.
         25    2    1    2    0    0  0.21070083729E+03 -0.72323470572E+02 -0.23219581758E+03  0.34520549274E+03  0.12500562902E+03 0.  0.
          2    1    1    2  501    0 -0.24035204366E+02 -0.85186919268E+02 -0.62352364682E+03  0.62977475371E+03  0.00000000000E+00 0. -1.
          1    1    1    2  502    0 -0.18666563292E+03  0.15751038984E+03  0.21997552645E+04  0.22132728718E+04  0.00000000000E+00 0. -1.
         22    1    3    3    0    0  0.13839852886E+02  0.13907578967E+02  0.94798886686E+01  0.21790607376E+02  0.00000000000E+00 0.  1.
         22    1    3    3    0    0  0.19686098440E+03 -0.86231049539E+02 -0.24167570625E+03  0.32341488536E+03  0.00000000000E+00 0.  1.
</event>
<event>
 7    1  0.6176857E-006  0.1880155E+03  0.7818608E-02  0.1327268E+00
          2   -1    0    0  502    0  0.00000000000E+00  0.00000000000E+00  0.57154007450E+03  0.57154007450E+03  0.00000000000E+00 0. -1.
          1   -1    0    0  501    0 -0.00000000000E+00 -0.00000000000E+00 -0.10444851647E+04  0.10444851647E+04  0.00000000000E+00 0. -1.
         25    2    1    2    0    0 -0.20617600952E+03  0.17129572792E+02 -0.90517875863E+02  0.25810821818E+03  0.12499758907E+03 0.  0.
          2    1    1    2  501    0  0.24570316834E+02  0.24332064805E+02 -0.85202282741E+03  0.85272425102E+03  0.00000000000E+00 0. -1.
          1    1    1    2  502    0  0.18160569269E+03 -0.41461637598E+02  0.46959561310E+03  0.50519276999E+03  0.00000000000E+00 0. -1.
         22    1    3    3    0    0 -0.12028558986E+03  0.59685587745E+02 -0.91074659820E+02  0.16225161378E+03  0.00000000000E+00 0. -1.
         22    1    3    3    0    0 -0.85890419659E+02 -0.42556014952E+02  0.55678395647E+00  0.95856604395E+02  0.00000000000E+00 0. -1.
</event>
<event>
 7    1  0.6176857E-006  0.9867696E+02  0.7818608E-02  0.1298210E+00
          2   -1    0    0  502    0  0.00000000000E+00  0.00000000000E+00  0.40082256358E+03  0.40082256358E+03  0.00000000000E+00 0. -1.
          1   -1    0    0  501    0 -0.00000000000E+00 -0.00000000000E+00 -0.37022138280E+03  0.37022138280E+03  0.00000000000E+00 0. -1.
         25    2    1    2    0    0  0.11448798469E+03 -0.13367000071E+03 -0.39241386383E+02  0.21940617280E+03  0.12499605805E+03 0.  0.
          2    1    1    2  501    0 -0.68872689304E+02  0.50951626276E+02 -0.22567542011E+03  0.24138954160E+03  0.00000000000E+00 0. -1.
          1    1    1    2  502    0 -0.45615295390E+02  0.82718374433E+02  0.29551798728E+03  0.31024823198E+03  0.00000000000E+00 0. -1.
         22    1    3    3    0    0  0.46571393167E+02 -0.44628245717E+02  0.45529530763E+02  0.78952600646E+02  0.00000000000E+00 0. -1.
         22    1    3    3    0    0  0.67916591527E+02 -0.89041754992E+02 -0.84770917145E+02  0.14045357215E+03  0.00000000000E+00 0. -1.
</event>
<event>
 7    1  0.6176857E-006  0.1007383E+03  0.7818608E-02  0.1288111E+00
          2   -1    0    0  502    0  0.00000000000E+00  0.00000000000E+00  0.25205628953E+04  0.25205628953E+04  0.00000000000E+00 0. -1.
          1   -1    0    0  501    0 -0.00000000000E+00 -0.00000000000E+00 -0.38333546919E+03  0.38333546919E+03  0.00000000000E+00 0. -1.
         25    2    1    2    0    0  0.13620663141E+02  0.48734832353E+01 -0.33706480578E+02  0.13026830493E+03  0.12499772452E+03 0.  0.
          2    1    1    2  501    0  0.78652413365E+02 -0.48109194847E+02 -0.29321810212E+03  0.30737200941E+03  0.00000000000E+00 0. -1.
          1    1    1    2  502    0 -0.92273076506E+02  0.43235711612E+02  0.24641520088E+04  0.24662580501E+04  0.00000000000E+00 0. -1.
         22    1    3    3    0    0  0.26378307453E+02 -0.30989730611E+02 -0.67859958210E+02  0.79127444263E+02  0.00000000000E+00 0.  1.
         22    1    3    3    0    0 -0.12757644312E+02  0.35863213846E+02  0.34153477632E+02  0.51140860671E+02  0.00000000000E+00 0.  1.
</event>
<event>
 7    1  0.6176857E-006  0.9435859E+02  0.7818608E-02  0.1388114E+00
          2   -1    0    0  502    0  0.00000000000E+00  0.00000000000E+00  0.49580910153E+02  0.49580910153E+02  0.00000000000E+00 0. -1.
          1   -1    0    0  501    0 -0.00000000000E+00 -0.00000000000E+00 -0.20863205676E+04  0.20863205676E+04  0.00000000000E+00 0. -1.
         25    2    1    2    0    0  0.27962006375E+02 -0.62120231804E+02 -0.32574725665E+03  0.35549509386E+03  0.12499875815E+03 0.  0.
          2    1    1    2  501    0 -0.68669065538E+02  0.68708239579E+02 -0.17315893201E+04  0.17343119201E+04  0.00000000000E+00 0. -1.
          1    1    1    2  502    0  0.40707059163E+02 -0.65880077747E+01  0.20596919269E+02  0.46094463827E+02  0.00000000000E+00 0. -1.
         22    1    3    3    0    0  0.35805177122E+02 -0.96365669986E+02 -0.27656698909E+03  0.29505533805E+03  0.00000000000E+00 0.  1.
         22    1    3    3    0    0 -0.78431707462E+01  0.34245438182E+02 -0.49180267565E+02  0.60439755802E+02  0.00000000000E+00 0.  1.
</event>
<event>
 7    1  0.6176857E-006  0.1463964E+03  0.7818608E-02  0.1250491E+00
          2   -1    0    0  502    0  0.00000000000E+00  0.00000000000E+00  0.66703449025E+03  0.66703449025E+03  0.00000000000E+00 0. -1.
          1   -1    0    0  501    0 -0.00000000000E+00 -0.00000000000E+00 -0.16411349881E+04  0.16411349881E+04  0.00000000000E+00 0. -1.
         25    2    1    2    0    0  0.14353508548E+03  0.14664180822E+03 -0.41036043963E+03  0.47552790741E+03  0.12499983851E+03 0.  0.
          2    1    1    2  501    0 -0.90518443544E+01 -0.90874248865E+02 -0.11880632834E+04  0.11915680553E+04  0.00000000000E+00 0. -1.
          1    1    1    2  502    0 -0.13448324112E+03 -0.55767559352E+02  0.62432322525E+03  0.64107351560E+03  0.00000000000E+00 0. -1.
         22    1    3    3    0    0  0.10478084491E+03  0.18999608482E+02 -0.16882340769E+03  0.19960298988E+03  0.00000000000E+00 0.  1.
         22    1    3    3    0    0  0.38754240564E+02  0.12764219973E+03 -0.24153703194E+03  0.27592491753E+03  0.00000000000E+00 0.  1.
</event>
<event>
 7    1  0.6176857E-006  0.1455515E+03  0.7818608E-02  0.1273303E+00
          2   -1    0    0  502    0  0.00000000000E+00  0.00000000000E+00  0.17064771710E+04  0.17064771710E+04  0.00000000000E+00 0. -1.
          1   -1    0    0  501    0 -0.00000000000E+00 -0.00000000000E+00 -0.12216287553E+04  0.12216287553E+04  0.00000000000E+00 0. -1.
         25    2    1    2    0    0 -0.88786673737E+01 -0.16736921549E+03  0.30368461962E+03  0.36870270728E+03  0.12500421243E+03 0.  0.
          2    1    1    2  501    0 -0.56575289906E+02  0.13402807429E+03 -0.11836787915E+04  0.11925853301E+04  0.00000000000E+00 0. -1.
          1    1    1    2  502    0  0.65453957280E+02  0.33341141205E+02  0.13648425877E+04  0.13668178889E+04  0.00000000000E+00 0. -1.
         22    1    3    3    0    0  0.10351072257E+02 -0.15688188247E+02 -0.88490467118E+01  0.20774252695E+02  0.00000000000E+00 0.  1.
         22    1    3    3    0    0 -0.19229739631E+02 -0.15168102725E+03  0.31253366634E+03  0.34792845458E+03  0.00000000000E+00 0.  1.
</event>
<event>
 7    1  0.6176857E-006  0.4457103E+02  0.7818608E-02  0.1561218E+00
          2   -1    0    0  502    0  0.00000000000E+00  0.00000000000E+00  0.26820932286E+03  0.26820932286E+03  0.00000000000E+00 0. -1.
          1   -1    0    0  501    0 -0.00000000000E+00 -0.00000000000E+00 -0.13760530746E+04  0.13760530746E+04  0.00000000000E+00 0. -1.
         25    2    1    2    0    0  0.57969288924E+02  0.35217215322E+02 -0.27820678129E+03  0.31244892477E+03  0.12499850688E+03 0.  0.
          2    1    1    2  501    0 -0.40718604513E+02 -0.16631044129E+02 -0.10796360444E+04  0.10805316213E+04  0.00000000000E+00 0. -1.
          1    1    1    2  502    0 -0.17250684410E+02 -0.18586171193E+02  0.24999907391E+03  0.25128185137E+03  0.00000000000E+00 0. -1.
         22    1    3    3    0    0  0.13209445559E+02  0.47122923975E+02 -0.25680590284E+03  0.26142748737E+03  0.00000000000E+00 0. -1.
         22    1    3    3    0    0  0.44759843365E+02 -0.11905708652E+02 -0.21400878447E+02  0.51021437405E+02  0.00000000000E+00 0. -1.
</event>
<event>
 7    1  0.6176857E-006  0.3562725E+02  0.7818608E-02  0.1567573E+00
          2   -1    0    0  502    0  0.00000000000E+00  0.00000000000E+00  0.38443763189E+03  0.38443763189E+03  0.00000000000E+00 0. -1.
          1   -1    0    0  501    0 -0.00000000000E+00 -0.00000000000E+00 -0.10675525080E+04  0.10675525080E+04  0.00000000000E+00 0. -1.
         25    2    1    2    0    0  0.64302392140E+02  0.12652594037E+02 -0.49329586121E+03  0.51308670214E+03  0.12498908534E+03 0.  0.
          2    1    1    2  501    0 -0.28832913878E+02 -0.98794596258E+01 -0.56310329627E+03  0.56392753339E+03  0.00000000000E+00 0. -1.
          1    1    1    2  502    0 -0.35469478263E+02 -0.27731344113E+01  0.37328428135E+03  0.37497590438E+03  0.00000000000E+00 0. -1.
         22    1    3    3    0    0 -0.30091885096E+01  0.29074986015E+02 -0.21639915697E+02  0.36368887509E+02  0.00000000000E+00 0.  1.
         22    1    3    3    0    0  0.67311580650E+02 -0.16422391978E+02 -0.47165594552E+03  0.47671781463E+03  0.00000000000E+00 0.  1.
</event>
<event>
 7    1  0.6176857E-006  0.1445237E+03  0.7818608E-02  0.1345601E+00
          2   -1    0    0  502    0  0.00000000000E+00  0.00000000000E+00  0.87749299767E+02  0.87749299767E+02  0.00000000000E+00 0. -1.
          1   -1    0    0  501    0 -0.00000000000E+00 -0.00000000000E+00 -0.94638975653E+03  0.94638975653E+03  0.00000000000E+00 0. -1.
         25    2    1    2    0    0  0.46670640031E+02 -0.13615824829E+03 -0.20803605318E+03  0.28217090762E+03  0.12499681783E+03 0.  0.
          2    1    1    2  501    0 -0.94071946905E+01  0.14520656741E+03 -0.68510418341E+03  0.70038645380E+03  0.00000000000E+00 0. -1.
          1    1    1    2  502    0 -0.37263445340E+02 -0.90483191247E+01  0.34499779834E+02  0.51581694875E+02  0.00000000000E+00 0. -1.
         22    1    3    3    0    0  0.25112910905E+02 -0.10174907315E+03 -0.21664588275E+03  0.24066360484E+03  0.00000000000E+00 0. -1.
         22    1    3    3    0    0  0.21557729126E+02 -0.34409175140E+02  0.86098295742E+01  0.41507302781E+02  0.00000000000E+00 0. -1.
</event>
<event>
 7    1  0.6176857E-006  0.6841568E+02  0.7818608E-02  0.1388578E+00
          2   -1    0    0  502    0  0.00000000000E+00  0.00000000000E+00  0.70652699823E+03  0.70652699823E+03  0.00000000000E+00 0. -1.
          1   -1    0    0  501    0 -0.00000000000E+00 -0.00000000000E+00 -0.47936566701E+03  0.47936566701E+03  0.00000000000E+00 0. -1.
         25    2    1    2    0    0  0.31456862749E+01  0.55356546462E+02  0.45129292738E+02  0.14400044097E+03  0.12500092543E+03 0.  0.
          2    1    1    2  501    0  0.54394118275E+02 -0.15868502638E+02 -0.42605882249E+03  0.42981001582E+03  0.00000000000E+00 0. -1.
          1    1    1    2  502    0 -0.57539804550E+02 -0.39488043824E+02  0.60809086096E+03  0.61208220845E+03  0.00000000000E+00 0. -1.
         22    1    3    3    0    0  0.29195347580E+02  0.77125870045E+02  0.64697097056E+02  0.10481642294E+03  0.00000000000E+00 0.  1.
         22    1    3    3    0    0 -0.26049661305E+02 -0.21769323583E+02 -0.19567804318E+02  0.39184018033E+02  0.00000000000E+00 0.  1.
</event>
<event>
 7    1  0.6176857E-006  0.8097082E+02  0.7818608E-02  0.1350762E+00
          2   -1    0    0  502    0  0.00000000000E+00  0.00000000000E+00  0.18695859412E+04  0.18695859412E+04  0.00000000000E+00 0. -1.
          1   -1    0    0  501    0 -0.00000000000E+00 -0.00000000000E+00 -0.49638793062E+03  0.49638793062E+03  0.00000000000E+00 0. -1.
         25    2    1    2    0    0  0.23624916091E+02 -0.14071386348E+03  0.37531155659E+03  0.42052619770E+03  0.12499996161E+03 0.  0.
          2    1    1    2  501    0 -0.25637989022E+01  0.65437286728E+02 -0.47047309710E+03  0.47500899640E+03  0.00000000000E+00 0. -1.
          1    1    1    2  502    0 -0.21061117189E+02  0.75276576755E+02  0.14683595511E+04  0.14704386777E+04  0.00000000000E+00 0. -1.
         22    1    3    3    0    0  0.60128493032E+01  0.23554662062E+02  0.54411836723E+02  0.59595506853E+02  0.00000000000E+00 0.  1.
         22    1    3    3    0    0  0.17612066788E+02 -0.16426852554E+03  0.32089971987E+03  0.36093069084E+03  0.00000000000E+00 0.  1.
</event>
<event>
 7    1  0.6176857E-006  0.5231384E+02  0.7818608E-02  0.1539467E+00
          2   -1    0    0  502    0  0.00000000000E+00  0.00000000000E+00  0.99728911459E+03  0.99728911459E+03  0.00000000000E+00 0. -1.
          1   -1    0    0  501    0 -0.00000000000E+00 -0.00000000000E+00 -0.75973311971E+02  0.75973311971E+02  0.00000000000E+00 0. -1.
         25    2    1    2    0    0 -0.69087498624E+02 -0.14803550480E+02  0.19490076143E+03  0.24208661342E+03  0.12500957570E+03 0.  0.
          2    1    1    2  501    0  0.45764009086E+02  0.23358000919E+02 -0.39530517700E+02  0.64827483093E+02  0.00000000000E+00 0. -1.
          1    1    1    2  502    0  0.23323489538E+02 -0.85544504392E+01  0.76594555889E+03  0.76634833005E+03  0.00000000000E+00 0. -1.
         22    1    3    3    0    0 -0.23597626443E+02 -0.59921402424E+02  0.43577728157E+02  0.77758863376E+02  0.00000000000E+00 0. -1.
         22    1    3    3    0    0 -0.45489872181E+02  0.45117851944E+02  0.15132303327E+03  0.16432775004E+03  0.00000000000E+00 0. -1.
</event>
<event>
 7    1  0.6176857E-006  0.1052471E+03  0.7818608E-02  0.1318365E+00
          2   -1    0    0  502    0  0.00000000000E+00  0.00000000000E+00  0.21610375770E+04  0.21610375770E+04  0.00000000000E+00 0. -1.
          1   -1    0    0  501    0 -0.00000000000E+00 -0.00000000000E+00 -0.10058357617E+03  0.10058357617E+03  0.00000000000E+00 0. -1.
         25    2    1    2    0    0 -0.11140737104E+03  0.35361219940E+02  0.31177810849E+03  0.35565797218E+03  0.12499994418E+03 0.  0.
          2    1    1    2  501    0  0.46435283259E+02  0.48110563559E+02 -0.62603779723E+02  0.91597462263E+02  0.00000000000E+00 0. -1.
          1    1    1    2  502    0  0.64972087777E+02 -0.83471783500E+02  0.18112796721E+04  0.18143657187E+04  0.00000000000E+00 0. -1.
         22    1    3    3    0    0 -0.61618337690E+02  0.69722824224E+02  0.10539960999E+03  0.14059576645E+03  0.00000000000E+00 0. -1.
         22    1    3    3    0    0 -0.49789033346E+02 -0.34361604284E+02  0.20637849851E+03  0.21506220574E+03  0.00000000000E+00 0. -1.
</event>
<event>
 7    1  0.6176857E-006  0.4160722E+02  0.7818608E-02  0.1539711E+00
          2   -1    0    0  502    0  0.00000000000E+00  0.00000000000E+00  0.24469138858E+04  0.24469138858E+04  0.00000000000E+00 0. -1.
          1   -1    0    0  501    0 -0.00000000000E+00 -0.00000000000E+00 -0.15269258774E+02  0.15269258774E+02  0.00000000000E+00 0. -1.
         25    2    1    2    0    0 -0.35623880335E+01 -0.62620990953E+02  0.85854210530E+03  0.86985941373E+03  0.12500709567E+03 0.  0.
          2    1    1    2  501    0  0.19537258043E+02  0.35837395756E+02  0.34610063820E+02  0.53515230580E+02  0.00000000000E+00 0. -1.
          1    1    1    2  502    0 -0.15974870009E+02  0.26783595197E+02  0.15384924579E+04  0.15388085003E+04  0.00000000000E+00 0. -1.
         22    1    3    3    0    0  0.38306062681E+02 -0.65001953647E+02  0.28603895013E+03  0.29582239504E+03  0.00000000000E+00 0. -1.
         22    1    3    3    0    0 -0.41868450714E+02  0.23809626941E+01  0.57250315516E+03  0.57403701869E+03  0.00000000000E+00 0. -1.
</event>
<event>
 7    1  0.6176857E-006  0.6421264E+02  0.7818608E-02  0.1440980E+00
          2   -1    0    0  502    0  0.00000000000E+00  0.00000000000E+00  0.49330917939E+03  0.49330917939E+03  0.00000000000E+00 0. -1.
          1   -1    0    0  501    0 -0.00000000000E+00 -0.00000000000E+00 -0.65763198428E+02  0.65763198428E+02  0.00000000000E+00 0. -1.
         25    2    1    2    0    0  0.53967764470E+02 -0.10477724800E+02  0.20023958927E+03  0.24237049929E+03  0.12500105397E+03 0.  0.
          2    1    1    2  501    0 -0.44341372250E+02  0.49525639566E+02 -0.17398421072E+02  0.68714273068E+02  0.00000000000E+00 0. -1.
          1    1    1    2  502    0 -0.96263922207E+01 -0.39047914766E+02  0.24470481276E+03  0.24798760546E+03  0.00000000000E+00 0. -1.
         22    1    3    3    0    0  0.71979538521E+02 -0.13725288769E+02  0.44862170324E+02  0.85918867798E+02  0.00000000000E+00 0.  1.
         22    1    3    3    0    0 -0.18011774051E+02  0.32475639697E+01  0.15537741895E+03  0.15645163149E+03  0.00000000000E+00 0.  1.
</event>
<event>
 7    1  0.6176857E-006  0.4698552E+02  0.7818608E-02  0.1537847E+00
          2   -1    0    0  502    0  0.00000000000E+00  0.00000000000E+00  0.56988706999E+03  0.56988706999E+03  0.00000000000E+00 0. -1.
          1   -1    0    0  501    0 -0.00000000000E+00 -0.00000000000E+00 -0.55406687319E+02  0.55406687319E+02  0.00000000000E+00 0. -1.
         25    2    1    2    0    0  0.35478673143E+02  0.23453087382E+02  0.50846868588E+02  0.14149000530E+03  0.12500093599E+03 0.  0.
          2    1    1    2  501    0 -0.18687246185E+02  0.20789415470E+02  0.13239419134E+02  0.30930489562E+02  0.00000000000E+00 0. -1.
          1    1    1    2  502    0 -0.16791426959E+02 -0.44242502853E+02  0.45039409495E+03  0.45287326245E+03  0.00000000000E+00 0. -1.
         22    1    3    3    0    0  0.26292897896E+02  0.74608355514E+02  0.38937866043E+02  0.88169612703E+02  0.00000000000E+00 0.  1.
         22    1    3    3    0    0  0.91857752480E+01 -0.51155268132E+02  0.11909002545E+02  0.53320392592E+02  0.00000000000E+00 0.  1.
</event>
<event>
 7    1  0.6176857E-006  0.9725283E+02  0.7818608E-02  0.1371876E+00
          2   -1    0    0  502    0  0.00000000000E+00  0.00000000000E+00  0.34304579670E+04  0.34304579670E+04  0.00000000000E+00 0. -1.
          1   -1    0    0  501    0 -0.00000000000E+00 -0.00000000000E+00 -0.55672443362E+02  0.55672443362E+02  0.00000000000E+00 0. -1.
         25    2    1    2    0    0  0.15529046310E+01 -0.12364054028E+03  0.40431634052E+03  0.44090051091E+03  0.12502864710E+03 0.  0.
          2    1    1    2  501    0  0.31503931363E+02  0.33071120816E+02 -0.22355678509E+02  0.50852463902E+02  0.00000000000E+00 0. -1.
          1    1    1    2  502    0 -0.33056835994E+02  0.90569419469E+02  0.29928248616E+04  0.29943774355E+04  0.00000000000E+00 0. -1.
         22    1    3    3    0    0  0.25198971460E+02  0.18778422351E+02  0.76392703891E+02  0.82604252411E+02  0.00000000000E+00 0.  1.
         22    1    3    3    0    0 -0.23646066829E+02 -0.14241896264E+03  0.32792363663E+03  0.35829625850E+03  0.00000000000E+00 0.  1.
</event>
<event>
 7    1  0.6176857E-006  0.3959870E+02  0.7818608E-02  0.1596421E+00
          2   -1    0    0  502    0  0.00000000000E+00  0.00000000000E+00  0.12840181117E+04  0.12840181117E+04  0.00000000000E+00 0. -1.
          1   -1    0    0  501    0 -0.00000000000E+00 -0.00000000000E+00 -0.24926858880E+03  0.24926858880E+03  0.00000000000E+00 0. -1.
         25    2    1    2    0    0  0.45419356157E+02  0.19426886946E+02 -0.32076145314E+02  0.13818080627E+03  0.12499893709E+03 0.  0.
          2    1    1    2  501    0 -0.59327943396E+01 -0.22178239619E+02 -0.16301736955E+03  0.16462604635E+03  0.00000000000E+00 0. -1.
          1    1    1    2  502    0 -0.39486561817E+02  0.27513526728E+01  0.12298430378E+04  0.12304798479E+04  0.00000000000E+00 0. -1.
         22    1    3    3    0    0  0.49265772453E+02 -0.34976388660E+02  0.19125203186E+02  0.63373791870E+02  0.00000000000E+00 0.  1.
         22    1    3    3    0    0 -0.38464162961E+01  0.54403275606E+02 -0.51201348500E+02  0.74807014399E+02  0.00000000000E+00 0.  1.
</event>
<event>
 7    1  0.6176857E-006  0.6608590E+02  0.7818608E-02  0.1400764E+00
          2   -1    0    0  502    0  0.00000000000E+00  0.00000000000E+00  0.72400033423E+03  0.72400033423E+03  0.00000000000E+00 0. -1.
          1   -1    0    0  501    0 -0.00000000000E+00 -0.00000000000E+00 -0.89990706636E+03  0.89990706636E+03  0.00000000000E+00 0. -1.
         25    2    1    2    0    0  0.73730795512E+02 -0.34660239728E+02  0.15600901174E+03  0.21587142754E+03  0.12499639618E+03 0.  0.
          2    1    1    2  501    0 -0.27094371348E+02  0.60306869784E+02 -0.86739862434E+03  0.86991459179E+03  0.00000000000E+00 0. -1.
          1    1    1    2  502    0 -0.46636424163E+02 -0.25646630056E+02  0.53548288047E+03  0.53812138126E+03  0.00000000000E+00 0. -1.
         22    1    3    3    0    0  0.77068504523E+02 -0.72372187933E+02  0.13828396768E+03  0.17406821563E+03  0.00000000000E+00 0. -1.
         22    1    3    3    0    0 -0.33377090115E+01  0.37711948205E+02  0.17725044064E+02  0.41803211909E+02  0.00000000000E+00 0. -1.
</event>
<event>
 7    1  0.6176857E-006  0.2720704E+03  0.7818608E-02  0.1298260E+00
          2   -1    0    0  502    0  0.00000000000E+00  0.00000000000E+00  0.63763648519E+03  0.63763648519E+03  0.00000000000E+00 0. -1.
          1   -1    0    0  501    0 -0.00000000000E+00 -0.00000000000E+00 -0.12215238043E+04  0.12215238043E+04  0.00000000000E+00 0. -1.
         25    2    1    2    0    0 -0.30842073458E+02 -0.27041027038E+03 -0.45010882959E+02  0.30285738832E+03  0.12499468091E+03 0.  0.
          2    1    1    2  501    0  0.61466918630E+02  0.26524249962E+03 -0.10293992199E+04  0.10647978773E+04  0.00000000000E+00 0. -1.
          1    1    1    2  502    0 -0.30624845171E+02  0.51677707566E+01  0.49052278377E+03  0.49150502378E+03  0.00000000000E+00 0. -1.
         22    1    3    3    0    0  0.32312571649E+02 -0.28393797904E+02 -0.29691928750E+02  0.52267778591E+02  0.00000000000E+00 0. -1.
         22    1    3    3    0    0 -0.63154645107E+02 -0.24201647247E+03 -0.15318954209E+02  0.25058960973E+03  0.00000000000E+00 0. -1.
</event>
<event>
 7    1  0.6176857E-006  0.1308212E+03  0.7818608E-02  0.1420551E+00
          2   -1    0    0  502    0  0.00000000000E+00  0.00000000000E+00  0.76842797926E+03  0.76842797926E+03  0.00000000000E+00 0. -1.
          1   -1    0    0  501    0 -0.00000000000E+00 -0.00000000000E+00 -0.27027211831E+03  0.27027211831E+03  0.00000000000E+00 0. -1.
         25    2    1    2    0    0 -0.86094598375E+02 -0.74340452353E+02  0.34445324991E+02  0.17248335800E+03  0.12500098259E+03 0.  0.
          2    1    1    2  501    0 -0.23027508252E+02 -0.84442607761E+00 -0.19396232212E+03  0.19532629520E+03  0.00000000000E+00 0. -1.
          1    1    1    2  502    0  0.10912210663E+03  0.75184878431E+02  0.65767285808E+03  0.67089044438E+03  0.00000000000E+00 0. -1.
         22    1    3    3    0    0 -0.72820117154E+02 -0.10677112719E+03  0.43370090148E+02  0.13632244049E+03  0.00000000000E+00 0.  1.
         22    1    3    3    0    0 -0.13274481221E+02  0.32430674832E+02 -0.89247651572E+01  0.36160917506E+02  0.00000000000E+00 0.  1.
</event>
<event>
 7    1  0.6176857E-006  0.4227515E+02  0.7818608E-02  0.1508737E+00
          2   -1    0    0  502    0  0.00000000000E+00  0.00000000000E+00  0.74729062028E+03  0.74729062028E+03  0.00000000000E+00 0. -1.
          1   -1    0    0  501    0 -0.00000000000E+00 -0.00000000000E+00 -0.10605587779E+03  0.10605587779E+03  0.00000000000E+00 0. -1.
         25    2    1    2    0    0 -0.24628690347E+02  0.94610577319E+01  0.32847306576E+03  0.35244268805E+03  0.12500083774E+03 0.  0.
          2    1    1    2  501    0  0.14933422326E+02  0.34629787386E+02 -0.88975647341E+02  0.96637958880E+02  0.00000000000E+00 0. -1.
          1    1    1    2  502    0  0.96952680208E+01 -0.44090845118E+02  0.40173732407E+03  0.40426585114E+03  0.00000000000E+00 0. -1.
         22    1    3    3    0    0 -0.72294666607E+02  0.14816673786E+01  0.13638766360E+03  0.15437068679E+03  0.00000000000E+00 0.  1.
         22    1    3    3    0    0  0.47665976260E+02  0.79793903534E+01  0.19208540216E+03  0.19807200127E+03  0.00000000000E+00 0.  1.
</event>
<event>
 7    1  0.6176857E-006  0.5079085E+02  0.7818608E-02  0.1477974E+00
          2   -1    0    0  502    0  0.00000000000E+00  0.00000000000E+00  0.87142728685E+03  0.87142728685E+03  0.00000000000E+00 0. -1.
          1   -1    0    0  501    0 -0.00000000000E+00 -0.00000000000E+00 -0.22614319376E+04  0.22614319376E+04  0.00000000000E+00 0. -1.
         25    2    1    2    0    0 -0.63006039419E+01 -0.82913519617E+02  0.59611187774E+02  0.16152981269E+03  0.12499614928E+03 0.  0.
          2    1    1    2  501    0 -0.12796482949E+02  0.49076632504E+02 -0.22096854211E+04  0.22102673879E+04  0.00000000000E+00 0. -1.
          1    1    1    2  502    0  0.19097086891E+02  0.33836887113E+02  0.76006958262E+03  0.76106202380E+03  0.00000000000E+00 0. -1.
         22    1    3    3    0    0  0.41290323932E+02  0.74483500091E+01  0.39122528714E+02  0.57366723990E+02  0.00000000000E+00 0. -1.
         22    1    3    3    0    0 -0.47590927874E+02 -0.90361869626E+02  0.20488659059E+02  0.10416308870E+03  0.00000000000E+00 0. -1.
</event>
<event>
 7    1  0.6176857E-006  0.1083991E+03  0.7818608E-02  0.1345647E+00
          2   -1    0    0  502    0  0.00000000000E+00  0.00000000000E+00  0.11724228256E+04  0.11724228256E+04  0.00000000000E+00 0. -1.
          1   -1    0    0  501    0 -0.00000000000E+00 -0.00000000000E+00 -0.10497944849E+04  0.10497944849E+04  0.00000000000E+00 0. -1.
         25    2    1    2    0    0 -0.97536777712E+02  0.51632529156E+02  0.16431254066E+03  0.23409895618E+03  0.12499747675E+03 0.  0.
          2    1    1    2  501    0  0.34606107607E+02  0.37604824811E+02 -0.10111910286E+04  0.10124816056E+04  0.00000000000E+00 0. -1.
          1    1    1    2  502    0  0.62930670106E+02 -0.89237353968E+02  0.96950682859E+03  0.97563674863E+03  0.00000000000E+00 0. -1.
         22    1    3    3    0    0 -0.60617629143E+02  0.87758168151E+02  0.73192344775E+02  0.12935653201E+03  0.00000000000E+00 0.  1.
         22    1    3    3    0    0 -0.36919148570E+02 -0.36125638994E+02  0.91120195880E+02  0.10474242417E+03  0.00000000000E+00 0.  1.
</event>
<event>
 7    1  0.6176857E-006  0.1044220E+03  0.7818608E-02  0.1294778E+00
          2   -1    0    0  502    0  0.00000000000E+00  0.00000000000E+00  0.22018102106E+03  0.22018102106E+03  0.00000000000E+00 0. -1.
          1   -1    0    0  501    0 -0.00000000000E+00 -0.00000000000E+00 -0.16873528562E+03  0.16873528562E+03  0.00000000000E+00 0. -1.
         25    2    1    2    0    0 -0.71361854458E+01  0.20376699975E+02  0.56306257774E+02  0.13878726486E+03  0.12500150071E+03 0.  0.
          2    1    1    2  501    0 -0.90974725161E+02 -0.56128633938E+02 -0.69328244582E+02  0.12740969218E+03  0.00000000000E+00 0. -1.
          1    1    1    2  502    0  0.98110910607E+02  0.35751933963E+02  0.64467722246E+02  0.12271934963E+03  0.00000000000E+00 0. -1.
         22    1    3    3    0    0  0.22006096859E+02  0.31841678687E+02  0.86823625490E+02  0.95060521479E+02  0.00000000000E+00 0. -1.
         22    1    3    3    0    0 -0.29142282305E+02 -0.11464978712E+02 -0.30517367716E+02  0.43726743386E+02  0.00000000000E+00 0. -1.
</event>
<event>
 7    1  0.6176857E-006  0.3032873E+03  0.7818608E-02  0.1227585E+00
          2   -1    0    0  502    0  0.00000000000E+00  0.00000000000E+00  0.13693780583E+04  0.13693780583E+04  0.00000000000E+00 0. -1.
          1   -1    0    0  501    0 -0.00000000000E+00 -0.00000000000E+00 -0.23828429345E+03  0.23828429345E+03  0.00000000000E+00 0. -1.
         25    2    1    2    0    0 -0.33216867111E+03 -0.37064730395E+02  0.25513040504E+03  0.43866541287E+03  0.12500400218E+03 0.  0.
          2    1    1    2  501    0  0.29092150986E+03 -0.28986401325E+00 -0.34660181522E+00  0.29092186073E+03  0.00000000000E+00 0. -1.
          1    1    1    2  502    0  0.41247161256E+02  0.37354594408E+02  0.87630996167E+03  0.87807507820E+03  0.00000000000E+00 0. -1.
         22    1    3    3    0    0 -0.21264727545E+03 -0.21946116266E+02  0.84679384991E+02  0.22993715232E+03  0.00000000000E+00 0.  1.
         22    1    3    3    0    0 -0.11952139566E+03 -0.15118614129E+02  0.17045102005E+03  0.20872826054E+03  0.00000000000E+00 0.  1.
</event>
<event>
 7    1  0.6176857E-006  0.7317162E+02  0.7818608E-02  0.1466391E+00
          2   -1    0    0  502    0  0.00000000000E+00  0.00000000000E+00  0.96521200866E+03  0.96521200866E+03  0.00000000000E+00 0. -1.
          1   -1    0    0  501    0 -0.00000000000E+00 -0.00000000000E+00 -0.20891934389E+04  0.20891934389E+04  0.00000000000E+00 0. -1.
         25    2    1    2    0    0  0.97576798002E+02  0.17730166675E+02 -0.15187189288E+03  0.22028445466E+03  0.12499831519E+03 0.  0.
          2    1    1    2  501    0 -0.72626500240E+02 -0.23770990604E+01 -0.19021909167E+04  0.19035783521E+04  0.00000000000E+00 0. -1.
          1    1    1    2  502    0 -0.24950297761E+02 -0.15353067614E+02  0.93008137935E+03  0.93054264075E+03  0.00000000000E+00 0. -1.
         22    1    3    3    0    0  0.30946416616E+02 -0.46600845172E+02 -0.98802559989E+02  0.11353970817E+03  0.00000000000E+00 0.  1.
         22    1    3    3    0    0  0.66630381385E+02  0.64331011847E+02 -0.53069332888E+02  0.10674474648E+03  0.00000000000E+00 0.  1.
</event>
<event>
 7    1  0.6909705E-006  0.9093413E+02  0.7818608E-02  0.1381028E+00
          2   -1    0    0  502    0  0.00000000000E+00  0.00000000000E+00  0.11522275833E+04  0.11522275833E+04  0.00000000000E+00 0. -1.
          1   -1    0    0  501    0 -0.00000000000E+00 -0.00000000000E+00 -0.15227809429E+04  0.15227809429E+04  0.00000000000E+00 0. -1.
         25    2    1    2    0    0 -0.69328064608E+02  0.62752621618E+02 -0.20836969004E+03  0.26035959394E+03  0.12499967346E+03 0.  0.
          2    1    1    2  501    0  0.88789637139E+02 -0.21826950611E+02 -0.12863370485E+04  0.12895824975E+04  0.00000000000E+00 0. -1.
          1    1    1    2  502    0 -0.19461572531E+02 -0.40925671007E+02  0.11241533789E+04  0.11250664348E+04  0.00000000000E+00 0. -1.
         22    1    3    3    0    0  0.33579783797E+02  0.11723343754E+02 -0.23228646205E+02  0.42480685884E+02  0.00000000000E+00 0. -1.
         22    1    3    3    0    0 -0.10290784841E+03  0.51029277863E+02 -0.18514104384E+03  0.21787890806E+03  0.00000000000E+00 0. -1.
</event>
<event>
 7    1  0.6176857E-006  0.2278437E+03  0.7818608E-02  0.1280677E+00
          2   -1    0    0  502    0  0.00000000000E+00  0.00000000000E+00  0.19810968390E+03  0.19810968390E+03  0.00000000000E+00 0. -1.
          1   -1    0    0  501    0 -0.00000000000E+00 -0.00000000000E+00 -0.43779089020E+03  0.43779089020E+03  0.00000000000E+00 0. -1.
         25    2    1    2    0    0 -0.79893504144E+02  0.19437351246E+03 -0.99632166393E+02  0.26402767037E+03  0.12498002958E+03 0.  0.
          2    1    1    2  501    0 -0.41321888242E+02  0.14314818290E+02 -0.12229974221E+03  0.12988317602E+03  0.00000000000E+00 0. -1.
          1    1    1    2  502    0  0.12121539239E+03 -0.20868833075E+03 -0.17749297702E+02  0.24198972770E+03  0.00000000000E+00 0. -1.
         22    1    3    3    0    0 -0.21621152463E+02  0.90002183044E+02 -0.11032679851E+03  0.14401343568E+03  0.00000000000E+00 0. -1.
         22    1    3    3    0    0 -0.58272351681E+02  0.10437132941E+03  0.10694632115E+02  0.12001423470E+03  0.00000000000E+00 0. -1.
</event>
<event>
 7    1  0.6176857E-006  0.6490251E+02  0.7818608E-02  0.1486123E+00
          2   -1    0    0  502    0  0.00000000000E+00  0.00000000000E+00  0.64653572840E+03  0.64653572840E+03  0.00000000000E+00 0. -1.
          1   -1    0    0  501    0 -0.00000000000E+00 -0.00000000000E+00 -0.36056519620E+03  0.36056519620E+03  0.00000000000E+00 0. -1.
         25    2    1    2    0    0 -0.26906023476E+02  0.74215922252E+02  0.62965344906E+02  0.16069171884E+03  0.12500102651E+03 0.  0.
          2    1    1    2  501    0 -0.14535207578E+02 -0.24758661455E+02 -0.30908774800E+03  0.31041826547E+03  0.00000000000E+00 0. -1.
          1    1    1    2  502    0  0.41441231055E+02 -0.49457260797E+02  0.53209293530E+03  0.53599094029E+03  0.00000000000E+00 0. -1.
         22    1    3    3    0    0 -0.26561850792E+02 -0.28872890570E+02 -0.12243869732E+01  0.39251431194E+02  0.00000000000E+00 0.  1.
         22    1    3    3    0    0 -0.34417268488E+00  0.10308881282E+03  0.64189731879E+02  0.12144028764E+03  0.00000000000E+00 0.  1.
</event>
<event>
 7    1  0.6176857E-006  0.8255536E+02  0.7818608E-02  0.1348306E+00
          2   -1    0    0  502    0  0.00000000000E+00  0.00000000000E+00  0.26103423733E+04  0.26103423733E+04  0.00000000000E+00 0. -1.
          1   -1    0    0  501    0 -0.00000000000E+00 -0.00000000000E+00 -0.75358102680E+03  0.75358102680E+03  0.00000000000E+00 0. -1.
         25    2    1    2    0    0  0.95228236937E+02 -0.99625821023E+02 -0.88598084624E+02  0.20605385184E+03  0.12495938515E+03 0.  0.
          2    1    1    2  501    0 -0.60688980936E+02  0.24880901472E+02 -0.60381429335E+03  0.60736637421E+03  0.00000000000E+00 0. -1.
          1    1    1    2  502    0 -0.34539256001E+02  0.74744919552E+02  0.25491737245E+04  0.25505031740E+04  0.00000000000E+00 0. -1.
         22    1    3    3    0    0  0.10972459371E+03 -0.98220323563E+02 -0.36170803588E+02  0.15164117336E+03  0.00000000000E+00 0.  1.
         22    1    3    3    0    0 -0.14496356776E+02 -0.14054974604E+01 -0.52427281036E+02  0.54412678483E+02  0.00000000000E+00 0.  1.
</event>
<event>
 7    1  0.6176857E-006  0.7944511E+02  0.7818608E-02  0.1390732E+00
          2   -1    0    0  502    0  0.00000000000E+00  0.00000000000E+00  0.25945364485E+03  0.25945364485E+03  0.00000000000E+00 0. -1.
          1   -1    0    0  501    0 -0.00000000000E+00 -0.00000000000E+00 -0.14271652984E+04  0.14271652984E+04  0.00000000000E+00 0. -1.
         25    2    1    2    0    0  0.45302673311E+02  0.66677720476E+02  0.26295042331E+02  0.15104641267E+03  0.12500135564E+03 0.  0.
          2    1    1    2  501    0  0.30325296816E+02 -0.37152288948E+02 -0.13546925672E+04  0.13555411716E+04  0.00000000000E+00 0. -1.
          1    1    1    2  502    0 -0.75627970127E+02 -0.29525431528E+02  0.16068587133E+03  0.18003135899E+03  0.00000000000E+00 0. -1.
         22    1    3    3    0    0 -0.38846775056E+02  0.83825244603E+00  0.20768698623E+02  0.44058068976E+02  0.00000000000E+00 0.  1.
         22    1    3    3    0    0  0.84149448367E+02  0.65839468030E+02  0.55263437076E+01  0.10698834369E+03  0.00000000000E+00 0.  1.
</event>
<event>
 7    1  0.6176857E-006  0.1299076E+03  0.7818608E-02  0.1329219E+00
          2   -1    0    0  502    0  0.00000000000E+00  0.00000000000E+00  0.15836191395E+04  0.15836191395E+04  0.00000000000E+00 0. -1.
          1   -1    0    0  501    0 -0.00000000000E+00 -0.00000000000E+00 -0.59307143219E+03  0.59307143219E+03  0.00000000000E+00 0. -1.
         25    2    1    2    0    0 -0.57770128567E+01 -0.81824114339E+02  0.11869480070E+04  0.11963270150E+04  0.12499678354E+03 0.  0.
          2    1    1    2  501    0 -0.33882425698E+01  0.13015599660E+03 -0.57958740309E+03  0.59403166705E+03  0.00000000000E+00 0. -1.
          1    1    1    2  502    0  0.91652554264E+01 -0.48331882260E+02  0.38318710339E+03  0.38633188964E+03  0.00000000000E+00 0. -1.
         22    1    3    3    0    0 -0.23273749201E+02 -0.11195930478E+03  0.87585390634E+03  0.88328739297E+03  0.00000000000E+00 0. -1.
         22    1    3    3    0    0  0.17496736344E+02  0.30135190438E+02  0.31109410063E+03  0.31303962198E+03  0.00000000000E+00 0. -1.
</event>
<event>
 7    1  0.6176857E-006  0.4578548E+03  0.7818608E-02  0.1213365E+00
          2   -1    0    0  502    0  0.00000000000E+00  0.00000000000E+00  0.79328487608E+03  0.79328487608E+03  0.00000000000E+00 0. -1.
          1   -1    0    0  501    0 -0.00000000000E+00 -0.00000000000E+00 -0.21737414022E+04  0.21737414022E+04  0.00000000000E+00 0. -1.
         25    2    1    2    0    0  0.12006504573E+03 -0.47041575114E+03 -0.78505951458E+02  0.50744018015E+03  0.12500303151E+03 0.  0.
          2    1    1    2  501    0 -0.13972654160E+03  0.43240790413E+03 -0.18524770091E+04  0.19073990593E+04  0.00000000000E+00 0. -1.
          1    1    1    2  502    0  0.19661495863E+02  0.38007847011E+02  0.55052643446E+03  0.55218703886E+03  0.00000000000E+00 0. -1.
         22    1    3    3    0    0  0.10246363711E+02 -0.54440252708E+02 -0.52668370649E+02  0.76437466933E+02  0.00000000000E+00 0.  1.
         22    1    3    3    0    0  0.10981868202E+03 -0.41597549843E+03 -0.25837580808E+02  0.43100271321E+03  0.00000000000E+00 0.  1.
</event>
<event>
 7    1  0.6176857E-006  0.1827532E+03  0.7818608E-02  0.1224722E+00
          2   -1    0    0  502    0  0.00000000000E+00  0.00000000000E+00  0.14634210824E+04  0.14634210824E+04  0.00000000000E+00 0. -1.
          1   -1    0    0  501    0 -0.00000000000E+00 -0.00000000000E+00 -0.15963352062E+04  0.15963352062E+04  0.00000000000E+00 0. -1.
         25    2    1    2    0    0  0.23138332203E+03  0.14803741611E+03  0.18754843502E+03  0.35532154936E+03  0.12500267871E+03 0.  0.
          2    1    1    2  501    0 -0.15907469133E+03 -0.86207129484E+02 -0.15051235738E+04  0.15159595637E+04  0.00000000000E+00 0. -1.
          1    1    1    2  502    0 -0.72308630692E+02 -0.61830286622E+02  0.11846610149E+04  0.11884751755E+04  0.00000000000E+00 0. -1.
         22    1    3    3    0    0  0.20248702961E+03  0.13650501334E+03  0.10264551601E+03  0.26489756092E+03  0.00000000000E+00 0.  1.
         22    1    3    3    0    0  0.28896292417E+02  0.11532402770E+02  0.84902919009E+02  0.90423988440E+02  0.00000000000E+00 0.  1.
</event>
<event>
 7    1  0.6176857E-006  0.1094184E+03  0.7818608E-02  0.1266894E+00
          2   -1    0    0  502    0  0.00000000000E+00  0.00000000000E+00  0.35185256457E+03  0.35185256457E+03  0.00000000000E+00 0. -1.
          1   -1    0    0  501    0 -0.00000000000E+00 -0.00000000000E+00 -0.34108939968E+03  0.34108939968E+03  0.00000000000E+00 0. -1.
         25    2    1    2    0    0  0.10585846575E+03 -0.17115962588E+03 -0.13322618802E+03  0.27180199202E+03  0.12500189353E+03 0.  0.
          2    1    1    2  501    0 -0.76543001681E+02  0.70348318405E+02 -0.10693332629E+03  0.14913904009E+03  0.00000000000E+00 0. -1.
          1    1    1    2  502    0 -0.29315464074E+02  0.10081130748E+03  0.25092267920E+03  0.27200093214E+03  0.00000000000E+00 0. -1.
         22    1    3    3    0    0  0.13418999006E+03 -0.15009309061E+03 -0.10858566096E+03  0.22874819136E+03  0.00000000000E+00 0. -1.
         22    1    3    3    0    0 -0.28331524306E+02 -0.21066535268E+02 -0.24640527062E+02  0.43053800664E+02  0.00000000000E+00 0. -1.
</event>
<event>
 7    1  0.6176857E-006  0.7283285E+02  0.7818608E-02  0.1410578E+00
          2   -1    0    0  502    0  0.00000000000E+00  0.00000000000E+00  0.17794581367E+03  0.17794581367E+03  0.00000000000E+00 0. -1.
          1   -1    0    0  501    0 -0.00000000000E+00 -0.00000000000E+00 -0.98584967075E+03  0.98584967075E+03  0.00000000000E+00 0. -1.
         25    2    1    2    0    0 -0.39594988323E+02 -0.23752015580E+02 -0.10995752431E+03  0.17276464487E+03  0.12500017608E+03 0.  0.
          2    1    1    2  501    0  0.72817384844E+01 -0.44113976110E+02 -0.83421163512E+03  0.83540895301E+03  0.00000000000E+00 0. -1.
          1    1    1    2  502    0  0.32313249839E+02  0.67865991690E+02  0.13626530236E+03  0.15562188654E+03  0.00000000000E+00 0. -1.
         22    1    3    3    0    0 -0.71376510869E+02 -0.12315186912E+02 -0.17762774751E+02  0.74577384637E+02  0.00000000000E+00 0. -1.
         22    1    3    3    0    0  0.31781522546E+02 -0.11436828668E+02 -0.92194749560E+02  0.98187260232E+02  0.00000000000E+00 0. -1.
</event>
<event>
 7    1  0.6176857E-006  0.7430094E+02  0.7818608E-02  0.1423038E+00
          2   -1    0    0  502    0  0.00000000000E+00  0.00000000000E+00  0.16447090225E+04  0.16447090225E+04  0.00000000000E+00 0. -1.
          1   -1    0    0  501    0 -0.00000000000E+00 -0.00000000000E+00 -0.76935858065E+03  0.76935858065E+03  0.00000000000E+00 0. -1.
         25    2    1    2    0    0  0.80953533925E+02  0.73064354079E+02  0.11677715348E+04  0.11794944234E+04  0.12499945134E+03 0.  0.
          2    1    1    2  501    0 -0.43226389505E+02 -0.60371636225E+02 -0.76084577260E+03  0.76446029648E+03  0.00000000000E+00 0. -1.
          1    1    1    2  502    0 -0.37727144419E+02 -0.12692717853E+02  0.46842467972E+03  0.47011288334E+03  0.00000000000E+00 0. -1.
         22    1    3    3    0    0  0.17967991249E+02  0.55425782533E+01  0.80289939934E+03  0.80311955172E+03  0.00000000000E+00 0. -1.
         22    1    3    3    0    0  0.62985542675E+02  0.67521775825E+02  0.36487213543E+03  0.37637487165E+03  0.00000000000E+00 0. -1.
</event>
<event>
 7    1  0.6176857E-006  0.2315360E+02  0.7818608E-02  0.1691366E+00
          2   -1    0    0  502    0  0.00000000000E+00  0.00000000000E+00  0.10159856887E+04  0.10159856887E+04  0.00000000000E+00 0. -1.
          1   -1    0    0  501    0 -0.00000000000E+00 -0.00000000000E+00 -0.67111647962E+02  0.67111647962E+02  0.00000000000E+00 0. -1.
         25    2    1    2    0    0  0.13489533873E+02  0.14919501703E+02  0.40148654034E+03  0.42097629816E+03  0.12500016995E+03 0.  0.
          2    1    1    2  501    0 -0.22409997089E+02  0.61336524983E+01 -0.54788328863E+02  0.59511264834E+02  0.00000000000E+00 0. -1.
          1    1    1    2  502    0  0.89204632161E+01 -0.21053154201E+02  0.60217582925E+03  0.60260977365E+03  0.00000000000E+00 0. -1.
         22    1    3    3    0    0 -0.43265431708E+02  0.25325404207E+02  0.80421854224E+02  0.94767865418E+02  0.00000000000E+00 0. -1.
         22    1    3    3    0    0  0.56754965581E+02 -0.10405902505E+02  0.32106468611E+03  0.32620843274E+03  0.00000000000E+00 0. -1.
</event>
<event>
 7    1  0.6176857E-006  0.2227711E+03  0.7818608E-02  0.1217553E+00
          2   -1    0    0  502    0  0.00000000000E+00  0.00000000000E+00  0.47607434120E+03  0.47607434120E+03  0.00000000000E+00 0. -1.
          1   -1    0    0  501    0 -0.00000000000E+00 -0.00000000000E+00 -0.41708159481E+03  0.41708159481E+03  0.00000000000E+00 0. -1.
         25    2    1    2    0    0  0.43354066864E+02  0.18549407324E+03 -0.74973391763E+02  0.23986499490E+03  0.12500631979E+03 0.  0.
          2    1    1    2  501    0  0.83680686377E+02  0.87545596961E+01 -0.21687561908E+03  0.23262444785E+03  0.00000000000E+00 0. -1.
          1    1    1    2  502    0 -0.12703475324E+03 -0.19424863293E+03  0.35084175723E+03  0.42066649325E+03  0.00000000000E+00 0. -1.
         22    1    3    3    0    0  0.33795461114E+02  0.13179264089E+03  0.12658231847E+02  0.13664429816E+03  0.00000000000E+00 0. -1.
         22    1    3    3    0    0  0.95586057497E+01  0.53701432344E+02 -0.87631623610E+02  0.10322069674E+03  0.00000000000E+00 0. -1.
</event>
<event>
 7    1  0.6176857E-006  0.5533416E+02  0.7818608E-02  0.1496757E+00
          2   -1    0    0  502    0  0.00000000000E+00  0.00000000000E+00  0.14649122840E+04  0.14649122840E+04  0.00000000000E+00 0. -1.
          1   -1    0    0  501    0 -0.00000000000E+00 -0.00000000000E+00 -0.89838230724E+01  0.89838230724E+01  0.00000000000E+00 0. -1.
         25    2    1    2    0    0  0.33317608686E+02 -0.19902717211E+02  0.89266474552E+03  0.90220933392E+03  0.12500061251E+03 0.  0.
          2    1    1    2  501    0 -0.61243155446E+02  0.58220715497E+01  0.27866599942E+03  0.28537582209E+03  0.00000000000E+00 0. -1.
          1    1    1    2  502    0  0.27925546760E+02  0.14080645661E+02  0.28459771598E+03  0.28631095104E+03  0.00000000000E+00 0. -1.
         22    1    3    3    0    0 -0.12336994997E+01 -0.97148179509E+01  0.10295717473E+01  0.98468126953E+01  0.00000000000E+00 0. -1.
         22    1    3    3    0    0  0.34551308185E+02 -0.10187899260E+02  0.89163517377E+03  0.89236252123E+03  0.00000000000E+00 0. -1.
</event>
<event>
 7    1  0.6176857E-006  0.2540605E+03  0.7818608E-02  0.1288281E+00
          2   -1    0    0  502    0  0.00000000000E+00  0.00000000000E+00  0.13480972987E+04  0.13480972987E+04  0.00000000000E+00 0. -1.
          1   -1    0    0  501    0 -0.00000000000E+00 -0.00000000000E+00 -0.13185392453E+04  0.13185392453E+04  0.00000000000E+00 0. -1.
         25    2    1    2    0    0 -0.22785727536E+03 -0.60276803903E+02  0.46223101089E+02  0.27076490889E+03  0.12499931915E+03 0.  0.
          2    1    1    2  501    0 -0.26269536280E+02  0.25340323147E+02 -0.11921574394E+04  0.11927160521E+04  0.00000000000E+00 0. -1.
          1    1    1    2  502    0  0.25412681164E+03  0.34936480755E+02  0.11754923917E+04  0.12031555831E+04  0.00000000000E+00 0. -1.
         22    1    3    3    0    0 -0.12544029140E+03  0.20698254438E+02  0.57865571873E+02  0.13968575036E+03  0.00000000000E+00 0. -1.
         22    1    3    3    0    0 -0.10241698395E+03 -0.80975058341E+02 -0.11642470784E+02  0.13107915853E+03  0.00000000000E+00 0. -1.
</event>
<event>
 7    1  0.6176857E-006  0.5404068E+02  0.7818608E-02  0.1471650E+00
          2   -1    0    0  502    0  0.00000000000E+00  0.00000000000E+00  0.86791615548E+03  0.86791615548E+03  0.00000000000E+00 0. -1.
          1   -1    0    0  501    0 -0.00000000000E+00 -0.00000000000E+00 -0.66535452451E+02  0.66535452451E+02  0.00000000000E+00 0. -1.
         25    2    1    2    0    0 -0.24142467422E+02  0.82791617058E+02  0.92489935850E+02  0.17781430981E+03  0.12500491971E+03 0.  0.
          2    1    1    2  501    0  0.11481935865E+02 -0.46752580898E+02  0.14475871004E+01  0.48163618845E+02  0.00000000000E+00 0. -1.
          1    1    1    2  502    0  0.12660531558E+02 -0.36039036160E+02  0.70744318008E+03  0.70847367928E+03  0.00000000000E+00 0. -1.
         22    1    3    3    0    0 -0.39121312461E+02  0.11207187087E+03  0.76732760444E+02  0.14134531423E+03  0.00000000000E+00 0.  1.
         22    1    3    3    0    0  0.14978845039E+02 -0.29280253812E+02  0.15757175406E+02  0.36468995582E+02  0.00000000000E+00 0.  1.
</event>
<event>
 7    1  0.6176857E-006  0.1089991E+03  0.7818608E-02  0.1413074E+00
          2   -1    0    0  502    0  0.00000000000E+00  0.00000000000E+00  0.20888199724E+04  0.20888199724E+04  0.00000000000E+00 0. -1.
          1   -1    0    0  501    0 -0.00000000000E+00 -0.00000000000E+00 -0.12186645837E+03  0.12186645837E+03  0.00000000000E+00 0. -1.
         25    2    1    2    0    0  0.12115209032E+03  0.62310917036E+02  0.15646705235E+04  0.15755562681E+04  0.12499291011E+03 0.  0.
          2    1    1    2  501    0 -0.92310920024E+02 -0.57141009060E+02 -0.90584239888E+02  0.14139273457E+03  0.00000000000E+00 0. -1.
          1    1    1    2  502    0 -0.28841170295E+02 -0.51699079758E+01  0.49286723043E+03  0.49373742808E+03  0.00000000000E+00 0. -1.
         22    1    3    3    0    0  0.12622056204E+03  0.27025101743E+02  0.82591186835E+03  0.83593803639E+03  0.00000000000E+00 0.  1.
         22    1    3    3    0    0 -0.50684717228E+01  0.35285815293E+02  0.73875865510E+03  0.73961823169E+03  0.00000000000E+00 0.  1.
</event>
<event>
 7    1  0.6176857E-006  0.1675176E+03  0.7818608E-02  0.1329420E+00
          2   -1    0    0  502    0  0.00000000000E+00  0.00000000000E+00  0.16357041069E+04  0.16357041069E+04  0.00000000000E+00 0. -1.
          1   -1    0    0  501    0 -0.00000000000E+00 -0.00000000000E+00 -0.12840119756E+04  0.12840119756E+04  0.00000000000E+00 0. -1.
         25    2    1    2    0    0  0.18247983563E+03  0.72086886075E+02  0.19977143283E+03  0.30664531255E+03  0.12500925078E+03 0.  0.
          2    1    1    2  501    0 -0.22814996207E+02 -0.30490173160E+02 -0.12253553588E+04  0.12259469524E+04  0.00000000000E+00 0. -1.
          1    1    1    2  502    0 -0.15966483943E+03 -0.41596712914E+02  0.13772760572E+04  0.13871238176E+04  0.00000000000E+00 0. -1.
         22    1    3    3    0    0  0.16340163046E+03  0.45198385478E+02  0.21202465476E+03  0.27147272628E+03  0.00000000000E+00 0.  1.
         22    1    3    3    0    0  0.19078205177E+02  0.26888500597E+02 -0.12253221939E+02  0.35172586272E+02  0.00000000000E+00 0.  1.
</event>
<event>
 7    1  0.6176857E-006  0.1007625E+03  0.7818608E-02  0.1378402E+00
          2   -1    0    0  502    0  0.00000000000E+00  0.00000000000E+00  0.90219064114E+03  0.90219064114E+03  0.00000000000E+00 0. -1.
          1   -1    0    0  501    0 -0.00000000000E+00 -0.00000000000E+00 -0.79542563742E+02  0.79542563742E+02  0.00000000000E+00 0. -1.
         25    2    1    2    0    0  0.60014377127E+02 -0.57193622565E+02  0.22203026225E+03  0.26794568689E+03  0.12499847136E+03 0.  0.
          2    1    1    2  501    0 -0.16475791702E+02 -0.38397270636E+02 -0.43994131999E+02  0.60673600148E+02  0.00000000000E+00 0. -1.
          1    1    1    2  502    0 -0.43538585424E+02  0.95590893201E+02  0.64461194714E+03  0.65311391784E+03  0.00000000000E+00 0. -1.
         22    1    3    3    0    0 -0.13130975856E+02  0.29657698923E+02  0.78459762598E+02  0.84899564070E+02  0.00000000000E+00 0. -1.
         22    1    3    3    0    0  0.73145352983E+02 -0.86851321488E+02  0.14357049966E+03  0.18304612282E+03  0.00000000000E+00 0. -1.
</event>
<event>
 7    1  0.6176857E-006  0.6104622E+02  0.7818608E-02  0.1437795E+00
          2   -1    0    0  502    0  0.00000000000E+00  0.00000000000E+00  0.58832499082E+03  0.58832499082E+03  0.00000000000E+00 0. -1.
          1   -1    0    0  501    0 -0.00000000000E+00 -0.00000000000E+00 -0.24015382746E+03  0.24015382746E+03  0.00000000000E+00 0. -1.
         25    2    1    2    0    0  0.51675635093E+02 -0.83807167609E+02  0.19016528999E+03  0.24795391720E+03  0.12499717970E+03 0.  0.
          2    1    1    2  501    0 -0.44189643743E+02  0.41135869639E+02 -0.20563402684E+03  0.21431340924E+03  0.00000000000E+00 0. -1.
          1    1    1    2  502    0 -0.74859913501E+01  0.42671297970E+02  0.36363990020E+03  0.36621149184E+03  0.00000000000E+00 0. -1.
         22    1    3    3    0    0  0.91772931006E+02 -0.67712482641E+02  0.11999126820E+03  0.16554502595E+03  0.00000000000E+00 0.  1.
         22    1    3    3    0    0 -0.40097295913E+02 -0.16094684967E+02  0.70174021787E+02  0.82408891253E+02  0.00000000000E+00 0.  1.
</event>
<event>
 7    1  0.6176857E-006  0.1107496E+03  0.7818608E-02  0.1285324E+00
          2   -1    0    0  502    0  0.00000000000E+00  0.00000000000E+00  0.19925143067E+04  0.19925143067E+04  0.00000000000E+00 0. -1.
          1   -1    0    0  501    0 -0.00000000000E+00 -0.00000000000E+00 -0.27917114724E+03  0.27917114724E+03  0.00000000000E+00 0. -1.
         25    2    1    2    0    0  0.14051087641E+02 -0.18055168144E+03  0.10866471153E+02  0.22031633140E+03  0.12499945180E+03 0.  0.
          2    1    1    2  501    0  0.17930342520E+02  0.10061827649E+03 -0.15839549974E+03  0.18850641656E+03  0.00000000000E+00 0. -1.
          1    1    1    2  502    0 -0.31981430161E+02  0.79933404950E+02  0.18608721880E+04  0.18628627060E+04  0.00000000000E+00 0. -1.
         22    1    3    3    0    0 -0.15150442679E+02  0.15322781302E+02 -0.31709433193E+01  0.21780230066E+02  0.00000000000E+00 0.  1.
         22    1    3    3    0    0  0.29201530319E+02 -0.19587446275E+03  0.14037414472E+02  0.19853610134E+03  0.00000000000E+00 0.  1.
</event>
<event>
 7    1  0.6176857E-006  0.6622691E+02  0.7818608E-02  0.1504833E+00
          2   -1    0    0  502    0  0.00000000000E+00  0.00000000000E+00  0.95228319922E+03  0.95228319922E+03  0.00000000000E+00 0. -1.
          1   -1    0    0  501    0 -0.00000000000E+00 -0.00000000000E+00 -0.48889116728E+02  0.48889116728E+02  0.00000000000E+00 0. -1.
         25    2    1    2    0    0 -0.41747952184E+02 -0.48538238348E+02  0.83182562879E+02  0.16322853622E+03  0.12500145670E+03 0.  0.
          2    1    1    2  501    0 -0.17164078113E+02  0.17792040292E+02  0.12868346127E+02  0.27870353554E+02  0.00000000000E+00 0. -1.
          1    1    1    2  502    0  0.58912030297E+02  0.30746198056E+02  0.80734317349E+03  0.81007342617E+03  0.00000000000E+00 0. -1.
         22    1    3    3    0    0 -0.49771341385E+02  0.12450408675E+02 -0.93152035578E+01  0.52143763930E+02  0.00000000000E+00 0. -1.
         22    1    3    3    0    0  0.80233892014E+01 -0.60988647024E+02  0.92497766436E+02  0.11108477229E+03  0.00000000000E+00 0. -1.
</event>
<event>
 7    1  0.6176857E-006  0.7353366E+02  0.7818608E-02  0.1391435E+00
          2   -1    0    0  502    0  0.00000000000E+00  0.00000000000E+00  0.56848237763E+03  0.56848237763E+03  0.00000000000E+00 0. -1.
          1   -1    0    0  501    0 -0.00000000000E+00 -0.00000000000E+00 -0.12428661218E+03  0.12428661218E+03  0.00000000000E+00 0. -1.
         25    2    1    2    0    0 -0.80812770548E+01 -0.78244009722E+02  0.11768312659E+03  0.18885557921E+03  0.12501871627E+03 0.  0.
          2    1    1    2  501    0  0.49013001839E+02  0.15879561974E+02 -0.77504878983E+02  0.93066863620E+02  0.00000000000E+00 0. -1.
          1    1    1    2  502    0 -0.40931724784E+02  0.62364447748E+02  0.40401751785E+03  0.41084654698E+03  0.00000000000E+00 0. -1.
         22    1    3    3    0    0  0.26205984432E+02 -0.83266850624E+02  0.12593727006E+03  0.15323288819E+03  0.00000000000E+00 0. -1.
         22    1    3    3    0    0 -0.34287261487E+02  0.50228409020E+01 -0.82541434698E+01  0.35622691019E+02  0.00000000000E+00 0. -1.
</event>
<event>
 7    1  0.6176857E-006  0.6796911E+02  0.7818608E-02  0.1379105E+00
          2   -1    0    0  502    0  0.00000000000E+00  0.00000000000E+00  0.35132729195E+03  0.35132729195E+03  0.00000000000E+00 0. -1.
          1   -1    0    0  501    0 -0.00000000000E+00 -0.00000000000E+00 -0.24749333274E+03  0.24749333274E+03  0.00000000000E+00 0. -1.
         25    2    1    2    0    0  0.69361514808E+02 -0.10659132213E+03 -0.33868359314E+02  0.18150513049E+03  0.12499726773E+03 0.  0.
          2    1    1    2  501    0 -0.30603238069E+02  0.53445919744E+02 -0.12882592321E+03  0.14279055644E+03  0.00000000000E+00 0. -1.
          1    1    1    2  502    0 -0.38758276739E+02  0.53145402387E+02  0.26652824173E+03  0.27452493776E+03  0.00000000000E+00 0. -1.
         22    1    3    3    0    0 -0.29574807962E+02 -0.35191195787E+02 -0.37676857932E+02  0.59435975221E+02  0.00000000000E+00 0. -1.
         22    1    3    3    0    0  0.98936322771E+02 -0.71400126344E+02  0.38084986179E+01  0.12206915526E+03  0.00000000000E+00 0. -1.
</event>
<event>
 7    1  0.6176857E-006  0.1232601E+03  0.7818608E-02  0.1282001E+00
          2   -1    0    0  502    0  0.00000000000E+00  0.00000000000E+00  0.85562117979E+03  0.85562117979E+03  0.00000000000E+00 0. -1.
          1   -1    0    0  501    0 -0.00000000000E+00 -0.00000000000E+00 -0.10640497183E+04  0.10640497183E+04  0.00000000000E+00 0. -1.
         25    2    1    2    0    0  0.14107105964E+03 -0.10911185734E+02 -0.37031842599E+02  0.19239837237E+03  0.12500271390E+03 0.  0.
          2    1    1    2  501    0 -0.10719422852E+03 -0.61369956894E+02 -0.94324965837E+03  0.95130268172E+03  0.00000000000E+00 0. -1.
          1    1    1    2  502    0 -0.33876831118E+02  0.72281142628E+02  0.77185296242E+03  0.77596984404E+03  0.00000000000E+00 0. -1.
         22    1    3    3    0    0  0.10661285926E+02 -0.50478377675E+02 -0.17334231079E+01  0.51621065331E+02  0.00000000000E+00 0. -1.
         22    1    3    3    0    0  0.13040977371E+03  0.39567191941E+02 -0.35298419491E+02  0.14077730704E+03  0.00000000000E+00 0. -1.
</event>
<event>
 7    1  0.6176857E-006  0.6846636E+02  0.7818608E-02  0.1417846E+00
          2   -1    0    0  502    0  0.00000000000E+00  0.00000000000E+00  0.76457904554E+03  0.76457904554E+03  0.00000000000E+00 0. -1.
          1   -1    0    0  501    0 -0.00000000000E+00 -0.00000000000E+00 -0.63288821647E+03  0.63288821647E+03  0.00000000000E+00 0. -1.
         25    2    1    2    0    0 -0.57453337760E+01  0.28874054002E+02  0.60149910101E+02  0.14180892880E+03  0.12500016299E+03 0.  0.
          2    1    1    2  501    0  0.20786626440E+02  0.39861447670E+02 -0.58933507703E+03  0.59104725012E+03  0.00000000000E+00 0. -1.
          1    1    1    2  502    0 -0.15041292664E+02 -0.68735501672E+02  0.66087599600E+03  0.66461108309E+03  0.00000000000E+00 0. -1.
         22    1    3    3    0    0  0.39497173655E+02 -0.27049142898E+02  0.49900023629E+02  0.69149802722E+02  0.00000000000E+00 0. -1.
         22    1    3    3    0    0 -0.45242507431E+02  0.55923196900E+02  0.10249886472E+02  0.72659126081E+02  0.00000000000E+00 0. -1.
</event>
<event>
 7    1  0.6176857E-006  0.7244803E+02  0.7818608E-02  0.1398402E+00
          2   -1    0    0  502    0  0.00000000000E+00  0.00000000000E+00  0.39343130987E+04  0.39343130987E+04  0.00000000000E+00 0. -1.
          1   -1    0    0  501    0 -0.00000000000E+00 -0.00000000000E+00 -0.62998735331E+02  0.62998735331E+02  0.00000000000E+00 0. -1.
         25    2    1    2    0    0 -0.24828139184E+01  0.82152280432E+02  0.46145010726E+03  0.48509653301E+03  0.12500913290E+03 0.  0.
          2    1    1    2  501    0 -0.42579224431E+02 -0.25177958402E+02 -0.38749466593E+02  0.62836622313E+02  0.00000000000E+00 0. -1.
          1    1    1    2  502    0  0.45062038350E+02 -0.56974322031E+02  0.34486137227E+04  0.34493786787E+04  0.00000000000E+00 0. -1.
         22    1    3    3    0    0 -0.38941535000E+02  0.93119903920E+02  0.23942723066E+03  0.25983294332E+03  0.00000000000E+00 0.  1.
         22    1    3    3    0    0  0.36458721081E+02 -0.10967623488E+02  0.22202287659E+03  0.22526358969E+03  0.00000000000E+00 0.  1.
</event>
<event>
 7    1  0.6176857E-006  0.7230190E+02  0.7818608E-02  0.1437615E+00
          2   -1    0    0  502    0  0.00000000000E+00  0.00000000000E+00  0.61635865218E+03  0.61635865218E+03  0.00000000000E+00 0. -1.
          1   -1    0    0  501    0 -0.00000000000E+00 -0.00000000000E+00 -0.62186670354E+03  0.62186670354E+03  0.00000000000E+00 0. -1.
         25    2    1    2    0    0 -0.37375617411E+02 -0.84102890482E+01 -0.15564554788E+02  0.13165984008E+03  0.12499755352E+03 0.  0.
          2    1    1    2  501    0  0.68145784748E+02  0.28279862288E+02 -0.54516610274E+03  0.55013605423E+03  0.00000000000E+00 0. -1.
          1    1    1    2  502    0 -0.30770167338E+02 -0.19869573239E+02  0.55522260616E+03  0.55642946141E+03  0.00000000000E+00 0. -1.
         22    1    3    3    0    0 -0.63589039456E+02  0.40367179368E+02 -0.10614803888E+02  0.76064112239E+02  0.00000000000E+00 0.  1.
         22    1    3    3    0    0  0.26213422045E+02 -0.48777468417E+02 -0.49497508994E+01  0.55595727843E+02  0.00000000000E+00 0.  1.
</event>
<event>
 7    1  0.6176857E-006  0.1256546E+03  0.7818608E-02  0.1417462E+00
          2   -1    0    0  502    0  0.00000000000E+00  0.00000000000E+00  0.17141343416E+04  0.17141343416E+04  0.00000000000E+00 0. -1.
          1   -1    0    0  501    0 -0.00000000000E+00 -0.00000000000E+00 -0.17605609660E+03  0.17605609660E+03  0.00000000000E+00 0. -1.
         25    2    1    2    0    0 -0.34750077250E+02 -0.98681611258E+02  0.45744282777E+02  0.16929518119E+03  0.12499076245E+03 0.  0.
          2    1    1    2  501    0  0.44557269386E+01 -0.24160550746E+02 -0.11043776003E+03  0.11313745868E+03  0.00000000000E+00 0. -1.
          1    1    1    2  502    0  0.30294350312E+02  0.12284216200E+03  0.16027717222E+04  0.16077577983E+04  0.00000000000E+00 0. -1.
         22    1    3    3    0    0 -0.24821017479E+00  0.25706519420E+02  0.29599894207E+02  0.39205107907E+02  0.00000000000E+00 0. -1.
         22    1    3    3    0    0 -0.34501867076E+02 -0.12438813068E+03  0.16144388570E+02  0.13009007329E+03  0.00000000000E+00 0. -1.
</event>
<event>
 7    1  0.6176857E-006  0.8088298E+02  0.7818608E-02  0.1432301E+00
          2   -1    0    0  502    0  0.00000000000E+00  0.00000000000E+00  0.60051154361E+03  0.60051154361E+03  0.00000000000E+00 0. -1.
          1   -1    0    0  501    0 -0.00000000000E+00 -0.00000000000E+00 -0.88439511653E+03  0.88439511653E+03  0.00000000000E+00 0. -1.
         25    2    1    2    0    0 -0.22081026884E+02  0.60013790093E+02 -0.18490974283E+03  0.23217800084E+03  0.12500313727E+03 0.  0.
          2    1    1    2  501    0  0.26810904951E+02  0.21035641099E+02 -0.67256121280E+03  0.67342401782E+03  0.00000000000E+00 0. -1.
          1    1    1    2  502    0 -0.47298780665E+01 -0.81049431192E+02  0.57358738271E+03  0.57930464148E+03  0.00000000000E+00 0. -1.
         22    1    3    3    0    0 -0.55369872799E+01  0.98076768776E+02 -0.14002440929E+03  0.17104545009E+03  0.00000000000E+00 0. -1.
         22    1    3    3    0    0 -0.16544039604E+02 -0.38062978683E+02 -0.44885333547E+02  0.61132550743E+02  0.00000000000E+00 0. -1.
</event>
<event>
 7    1  0.7769385E-006  0.1608541E+03  0.7818608E-02  0.1232207E+00
          2   -1    0    0  502    0  0.00000000000E+00  0.00000000000E+00  0.14248423805E+04  0.14248423805E+04  0.00000000000E+00 0. -1.
          1   -1    0    0  501    0 -0.00000000000E+00 -0.00000000000E+00 -0.84877568733E+03  0.84877568733E+03  0.00000000000E+00 0. -1.
         25    2    1    2    0    0 -0.52941850231E+02 -0.10412169203E+03 -0.38694811395E+03  0.42308206867E+03  0.12500171074E+03 0.  0.
          2    1    1    2  501    0 -0.93473078767E+02  0.35628019138E+02 -0.43340111740E+03  0.44479557188E+03  0.00000000000E+00 0. -1.
          1    1    1    2  502    0  0.14641492900E+03  0.68493672888E+02  0.13964159245E+04  0.14057404273E+04  0.00000000000E+00 0. -1.
         22    1    3    3    0    0 -0.40504380738E+02  0.12542200524E+02 -0.46235228929E+02  0.62734424736E+02  0.00000000000E+00 0.  1.
         22    1    3    3    0    0 -0.12437469493E+02 -0.11666389255E+03 -0.34071288502E+03  0.36034764393E+03  0.00000000000E+00 0.  1.
</event>
<event>
 7    1  0.6176857E-006  0.1178057E+03  0.7818608E-02  0.1317019E+00
          2   -1    0    0  502    0  0.00000000000E+00  0.00000000000E+00  0.18394716251E+04  0.18394716251E+04  0.00000000000E+00 0. -1.
          1   -1    0    0  501    0 -0.00000000000E+00 -0.00000000000E+00 -0.66190119159E+03  0.66190119159E+03  0.00000000000E+00 0. -1.
         25    2    1    2    0    0 -0.46953274871E+02 -0.10370933582E+03  0.63749289550E+03  0.65953212291E+03  0.12500077196E+03 0.  0.
          2    1    1    2  501    0 -0.51659630099E+02  0.31414627992E+02 -0.64632850686E+03  0.64915031773E+03  0.00000000000E+00 0. -1.
          1    1    1    2  502    0  0.98612904970E+02  0.72294707825E+02  0.11864060449E+04  0.11926903761E+04  0.00000000000E+00 0. -1.
         22    1    3    3    0    0 -0.67250647950E+02 -0.11142631851E+03  0.61357950509E+03  0.62723064591E+03  0.00000000000E+00 0.  1.
         22    1    3    3    0    0  0.20297373079E+02  0.77169826916E+01  0.23913390410E+02  0.32301477004E+02  0.00000000000E+00 0.  1.
</event>
<event>
 7    1  0.6176857E-006  0.1013438E+03  0.7818608E-02  0.1328709E+00
          2   -1    0    0  502    0  0.00000000000E+00  0.00000000000E+00  0.23193870245E+03  0.23193870245E+03  0.00000000000E+00 0. -1.
          1   -1    0    0  501    0 -0.00000000000E+00 -0.00000000000E+00 -0.10058561875E+04  0.10058561875E+04  0.00000000000E+00 0. -1.
         25    2    1    2    0    0 -0.34427901065E+02 -0.62153773685E+02 -0.12383522907E+03  0.18975687091E+03  0.12499653653E+03 0.  0.
          2    1    1    2  501    0  0.47184127046E+02 -0.42260207887E+02 -0.83387223160E+03  0.83627457551E+03  0.00000000000E+00 0. -1.
          1    1    1    2  502    0 -0.12756225981E+02  0.10441398157E+03  0.18378997565E+03  0.21176344349E+03  0.00000000000E+00 0. -1.
         22    1    3    3    0    0 -0.44631253273E+02 -0.49676018667E+02 -0.19485697782E+01  0.66809075159E+02  0.00000000000E+00 0.  1.
         22    1    3    3    0    0  0.10203352208E+02 -0.12477755017E+02 -0.12188665929E+03  0.12294779575E+03  0.00000000000E+00 0.  1.
</event>
<event>
 7    1  0.6176857E-006  0.1658495E+03  0.7818608E-02  0.1288622E+00
          2   -1    0    0  502    0  0.00000000000E+00  0.00000000000E+00  0.15141411166E+04  0.15141411166E+04  0.00000000000E+00 0. -1.
          1   -1    0    0  501    0 -0.00000000000E+00 -0.00000000000E+00 -0.11092886872E+04  0.11092886872E+04  0.00000000000E+00 0. -1.
         25    2    1    2    0    0 -0.79927404352E+01 -0.17983645362E+03  0.10635691138E+04  0.10859141483E+04  0.12500097464E+03 0.  0.
          2    1    1    2  501    0  0.45803540660E+02  0.31754175205E+02 -0.10840888799E+04  0.10855206085E+04  0.00000000000E+00 0. -1.
          1    1    1    2  502    0 -0.37810800225E+02  0.14808227842E+03  0.42537219553E+03  0.45199504702E+03  0.00000000000E+00 0. -1.
         22    1    3    3    0    0  0.45099228989E+02 -0.30105524371E+02  0.39639637537E+03  0.40008795215E+03  0.00000000000E+00 0. -1.
         22    1    3    3    0    0 -0.53091969425E+02 -0.14973092925E+03  0.66717273843E+03  0.68582619613E+03  0.00000000000E+00 0. -1.
</event>
<event>
 7    1  0.6176857E-006  0.4430216E+02  0.7818608E-02  0.1481845E+00
          2   -1    0    0  502    0  0.00000000000E+00  0.00000000000E+00  0.30869514275E+03  0.30869514275E+03  0.00000000000E+00 0. -1.
          1   -1    0    0  501    0 -0.00000000000E+00 -0.00000000000E+00 -0.45527435636E+03  0.45527435636E+03  0.00000000000E+00 0. -1.
         25    2    1    2    0    0 -0.75633836872E+02  0.22052341293E+02 -0.24235806720E+02  0.14973014218E+03  0.12499983245E+03 0.  0.
          2    1    1    2  501    0  0.43215320953E+02  0.67170924167E+01 -0.36506645051E+03  0.36767675556E+03  0.00000000000E+00 0. -1.
          1    1    1    2  502    0  0.32418515918E+02 -0.28769433710E+02  0.24272304361E+03  0.24656260136E+03  0.00000000000E+00 0. -1.
         22    1    3    3    0    0 -0.51687489188E+02  0.44407335151E+02 -0.67197652836E+02  0.95703356788E+02  0.00000000000E+00 0.  1.
         22    1    3    3    0    0 -0.23946347683E+02 -0.22354993858E+02  0.42961846116E+02  0.54026785389E+02  0.00000000000E+00 0.  1.
</event>
<event>
 7    1  0.6176857E-006  0.1581039E+03  0.7818608E-02  0.1208825E+00
          2   -1    0    0  502    0  0.00000000000E+00  0.00000000000E+00  0.68684563117E+03  0.68684563117E+03  0.00000000000E+00 0. -1.
          1   -1    0    0  501    0 -0.00000000000E+00 -0.00000000000E+00 -0.48668382924E+03  0.48668382924E+03  0.00000000000E+00 0. -1.
         25    2    1    2    0    0  0.88900296111E+02  0.18303199024E+02  0.19967420687E+03  0.25245540209E+03  0.12500268562E+03 0.  0.
          2    1    1    2  501    0 -0.30737414235E+02  0.15508728375E+03 -0.42741897772E+03  0.45572342131E+03  0.00000000000E+00 0. -1.
          1    1    1    2  502    0 -0.58162881875E+02 -0.17339048277E+03  0.42790657278E+03  0.46535063701E+03  0.00000000000E+00 0. -1.
         22    1    3    3    0    0  0.23225626879E+02  0.65027484491E+02  0.12383342462E+03  0.14178406306E+03  0.00000000000E+00 0. -1.
         22    1    3    3    0    0  0.65674669231E+02 -0.46724285466E+02  0.75840782248E+02  0.11067133903E+03  0.00000000000E+00 0. -1.
</event>
<event>
 7    1  0.6176857E-006  0.7116265E+02  0.7818608E-02  0.1505203E+00
          2   -1    0    0  502    0  0.00000000000E+00  0.00000000000E+00  0.16846570818E+04  0.16846570818E+04  0.00000000000E+00 0. -1.
          1   -1    0    0  501    0 -0.00000000000E+00 -0.00000000000E+00 -0.23409108295E+02  0.23409108295E+02  0.00000000000E+00 0. -1.
         25    2    1    2    0    0  0.46309580406E+02  0.30420363979E+02  0.25805750661E+03  0.29204177321E+03  0.12499897920E+03 0.  0.
          2    1    1    2  501    0  0.21879579432E+02 -0.69240504342E+01  0.18554985391E+02  0.29511793463E+02  0.00000000000E+00 0. -1.
          1    1    1    2  502    0 -0.68189159838E+02 -0.23496313545E+02  0.13846354815E+04  0.13865126234E+04  0.00000000000E+00 0. -1.
         22    1    3    3    0    0  0.35860656355E+02  0.66481904190E+01  0.40335860469E+01  0.36694072089E+02  0.00000000000E+00 0. -1.
         22    1    3    3    0    0  0.10448924051E+02  0.23772173560E+02  0.25402392057E+03  0.25534770112E+03  0.00000000000E+00 0. -1.
</event>
<event>
 7    1  0.6176857E-006  0.7243007E+02  0.7818608E-02  0.1395144E+00
          2   -1    0    0  502    0  0.00000000000E+00  0.00000000000E+00  0.76952888103E+03  0.76952888103E+03  0.00000000000E+00 0. -1.
          1   -1    0    0  501    0 -0.00000000000E+00 -0.00000000000E+00 -0.63390829091E+02  0.63390829091E+02  0.00000000000E+00 0. -1.
         25    2    1    2    0    0 -0.50412040548E+02  0.17044627188E+02  0.65643896273E+02  0.15088774005E+03  0.12500438325E+03 0.  0.
          2    1    1    2  501    0 -0.17029374513E+02 -0.47837059051E+02  0.16125097689E+02  0.53276660842E+02  0.00000000000E+00 0. -1.
          1    1    1    2  502    0  0.67441415061E+02  0.30792431863E+02  0.62436905798E+03  0.62875530923E+03  0.00000000000E+00 0. -1.
         22    1    3    3    0    0  0.38692066277E+02 -0.13420729608E+02  0.12808988737E+02  0.42909930884E+02  0.00000000000E+00 0.  1.
         22    1    3    3    0    0 -0.89104106825E+02  0.30465356797E+02  0.52834907536E+02  0.10797780917E+03  0.00000000000E+00 0.  1.
</event>
<event>
 7    1  0.6176857E-006  0.8817696E+02  0.7818608E-02  0.1379560E+00
          2   -1    0    0  502    0  0.00000000000E+00  0.00000000000E+00  0.11577345223E+03  0.11577345223E+03  0.00000000000E+00 0. -1.
          1   -1    0    0  501    0 -0.00000000000E+00 -0.00000000000E+00 -0.64513106542E+03  0.64513106542E+03  0.00000000000E+00 0. -1.
         25    2    1    2    0    0  0.53977115010E+02  0.35481027238E+02 -0.30999758398E+03  0.34043498431E+03  0.12500017692E+03 0.  0.
          2    1    1    2  501    0 -0.13746678214E+02  0.45255429922E+02 -0.29743327624E+03  0.30117034866E+03  0.00000000000E+00 0. -1.
          1    1    1    2  502    0 -0.40230436797E+02 -0.80736457160E+02  0.78073247040E+02  0.11929918467E+03  0.00000000000E+00 0. -1.
         22    1    3    3    0    0  0.56306676274E+02  0.28810053689E+01 -0.41629148620E+02  0.70083721361E+02  0.00000000000E+00 0. -1.
         22    1    3    3    0    0 -0.23295612636E+01  0.32600021869E+02 -0.26836843536E+03  0.27035126295E+03  0.00000000000E+00 0. -1.
</event>
<event>
 7    1  0.6176857E-006  0.8330690E+02  0.7818608E-02  0.1341465E+00
          2   -1    0    0  502    0  0.00000000000E+00  0.00000000000E+00  0.72054084780E+03  0.72054084780E+03  0.00000000000E+00 0. -1.
          1   -1    0    0  501    0 -0.00000000000E+00 -0.00000000000E+00 -0.25712499816E+04  0.25712499816E+04  0.00000000000E+00 0. -1.
         25    2    1    2    0    0  0.87165520560E+01  0.76614134813E+02 -0.18847159424E+03  0.23894022922E+03  0.12500074948E+03 0.  0.
          2    1    1    2  501    0  0.61529890065E+02 -0.31088059382E+02 -0.23545182855E+04  0.23555272768E+04  0.00000000000E+00 0. -1.
          1    1    1    2  502    0 -0.70246442121E+02 -0.45526075431E+02  0.69228074594E+03  0.69732332342E+03  0.00000000000E+00 0. -1.
         22    1    3    3    0    0  0.66193397460E+02  0.36799528701E+02 -0.11326286359E+03  0.13625067871E+03  0.00000000000E+00 0.  1.
         22    1    3    3    0    0 -0.57476845404E+02  0.39814606112E+02 -0.75208730655E+02  0.10268955051E+03  0.00000000000E+00 0.  1.
</event>
<event>
 7    1  0.6176857E-006  0.8332416E+02  0.7818608E-02  0.1321587E+00
          2   -1    0    0  502    0  0.00000000000E+00  0.00000000000E+00  0.12428715119E+03  0.12428715119E+03  0.00000000000E+00 0. -1.
          1   -1    0    0  501    0 -0.00000000000E+00 -0.00000000000E+00 -0.29383656386E+03  0.29383656386E+03  0.00000000000E+00 0. -1.
         25    2    1    2    0    0  0.74780118368E+02  0.17785497158E+02 -0.74051558358E+02  0.16436396536E+03  0.12499395906E+03 0.  0.
          2    1    1    2  501    0 -0.43267942314E+02  0.69726496767E+02 -0.13068573743E+03  0.15431351577E+03  0.00000000000E+00 0. -1.
          1    1    1    2  502    0 -0.31512176054E+02 -0.87511993925E+02  0.35187883118E+02  0.99446233909E+02  0.00000000000E+00 0. -1.
         22    1    3    3    0    0  0.54947236740E+02 -0.27073879857E+02  0.14670009173E+02  0.62987323844E+02  0.00000000000E+00 0. -1.
         22    1    3    3    0    0  0.19832881628E+02  0.44859377015E+02 -0.88721567532E+02  0.10137664152E+03  0.00000000000E+00 0. -1.
</event>
<event>
 7    1  0.6176857E-006  0.7176010E+02  0.7818608E-02  0.1361710E+00
          2   -1    0    0  502    0  0.00000000000E+00  0.00000000000E+00  0.11812302640E+04  0.11812302640E+04  0.00000000000E+00 0. -1.
          1   -1    0    0  501    0 -0.00000000000E+00 -0.00000000000E+00 -0.16866775044E+03  0.16866775044E+03  0.00000000000E+00 0. -1.
         25    2    1    2    0    0  0.81913090974E+02  0.98650394293E+01  0.99578010284E+02  0.17985259061E+03  0.12499640292E+03 0.  0.
          2    1    1    2  501    0 -0.43484053728E+02  0.51448103665E+02 -0.11834858990E+03  0.13617694016E+03  0.00000000000E+00 0. -1.
          1    1    1    2  502    0 -0.38429037246E+02 -0.61313143094E+02  0.10313330932E+04  0.10338684837E+04  0.00000000000E+00 0. -1.
         22    1    3    3    0    0 -0.11875318260E+02 -0.39448370666E+02  0.13560425525E+02  0.43371445358E+02  0.00000000000E+00 0.  1.
         22    1    3    3    0    0  0.93788409235E+02  0.49313410096E+02  0.86017584759E+02  0.13648114525E+03  0.00000000000E+00 0.  1.
</event>
<event>
 7    1  0.6176857E-006  0.8766000E+02  0.7818608E-02  0.1337591E+00
          2   -1    0    0  502    0  0.00000000000E+00  0.00000000000E+00  0.23472282766E+04  0.23472282766E+04  0.00000000000E+00 0. -1.
          1   -1    0    0  501    0 -0.00000000000E+00 -0.00000000000E+00 -0.26393120387E+02  0.26393120387E+02  0.00000000000E+00 0. -1.
         25    2    1    2    0    0 -0.81423826961E+02  0.89881253297E+02  0.64777093779E+03  0.67077609729E+03  0.12499962225E+03 0.  0.
          2    1    1    2  501    0  0.81202167038E+02 -0.22130098513E+02  0.11093909530E+03  0.13925162857E+03  0.00000000000E+00 0. -1.
          1    1    1    2  502    0  0.22165992386E+00 -0.67751154784E+02  0.15621251232E+04  0.15635936712E+04  0.00000000000E+00 0. -1.
         22    1    3    3    0    0 -0.28952717847E+01 -0.28939974140E+02  0.72033776541E+02  0.77683779933E+02  0.00000000000E+00 0. -1.
         22    1    3    3    0    0 -0.78528555177E+02  0.11882122744E+03  0.57573716125E+03  0.59309231736E+03  0.00000000000E+00 0. -1.
</event>
<event>
 7    1  0.6176857E-006  0.2074695E+03  0.7818608E-02  0.1232725E+00
          2   -1    0    0  502    0  0.00000000000E+00  0.00000000000E+00  0.15481128902E+04  0.15481128902E+04  0.00000000000E+00 0. -1.
          1   -1    0    0  501    0 -0.00000000000E+00 -0.00000000000E+00 -0.33900960056E+03  0.33900960056E+03  0.00000000000E+00 0. -1.
         25    2    1    2    0    0  0.14458436687E+02  0.16825051962E+03  0.52643304448E+01  0.21016567864E+03  0.12499846223E+03 0.  0.
          2    1    1    2  501    0 -0.74234138584E+02 -0.21701829972E+03 -0.17963382680E+03  0.29133479276E+03  0.00000000000E+00 0. -1.
          1    1    1    2  502    0  0.59775701898E+02  0.48767780098E+02  0.13834727860E+04  0.13856220194E+04  0.00000000000E+00 0. -1.
         22    1    3    3    0    0 -0.45024228299E+02  0.72878995094E+02 -0.32451736182E+02  0.91605918155E+02  0.00000000000E+00 0. -1.
         22    1    3    3    0    0  0.59482664985E+02  0.95371524529E+02  0.37716066627E+02  0.11855976049E+03  0.00000000000E+00 0. -1.
</event>
<event>
 7    1  0.6176857E-006  0.9404466E+02  0.7818608E-02  0.1346042E+00
          2   -1    0    0  502    0  0.00000000000E+00  0.00000000000E+00  0.15505671635E+04  0.15505671635E+04  0.00000000000E+00 0. -1.
          1   -1    0    0  501    0 -0.00000000000E+00 -0.00000000000E+00 -0.25667296002E+02  0.25667296002E+02  0.00000000000E+00 0. -1.
         25    2    1    2    0    0 -0.20448142824E+01 -0.11000685329E+03  0.50685571837E+03  0.53350683390E+03  0.12498453317E+03 0.  0.
          2    1    1    2  501    0  0.50575871501E+02  0.29806937156E+02  0.76010636443E+02  0.96041601055E+02  0.00000000000E+00 0. -1.
          1    1    1    2  502    0 -0.48531057219E+02  0.80199916131E+02  0.94203351269E+03  0.94668602456E+03  0.00000000000E+00 0. -1.
         22    1    3    3    0    0 -0.26619351598E+02 -0.11697313057E+03  0.27217260749E+03  0.29743777740E+03  0.00000000000E+00 0. -1.
         22    1    3    3    0    0  0.24574537316E+02  0.69662772833E+01  0.23468311088E+03  0.23606905650E+03  0.00000000000E+00 0. -1.
</event>
<event>
 7    1  0.6176857E-006  0.8371042E+02  0.7818608E-02  0.1454523E+00
          2   -1    0    0  502    0  0.00000000000E+00  0.00000000000E+00  0.78631014273E+02  0.78631014273E+02  0.00000000000E+00 0. -1.
          1   -1    0    0  501    0 -0.00000000000E+00 -0.00000000000E+00 -0.29378089608E+04  0.29378089608E+04  0.00000000000E+00 0. -1.
         25    2    1    2    0    0 -0.23840559568E+02 -0.10767929450E+03 -0.20489121896E+04  0.20556835925E+04  0.12502267501E+03 0.  0.
          2    1    1    2  501    0 -0.53445304509E+00  0.27906202768E+02 -0.86209827193E+03  0.86254998247E+03  0.00000000000E+00 0. -1.
          1    1    1    2  502    0  0.24375012613E+02  0.79773091734E+02  0.51832514983E+02  0.98206400068E+02  0.00000000000E+00 0. -1.
         22    1    3    3    0    0 -0.40996469290E+02 -0.71418095149E+02 -0.18897718282E+04  0.18915651766E+04  0.00000000000E+00 0. -1.
         22    1    3    3    0    0  0.17155909722E+02 -0.36261199353E+02 -0.15914036138E+03  0.16411841590E+03  0.00000000000E+00 0. -1.
</event>
<event>
 7    1  0.6176857E-006  0.2100281E+03  0.7818608E-02  0.1222986E+00
          2   -1    0    0  502    0  0.00000000000E+00  0.00000000000E+00  0.59770211549E+02  0.59770211549E+02  0.00000000000E+00 0. -1.
          1   -1    0    0  501    0 -0.00000000000E+00 -0.00000000000E+00 -0.22857139746E+04  0.22857139746E+04  0.00000000000E+00 0. -1.
         25    2    1    2    0    0 -0.23526224925E+03 -0.10337208623E+03 -0.93377285557E+03  0.97652017195E+03  0.12500314516E+03 0.  0.
          2    1    1    2  501    0  0.15301081509E+03  0.12182897054E+03 -0.12655339757E+04  0.12805588043E+04  0.00000000000E+00 0. -1.
          1    1    1    2  502    0  0.82251434167E+02 -0.18456884315E+02 -0.26636931763E+02  0.88405209886E+02  0.00000000000E+00 0. -1.
         22    1    3    3    0    0 -0.53952484805E+01  0.14349158159E+02 -0.16114287965E+03  0.16187042568E+03  0.00000000000E+00 0.  1.
         22    1    3    3    0    0 -0.22986700077E+03 -0.11772124439E+03 -0.77262997591E+03  0.81464974628E+03  0.00000000000E+00 0.  1.
</event>
<event>
 7    1  0.6176857E-006  0.9551415E+02  0.7818608E-02  0.1453557E+00
          2   -1    0    0  502    0  0.00000000000E+00  0.00000000000E+00  0.11345249873E+04  0.11345249873E+04  0.00000000000E+00 0. -1.
          1   -1    0    0  501    0 -0.00000000000E+00 -0.00000000000E+00 -0.21751616430E+03  0.21751616430E+03  0.00000000000E+00 0. -1.
         25    2    1    2    0    0  0.19194390925E+02  0.78109768982E+02  0.53637492748E+03  0.55659120857E+03  0.12500459981E+03 0.  0.
          2    1    1    2  501    0  0.17306623661E+02  0.17532778401E+02 -0.20219933273E+03  0.20369459418E+03  0.00000000000E+00 0. -1.
          1    1    1    2  502    0 -0.36501014586E+02 -0.95642547383E+02  0.58283322823E+03  0.59175534882E+03  0.00000000000E+00 0. -1.
         22    1    3    3    0    0  0.54721235558E+02 -0.36594802915E+01  0.27541384423E+03  0.28082127948E+03  0.00000000000E+00 0. -1.
         22    1    3    3    0    0 -0.35526844633E+02  0.81769249273E+02  0.26096108325E+03  0.27576992908E+03  0.00000000000E+00 0. -1.
</event>
<event>
 7    1  0.6176857E-006  0.6682393E+02  0.7818608E-02  0.1436077E+00
          2   -1    0    0  502    0  0.00000000000E+00  0.00000000000E+00  0.15077611715E+04  0.15077611715E+04  0.00000000000E+00 0. -1.
          1   -1    0    0  501    0 -0.00000000000E+00 -0.00000000000E+00 -0.29312461617E+02  0.29312461617E+02  0.00000000000E+00 0. -1.
         25    2    1    2    0    0 -0.77421258069E+02  0.55122792417E+02  0.74629568726E+03  0.76263649124E+03  0.12499836604E+03 0.  0.
          2    1    1    2  501    0  0.39793885101E+02 -0.48703211799E+01  0.49814849823E+00  0.40093908163E+02  0.00000000000E+00 0. -1.
          1    1    1    2  502    0  0.37627372968E+02 -0.50252471237E+02  0.73165487413E+03  0.73434323371E+03  0.00000000000E+00 0. -1.
         22    1    3    3    0    0 -0.98259199808E+02  0.17952715785E+02  0.34750451045E+03  0.36157510303E+03  0.00000000000E+00 0.  1.
         22    1    3    3    0    0  0.20837941739E+02  0.37170076633E+02  0.39879117681E+03  0.40106138821E+03  0.00000000000E+00 0.  1.
</event>
<event>
 7    1  0.6176857E-006  0.5489585E+02  0.7818608E-02  0.1438445E+00
          2   -1    0    0  502    0  0.00000000000E+00  0.00000000000E+00  0.27622860048E+04  0.27622860048E+04  0.00000000000E+00 0. -1.
          1   -1    0    0  501    0 -0.00000000000E+00 -0.00000000000E+00 -0.33932814408E+03  0.33932814408E+03  0.00000000000E+00 0. -1.
         25    2    1    2    0    0  0.62686506611E+01 -0.53144953253E+02  0.60607674615E+03  0.62113654586E+03  0.12497161414E+03 0.  0.
          2    1    1    2  501    0  0.41478897989E+02  0.24041881617E+02 -0.32970038205E+03  0.33316790508E+03  0.00000000000E+00 0. -1.
          1    1    1    2  502    0 -0.47747548650E+02  0.29103071636E+02  0.21465814966E+04  0.21473096980E+04  0.00000000000E+00 0. -1.
         22    1    3    3    0    0 -0.46294794617E+02  0.11918491511E+02  0.30223206529E+03  0.30598934579E+03  0.00000000000E+00 0.  1.
         22    1    3    3    0    0  0.52563445278E+02 -0.65063444764E+02  0.30384468086E+03  0.31514720007E+03  0.00000000000E+00 0.  1.
</event>
<event>
 7    1  0.6176857E-006  0.6178118E+02  0.7818608E-02  0.1483938E+00
          2   -1    0    0  502    0  0.00000000000E+00  0.00000000000E+00  0.32051310396E+04  0.32051310396E+04  0.00000000000E+00 0. -1.
          1   -1    0    0  501    0 -0.00000000000E+00 -0.00000000000E+00 -0.13089835158E+03  0.13089835158E+03  0.00000000000E+00 0. -1.
         25    2    1    2    0    0  0.50375941251E+01  0.79292202411E+02  0.13636295853E+04  0.13716498712E+04  0.12500037037E+03 0.  0.
          2    1    1    2  501    0  0.17941938954E+02 -0.59045896745E+02 -0.11924916451E+03  0.13427097353E+03  0.00000000000E+00 0. -1.
          1    1    1    2  502    0 -0.22979533079E+02 -0.20246305666E+02  0.18298522672E+04  0.18301085464E+04  0.00000000000E+00 0. -1.
         22    1    3    3    0    0 -0.33037427055E+01  0.10396436870E+03  0.71801556154E+03  0.72551075202E+03  0.00000000000E+00 0. -1.
         22    1    3    3    0    0  0.83413368307E+01 -0.24672166293E+02  0.64561402378E+03  0.64613911923E+03  0.00000000000E+00 0. -1.
</event>
<event>
 7    1  0.6176857E-006  0.2029886E+03  0.7818608E-02  0.1210483E+00
          2   -1    0    0  502    0  0.00000000000E+00  0.00000000000E+00  0.21926653385E+04  0.21926653385E+04  0.00000000000E+00 0. -1.
          1   -1    0    0  501    0 -0.00000000000E+00 -0.00000000000E+00 -0.13211521048E+03  0.13211521048E+03  0.00000000000E+00 0. -1.
         25    2    1    2    0    0  0.25377498449E+03  0.17710419912E+02  0.53971215235E+03  0.60961431269E+03  0.12500000445E+03 0.  0.
          2    1    1    2  501    0 -0.17819828254E+03 -0.82469186679E+02  0.53659596163E+01  0.19642960106E+03  0.00000000000E+00 0. -1.
          1    1    1    2  502    0 -0.75576701950E+02  0.64758766767E+02  0.15154720161E+04  0.15187366353E+04  0.00000000000E+00 0. -1.
         22    1    3    3    0    0  0.25879111644E+03  0.23338018003E+02  0.54254699433E+03  0.60156025973E+03  0.00000000000E+00 0.  1.
         22    1    3    3    0    0 -0.50161319506E+01 -0.56275980914E+01 -0.28348419767E+01  0.80540529584E+01  0.00000000000E+00 0.  1.
</event>
<event>
 7    1  0.6176857E-006  0.7852083E+02  0.7818608E-02  0.1451591E+00
          2   -1    0    0  502    0  0.00000000000E+00  0.00000000000E+00  0.38488104921E+02  0.38488104921E+02  0.00000000000E+00 0. -1.
          1   -1    0    0  501    0 -0.00000000000E+00 -0.00000000000E+00 -0.14065928101E+04  0.14065928101E+04  0.00000000000E+00 0. -1.
         25    2    1    2    0    0  0.55728816164E+02  0.89215034060E+01 -0.52584406086E+03  0.54343080387E+03  0.12497907053E+03 0.  0.
          2    1    1    2  501    0 -0.78738637288E+02 -0.28793265937E+02 -0.86156615890E+03  0.86563564583E+03  0.00000000000E+00 0. -1.
          1    1    1    2  502    0  0.23009821125E+02  0.19871762531E+02  0.19305514631E+02  0.36014465280E+02  0.00000000000E+00 0. -1.
         22    1    3    3    0    0 -0.36548483487E+02  0.16421291876E+02 -0.22917587371E+03  0.23265216862E+03  0.00000000000E+00 0.  1.
         22    1    3    3    0    0  0.92277299651E+02 -0.74997884700E+01 -0.29666818715E+03  0.31077863525E+03  0.00000000000E+00 0.  1.
</event>
<event>
 7    1  0.6176857E-006  0.2759784E+03  0.7818608E-02  0.1202459E+00
          2   -1    0    0  502    0  0.00000000000E+00  0.00000000000E+00  0.20315478458E+04  0.20315478458E+04  0.00000000000E+00 0. -1.
          1   -1    0    0  501    0 -0.00000000000E+00 -0.00000000000E+00 -0.98208605611E+03  0.98208605611E+03  0.00000000000E+00 0. -1.
         25    2    1    2    0    0  0.63302432791E+01  0.31645608269E+03  0.10270355572E+04  0.10819482806E+04  0.12500208750E+03 0.  0.
          2    1    1    2  501    0 -0.44722828307E+02 -0.66081276337E+02 -0.93648748688E+03  0.93988067303E+03  0.00000000000E+00 0. -1.
          1    1    1    2  502    0  0.38392585028E+02 -0.25037480635E+03  0.95891371941E+03  0.99180494832E+03  0.00000000000E+00 0. -1.
         22    1    3    3    0    0 -0.54339777777E+02  0.20029858718E+03  0.57538577035E+03  0.61167076127E+03  0.00000000000E+00 0. -1.
         22    1    3    3    0    0  0.60670021056E+02  0.11615749551E+03  0.45164978685E+03  0.47027751932E+03  0.00000000000E+00 0. -1.
</event>
<event>
 7    1  0.6176857E-006  0.8066591E+02  0.7818608E-02  0.1391279E+00
          2   -1    0    0  502    0  0.00000000000E+00  0.00000000000E+00  0.33845250971E+04  0.33845250971E+04  0.00000000000E+00 0. -1.
          1   -1    0    0  501    0 -0.00000000000E+00 -0.00000000000E+00 -0.32646045587E+03  0.32646045587E+03  0.00000000000E+00 0. -1.
         25    2    1    2    0    0  0.93373530834E+02 -0.62321888066E+02  0.22923376534E+03  0.28421410373E+03  0.12500761415E+03 0.  0.
          2    1    1    2  501    0 -0.78145801226E+02  0.17830857981E+02 -0.29341768911E+03  0.30416877885E+03  0.00000000000E+00 0. -1.
          1    1    1    2  502    0 -0.15227729608E+02  0.44491030085E+02  0.31222485650E+04  0.31226026704E+04  0.00000000000E+00 0. -1.
         22    1    3    3    0    0  0.46513255506E+01 -0.41220357331E+02  0.17111686210E+03  0.17607309046E+03  0.00000000000E+00 0.  1.
         22    1    3    3    0    0  0.88722205284E+02 -0.21101530735E+02  0.58116903239E+02  0.10814101327E+03  0.00000000000E+00 0.  1.
</event>
<event>
 7    1  0.6176857E-006  0.9264859E+02  0.7818608E-02  0.1422306E+00
          2   -1    0    0  502    0  0.00000000000E+00  0.00000000000E+00  0.18558276230E+03  0.18558276230E+03  0.00000000000E+00 0. -1.
          1   -1    0    0  501    0 -0.00000000000E+00 -0.00000000000E+00 -0.13458878688E+03  0.13458878688E+03  0.00000000000E+00 0. -1.
         25    2    1    2    0    0  0.54553092154E+02 -0.59040676634E+02  0.83365308327E+02  0.17039831690E+03  0.12499588157E+03 0.  0.
          2    1    1    2  501    0  0.89882639986E+01 -0.30817751819E+02 -0.22654131052E+02  0.39290359767E+02  0.00000000000E+00 0. -1.
          1    1    1    2  502    0 -0.63541356152E+02  0.89858428453E+02 -0.97172018558E+01  0.11048287251E+03  0.00000000000E+00 0. -1.
         22    1    3    3    0    0 -0.34992885761E+02 -0.29268301661E+02  0.17796006830E+01  0.45654162073E+02  0.00000000000E+00 0. -1.
         22    1    3    3    0    0  0.89545977915E+02 -0.29772374973E+02  0.81585707644E+02  0.12474415483E+03  0.00000000000E+00 0. -1.
</event>
<event>
 7    1  0.6176857E-006  0.1003282E+03  0.7818608E-02  0.1381497E+00
          2   -1    0    0  502    0  0.00000000000E+00  0.00000000000E+00  0.34013576421E+03  0.34013576421E+03  0.00000000000E+00 0. -1.
          1   -1    0    0  501    0 -0.00000000000E+00 -0.00000000000E+00 -0.20666396085E+03  0.20666396085E+03  0.00000000000E+00 0. -1.
         25    2    1    2    0    0 -0.59345086477E+02  0.21659557742E+02  0.13982562086E+03  0.19790754365E+03  0.12500086340E+03 0.  0.
          2    1    1    2  501    0  0.99618777518E+02 -0.28890455842E+02 -0.15956326825E+03  0.19031288933E+03  0.00000000000E+00 0. -1.
          1    1    1    2  502    0 -0.40273691041E+02  0.72308980994E+01  0.15320945075E+03  0.15857929208E+03  0.00000000000E+00 0. -1.
         22    1    3    3    0    0 -0.37789893245E+02 -0.38034042253E+02  0.11631309697E+02  0.54863027321E+02  0.00000000000E+00 0.  1.
         22    1    3    3    0    0 -0.21555193232E+02  0.59693599995E+02  0.12819431116E+03  0.14304451632E+03  0.00000000000E+00 0.  1.
</event>
<event>
 7    1  0.6176857E-006  0.2839604E+03  0.7818608E-02  0.1201074E+00
          2   -1    0    0  502    0  0.00000000000E+00  0.00000000000E+00  0.24830354538E+03  0.24830354538E+03  0.00000000000E+00 0. -1.
          1   -1    0    0  501    0 -0.00000000000E+00 -0.00000000000E+00 -0.12611897285E+04  0.12611897285E+04  0.00000000000E+00 0. -1.
         25    2    1    2    0    0 -0.96673570520E+01 -0.33967318600E+03 -0.26669033166E+02  0.36305504742E+03  0.12500559606E+03 0.  0.
          2    1    1    2  501    0  0.52004918481E+02  0.27330579284E+03 -0.10225610938E+04  0.10597319277E+04  0.00000000000E+00 0. -1.
          1    1    1    2  502    0 -0.42337561429E+02  0.66367393164E+02  0.36343943902E+02  0.86706298742E+02  0.00000000000E+00 0. -1.
         22    1    3    3    0    0 -0.47327840454E+02 -0.77659230725E+02  0.22815810059E+02  0.93762688674E+02  0.00000000000E+00 0.  1.
         22    1    3    3    0    0  0.37660483402E+02 -0.26201395528E+03 -0.49484843225E+02  0.26929235874E+03  0.00000000000E+00 0.  1.
</event>
<event>
 7    1  0.6176857E-006  0.2529494E+02  0.7818608E-02  0.1674670E+00
          2   -1    0    0  502    0  0.00000000000E+00  0.00000000000E+00  0.30043725199E+03  0.30043725199E+03  0.00000000000E+00 0. -1.
          1   -1    0    0  501    0 -0.00000000000E+00 -0.00000000000E+00 -0.54376631631E+02  0.54376631631E+02  0.00000000000E+00 0. -1.
         25    2    1    2    0    0 -0.20423588455E+02  0.90788941024E+01  0.58076788218E+02  0.13963282716E+03  0.12499945523E+03 0.  0.
          2    1    1    2  501    0  0.23203914801E+02  0.13663819914E+02  0.11553156325E+01  0.26952854969E+02  0.00000000000E+00 0. -1.
          1    1    1    2  502    0 -0.27803263462E+01 -0.22742714017E+02  0.18682851651E+03  0.18822820149E+03  0.00000000000E+00 0. -1.
         22    1    3    3    0    0 -0.31907137126E+02 -0.52764354288E+01  0.93929890443E+02  0.99341484230E+02  0.00000000000E+00 0.  1.
         22    1    3    3    0    0  0.11483548671E+02  0.14355329531E+02 -0.35853102226E+02  0.40291342931E+02  0.00000000000E+00 0.  1.
</event>
<event>
 7    1  0.6176857E-006  0.1578770E+03  0.7818608E-02  0.1278988E+00
          2   -1    0    0  502    0  0.00000000000E+00  0.00000000000E+00  0.33159349040E+03  0.33159349040E+03  0.00000000000E+00 0. -1.
          1   -1    0    0  501    0 -0.00000000000E+00 -0.00000000000E+00 -0.12745000235E+04  0.12745000235E+04  0.00000000000E+00 0. -1.
         25    2    1    2    0    0  0.89736771625E+02  0.11155371248E+03 -0.36870169871E+03  0.41480417755E+03  0.12499857655E+03 0.  0.
          2    1    1    2  501    0 -0.46624025424E+02 -0.15903534859E+03 -0.87151894795E+03  0.88713658390E+03  0.00000000000E+00 0. -1.
          1    1    1    2  502    0 -0.43112746201E+02  0.47481636113E+02  0.29731411360E+03  0.30415275241E+03  0.00000000000E+00 0. -1.
         22    1    3    3    0    0 -0.20733858884E+02  0.35046536037E+02 -0.17083836810E+03  0.17562431668E+03  0.00000000000E+00 0. -1.
         22    1    3    3    0    0  0.11047063051E+03  0.76507176441E+02 -0.19786333060E+03  0.23917986088E+03  0.00000000000E+00 0. -1.
</event>
<event>
 7    1  0.6176857E-006  0.4152325E+02  0.7818608E-02  0.1498406E+00
          2   -1    0    0  502    0  0.00000000000E+00  0.00000000000E+00  0.61383897761E+03  0.61383897761E+03  0.00000000000E+00 0. -1.
          1   -1    0    0  501    0 -0.00000000000E+00 -0.00000000000E+00 -0.45100535732E+03  0.45100535732E+03  0.00000000000E+00 0. -1.
         25    2    1    2    0    0  0.15426737398E+02 -0.10411278195E+02  0.60666328273E+02  0.14018830221E+03  0.12500391094E+03 0.  0.
          2    1    1    2  501    0 -0.31666236115E+02 -0.27459287365E+02 -0.40934575828E+03  0.41148598129E+03  0.00000000000E+00 0. -1.
          1    1    1    2  502    0  0.16239498717E+02  0.37870565560E+02  0.51151305031E+03  0.51317005143E+03  0.00000000000E+00 0. -1.
         22    1    3    3    0    0  0.57521786968E+02 -0.31666247353E+02  0.65547880452E+02  0.92779479570E+02  0.00000000000E+00 0.  1.
         22    1    3    3    0    0 -0.42095049571E+02  0.21254969157E+02 -0.48815521791E+01  0.47408822638E+02  0.00000000000E+00 0.  1.
</event>
<event>
 7    1  0.6176857E-006  0.7848372E+02  0.7818608E-02  0.1387768E+00
          2   -1    0    0  502    0  0.00000000000E+00  0.00000000000E+00  0.65795607789E+03  0.65795607789E+03  0.00000000000E+00 0. -1.
          1   -1    0    0  501    0 -0.00000000000E+00 -0.00000000000E+00 -0.68564622887E+02  0.68564622887E+02  0.00000000000E+00 0. -1.
         25    2    1    2    0    0  0.30961756998E+02 -0.27958647131E+02  0.12326467294E+03  0.18044342902E+03  0.12500134054E+03 0.  0.
          2    1    1    2  501    0 -0.95405418782E-01 -0.49715996867E+02 -0.19430804505E+02  0.53378325287E+02  0.00000000000E+00 0. -1.
          1    1    1    2  502    0 -0.30866351579E+02  0.77674643998E+02  0.48555758657E+03  0.49269894647E+03  0.00000000000E+00 0. -1.
         22    1    3    3    0    0  0.16440124997E+02 -0.51390775062E+02  0.13871683958E+03  0.14884102612E+03  0.00000000000E+00 0. -1.
         22    1    3    3    0    0  0.14521632002E+02  0.23432127931E+02 -0.15452166643E+02  0.31602402904E+02  0.00000000000E+00 0. -1.
</event>
<event>
 7    1  0.6176857E-006  0.6704862E+02  0.7818608E-02  0.1406641E+00
          2   -1    0    0  502    0  0.00000000000E+00  0.00000000000E+00  0.12723638383E+04  0.12723638383E+04  0.00000000000E+00 0. -1.
          1   -1    0    0  501    0 -0.00000000000E+00 -0.00000000000E+00 -0.39607247465E+02  0.39607247465E+02  0.00000000000E+00 0. -1.
         25    2    1    2    0    0 -0.22639046440E+02  0.35818718495E+02  0.34241486161E+03  0.36697261543E+03  0.12500182402E+03 0.  0.
          2    1    1    2  501    0 -0.46458213359E+02 -0.18715552247E+02 -0.17058401697E+01  0.50115340716E+02  0.00000000000E+00 0. -1.
          1    1    1    2  502    0  0.69097259798E+02 -0.17103166248E+02  0.89204756944E+03  0.89488312966E+03  0.00000000000E+00 0. -1.
         22    1    3    3    0    0 -0.62377853917E+02 -0.16559133483E+02  0.19904396095E+03  0.20924554942E+03  0.00000000000E+00 0. -1.
         22    1    3    3    0    0  0.39738807478E+02  0.52377851978E+02  0.14337090066E+03  0.15772706601E+03  0.00000000000E+00 0. -1.
</event>
<event>
 7    1  0.6176857E-006  0.5927815E+02  0.7818608E-02  0.1421498E+00
          2   -1    0    0  502    0  0.00000000000E+00  0.00000000000E+00  0.19486800767E+04  0.19486800767E+04  0.00000000000E+00 0. -1.
          1   -1    0    0  501    0 -0.00000000000E+00 -0.00000000000E+00 -0.65767422309E+02  0.65767422309E+02  0.00000000000E+00 0. -1.
         25    2    1    2    0    0 -0.81108099859E+02  0.59543836486E+02  0.34356430313E+03  0.37918968811E+03  0.12499758740E+03 0.  0.
          2    1    1    2  501    0  0.31998542938E+02 -0.47839419090E+02 -0.30132462453E+02  0.64965237339E+02  0.00000000000E+00 0. -1.
          1    1    1    2  502    0  0.49109556921E+02 -0.11704417395E+02  0.15694808137E+04  0.15702925735E+04  0.00000000000E+00 0. -1.
         22    1    3    3    0    0 -0.83942551979E+02 -0.23759218466E+01  0.27121860325E+03  0.28392169305E+03  0.00000000000E+00 0.  1.
         22    1    3    3    0    0  0.28344521204E+01  0.61919758332E+02  0.72345699883E+02  0.95267995058E+02  0.00000000000E+00 0.  1.
</event>
<event>
 7    1  0.6176857E-006  0.1177969E+03  0.7818608E-02  0.1336683E+00
          2   -1    0    0  502    0  0.00000000000E+00  0.00000000000E+00  0.13563832992E+03  0.13563832992E+03  0.00000000000E+00 0. -1.
          1   -1    0    0  501    0 -0.00000000000E+00 -0.00000000000E+00 -0.13589385558E+04  0.13589385558E+04  0.00000000000E+00 0. -1.
         25    2    1    2    0    0  0.77706005688E+02 -0.72607767273E+02 -0.19108167471E+03  0.25188667321E+03  0.12499831415E+03 0.  0.
          2    1    1    2  501    0 -0.11407017020E+03  0.37109099416E+02 -0.11279479011E+04  0.11343084045E+04  0.00000000000E+00 0. -1.
          1    1    1    2  502    0  0.36364164510E+02  0.35498667857E+02  0.95729349894E+02  0.10838180803E+03  0.00000000000E+00 0. -1.
         22    1    3    3    0    0  0.20900456063E+01 -0.73158947713E+02 -0.41146291857E+02  0.83961998873E+02  0.00000000000E+00 0. -1.
         22    1    3    3    0    0  0.75615960082E+02  0.55118044011E+00 -0.14993538286E+03  0.16792467434E+03  0.00000000000E+00 0. -1.
</event>
<event>
 7    1  0.6176857E-006  0.7684902E+02  0.7818608E-02  0.1403314E+00
          2   -1    0    0  502    0  0.00000000000E+00  0.00000000000E+00  0.13702602282E+03  0.13702602282E+03  0.00000000000E+00 0. -1.
          1   -1    0    0  501    0 -0.00000000000E+00 -0.00000000000E+00 -0.28386782680E+03  0.28386782680E+03  0.00000000000E+00 0. -1.
         25    2    1    2    0    0  0.91681037064E+01 -0.76321975334E+02  0.55282933581E+02  0.15681331063E+03  0.12500045440E+03 0.  0.
          2    1    1    2  501    0  0.35130294944E+02  0.69266718565E+02 -0.20491249904E+03  0.21913728160E+03  0.00000000000E+00 0. -1.
          1    1    1    2  502    0 -0.44298398651E+02  0.70552567687E+01  0.27877614862E+01  0.44943257394E+02  0.00000000000E+00 0. -1.
         22    1    3    3    0    0  0.27840431974E+02 -0.90922142721E+02 -0.16925486344E+01  0.95104103015E+02  0.00000000000E+00 0. -1.
         22    1    3    3    0    0 -0.18672328267E+02  0.14600167387E+02  0.56975482215E+02  0.61709207614E+02  0.00000000000E+00 0. -1.
</event>
<event>
 7    1  0.6176857E-006  0.7822573E+02  0.7818608E-02  0.1431993E+00
          2   -1    0    0  502    0  0.00000000000E+00  0.00000000000E+00  0.20581041006E+04  0.20581041006E+04  0.00000000000E+00 0. -1.
          1   -1    0    0  501    0 -0.00000000000E+00 -0.00000000000E+00 -0.73103030589E+03  0.73103030589E+03  0.00000000000E+00 0. -1.
         25    2    1    2    0    0 -0.44669362166E+02  0.59400774030E+02 -0.30518258303E+03  0.33806298016E+03  0.12500546266E+03 0.  0.
          2    1    1    2  501    0  0.71788685735E+02 -0.36775506157E+02 -0.40528015592E+03  0.41322882043E+03  0.00000000000E+00 0. -1.
          1    1    1    2  502    0 -0.27119323569E+02 -0.22625267873E+02  0.20375365336E+04  0.20378426059E+04  0.00000000000E+00 0. -1.
         22    1    3    3    0    0 -0.45652003899E+02  0.94989681200E+02 -0.18722440376E+03  0.21484906878E+03  0.00000000000E+00 0. -1.
         22    1    3    3    0    0  0.98264173240E+00 -0.35588907169E+02 -0.11795817928E+03  0.12321391138E+03  0.00000000000E+00 0. -1.
</event>
<event>
 7    1  0.6176857E-006  0.9335617E+02  0.7818608E-02  0.1478301E+00
          2   -1    0    0  502    0  0.00000000000E+00  0.00000000000E+00  0.66827132229E+03  0.66827132229E+03  0.00000000000E+00 0. -1.
          1   -1    0    0  501    0 -0.00000000000E+00 -0.00000000000E+00 -0.90503344994E+03  0.90503344994E+03  0.00000000000E+00 0. -1.
         25    2    1    2    0    0  0.81327864826E+02 -0.45781698950E+02  0.10548485382E+03  0.18831516086E+03  0.12500143947E+03 0.  0.
          2    1    1    2  501    0 -0.12151042988E+02 -0.17237511791E+02 -0.85928891769E+03  0.85954768554E+03  0.00000000000E+00 0. -1.
          1    1    1    2  502    0 -0.69176821838E+02  0.63019210742E+02  0.51704193622E+03  0.52544192583E+03  0.00000000000E+00 0. -1.
         22    1    3    3    0    0 -0.18818363170E+02  0.25588820503E+02  0.31839414151E+02  0.44974068313E+02  0.00000000000E+00 0.  1.
         22    1    3    3    0    0  0.10014622800E+03 -0.71370519453E+02  0.73645439667E+02  0.14334109255E+03  0.00000000000E+00 0.  1.
</event>
<event>
 7    1  0.6176857E-006  0.1051489E+03  0.7818608E-02  0.1346249E+00
          2   -1    0    0  502    0  0.00000000000E+00  0.00000000000E+00  0.16514167677E+03  0.16514167677E+03  0.00000000000E+00 0. -1.
          1   -1    0    0  501    0 -0.00000000000E+00 -0.00000000000E+00 -0.13277346662E+04  0.13277346662E+04  0.00000000000E+00 0. -1.
         25    2    1    2    0    0  0.11272964944E+03 -0.88028935397E+02 -0.19905690707E+03  0.27514649332E+03  0.12499949283E+03 0.  0.
          2    1    1    2  501    0 -0.60521452117E+02  0.83396394675E+02 -0.10826770345E+04  0.10875694763E+04  0.00000000000E+00 0. -1.
          1    1    1    2  502    0 -0.52208197319E+02  0.46325407222E+01  0.11914095215E+03  0.13016037331E+03  0.00000000000E+00 0. -1.
         22    1    3    3    0    0  0.17868888285E+02  0.31833209910E+02 -0.47311525515E+02  0.59758102951E+02  0.00000000000E+00 0. -1.
         22    1    3    3    0    0  0.94860761151E+02 -0.11986214531E+03 -0.15174538156E+03  0.21538839037E+03  0.00000000000E+00 0. -1.
</event>
<event>
 7    1  0.6176857E-006  0.9396467E+02  0.7818608E-02  0.1383562E+00
          2   -1    0    0  502    0  0.00000000000E+00  0.00000000000E+00  0.24470696865E+04  0.24470696865E+04  0.00000000000E+00 0. -1.
          1   -1    0    0  501    0 -0.00000000000E+00 -0.00000000000E+00 -0.87736348852E+02  0.87736348852E+02  0.00000000000E+00 0. -1.
         25    2    1    2    0    0 -0.31781145106E+02  0.54661351960E+02  0.63721412791E+03  0.65242975265E+03  0.12499933102E+03 0.  0.
          2    1    1    2  501    0  0.15191307588E+02 -0.94290904528E+02 -0.51316565501E+02  0.10842020290E+03  0.00000000000E+00 0. -1.
          1    1    1    2  502    0  0.16589837517E+02  0.39629552568E+02  0.17734357753E+04  0.17739560798E+04  0.00000000000E+00 0. -1.
         22    1    3    3    0    0 -0.34764008539E+02 -0.12186030786E+01  0.41751374631E+02  0.54343339672E+02  0.00000000000E+00 0. -1.
         22    1    3    3    0    0  0.29828634329E+01  0.55879955039E+02  0.59546275328E+03  0.59808641298E+03  0.00000000000E+00 0. -1.
</event>
<event>
 7    1  0.6176857E-006  0.4047953E+02  0.7818608E-02  0.1603626E+00
          2   -1    0    0  502    0  0.00000000000E+00  0.00000000000E+00  0.56014543083E+02  0.56014543083E+02  0.00000000000E+00 0. -1.
          1   -1    0    0  501    0 -0.00000000000E+00 -0.00000000000E+00 -0.69184642307E+03  0.69184642307E+03  0.00000000000E+00 0. -1.
         25    2    1    2    0    0 -0.46281034423E+02 -0.31769074620E+02 -0.19509688685E+03  0.23840916818E+03  0.12499971185E+03 0.  0.
          2    1    1    2  501    0  0.38161895915E+02  0.11854847750E+02 -0.47079672028E+03  0.47248959728E+03  0.00000000000E+00 0. -1.
          1    1    1    2  502    0  0.81191385074E+01  0.19914226870E+02  0.30061727137E+02  0.36962200697E+02  0.00000000000E+00 0. -1.
         22    1    3    3    0    0 -0.81175840138E+02  0.17317850826E+01 -0.15730493498E+03  0.17702361049E+03  0.00000000000E+00 0.  1.
         22    1    3    3    0    0  0.34894805715E+02 -0.33500859703E+02 -0.37791951872E+02  0.61385557691E+02  0.00000000000E+00 0.  1.
</event>
<event>
 7    1  0.6176857E-006  0.9046959E+02  0.7818608E-02  0.1320888E+00
          2   -1    0    0  502    0  0.00000000000E+00  0.00000000000E+00  0.31830485331E+04  0.31830485331E+04  0.00000000000E+00 0. -1.
          1   -1    0    0  501    0 -0.00000000000E+00 -0.00000000000E+00 -0.18156580102E+02  0.18156580102E+02  0.00000000000E+00 0. -1.
         25    2    1    2    0    0  0.18201659224E+02  0.50330255143E+02  0.57268678266E+03  0.58860886056E+03  0.12500321884E+03 0.  0.
          2    1    1    2  501    0 -0.68594584709E+02  0.32841878767E+02  0.14744849931E+03  0.16590619639E+03  0.00000000000E+00 0. -1.
          1    1    1    2  502    0  0.50392925484E+02 -0.83172133910E+02  0.24447566711E+04  0.24466900563E+04  0.00000000000E+00 0. -1.
         22    1    3    3    0    0 -0.42804287679E+02  0.56211453598E+02  0.23447246744E+03  0.24488624409E+03  0.00000000000E+00 0.  1.
         22    1    3    3    0    0  0.61005946904E+02 -0.58811984556E+01  0.33821431522E+03  0.34372261647E+03  0.00000000000E+00 0.  1.
</event>
<event>
 7    1  0.6176857E-006  0.5310095E+02  0.7818608E-02  0.1492370E+00
          2   -1    0    0  502    0  0.00000000000E+00  0.00000000000E+00  0.21368316302E+04  0.21368316302E+04  0.00000000000E+00 0. -1.
          1   -1    0    0  501    0 -0.00000000000E+00 -0.00000000000E+00 -0.11307791921E+03  0.11307791921E+03  0.00000000000E+00 0. -1.
         25    2    1    2    0    0  0.20322481000E+02  0.75967934829E+01  0.32568782619E+03  0.34952657148E+03  0.12500219813E+03 0.  0.
          2    1    1    2  501    0  0.33553225481E+02 -0.16709642431E+01 -0.97949187926E+02  0.10355025098E+03  0.00000000000E+00 0. -1.
          1    1    1    2  502    0 -0.53875706481E+02 -0.59258292398E+01  0.17960150727E+04  0.17968327270E+04  0.00000000000E+00 0. -1.
         22    1    3    3    0    0 -0.39306790756E+00 -0.72363919965E-01 -0.11554584167E+02  0.11561494461E+02  0.00000000000E+00 0.  1.
         22    1    3    3    0    0  0.20715548907E+02  0.76691574028E+01  0.33724241035E+03  0.33796507702E+03  0.00000000000E+00 0.  1.
</event>
<event>
 7    1  0.6176857E-006  0.2183693E+03  0.7818608E-02  0.1283419E+00
          2   -1    0    0  502    0  0.00000000000E+00  0.00000000000E+00  0.27166345936E+04  0.27166345936E+04  0.00000000000E+00 0. -1.
          1   -1    0    0  501    0 -0.00000000000E+00 -0.00000000000E+00 -0.24437812450E+04  0.24437812450E+04  0.00000000000E+00 0. -1.
         25    2    1    2    0    0  0.17777980889E+03 -0.75327592543E+02 -0.41779085498E+02  0.23377492880E+03  0.12500127482E+03 0.  0.
          2    1    1    2  501    0 -0.21418396285E+03  0.49809508610E+02 -0.23005725099E+04  0.23110581192E+04  0.00000000000E+00 0. -1.
          1    1    1    2  502    0  0.36404153965E+02  0.25518083933E+02  0.26152049440E+04  0.26155827905E+04  0.00000000000E+00 0. -1.
         22    1    3    3    0    0  0.76194859829E+02 -0.59377797160E+02  0.37817996191E+02  0.10373803688E+03  0.00000000000E+00 0.  1.
         22    1    3    3    0    0  0.10158494906E+03 -0.15949795383E+02 -0.79597081689E+02  0.13003689192E+03  0.00000000000E+00 0.  1.
</event>
<event>
 7    1  0.6176857E-006  0.2590581E+03  0.7818608E-02  0.1274070E+00
          2   -1    0    0  502    0  0.00000000000E+00  0.00000000000E+00  0.42402257789E+04  0.42402257789E+04  0.00000000000E+00 0. -1.
          1   -1    0    0  501    0 -0.00000000000E+00 -0.00000000000E+00 -0.14896063292E+04  0.14896063292E+04  0.00000000000E+00 0. -1.
         25    2    1    2    0    0 -0.25257545917E+02 -0.23400915637E+03 -0.32948816020E+02  0.26853636464E+03  0.12501170251E+03 0.  0.
          2    1    1    2  501    0  0.31935962624E+02 -0.25661448185E+02 -0.13344572172E+04  0.13350859449E+04  0.00000000000E+00 0. -1.
          1    1    1    2  502    0 -0.66784167069E+01  0.25967060456E+03  0.41180254829E+04  0.41262097986E+04  0.00000000000E+00 0. -1.
         22    1    3    3    0    0 -0.53488638996E+02 -0.22531406875E+03 -0.46234633638E+02  0.23614636441E+03  0.00000000000E+00 0. -1.
         22    1    3    3    0    0  0.28231093079E+02 -0.86950876284E+01  0.13285817618E+02  0.32390000232E+02  0.00000000000E+00 0. -1.
</event>
<event>
 7    1  0.6176857E-006  0.6035954E+02  0.7818608E-02  0.1473388E+00
          2   -1    0    0  502    0  0.00000000000E+00  0.00000000000E+00  0.90726055143E+03  0.90726055143E+03  0.00000000000E+00 0. -1.
          1   -1    0    0  501    0 -0.00000000000E+00 -0.00000000000E+00 -0.74715805473E+03  0.74715805473E+03  0.00000000000E+00 0. -1.
         25    2    1    2    0    0 -0.88689800278E+02  0.13602462282E+02 -0.99174832442E+02  0.18306296770E+03  0.12500198038E+03 0.  0.
          2    1    1    2  501    0  0.55670582154E+02 -0.20719713300E+02 -0.60425261316E+03  0.60716533230E+03  0.00000000000E+00 0. -1.
          1    1    1    2  502    0  0.33019218125E+02  0.71172510175E+01  0.86352994230E+03  0.86419030617E+03  0.00000000000E+00 0. -1.
         22    1    3    3    0    0 -0.53902648524E+02  0.58997012766E+02 -0.97206396410E+02  0.12583809652E+03  0.00000000000E+00 0. -1.
         22    1    3    3    0    0 -0.34787151754E+02 -0.45394550484E+02 -0.19684360325E+01  0.57224871177E+02  0.00000000000E+00 0. -1.
</event>
<event>
 7    1  0.6176857E-006  0.1594561E+03  0.7818608E-02  0.1332979E+00
          2   -1    0    0  502    0  0.00000000000E+00  0.00000000000E+00  0.20896311831E+04  0.20896311831E+04  0.00000000000E+00 0. -1.
          1   -1    0    0  501    0 -0.00000000000E+00 -0.00000000000E+00 -0.39601109373E+03  0.39601109373E+03  0.00000000000E+00 0. -1.
         25    2    1    2    0    0  0.16872594683E+03 -0.89883925437E+02  0.36639706433E+02  0.23133434214E+03  0.12500217830E+03 0.  0.
          2    1    1    2  501    0 -0.38768019398E+02 -0.77088753633E+00 -0.29417983620E+03  0.29672433271E+03  0.00000000000E+00 0. -1.
          1    1    1    2  502    0 -0.12995792744E+03  0.90654812974E+02  0.19511602192E+04  0.19575836020E+04  0.00000000000E+00 0. -1.
         22    1    3    3    0    0  0.27380303936E+02 -0.68808692013E+02 -0.21405630036E+02  0.77087730135E+02  0.00000000000E+00 0. -1.
         22    1    3    3    0    0  0.14134564290E+03 -0.21075233424E+02  0.58045336469E+02  0.15424661201E+03  0.00000000000E+00 0. -1.
</event>
<event>
 7    1  0.6176857E-006  0.6465392E+02  0.7818608E-02  0.1385451E+00
          2   -1    0    0  502    0  0.00000000000E+00  0.00000000000E+00  0.55892229025E+03  0.55892229025E+03  0.00000000000E+00 0. -1.
          1   -1    0    0  501    0 -0.00000000000E+00 -0.00000000000E+00 -0.38540480318E+03  0.38540480318E+03  0.00000000000E+00 0. -1.
         25    2    1    2    0    0 -0.64015527248E+02  0.29844506496E+02 -0.99702293560E+02  0.17479866865E+03  0.12500137969E+03 0.  0.
          2    1    1    2  501    0  0.51308752162E+02  0.33889551026E+02 -0.24227332989E+03  0.24995490812E+03  0.00000000000E+00 0. -1.
          1    1    1    2  502    0  0.12706775087E+02 -0.63734057522E+02  0.51549311052E+03  0.51957351666E+03  0.00000000000E+00 0. -1.
         22    1    3    3    0    0 -0.97141806969E+02  0.20907243930E+02 -0.99310592533E+02  0.14048571920E+03  0.00000000000E+00 0.  1.
         22    1    3    3    0    0  0.33126279721E+02  0.89372625656E+01 -0.39170102762E+00  0.34312949451E+02  0.00000000000E+00 0.  1.
</event>
<event>
 7    1  0.6176857E-006  0.7933325E+02  0.7818608E-02  0.1400316E+00
          2   -1    0    0  502    0  0.00000000000E+00  0.00000000000E+00  0.18161843694E+04  0.18161843694E+04  0.00000000000E+00 0. -1.
          1   -1    0    0  501    0 -0.00000000000E+00 -0.00000000000E+00 -0.38975267360E+03  0.38975267360E+03  0.00000000000E+00 0. -1.
         25    2    1    2    0    0  0.29331766222E+02  0.19954531937E+02  0.29398183068E+03  0.32141726290E+03  0.12500081705E+03 0.  0.
          2    1    1    2  501    0 -0.67430989545E+02 -0.42934772402E+02 -0.37145372837E+03  0.37995816263E+03  0.00000000000E+00 0. -1.
          1    1    1    2  502    0  0.38099223323E+02  0.22980240465E+02  0.15039035935E+04  0.15045616175E+04  0.00000000000E+00 0. -1.
         22    1    3    3    0    0  0.76863651122E+02 -0.34684415468E+01  0.17557895633E+03  0.19169773305E+03  0.00000000000E+00 0.  1.
         22    1    3    3    0    0 -0.47531884900E+02  0.23422973484E+02  0.11840287435E+03  0.12971952985E+03  0.00000000000E+00 0.  1.
</event>
<event>
 7    1  0.6176857E-006  0.8752964E+02  0.7818608E-02  0.1393695E+00
          2   -1    0    0  502    0  0.00000000000E+00  0.00000000000E+00  0.65463778786E+02  0.65463778786E+02  0.00000000000E+00 0. -1.
          1   -1    0    0  501    0 -0.00000000000E+00 -0.00000000000E+00 -0.70831345573E+03  0.70831345573E+03  0.00000000000E+00 0. -1.
         25    2    1    2    0    0  0.89488509960E+02 -0.60866293599E+02 -0.12715142081E+03  0.20858250953E+03  0.12500512132E+03 0.  0.
          2    1    1    2  501    0 -0.48336641111E+02  0.71514267278E+02 -0.51551059458E+03  0.52268718601E+03  0.00000000000E+00 0. -1.
          1    1    1    2  502    0 -0.41151868849E+02 -0.10647973679E+02 -0.18766156046E+00  0.42507538980E+02  0.00000000000E+00 0. -1.
         22    1    3    3    0    0  0.10080424237E+03 -0.44519453324E+02 -0.36967031933E+02  0.11623269099E+03  0.00000000000E+00 0. -1.
         22    1    3    3    0    0 -0.11315732414E+02 -0.16346840276E+02 -0.90184388874E+02  0.92349818536E+02  0.00000000000E+00 0. -1.
</event>
<event>
 7    1  0.6176857E-006  0.3812977E+02  0.7818608E-02  0.1537621E+00
          2   -1    0    0  502    0  0.00000000000E+00  0.00000000000E+00  0.18030595160E+04  0.18030595160E+04  0.00000000000E+00 0. -1.
          1   -1    0    0  501    0 -0.00000000000E+00 -0.00000000000E+00 -0.42552983991E+03  0.42552983991E+03  0.00000000000E+00 0. -1.
         25    2    1    2    0    0 -0.53368441715E+02  0.20285854921E+02 -0.65103104515E+02  0.15206348745E+03  0.12500073407E+03 0.  0.
          2    1    1    2  501    0  0.20809495697E+02 -0.31685854029E+02 -0.31564325425E+03  0.31791145373E+03  0.00000000000E+00 0. -1.
          1    1    1    2  502    0  0.32558946018E+02  0.11399999108E+02  0.17582760348E+04  0.17586144147E+04  0.00000000000E+00 0. -1.
         22    1    3    3    0    0 -0.13830320104E+02 -0.51695721280E+02 -0.13921886065E+02  0.55295065462E+02  0.00000000000E+00 0.  1.
         22    1    3    3    0    0 -0.39538121611E+02  0.71981576201E+02 -0.51181218450E+02  0.96768421993E+02  0.00000000000E+00 0.  1.
</event>
<event>
 7    1  0.6176857E-006  0.8269996E+02  0.7818608E-02  0.1345965E+00
          2   -1    0    0  502    0  0.00000000000E+00  0.00000000000E+00  0.39590267430E+03  0.39590267430E+03  0.00000000000E+00 0. -1.
          1   -1    0    0  501    0 -0.00000000000E+00 -0.00000000000E+00 -0.19793650665E+03  0.19793650665E+03  0.00000000000E+00 0. -1.
         25    2    1    2    0    0 -0.34979726048E+02  0.10598169747E+03  0.11845399410E+03  0.20521317559E+03  0.12500158914E+03 0.  0.
          2    1    1    2  501    0  0.60126256610E+02 -0.29112171864E+02 -0.13976462013E+03  0.15490911634E+03  0.00000000000E+00 0. -1.
          1    1    1    2  502    0 -0.25146530563E+02 -0.76869525610E+02  0.21927679368E+03  0.23371688902E+03  0.00000000000E+00 0. -1.
         22    1    3    3    0    0 -0.11723140793E+02 -0.10153305367E+02 -0.18504806318E+02  0.24144347098E+02  0.00000000000E+00 0. -1.
         22    1    3    3    0    0 -0.23256585254E+02  0.11613500284E+03  0.13695880041E+03  0.18106882850E+03  0.00000000000E+00 0. -1.
</event>
<event>
 7    1  0.6176857E-006  0.7083621E+02  0.7818608E-02  0.1486894E+00
          2   -1    0    0  502    0  0.00000000000E+00  0.00000000000E+00  0.53661222255E+03  0.53661222255E+03  0.00000000000E+00 0. -1.
          1   -1    0    0  501    0 -0.00000000000E+00 -0.00000000000E+00 -0.26756202627E+03  0.26756202627E+03  0.00000000000E+00 0. -1.
         25    2    1    2    0    0  0.45163786621E+02 -0.25247780588E+02  0.26458591955E+03  0.29716626654E+03  0.12499945241E+03 0.  0.
          2    1    1    2  501    0  0.21306158969E+02 -0.15184713388E+02 -0.24464086320E+03  0.24603593209E+03  0.00000000000E+00 0. -1.
          1    1    1    2  502    0 -0.66469945590E+02  0.40432493976E+02  0.24910513994E+03  0.26097205019E+03  0.00000000000E+00 0. -1.
         22    1    3    3    0    0  0.95447452907E+01  0.46428129892E+02  0.53830314925E+02  0.71724306987E+02  0.00000000000E+00 0.  1.
         22    1    3    3    0    0  0.35619041330E+02 -0.71675910480E+02  0.21075560462E+03  0.22544195956E+03  0.00000000000E+00 0.  1.
</event>
<event>
 7    1  0.6176857E-006  0.2876445E+03  0.7818608E-02  0.1129844E+00
          2   -1    0    0  502    0  0.00000000000E+00  0.00000000000E+00  0.17334847899E+04  0.17334847899E+04  0.00000000000E+00 0. -1.
          1   -1    0    0  501    0 -0.00000000000E+00 -0.00000000000E+00 -0.11334132735E+04  0.11334132735E+04  0.00000000000E+00 0. -1.
         25    2    1    2    0    0  0.13812945439E+03 -0.27341650398E+02  0.33364584889E+02  0.19121728206E+03  0.12499416554E+03 0.  0.
          2    1    1    2  501    0  0.17665711350E+03 -0.68572177528E+01 -0.10314332900E+04  0.10464747435E+04  0.00000000000E+00 0. -1.
          1    1    1    2  502    0 -0.31478656789E+03  0.34198868151E+02  0.15981402215E+04  0.16292060378E+04  0.00000000000E+00 0. -1.
         22    1    3    3    0    0  0.13825975340E+03 -0.32683477061E+02 -0.14725358915E+02  0.14283138758E+03  0.00000000000E+00 0.  1.
         22    1    3    3    0    0 -0.13029900879E+00  0.53418266628E+01  0.48089943804E+02  0.48385894484E+02  0.00000000000E+00 0.  1.
</event>
<event>
 7    1  0.6176857E-006  0.5353544E+02  0.7818608E-02  0.1475493E+00
          2   -1    0    0  502    0  0.00000000000E+00  0.00000000000E+00  0.45600075253E+02  0.45600075253E+02  0.00000000000E+00 0. -1.
          1   -1    0    0  501    0 -0.00000000000E+00 -0.00000000000E+00 -0.13527927260E+04  0.13527927260E+04  0.00000000000E+00 0. -1.
         25    2    1    2    0    0  0.39529226364E+02 -0.72890526649E+02 -0.93098264321E+03  0.94298947159E+03  0.12499949183E+03 0.  0.
          2    1    1    2  501    0  0.14945230442E-01  0.37516839989E+02 -0.39674221865E+03  0.39851210968E+03  0.00000000000E+00 0. -1.
          1    1    1    2  502    0 -0.39544171594E+02  0.35373686660E+02  0.20532211128E+02  0.56891219962E+02  0.00000000000E+00 0. -1.
         22    1    3    3    0    0  0.17893515242E+02 -0.14528594095E+02 -0.77071295001E+03  0.77105752655E+03  0.00000000000E+00 0. -1.
         22    1    3    3    0    0  0.21635711121E+02 -0.58361932554E+02 -0.16026969320E+03  0.17193194504E+03  0.00000000000E+00 0. -1.
</event>
<event>
 7    1  0.6176857E-006  0.1232608E+03  0.7818608E-02  0.1396159E+00
          2   -1    0    0  502    0  0.00000000000E+00  0.00000000000E+00  0.49199747152E+03  0.49199747152E+03  0.00000000000E+00 0. -1.
          1   -1    0    0  501    0 -0.00000000000E+00 -0.00000000000E+00 -0.22032129712E+04  0.22032129712E+04  0.00000000000E+00 0. -1.
         25    2    1    2    0    0 -0.76837976167E+02  0.63527228326E+02 -0.52830489909E+03  0.55197000078E+03  0.12500012814E+03 0.  0.
          2    1    1    2  501    0  0.92894513747E+02 -0.88390712368E+02 -0.16601447111E+04  0.16650894182E+04  0.00000000000E+00 0. -1.
          1    1    1    2  502    0 -0.16056537581E+02  0.24863484043E+02  0.47723411054E+03  0.47815102373E+03  0.00000000000E+00 0. -1.
         22    1    3    3    0    0 -0.54103324474E+02  0.27714153439E+02 -0.74349407034E+02  0.96036859311E+02  0.00000000000E+00 0. -1.
         22    1    3    3    0    0 -0.22734651693E+02  0.35813074887E+02 -0.45395549206E+03  0.45593314147E+03  0.00000000000E+00 0. -1.
</event>
<event>
 7    1  0.6176857E-006  0.4601056E+02  0.7818608E-02  0.1483899E+00
          2   -1    0    0  502    0  0.00000000000E+00  0.00000000000E+00  0.14699362483E+03  0.14699362483E+03  0.00000000000E+00 0. -1.
          1   -1    0    0  501    0 -0.00000000000E+00 -0.00000000000E+00 -0.18802397558E+04  0.18802397558E+04  0.00000000000E+00 0. -1.
         25    2    1    2    0    0  0.14740572868E+02  0.80096647335E+02 -0.65179678804E+03  0.66865248706E+03  0.12499735256E+03 0.  0.
          2    1    1    2  501    0  0.80604136892E+01 -0.40337611366E+02 -0.12158677456E+04  0.12165633843E+04  0.00000000000E+00 0. -1.
          1    1    1    2  502    0 -0.22800986558E+02 -0.39759035969E+02  0.13441840275E+03  0.14201750923E+03  0.00000000000E+00 0. -1.
         22    1    3    3    0    0 -0.45565870186E+00  0.31071669980E+02 -0.25341133998E+02  0.40097747724E+02  0.00000000000E+00 0. -1.
         22    1    3    3    0    0  0.15196231570E+02  0.49024977355E+02 -0.62645565405E+03  0.62855473934E+03  0.00000000000E+00 0. -1.
</event>
<event>
 7    1  0.6176857E-006  0.4020508E+02  0.7818608E-02  0.1508584E+00
          2   -1    0    0  502    0  0.00000000000E+00  0.00000000000E+00  0.21104068166E+04  0.21104068166E+04  0.00000000000E+00 0. -1.
          1   -1    0    0  501    0 -0.00000000000E+00 -0.00000000000E+00 -0.24536691440E+03  0.24536691440E+03  0.00000000000E+00 0. -1.
         25    2    1    2    0    0 -0.38377894075E+02  0.29158765189E+02  0.44529010719E+03  0.46500658631E+03  0.12499899762E+03 0.  0.
          2    1    1    2  501    0  0.38052074346E+02  0.11303510163E+02 -0.23358668897E+03  0.23693558401E+03  0.00000000000E+00 0. -1.
          1    1    1    2  502    0  0.32581972932E+00 -0.40462275351E+02  0.16533364840E+04  0.16538315607E+04  0.00000000000E+00 0. -1.
         22    1    3    3    0    0  0.49094146494E+01 -0.42757932714E+01  0.37903764347E+03  0.37909355037E+03  0.00000000000E+00 0.  1.
         22    1    3    3    0    0 -0.43287308724E+02  0.33434558460E+02  0.66252463723E+02  0.85913035946E+02  0.00000000000E+00 0.  1.
</event>
<event>
 7    1  0.6176857E-006  0.8601449E+02  0.7818608E-02  0.1346530E+00
          2   -1    0    0  502    0  0.00000000000E+00  0.00000000000E+00  0.31672436213E+03  0.31672436213E+03  0.00000000000E+00 0. -1.
          1   -1    0    0  501    0 -0.00000000000E+00 -0.00000000000E+00 -0.43913959884E+03  0.43913959884E+03  0.00000000000E+00 0. -1.
         25    2    1    2    0    0  0.15075762415E+02 -0.42459587363E+02 -0.43149909044E+02  0.13971077119E+03  0.12500835878E+03 0.  0.
          2    1    1    2  501    0 -0.78696937366E+02  0.48615953876E+02 -0.33759222186E+03  0.35003603698E+03  0.00000000000E+00 0. -1.
          1    1    1    2  502    0  0.63621174951E+02 -0.61563665130E+01  0.25832689419E+03  0.26611715280E+03  0.00000000000E+00 0. -1.
         22    1    3    3    0    0 -0.24462844828E+01  0.57083063504E+01 -0.77667685448E+02  0.77915585296E+02  0.00000000000E+00 0.  1.
         22    1    3    3    0    0  0.17522046897E+02 -0.48167893714E+02  0.34517776404E+02  0.61795185898E+02  0.00000000000E+00 0.  1.
</event>
<event>
 7    1  0.6176857E-006  0.2405802E+02  0.7818608E-02  0.1701076E+00
          2   -1    0    0  502    0  0.00000000000E+00  0.00000000000E+00  0.25743374897E+02  0.25743374897E+02  0.00000000000E+00 0. -1.
          1   -1    0    0  501    0 -0.00000000000E+00 -0.00000000000E+00 -0.10257172122E+04  0.10257172122E+04  0.00000000000E+00 0. -1.
         25    2    1    2    0    0 -0.30076351024E+02 -0.31045399444E+02 -0.37642856447E+03  0.39898904427E+03  0.12500155832E+03 0.  0.
          2    1    1    2  501    0  0.10282110536E+02  0.18189900787E+02 -0.62808836766E+03  0.62843582956E+03  0.00000000000E+00 0. -1.
          1    1    1    2  502    0  0.19794240488E+02  0.12855498657E+02  0.45430948133E+01  0.24035713276E+02  0.00000000000E+00 0. -1.
         22    1    3    3    0    0 -0.61746673458E+02 -0.62316716009E+02 -0.25370222979E+03  0.26844151351E+03  0.00000000000E+00 0.  1.
         22    1    3    3    0    0  0.31670322434E+02  0.31271316565E+02 -0.12272633468E+03  0.13054753076E+03  0.00000000000E+00 0.  1.
</event>
<event>
 7    1  0.6176857E-006  0.1569141E+03  0.7818608E-02  0.1307987E+00
          2   -1    0    0  502    0  0.00000000000E+00  0.00000000000E+00  0.29877169461E+04  0.29877169461E+04  0.00000000000E+00 0. -1.
          1   -1    0    0  501    0 -0.00000000000E+00 -0.00000000000E+00 -0.68978133113E+03  0.68978133113E+03  0.00000000000E+00 0. -1.
         25    2    1    2    0    0  0.13655656412E+02  0.13187515595E+03  0.98387229957E+02  0.20708334952E+03  0.12500373163E+03 0.  0.
          2    1    1    2  501    0 -0.60586271360E+02 -0.14682423683E+03 -0.62528970246E+03  0.64514747523E+03  0.00000000000E+00 0. -1.
          1    1    1    2  502    0  0.46930614948E+02  0.14949080875E+02  0.28248380875E+04  0.28252674525E+04  0.00000000000E+00 0. -1.
         22    1    3    3    0    0 -0.27014917572E+02  0.11637037658E+03  0.25449362129E+02  0.12214557032E+03  0.00000000000E+00 0.  1.
         22    1    3    3    0    0  0.40670573985E+02  0.15504779372E+02  0.72937867827E+02  0.84937779196E+02  0.00000000000E+00 0.  1.
</event>
<event>
 7    1  0.6176857E-006  0.3401308E+02  0.7818608E-02  0.1633028E+00
          2   -1    0    0  502    0  0.00000000000E+00  0.00000000000E+00  0.16456128074E+04  0.16456128074E+04  0.00000000000E+00 0. -1.
          1   -1    0    0  501    0 -0.00000000000E+00 -0.00000000000E+00 -0.30407672569E+02  0.30407672569E+02  0.00000000000E+00 0. -1.
         25    2    1    2    0    0  0.15948887129E+02  0.49018841249E+01  0.35646287119E+03  0.37811100633E+03  0.12499503629E+03 0.  0.
          2    1    1    2  501    0 -0.34215515182E+02  0.64991742385E+01 -0.39347570938E+01  0.35048866720E+02  0.00000000000E+00 0. -1.
          1    1    1    2  502    0  0.18266628053E+02 -0.11401058363E+02  0.12626770207E+04  0.12628606069E+04  0.00000000000E+00 0. -1.
         22    1    3    3    0    0 -0.11107641472E+02  0.61427899317E+02  0.15398758010E+03  0.16615938534E+03  0.00000000000E+00 0.  1.
         22    1    3    3    0    0  0.27056528601E+02 -0.56526015192E+02  0.20247529109E+03  0.21195162098E+03  0.00000000000E+00 0.  1.
</event>
<event>
 7    1  0.6176857E-006  0.4265930E+02  0.7818608E-02  0.1510711E+00
          2   -1    0    0  502    0  0.00000000000E+00  0.00000000000E+00  0.28813643924E+02  0.28813643924E+02  0.00000000000E+00 0. -1.
          1   -1    0    0  501    0 -0.00000000000E+00 -0.00000000000E+00 -0.17939538178E+04  0.17939538178E+04  0.00000000000E+00 0. -1.
         25    2    1    2    0    0  0.27140059069E+01 -0.68831334827E+02 -0.61350655788E+03  0.62988943482E+03  0.12500114021E+03 0.  0.
          2    1    1    2  501    0  0.17896973118E+02  0.32241907836E+02 -0.11502697180E+04  0.11508606634E+04  0.00000000000E+00 0. -1.
          1    1    1    2  502    0 -0.20610979025E+02  0.36589426990E+02 -0.13638980026E+01  0.42017363573E+02  0.00000000000E+00 0. -1.
         22    1    3    3    0    0 -0.36451977225E+02 -0.21688991196E+02 -0.62798240153E+02  0.75781118684E+02  0.00000000000E+00 0.  1.
         22    1    3    3    0    0  0.39165983132E+02 -0.47142343631E+02 -0.55070831773E+03  0.55410831614E+03  0.00000000000E+00 0.  1.
</event>
<event>
 7    1  0.6176857E-006  0.1219401E+03  0.7818608E-02  0.1279136E+00
          2   -1    0    0  502    0  0.00000000000E+00  0.00000000000E+00  0.59074905114E+03  0.59074905114E+03  0.00000000000E+00 0. -1.
          1   -1    0    0  501    0 -0.00000000000E+00 -0.00000000000E+00 -0.17142678826E+04  0.17142678826E+04  0.00000000000E+00 0. -1.
         25    2    1    2    0    0  0.19497648417E+03  0.25269916313E+02 -0.30419357998E+03  0.38316121402E+03  0.12499753510E+03 0.  0.
          2    1    1    2  501    0 -0.11246135757E+03 -0.33433554435E+02 -0.13649415851E+04  0.13699747773E+04  0.00000000000E+00 0. -1.
          1    1    1    2  502    0 -0.82515126597E+02  0.81636381225E+01  0.54561633365E+03  0.55188094246E+03  0.00000000000E+00 0. -1.
         22    1    3    3    0    0  0.36129398381E+02  0.78394714441E+01 -0.17153183751E+03  0.17547068707E+03  0.00000000000E+00 0.  1.
         22    1    3    3    0    0  0.15884708579E+03  0.17430444869E+02 -0.13266174247E+03  0.20769052695E+03  0.00000000000E+00 0.  1.
</event>
<event>
 7    1  0.6176857E-006  0.8162933E+02  0.7818608E-02  0.1433018E+00
          2   -1    0    0  502    0  0.00000000000E+00  0.00000000000E+00  0.10067427549E+04  0.10067427549E+04  0.00000000000E+00 0. -1.
          1   -1    0    0  501    0 -0.00000000000E+00 -0.00000000000E+00 -0.11378070825E+04  0.11378070825E+04  0.00000000000E+00 0. -1.
         25    2    1    2    0    0  0.11423129580E+03  0.13981121990E+02  0.71870033334E+03  0.73851179375E+03  0.12500095863E+03 0.  0.
          2    1    1    2  501    0 -0.80730774105E+02 -0.11612070918E+02 -0.11254063272E+04  0.11283579660E+04  0.00000000000E+00 0. -1.
          1    1    1    2  502    0 -0.33500521693E+02 -0.23690510728E+01  0.27564166631E+03  0.27768007772E+03  0.00000000000E+00 0. -1.
         22    1    3    3    0    0  0.84450226158E+02  0.46921004391E+02  0.64700565664E+03  0.65417867672E+03  0.00000000000E+00 0. -1.
         22    1    3    3    0    0  0.29781069640E+02 -0.32939882401E+02  0.71694676701E+02  0.84333117034E+02  0.00000000000E+00 0. -1.
</event>
<event>
 7    1  0.6176857E-006  0.1165424E+03  0.7818608E-02  0.1347866E+00
          2   -1    0    0  502    0  0.00000000000E+00  0.00000000000E+00  0.20447058636E+03  0.20447058636E+03  0.00000000000E+00 0. -1.
          1   -1    0    0  501    0 -0.00000000000E+00 -0.00000000000E+00 -0.22917808382E+04  0.22917808382E+04  0.00000000000E+00 0. -1.
         25    2    1    2    0    0  0.62378155814E+02  0.46655226620E+02 -0.16920910155E+03  0.22432813217E+03  0.12499458525E+03 0.  0.
          2    1    1    2  501    0  0.18864809982E+02  0.42652792465E+02 -0.20741211081E+04  0.20746453945E+04  0.00000000000E+00 0. -1.
          1    1    1    2  502    0 -0.81242965796E+02 -0.89308019085E+02  0.15601995782E+03  0.19727789791E+03  0.00000000000E+00 0. -1.
         22    1    3    3    0    0 -0.11505409037E+02  0.69090376156E+02 -0.78486809860E+02  0.10519521775E+03  0.00000000000E+00 0.  1.
         22    1    3    3    0    0  0.73883564851E+02 -0.22435149536E+02 -0.90722291686E+02  0.11913291442E+03  0.00000000000E+00 0.  1.
</event>
<event>
 7    1  0.6176857E-006  0.7167717E+02  0.7818608E-02  0.1358491E+00
          2   -1    0    0  502    0  0.00000000000E+00  0.00000000000E+00  0.96004907284E+03  0.96004907284E+03  0.00000000000E+00 0. -1.
          1   -1    0    0  501    0 -0.00000000000E+00 -0.00000000000E+00 -0.72417631123E+03  0.72417631123E+03  0.00000000000E+00 0. -1.
         25    2    1    2    0    0  0.62564501014E+02  0.22506037098E+02 -0.17022420459E+03  0.22140841340E+03  0.12499826879E+03 0.  0.
          2    1    1    2  501    0 -0.10712660251E+02 -0.71993443115E+02 -0.52446852020E+03  0.52949508555E+03  0.00000000000E+00 0. -1.
          1    1    1    2  502    0 -0.51851840763E+02  0.49487406017E+02  0.93056548641E+03  0.93332188512E+03  0.00000000000E+00 0. -1.
         22    1    3    3    0    0 -0.16885344552E+02  0.50685651670E+02 -0.92107607830E+02  0.10647986460E+03  0.00000000000E+00 0. -1.
         22    1    3    3    0    0  0.79449845566E+02 -0.28179614572E+02 -0.78116596764E+02  0.11492854879E+03  0.00000000000E+00 0. -1.
</event>
<event>
 7    1  0.6176857E-006  0.7784200E+02  0.7818608E-02  0.1420675E+00
          2   -1    0    0  502    0  0.00000000000E+00  0.00000000000E+00  0.48901198779E+02  0.48901198779E+02  0.00000000000E+00 0. -1.
          1   -1    0    0  501    0 -0.00000000000E+00 -0.00000000000E+00 -0.13772219733E+04  0.13772219733E+04  0.00000000000E+00 0. -1.
         25    2    1    2    0    0  0.23962610860E+02  0.10901314491E+03 -0.49491564699E+03  0.52251831712E+03  0.12500328639E+03 0.  0.
          2    1    1    2  501    0  0.25002072834E+01 -0.38608203719E+02 -0.82723393881E+03  0.82813817322E+03  0.00000000000E+00 0. -1.
          1    1    1    2  502    0 -0.26462818144E+02 -0.70404941188E+02 -0.61711887618E+01  0.75466681778E+02  0.00000000000E+00 0. -1.
         22    1    3    3    0    0 -0.36940189338E+02  0.95105783425E+02 -0.35327648729E+03  0.36771451440E+03  0.00000000000E+00 0.  1.
         22    1    3    3    0    0  0.60902800198E+02  0.13907361482E+02 -0.14163915970E+03  0.15480380272E+03  0.00000000000E+00 0.  1.
</event>
<event>
 7    1  0.6176857E-006  0.3912062E+02  0.7818608E-02  0.1555398E+00
          2   -1    0    0  502    0  0.00000000000E+00  0.00000000000E+00  0.15459076351E+03  0.15459076351E+03  0.00000000000E+00 0. -1.
          1   -1    0    0  501    0 -0.00000000000E+00 -0.00000000000E+00 -0.21517960610E+04  0.21517960610E+04  0.00000000000E+00 0. -1.
         25    2    1    2    0    0 -0.58897105660E+02  0.35244490281E+02 -0.16530363786E+03  0.21831422862E+03  0.12499906631E+03 0.  0.
          2    1    1    2  501    0  0.26062364347E+02 -0.14815554377E+02 -0.19569508265E+04  0.19571804426E+04  0.00000000000E+00 0. -1.
          1    1    1    2  502    0  0.32834741313E+02 -0.20428935905E+02  0.12504916687E+03  0.13089215330E+03  0.00000000000E+00 0. -1.
         22    1    3    3    0    0 -0.22599784086E+00 -0.43998897992E+02 -0.51847160187E+02  0.68000603813E+02  0.00000000000E+00 0.  1.
         22    1    3    3    0    0 -0.58671107819E+02  0.79243388273E+02 -0.11345647767E+03  0.15031362481E+03  0.00000000000E+00 0.  1.
</event>
<event>
 7    1  0.6176857E-006  0.9137237E+02  0.7818608E-02  0.1403775E+00
          2   -1    0    0  502    0  0.00000000000E+00  0.00000000000E+00  0.23040705484E+04  0.23040705484E+04  0.00000000000E+00 0. -1.
          1   -1    0    0  501    0 -0.00000000000E+00 -0.00000000000E+00 -0.23788530476E+03  0.23788530476E+03  0.00000000000E+00 0. -1.
         25    2    1    2    0    0 -0.36981734751E+02  0.68736409802E+02  0.21035936423E+03  0.25684327839E+03  0.12500025920E+03 0.  0.
          2    1    1    2  501    0  0.72629081006E+02 -0.56808173825E+02 -0.20456134578E+03  0.22438247750E+03  0.00000000000E+00 0. -1.
          1    1    1    2  502    0 -0.35647346255E+02 -0.11928235977E+02  0.20603872252E+04  0.20607300973E+04  0.00000000000E+00 0. -1.
         22    1    3    3    0    0 -0.15051083874E+02 -0.35528745342E+02  0.37634126350E+02  0.53899483647E+02  0.00000000000E+00 0. -1.
         22    1    3    3    0    0 -0.21930650877E+02  0.10426515514E+03  0.17272523788E+03  0.20294379475E+03  0.00000000000E+00 0. -1.
</event>
<event>
 7    1  0.6176857E-006  0.1341109E+03  0.7818608E-02  0.1341984E+00
          2   -1    0    0  502    0  0.00000000000E+00  0.00000000000E+00  0.16017866159E+04  0.16017866159E+04  0.00000000000E+00 0. -1.
          1   -1    0    0  501    0 -0.00000000000E+00 -0.00000000000E+00 -0.23855902443E+02  0.23855902443E+02  0.00000000000E+00 0. -1.
         25    2    1    2    0    0 -0.94747864127E+02  0.70197212040E+02  0.78863543618E+03  0.80714042077E+03  0.12500000526E+03 0.  0.
          2    1    1    2  501    0 -0.20374426867E+01  0.42582331441E+02  0.56447053780E+02  0.70736666617E+02  0.00000000000E+00 0. -1.
          1    1    1    2  502    0  0.96785306813E+02 -0.11277954348E+03  0.73284822348E+03  0.74776543093E+03  0.00000000000E+00 0. -1.
         22    1    3    3    0    0 -0.19195860404E+02 -0.36371193714E+02  0.19977709231E+03  0.20396625064E+03  0.00000000000E+00 0.  1.
         22    1    3    3    0    0 -0.75552003723E+02  0.10656840575E+03  0.58885834387E+03  0.60317417013E+03  0.00000000000E+00 0.  1.
</event>
<event>
 7    1  0.6176857E-006  0.1369041E+03  0.7818608E-02  0.1428788E+00
          2   -1    0    0  502    0  0.00000000000E+00  0.00000000000E+00  0.40618654018E+03  0.40618654018E+03  0.00000000000E+00 0. -1.
          1   -1    0    0  501    0 -0.00000000000E+00 -0.00000000000E+00 -0.50504446614E+03  0.50504446614E+03  0.00000000000E+00 0. -1.
         25    2    1    2    0    0  0.13775503825E+03 -0.63810116653E+02  0.15046657310E+03  0.24761363770E+03  0.12499656956E+03 0.  0.
          2    1    1    2  501    0 -0.11763890374E+03  0.68590420765E+02 -0.44576032702E+03  0.46609637055E+03  0.00000000000E+00 0. -1.
          1    1    1    2  502    0 -0.20116134506E+02 -0.47803041121E+01  0.19643582795E+03  0.19752099807E+03  0.00000000000E+00 0. -1.
         22    1    3    3    0    0  0.19640671835E+02  0.30849286943E+02  0.62859889165E+02  0.72724137402E+02  0.00000000000E+00 0. -1.
         22    1    3    3    0    0  0.11811436642E+03 -0.94659403596E+02  0.87606683938E+02  0.17488950030E+03  0.00000000000E+00 0. -1.
</event>
<event>
 7    1  0.6176857E-006  0.7851779E+02  0.7818608E-02  0.1359027E+00
          2   -1    0    0  502    0  0.00000000000E+00  0.00000000000E+00  0.19830937667E+03  0.19830937667E+03  0.00000000000E+00 0. -1.
          1   -1    0    0  501    0 -0.00000000000E+00 -0.00000000000E+00 -0.25211294467E+03  0.25211294467E+03  0.00000000000E+00 0. -1.
         25    2    1    2    0    0  0.41404771883E+02 -0.48497606871E+02  0.11911644465E+03  0.18406658643E+03  0.12500163138E+03 0.  0.
          2    1    1    2  501    0  0.47878972747E+02 -0.40896989113E+02 -0.10623078455E+03  0.12349064473E+03  0.00000000000E+00 0. -1.
          1    1    1    2  502    0 -0.89283744630E+02  0.89394595983E+02 -0.66689228101E+02  0.14286509018E+03  0.00000000000E+00 0. -1.
         22    1    3    3    0    0  0.60408460832E+02  0.43573520296E+01  0.10059040487E+02  0.61395056416E+02  0.00000000000E+00 0. -1.
         22    1    3    3    0    0 -0.19003688949E+02 -0.52854958900E+02  0.10905740416E+03  0.12267153002E+03  0.00000000000E+00 0. -1.
</event>
<event>
 7    1  0.6176857E-006  0.5949048E+02  0.7818608E-02  0.1470957E+00
          2   -1    0    0  502    0  0.00000000000E+00  0.00000000000E+00  0.39275710170E+03  0.39275710170E+03  0.00000000000E+00 0. -1.
          1   -1    0    0  501    0 -0.00000000000E+00 -0.00000000000E+00 -0.29503262657E+03  0.29503262657E+03  0.00000000000E+00 0. -1.
         25    2    1    2    0    0 -0.38816665098E+02  0.31383796417E+02  0.15534570097E+03  0.20554595621E+03  0.12500070855E+03 0.  0.
          2    1    1    2  501    0  0.15916654119E+02 -0.57681811861E+02 -0.26514369553E+03  0.27181190293E+03  0.00000000000E+00 0. -1.
          1    1    1    2  502    0  0.22900010979E+02  0.26298015444E+02  0.20752246969E+03  0.21043186913E+03  0.00000000000E+00 0. -1.
         22    1    3    3    0    0 -0.70481742210E+02  0.56029734654E+02  0.12982328159E+03  0.15799079591E+03  0.00000000000E+00 0.  1.
         22    1    3    3    0    0  0.31665077111E+02 -0.24645938237E+02  0.25522419379E+02  0.47555160299E+02  0.00000000000E+00 0.  1.
</event>
<event>
 7    1  0.6176857E-006  0.9157970E+02  0.7818608E-02  0.1371091E+00
          2   -1    0    0  502    0  0.00000000000E+00  0.00000000000E+00  0.11316224667E+04  0.11316224667E+04  0.00000000000E+00 0. -1.
          1   -1    0    0  501    0 -0.00000000000E+00 -0.00000000000E+00 -0.54506451616E+03  0.54506451616E+03  0.00000000000E+00 0. -1.
         25    2    1    2    0    0 -0.12029209761E+02  0.13148017830E+03  0.31934321929E+03  0.36747241792E+03  0.12499658816E+03 0.  0.
          2    1    1    2  501    0 -0.12311256191E+02 -0.47242022306E+02 -0.51740872749E+03  0.51970680867E+03  0.00000000000E+00 0. -1.
          1    1    1    2  502    0  0.24340465951E+02 -0.84238155998E+02  0.78462345872E+03  0.78950775625E+03  0.00000000000E+00 0. -1.
         22    1    3    3    0    0 -0.11153652138E+02  0.14684811440E+02  0.19869931217E+03  0.19955316159E+03  0.00000000000E+00 0.  1.
         22    1    3    3    0    0 -0.87555762243E+00  0.11679536686E+03  0.12064390712E+03  0.16791925633E+03  0.00000000000E+00 0.  1.
</event>
<event>
 7    1  0.6176857E-006  0.1750518E+03  0.7818608E-02  0.1319382E+00
          2   -1    0    0  502    0  0.00000000000E+00  0.00000000000E+00  0.10830858328E+04  0.10830858328E+04  0.00000000000E+00 0. -1.
          1   -1    0    0  501    0 -0.00000000000E+00 -0.00000000000E+00 -0.60306810473E+03  0.60306810473E+03  0.00000000000E+00 0. -1.
         25    2    1    2    0    0  0.31957126110E+01 -0.18429766741E+03  0.24508194002E+03  0.33115960569E+03  0.12500273727E+03 0.  0.
          2    1    1    2  501    0  0.36821536409E+02  0.15203454477E+02 -0.54980453487E+03  0.55124585906E+03  0.00000000000E+00 0. -1.
          1    1    1    2  502    0 -0.40017249020E+02  0.16909421294E+03  0.78474032289E+03  0.80374847274E+03  0.00000000000E+00 0. -1.
         22    1    3    3    0    0 -0.52850693960E+02 -0.13789420669E+03  0.14110466130E+03  0.20425115307E+03  0.00000000000E+00 0. -1.
         22    1    3    3    0    0  0.56046406571E+02 -0.46403460724E+02  0.10397727871E+03  0.12690845262E+03  0.00000000000E+00 0. -1.
</event>
<event>
 7    1  0.6176857E-006  0.1245929E+03  0.7818608E-02  0.1365791E+00
          2   -1    0    0  502    0  0.00000000000E+00  0.00000000000E+00  0.12824852901E+04  0.12824852901E+04  0.00000000000E+00 0. -1.
          1   -1    0    0  501    0 -0.00000000000E+00 -0.00000000000E+00 -0.75612353880E+02  0.75612353880E+02  0.00000000000E+00 0. -1.
         25    2    1    2    0    0  0.10056089571E+03 -0.47518376376E+02  0.63915709825E+03  0.66069517802E+03  0.12500332869E+03 0.  0.
          2    1    1    2  501    0  0.31614744147E+02  0.20163126338E+02 -0.51467230543E+02  0.63678250062E+02  0.00000000000E+00 0. -1.
          1    1    1    2  502    0 -0.13217563986E+03  0.27355250038E+02  0.61918306856E+03  0.63372421594E+03  0.00000000000E+00 0. -1.
         22    1    3    3    0    0 -0.40003785258E+01 -0.78278745947E+01  0.35803144390E+03  0.35813934923E+03  0.00000000000E+00 0. -1.
         22    1    3    3    0    0  0.10456127424E+03 -0.39690501781E+02  0.28112565435E+03  0.30255582879E+03  0.00000000000E+00 0. -1.
</event>
<event>
 7    1  0.6176857E-006  0.6172626E+02  0.7818608E-02  0.1405288E+00
          2   -1    0    0  502    0  0.00000000000E+00  0.00000000000E+00  0.74303224301E+03  0.74303224301E+03  0.00000000000E+00 0. -1.
          1   -1    0    0  501    0 -0.00000000000E+00 -0.00000000000E+00 -0.19910767454E+04  0.19910767454E+04  0.00000000000E+00 0. -1.
         25    2    1    2    0    0 -0.44988812733E+02 -0.72655973486E+02 -0.50743965884E+02  0.15970315779E+03  0.12500905879E+03 0.  0.
          2    1    1    2  501    0  0.53746350228E+02  0.11608786517E+02 -0.18840703206E+04  0.18848725175E+04  0.00000000000E+00 0. -1.
          1    1    1    2  502    0 -0.87575374958E+01  0.61047186968E+02  0.68676978413E+03  0.68953331312E+03  0.00000000000E+00 0. -1.
         22    1    3    3    0    0 -0.69341090002E+02  0.41593103952E+01 -0.34246485692E+02  0.77448746974E+02  0.00000000000E+00 0.  1.
         22    1    3    3    0    0  0.24352277269E+02 -0.76815283881E+02 -0.16497480192E+02  0.82254410815E+02  0.00000000000E+00 0.  1.
</event>
<event>
 7    1  0.6176857E-006  0.1512245E+03  0.7818608E-02  0.1266480E+00
          2   -1    0    0  502    0  0.00000000000E+00  0.00000000000E+00  0.15139535575E+04  0.15139535575E+04  0.00000000000E+00 0. -1.
          1   -1    0    0  501    0 -0.00000000000E+00 -0.00000000000E+00 -0.36296696639E+03  0.36296696639E+03  0.00000000000E+00 0. -1.
         25    2    1    2    0    0 -0.11197807252E+03 -0.19019771107E+03  0.59598642298E+03  0.64771845006E+03  0.12500046459E+03 0.  0.
          2    1    1    2  501    0  0.57466859047E+02  0.13792582744E+03 -0.31883442687E+03  0.35210987706E+03  0.00000000000E+00 0. -1.
          1    1    1    2  502    0  0.54511213472E+02  0.52271883637E+02  0.87383459502E+03  0.87709219679E+03  0.00000000000E+00 0. -1.
         22    1    3    3    0    0  0.37992568759E+01 -0.28890023990E+02  0.13112042705E+02  0.31952988950E+02  0.00000000000E+00 0. -1.
         22    1    3    3    0    0 -0.11577732940E+03 -0.16130768708E+03  0.58287438027E+03  0.61576546111E+03  0.00000000000E+00 0. -1.
</event>
<event>
 7    1  0.6176857E-006  0.6951007E+02  0.7818608E-02  0.1468865E+00
          2   -1    0    0  502    0  0.00000000000E+00  0.00000000000E+00  0.13454136407E+04  0.13454136407E+04  0.00000000000E+00 0. -1.
          1   -1    0    0  501    0 -0.00000000000E+00 -0.00000000000E+00 -0.57315213913E+03  0.57315213913E+03  0.00000000000E+00 0. -1.
         25    2    1    2    0    0  0.50662511549E+02  0.37219071472E+02  0.29871692748E+02  0.14307056175E+03  0.12499967302E+03 0.  0.
          2    1    1    2  501    0  0.17887042765E+02 -0.24451183512E+02 -0.51514182827E+03  0.51603188846E+03  0.00000000000E+00 0. -1.
          1    1    1    2  502    0 -0.68549554314E+02 -0.12767887960E+02  0.12575316371E+04  0.12594633296E+04  0.00000000000E+00 0. -1.
         22    1    3    3    0    0  0.35146523054E+01  0.72377357068E+02  0.40934889070E+02  0.83225595463E+02  0.00000000000E+00 0.  1.
         22    1    3    3    0    0  0.47147859244E+02 -0.35158285596E+02 -0.11063196322E+02  0.59844966289E+02  0.00000000000E+00 0.  1.
</event>
<event>
 7    1  0.6176857E-006  0.1068016E+03  0.7818608E-02  0.1330681E+00
          2   -1    0    0  502    0  0.00000000000E+00  0.00000000000E+00  0.72856011773E+03  0.72856011773E+03  0.00000000000E+00 0. -1.
          1   -1    0    0  501    0 -0.00000000000E+00 -0.00000000000E+00 -0.57865420897E+03  0.57865420897E+03  0.00000000000E+00 0. -1.
         25    2    1    2    0    0 -0.35626677764E+01 -0.12536405032E+03  0.90576475327E+02  0.19889664305E+03  0.12500775584E+03 0.  0.
          2    1    1    2  501    0 -0.47410900826E+02  0.95513187675E+02 -0.51755048514E+03  0.52842129708E+03  0.00000000000E+00 0. -1.
          1    1    1    2  502    0  0.50973568603E+02  0.29850862647E+02  0.57687991857E+03  0.57989638656E+03  0.00000000000E+00 0. -1.
         22    1    3    3    0    0 -0.14014747594E+02 -0.80254476688E+02 -0.15702527896E+02  0.82968449189E+02  0.00000000000E+00 0. -1.
         22    1    3    3    0    0  0.10452079818E+02 -0.45109573634E+02  0.10627900322E+03  0.11592819386E+03  0.00000000000E+00 0. -1.
</event>
<event>
 7    1  0.6176857E-006  0.5828918E+02  0.7818608E-02  0.1519221E+00
          2   -1    0    0  502    0  0.00000000000E+00  0.00000000000E+00  0.45403791015E+03  0.45403791015E+03  0.00000000000E+00 0. -1.
          1   -1    0    0  501    0 -0.00000000000E+00 -0.00000000000E+00 -0.10536931364E+03  0.10536931364E+03  0.00000000000E+00 0. -1.
         25    2    1    2    0    0  0.39642080611E+02  0.10452266719E+02  0.35555901419E+03  0.37911479031E+03  0.12500026890E+03 0.  0.
          2    1    1    2  501    0 -0.47472992300E+02 -0.34704425760E+02 -0.82040168736E+02  0.10093894913E+03  0.00000000000E+00 0. -1.
          1    1    1    2  502    0  0.78309116886E+01  0.24252159042E+02  0.75149751047E+02  0.79353484350E+02  0.00000000000E+00 0. -1.
         22    1    3    3    0    0  0.68278657686E+01  0.34557201150E+02  0.32814369345E+03  0.33002894336E+03  0.00000000000E+00 0.  1.
         22    1    3    3    0    0  0.32814214843E+02 -0.24104934432E+02  0.27415320741E+02  0.49085846953E+02  0.00000000000E+00 0.  1.
</event>
<event>
 7    1  0.6176857E-006  0.6384853E+02  0.7818608E-02  0.1410779E+00
          2   -1    0    0  502    0  0.00000000000E+00  0.00000000000E+00  0.11188158153E+04  0.11188158153E+04  0.00000000000E+00 0. -1.
          1   -1    0    0  501    0 -0.00000000000E+00 -0.00000000000E+00 -0.37072435466E+03  0.37072435466E+03  0.00000000000E+00 0. -1.
         25    2    1    2    0    0  0.30017018502E+02 -0.87604114135E+02  0.30885208149E+03  0.34581686801E+03  0.12499678295E+03 0.  0.
          2    1    1    2  501    0 -0.43580006844E+02  0.26341545642E+02 -0.34914852358E+03  0.35284243727E+03  0.00000000000E+00 0. -1.
          1    1    1    2  502    0  0.13562988343E+02  0.61262568493E+02  0.78838790273E+03  0.79088086468E+03  0.00000000000E+00 0. -1.
         22    1    3    3    0    0  0.22465138620E+02  0.19681422511E+02  0.16091832069E+02  0.33926212647E+02  0.00000000000E+00 0.  1.
         22    1    3    3    0    0  0.75518798822E+01 -0.10728553665E+03  0.29276024942E+03  0.31189065536E+03  0.00000000000E+00 0.  1.
</event>
<event>
 7    1  0.9534763E-006  0.6716191E+02  0.7818608E-02  0.1405387E+00
          2   -1    0    0  502    0  0.00000000000E+00  0.00000000000E+00  0.10438318959E+04  0.10438318959E+04  0.00000000000E+00 0. -1.
          1   -1    0    0  501    0 -0.00000000000E+00 -0.00000000000E+00 -0.16843908455E+04  0.16843908455E+04  0.00000000000E+00 0. -1.
         25    2    1    2    0    0  0.14786687171E+02 -0.11592639947E+03 -0.32714760910E+03  0.36919856829E+03  0.12499779388E+03 0.  0.
          2    1    1    2  501    0 -0.34185771145E+00  0.50495209366E+02 -0.13346423363E+04  0.13355972630E+04  0.00000000000E+00 0. -1.
          1    1    1    2  502    0 -0.14444829460E+02  0.65431190108E+02  0.10212309958E+04  0.10234269102E+04  0.00000000000E+00 0. -1.
         22    1    3    3    0    0  0.54646104560E+02 -0.10180379221E+03 -0.16370109861E+03  0.20037030353E+03  0.00000000000E+00 0.  1.
         22    1    3    3    0    0 -0.39859417389E+02 -0.14122607267E+02 -0.16344651048E+03  0.16882826475E+03  0.00000000000E+00 0.  1.
</event>
<event>
 7    1  0.6176857E-006  0.3508267E+02  0.7818608E-02  0.1595263E+00
          2   -1    0    0  502    0  0.00000000000E+00  0.00000000000E+00  0.17586134614E+04  0.17586134614E+04  0.00000000000E+00 0. -1.
          1   -1    0    0  501    0 -0.00000000000E+00 -0.00000000000E+00 -0.47441536192E+03  0.47441536192E+03  0.00000000000E+00 0. -1.
         25    2    1    2    0    0 -0.46711658131E+02  0.14186147328E+02  0.11385731521E+04  0.11464541386E+04  0.12500017360E+03 0.  0.
          2    1    1    2  501    0  0.23476614003E+02 -0.26064770351E+02 -0.46954399455E+03  0.47085251032E+03  0.00000000000E+00 0. -1.
          1    1    1    2  502    0  0.23235044128E+02  0.11878623023E+02  0.61516894195E+03  0.61572217445E+03  0.00000000000E+00 0. -1.
         22    1    3    3    0    0 -0.26742743987E+02  0.41344432530E+02  0.10575851043E+04  0.10587307445E+04  0.00000000000E+00 0. -1.
         22    1    3    3    0    0 -0.19968914144E+02 -0.27158285203E+02  0.80988047828E+02  0.87723394133E+02  0.00000000000E+00 0. -1.
</event>
<event>
 7    1  0.6176857E-006  0.7827384E+02  0.7818608E-02  0.1370113E+00
          2   -1    0    0  502    0  0.00000000000E+00  0.00000000000E+00  0.90602781580E+02  0.90602781580E+02  0.00000000000E+00 0. -1.
          1   -1    0    0  501    0 -0.00000000000E+00 -0.00000000000E+00 -0.64723165275E+03  0.64723165275E+03  0.00000000000E+00 0. -1.
         25    2    1    2    0    0 -0.39500591873E+02 -0.22428829125E+02 -0.25255644644E+03  0.28544024477E+03  0.12501210167E+03 0.  0.
          2    1    1    2  501    0  0.45237465254E+02  0.79725173315E+02 -0.36038076671E+03  0.37185592443E+03  0.00000000000E+00 0. -1.
          1    1    1    2  502    0 -0.57368733813E+01 -0.57296344189E+02  0.56308341975E+02  0.80538265127E+02  0.00000000000E+00 0. -1.
         22    1    3    3    0    0 -0.34778620550E+01  0.37556005111E+02 -0.18275638096E+03  0.18660772714E+03  0.00000000000E+00 0.  1.
         22    1    3    3    0    0 -0.36022729818E+02 -0.59984834236E+02 -0.69800065476E+02  0.98832517636E+02  0.00000000000E+00 0.  1.
</event>
<event>
 7    1  0.6176857E-006  0.2604293E+02  0.7818608E-02  0.1668079E+00
          2   -1    0    0  502    0  0.00000000000E+00  0.00000000000E+00  0.20185099965E+02  0.20185099965E+02  0.00000000000E+00 0. -1.
          1   -1    0    0  501    0 -0.00000000000E+00 -0.00000000000E+00 -0.19647285906E+04  0.19647285906E+04  0.00000000000E+00 0. -1.
         25    2    1    2    0    0 -0.25021781232E+02 -0.51166300726E+01 -0.14078841296E+04  0.14136526142E+04  0.12499488681E+03 0.  0.
          2    1    1    2  501    0  0.54579506631E+01  0.22420444059E+02 -0.54371667759E+03  0.54420611080E+03  0.00000000000E+00 0. -1.
          1    1    1    2  502    0  0.19563830569E+02 -0.17303813987E+02  0.70573165798E+01  0.27054965576E+02  0.00000000000E+00 0. -1.
         22    1    3    3    0    0  0.18802953703E+02 -0.56788030994E+02 -0.66566161771E+03  0.66834408864E+03  0.00000000000E+00 0.  1.
         22    1    3    3    0    0 -0.43824734935E+02  0.51671400922E+02 -0.74222251192E+03  0.74530852556E+03  0.00000000000E+00 0.  1.
</event>
<event>
 7    1  0.6176857E-006  0.1188773E+03  0.7818608E-02  0.1397534E+00
          2   -1    0    0  502    0  0.00000000000E+00  0.00000000000E+00  0.24836574884E+04  0.24836574884E+04  0.00000000000E+00 0. -1.
          1   -1    0    0  501    0 -0.00000000000E+00 -0.00000000000E+00 -0.22675983611E+02  0.22675983611E+02  0.00000000000E+00 0. -1.
         25    2    1    2    0    0  0.79005864808E+02  0.56665179679E+02  0.17957858769E+04  0.18027548088E+04  0.12500046400E+03 0.  0.
          2    1    1    2  501    0 -0.85301098093E+02 -0.86360305164E+02  0.17806370463E+03  0.21550188526E+03  0.00000000000E+00 0. -1.
          1    1    1    2  502    0  0.62952332849E+01  0.29695125485E+02  0.48713192330E+03  0.48807677791E+03  0.00000000000E+00 0. -1.
         22    1    3    3    0    0  0.10825194798E+03  0.63493924598E+02  0.15648342416E+04  0.15698586453E+04  0.00000000000E+00 0.  1.
         22    1    3    3    0    0 -0.29246083170E+02 -0.68287449197E+01  0.23095163529E+03  0.23289616351E+03  0.00000000000E+00 0.  1.
</event>
<event>
 7    1  0.6176857E-006  0.1584031E+03  0.7818608E-02  0.1396094E+00
          2   -1    0    0  502    0  0.00000000000E+00  0.00000000000E+00  0.67003030323E+03  0.67003030323E+03  0.00000000000E+00 0. -1.
          1   -1    0    0  501    0 -0.00000000000E+00 -0.00000000000E+00 -0.13717573142E+04  0.13717573142E+04  0.00000000000E+00 0. -1.
         25    2    1    2    0    0  0.15742641933E+03  0.48553955468E+02  0.11400899209E+03  0.23615004988E+03  0.12501292609E+03 0.  0.
          2    1    1    2  501    0 -0.21651204884E+01 -0.22941180333E+02 -0.12980745975E+04  0.12982791095E+04  0.00000000000E+00 0. -1.
          1    1    1    2  502    0 -0.15526129884E+03 -0.25612775134E+02  0.48233859449E+03  0.50735845800E+03  0.00000000000E+00 0. -1.
         22    1    3    3    0    0  0.58090258246E+02  0.68928973956E+02  0.96813307680E+01  0.90660960282E+02  0.00000000000E+00 0. -1.
         22    1    3    3    0    0  0.99336161079E+02 -0.20375018489E+02  0.10432766132E+03  0.14548908960E+03  0.00000000000E+00 0. -1.
</event>
<event>
 7    1  0.6176857E-006  0.2747220E+02  0.7818608E-02  0.1674635E+00
          2   -1    0    0  502    0  0.00000000000E+00  0.00000000000E+00  0.74662288022E+03  0.74662288022E+03  0.00000000000E+00 0. -1.
          1   -1    0    0  501    0 -0.00000000000E+00 -0.00000000000E+00 -0.82400899537E+02  0.82400899537E+02  0.00000000000E+00 0. -1.
         25    2    1    2    0    0  0.29746981534E+02  0.27842845642E+02  0.19287476273E+03  0.23341966843E+03  0.12499584213E+03 0.  0.
          2    1    1    2  501    0 -0.26439838084E+02 -0.70034090696E+01 -0.58898069159E+02  0.64939166357E+02  0.00000000000E+00 0. -1.
          1    1    1    2  502    0 -0.33071434505E+01 -0.20839436572E+02  0.53024528711E+03  0.53066494497E+03  0.00000000000E+00 0. -1.
         22    1    3    3    0    0  0.48958382676E+01 -0.70948929521E+00  0.19541910265E+03  0.19548170832E+03  0.00000000000E+00 0.  1.
         22    1    3    3    0    0  0.24851143267E+02  0.28552334937E+02 -0.25443399166E+01  0.37937960114E+02  0.00000000000E+00 0.  1.
</event>
<event>
 7    1  0.6176857E-006  0.9227655E+02  0.7818608E-02  0.1341736E+00
          2   -1    0    0  502    0  0.00000000000E+00  0.00000000000E+00  0.92031142406E+03  0.92031142406E+03  0.00000000000E+00 0. -1.
          1   -1    0    0  501    0 -0.00000000000E+00 -0.00000000000E+00 -0.40052097577E+03  0.40052097577E+03  0.00000000000E+00 0. -1.
         25    2    1    2    0    0 -0.14117013877E+03 -0.56312906183E+02 -0.98289647234E+02  0.21997269737E+03  0.12500792515E+03 0.  0.
          2    1    1    2  501    0  0.60716682862E+02  0.12991132021E+02 -0.23491608981E+03  0.24298323881E+03  0.00000000000E+00 0. -1.
          1    1    1    2  502    0  0.80453455908E+02  0.43321774162E+02  0.85299618534E+03  0.85787646365E+03  0.00000000000E+00 0. -1.
         22    1    3    3    0    0 -0.50824845629E+02 -0.87462108618E+02 -0.53484158690E+02  0.11442613603E+03  0.00000000000E+00 0.  1.
         22    1    3    3    0    0 -0.90345293141E+02  0.31149202435E+02 -0.44805488544E+02  0.10554656133E+03  0.00000000000E+00 0.  1.
</event>
<event>
 7    1  0.6176857E-006  0.1160617E+03  0.7818608E-02  0.1256670E+00
          2   -1    0    0  502    0  0.00000000000E+00  0.00000000000E+00  0.46774257939E+03  0.46774257939E+03  0.00000000000E+00 0. -1.
          1   -1    0    0  501    0 -0.00000000000E+00 -0.00000000000E+00 -0.10813402055E+04  0.10813402055E+04  0.00000000000E+00 0. -1.
         25    2    1    2    0    0 -0.39104599273E+01 -0.15460117355E+02 -0.28819664627E+03  0.31454227009E+03  0.12500090332E+03 0.  0.
          2    1    1    2  501    0 -0.99247718990E+02 -0.43437694118E+02 -0.76834482100E+03  0.77594504119E+03  0.00000000000E+00 0. -1.
          1    1    1    2  502    0  0.10315817892E+03  0.58897811473E+02  0.44294384111E+03  0.45859547365E+03  0.00000000000E+00 0. -1.
         22    1    3    3    0    0  0.25643398097E+00 -0.70195009068E+02 -0.14258538097E+03  0.15892764367E+03  0.00000000000E+00 0.  1.
         22    1    3    3    0    0 -0.41668939083E+01  0.54734891713E+02 -0.14561126530E+03  0.15561462642E+03  0.00000000000E+00 0.  1.
</event>
<event>
 7    1  0.6176857E-006  0.7018795E+02  0.7818608E-02  0.1373625E+00
          2   -1    0    0  502    0  0.00000000000E+00  0.00000000000E+00  0.48498001712E+04  0.48498001712E+04  0.00000000000E+00 0. -1.
          1   -1    0    0  501    0 -0.00000000000E+00 -0.00000000000E+00 -0.10713689320E+04  0.10713689320E+04  0.00000000000E+00 0. -1.
         25    2    1    2    0    0  0.98450773980E+02 -0.33950597728E+02 -0.93166966933E+02  0.18748209626E+03  0.12499701879E+03 0.  0.
          2    1    1    2  501    0 -0.31217476466E+02  0.54008411936E+02 -0.92974289851E+03  0.93183329879E+03  0.00000000000E+00 0. -1.
          1    1    1    2  502    0 -0.67233297514E+02 -0.20057814208E+02  0.48013411046E+04  0.48018537082E+04  0.00000000000E+00 0. -1.
         22    1    3    3    0    0  0.82349588989E+02 -0.43880591600E+02 -0.92018181978E+00  0.93315635670E+02  0.00000000000E+00 0.  1.
         22    1    3    3    0    0  0.16101184991E+02  0.99299938722E+01 -0.92246785113E+02  0.94166460591E+02  0.00000000000E+00 0.  1.
</event>
<event>
 7    1  0.6176857E-006  0.9543144E+02  0.7818608E-02  0.1376295E+00
          2   -1    0    0  502    0  0.00000000000E+00  0.00000000000E+00  0.96801665904E+03  0.96801665904E+03  0.00000000000E+00 0. -1.
          1   -1    0    0  501    0 -0.00000000000E+00 -0.00000000000E+00 -0.76852802825E+02  0.76852802825E+02  0.00000000000E+00 0. -1.
         25    2    1    2    0    0 -0.11615296781E+03 -0.45159114951E+02  0.39614210387E+03  0.43368589452E+03  0.12499612416E+03 0.  0.
          2    1    1    2  501    0  0.43949251160E+02 -0.91159545726E+01 -0.45059788564E+02  0.63600486246E+02  0.00000000000E+00 0. -1.
          1    1    1    2  502    0  0.72203716653E+02  0.54275069524E+02  0.54008154091E+03  0.54758308109E+03  0.00000000000E+00 0. -1.
         22    1    3    3    0    0 -0.85259824968E+02 -0.88656262598E+02  0.26780593947E+03  0.29470186947E+03  0.00000000000E+00 0.  1.
         22    1    3    3    0    0 -0.30893142844E+02  0.43497147647E+02  0.12833616439E+03  0.13898402505E+03  0.00000000000E+00 0.  1.
</event>
<event>
 7    1  0.6176857E-006  0.5943670E+02  0.7818608E-02  0.1415997E+00
          2   -1    0    0  502    0  0.00000000000E+00  0.00000000000E+00  0.37263409818E+02  0.37263409818E+02  0.00000000000E+00 0. -1.
          1   -1    0    0  501    0 -0.00000000000E+00 -0.00000000000E+00 -0.86955345496E+03  0.86955345496E+03  0.00000000000E+00 0. -1.
         25    2    1    2    0    0  0.90945784874E+01 -0.84940605823E+01 -0.52266175716E+03  0.53754527099E+03  0.12499898214E+03 0.  0.
          2    1    1    2  501    0  0.75232773608E+01 -0.51988759999E+02 -0.30147777884E+03  0.30602006798E+03  0.00000000000E+00 0. -1.
          1    1    1    2  502    0 -0.16617855848E+02  0.60482820581E+02 -0.81505091343E+01  0.63251525812E+02  0.00000000000E+00 0. -1.
         22    1    3    3    0    0  0.28629822409E+02  0.54112088156E+01 -0.22510231465E+02  0.36819267139E+02  0.00000000000E+00 0. -1.
         22    1    3    3    0    0 -0.19535243921E+02 -0.13905269398E+02 -0.50015152570E+03  0.50072600385E+03  0.00000000000E+00 0. -1.
</event>
<event>
 7    1  0.6176857E-006  0.1012693E+03  0.7818608E-02  0.1328337E+00
          2   -1    0    0  502    0  0.00000000000E+00  0.00000000000E+00  0.15405838052E+04  0.15405838052E+04  0.00000000000E+00 0. -1.
          1   -1    0    0  501    0 -0.00000000000E+00 -0.00000000000E+00 -0.77844379872E+03  0.77844379872E+03  0.00000000000E+00 0. -1.
         25    2    1    2    0    0  0.81561796423E+02  0.12998473636E+03  0.26242467302E+02  0.19965526420E+03  0.12500079643E+03 0.  0.
          2    1    1    2  501    0 -0.27938995070E+02 -0.95791237354E+02 -0.68742525736E+03  0.69462942139E+03  0.00000000000E+00 0. -1.
          1    1    1    2  502    0 -0.53622801354E+02 -0.34193499009E+02  0.14233227965E+04  0.14247429183E+04  0.00000000000E+00 0. -1.
         22    1    3    3    0    0  0.40745719942E+01 -0.42648430258E+01  0.43311357352E+02  0.43711150735E+02  0.00000000000E+00 0.  1.
         22    1    3    3    0    0  0.77487224429E+02  0.13424957939E+03 -0.17068890050E+02  0.15594411346E+03  0.00000000000E+00 0.  1.
</event>
<event>
 7    1  0.6176857E-006  0.4873285E+02  0.7818608E-02  0.1551173E+00
          2   -1    0    0  502    0  0.00000000000E+00  0.00000000000E+00  0.13634301340E+03  0.13634301340E+03  0.00000000000E+00 0. -1.
          1   -1    0    0  501    0 -0.00000000000E+00 -0.00000000000E+00 -0.64386738033E+03  0.64386738033E+03  0.00000000000E+00 0. -1.
         25    2    1    2    0    0  0.44080374279E+02 -0.21162290661E+02 -0.18574842932E+03  0.22917037527E+03  0.12500263982E+03 0.  0.
          2    1    1    2  501    0 -0.28250206915E+02  0.40155419044E+02 -0.43367324229E+03  0.43644359653E+03  0.00000000000E+00 0. -1.
          1    1    1    2  502    0 -0.15830167364E+02 -0.18993128382E+02  0.11189730469E+03  0.11459642194E+03  0.00000000000E+00 0. -1.
         22    1    3    3    0    0  0.40235085955E+02  0.14303086501E+02 -0.28186092976E+01  0.42794684058E+02  0.00000000000E+00 0.  1.
         22    1    3    3    0    0  0.38452883241E+01 -0.35465377162E+02 -0.18292982003E+03  0.18637569121E+03  0.00000000000E+00 0.  1.
</event>
<event>
 7    1  0.6176857E-006  0.1462156E+03  0.7818608E-02  0.1236316E+00
          2   -1    0    0  502    0  0.00000000000E+00  0.00000000000E+00  0.18202915914E+04  0.18202915914E+04  0.00000000000E+00 0. -1.
          1   -1    0    0  501    0 -0.00000000000E+00 -0.00000000000E+00 -0.25628378986E+03  0.25628378986E+03  0.00000000000E+00 0. -1.
         25    2    1    2    0    0  0.12827286934E+03  0.19501648621E+03  0.48511637896E+02  0.26918971941E+03  0.12499746847E+03 0.  0.
          2    1    1    2  501    0 -0.84999719030E+02 -0.98789345623E+02 -0.11480178841E+03  0.17367710749E+03  0.00000000000E+00 0. -1.
          1    1    1    2  502    0 -0.43273150311E+02 -0.96227140588E+02  0.16302979520E+04  0.16337085543E+04  0.00000000000E+00 0. -1.
         22    1    3    3    0    0  0.15033178224E+03  0.18976102793E+03  0.43598062591E+02  0.24598716132E+03  0.00000000000E+00 0. -1.
         22    1    3    3    0    0 -0.22058912895E+02  0.52554582771E+01  0.49135753045E+01  0.23202558094E+02  0.00000000000E+00 0. -1.
</event>
<event>
 7    1  0.6176857E-006  0.1327507E+03  0.7818608E-02  0.1339485E+00
          2   -1    0    0  502    0  0.00000000000E+00  0.00000000000E+00  0.18934025934E+03  0.18934025934E+03  0.00000000000E+00 0. -1.
          1   -1    0    0  501    0 -0.00000000000E+00 -0.00000000000E+00 -0.10517449644E+04  0.10517449644E+04  0.00000000000E+00 0. -1.
         25    2    1    2    0    0  0.81978776965E+02 -0.99154055922E+02 -0.13552093285E+03  0.22482330309E+03  0.12501019036E+03 0.  0.
          2    1    1    2  501    0 -0.46759194398E+02  0.12554366011E+03 -0.86293369318E+03  0.87327097265E+03  0.00000000000E+00 0. -1.
          1    1    1    2  502    0 -0.35219582566E+02 -0.26389604185E+02  0.13604992099E+03  0.14299094798E+03  0.00000000000E+00 0. -1.
         22    1    3    3    0    0  0.55190003230E+02 -0.33606611266E+02  0.76799040366E+01  0.65071665903E+02  0.00000000000E+00 0.  1.
         22    1    3    3    0    0  0.26788773734E+02 -0.65547444656E+02 -0.14320083688E+03  0.15975163719E+03  0.00000000000E+00 0.  1.
</event>
<event>
 7    1  0.6176857E-006  0.4973815E+02  0.7818608E-02  0.1536351E+00
          2   -1    0    0  502    0  0.00000000000E+00  0.00000000000E+00  0.11619465186E+03  0.11619465186E+03  0.00000000000E+00 0. -1.
          1   -1    0    0  501    0 -0.00000000000E+00 -0.00000000000E+00 -0.41182522960E+03  0.41182522960E+03  0.00000000000E+00 0. -1.
         25    2    1    2    0    0 -0.50249460477E+02  0.56124328877E+02  0.19104797739E+02  0.14719000899E+03  0.12499982751E+03 0.  0.
          2    1    1    2  501    0  0.35885631066E+02 -0.33657344467E+02 -0.34033016625E+03  0.34386802324E+03  0.00000000000E+00 0. -1.
          1    1    1    2  502    0  0.14363829412E+02 -0.22466984409E+02  0.25594790773E+02  0.36961849230E+02  0.00000000000E+00 0. -1.
         22    1    3    3    0    0  0.36915997637E+02 -0.79070725697E+01  0.35333855893E+01  0.37918300224E+02  0.00000000000E+00 0.  1.
         22    1    3    3    0    0 -0.87165458114E+02  0.64031401446E+02  0.15571412149E+02  0.10927170876E+03  0.00000000000E+00 0.  1.
</event>
<event>
 7    1  0.6176857E-006  0.1231170E+03  0.7818608E-02  0.1309105E+00
          2   -1    0    0  502    0  0.00000000000E+00  0.00000000000E+00  0.20021589120E+04  0.20021589120E+04  0.00000000000E+00 0. -1.
          1   -1    0    0  501    0 -0.00000000000E+00 -0.00000000000E+00 -0.55497214788E+03  0.55497214788E+03  0.00000000000E+00 0. -1.
         25    2    1    2    0    0  0.58637665743E+02  0.18031986329E+02  0.15888171339E+04  0.15949071416E+04  0.12500150813E+03 0.  0.
          2    1    1    2  501    0 -0.11931602537E+03 -0.31428926292E+02 -0.54260806334E+03  0.55645988330E+03  0.00000000000E+00 0. -1.
          1    1    1    2  502    0  0.60678359627E+02  0.13396939963E+02  0.40097769359E+03  0.40576403498E+03  0.00000000000E+00 0. -1.
         22    1    3    3    0    0 -0.31308014147E+01 -0.80856074041E+01  0.12207201132E+04  0.12207509057E+04  0.00000000000E+00 0. -1.
         22    1    3    3    0    0  0.61768467157E+02  0.26117593733E+02  0.36809702069E+03  0.37415623592E+03  0.00000000000E+00 0. -1.
</event>
<event>
 7    1  0.6176857E-006  0.1199644E+03  0.7818608E-02  0.1372807E+00
          2   -1    0    0  502    0  0.00000000000E+00  0.00000000000E+00  0.14590804284E+04  0.14590804284E+04  0.00000000000E+00 0. -1.
          1   -1    0    0  501    0 -0.00000000000E+00 -0.00000000000E+00 -0.82497515949E+03  0.82497515949E+03  0.00000000000E+00 0. -1.
         25    2    1    2    0    0 -0.12800278421E+03 -0.80345506778E+02 -0.21839817739E+03  0.29353366058E+03  0.12499653107E+03 0.  0.
          2    1    1    2  501    0  0.93896970653E+02  0.66672703769E+02 -0.56294162379E+03  0.57460000202E+03  0.00000000000E+00 0. -1.
          1    1    1    2  502    0  0.34105813555E+02  0.13672803009E+02  0.14154450701E+04  0.14159219253E+04  0.00000000000E+00 0. -1.
         22    1    3    3    0    0 -0.14420005072E+03 -0.46553360781E+02 -0.13851631642E+03  0.20529890390E+03  0.00000000000E+00 0.  1.
         22    1    3    3    0    0  0.16197266515E+02 -0.33792145997E+02 -0.79881860969E+02  0.88234756675E+02  0.00000000000E+00 0.  1.
</event>
<event>
 7    1  0.6176857E-006  0.6522749E+02  0.7818608E-02  0.1467611E+00
          2   -1    0    0  502    0  0.00000000000E+00  0.00000000000E+00  0.11040541059E+04  0.11040541059E+04  0.00000000000E+00 0. -1.
          1   -1    0    0  501    0 -0.00000000000E+00 -0.00000000000E+00 -0.40900501268E+03  0.40900501268E+03  0.00000000000E+00 0. -1.
         25    2    1    2    0    0 -0.27838910923E+02 -0.29112767720E+02 -0.12309503128E+03  0.18000137793E+03  0.12500220448E+03 0.  0.
          2    1    1    2  501    0  0.59756623526E+02  0.35630900445E+02 -0.25250431769E+03  0.26191381325E+03  0.00000000000E+00 0. -1.
          1    1    1    2  502    0 -0.31917712603E+02 -0.65181327249E+01  0.10706484422E+04  0.10711439274E+04  0.00000000000E+00 0. -1.
         22    1    3    3    0    0  0.66187996871E+01 -0.32515060080E+02 -0.13827073763E+03  0.14219646453E+03  0.00000000000E+00 0.  1.
         22    1    3    3    0    0 -0.34457710610E+02  0.34022923608E+01  0.15175706345E+02  0.37804913396E+02  0.00000000000E+00 0.  1.
</event>
<event>
 7    1  0.6176857E-006  0.1068381E+03  0.7818608E-02  0.1393828E+00
          2   -1    0    0  502    0  0.00000000000E+00  0.00000000000E+00  0.26929576447E+04  0.26929576447E+04  0.00000000000E+00 0. -1.
          1   -1    0    0  501    0 -0.00000000000E+00 -0.00000000000E+00 -0.25697387017E+03  0.25697387017E+03  0.00000000000E+00 0. -1.
         25    2    1    2    0    0 -0.64479639741E+02 -0.34554498454E+02  0.54363558701E+03  0.56259830689E+03  0.12500226459E+03 0.  0.
          2    1    1    2  501    0  0.97609870517E+02  0.45165190337E+02 -0.23565884959E+03  0.25904183954E+03  0.00000000000E+00 0. -1.
          1    1    1    2  502    0 -0.33130230776E+02 -0.10610691884E+02  0.21280070371E+04  0.21282913684E+04  0.00000000000E+00 0. -1.
         22    1    3    3    0    0 -0.16533810303E+02  0.39177162394E+02  0.79052520700E+02  0.89763678431E+02  0.00000000000E+00 0.  1.
         22    1    3    3    0    0 -0.47945829438E+02 -0.73731660848E+02  0.46458306631E+03  0.47283462846E+03  0.00000000000E+00 0.  1.
</event>
<event>
 7    1  0.7522584E-006  0.6770138E+02  0.7818608E-02  0.1376596E+00
          2   -1    0    0  502    0  0.00000000000E+00  0.00000000000E+00  0.65095001014E+03  0.65095001014E+03  0.00000000000E+00 0. -1.
          1   -1    0    0  501    0 -0.00000000000E+00 -0.00000000000E+00 -0.16366471340E+04  0.16366471340E+04  0.00000000000E+00 0. -1.
         25    2    1    2    0    0 -0.54786151731E+02  0.93324128992E+02 -0.21967724010E+03  0.27494561572E+03  0.12500434516E+03 0.  0.
          2    1    1    2  501    0 -0.54864012635E+01 -0.62874150062E+02 -0.13867869748E+04  0.13882223787E+04  0.00000000000E+00 0. -1.
          1    1    1    2  502    0  0.60272552994E+02 -0.30449978930E+02  0.62076709096E+03  0.62442914977E+03  0.00000000000E+00 0. -1.
         22    1    3    3    0    0 -0.40033730660E+02  0.82654070974E+02 -0.23425983551E+03  0.25161888954E+03  0.00000000000E+00 0. -1.
         22    1    3    3    0    0 -0.14752421070E+02  0.10670058018E+02  0.14582595405E+02  0.23326726180E+02  0.00000000000E+00 0. -1.
</event>
<event>
 7    1  0.6176857E-006  0.8143837E+02  0.7818608E-02  0.1353109E+00
          2   -1    0    0  502    0  0.00000000000E+00  0.00000000000E+00  0.29161511626E+03  0.29161511626E+03  0.00000000000E+00 0. -1.
          1   -1    0    0  501    0 -0.00000000000E+00 -0.00000000000E+00 -0.74800477400E+03  0.74800477400E+03  0.00000000000E+00 0. -1.
         25    2    1    2    0    0 -0.97561562562E+02 -0.66411570589E+02  0.96954705416E+02  0.19737054296E+03  0.12500464442E+03 0.  0.
          2    1    1    2  501    0  0.80969975355E+02  0.47815650368E+01 -0.68824718941E+03  0.69301024091E+03  0.00000000000E+00 0. -1.
          1    1    1    2  502    0  0.16591587208E+02  0.61630005552E+02  0.13490282625E+03  0.14923910640E+03  0.00000000000E+00 0. -1.
         22    1    3    3    0    0 -0.85272772998E+02 -0.57215902460E+02  0.12718564840E+03  0.16346649341E+03  0.00000000000E+00 0. -1.
         22    1    3    3    0    0 -0.12288789565E+02 -0.91956681287E+01 -0.30230942989E+02  0.33904049541E+02  0.00000000000E+00 0. -1.
</event>
<event>
 7    1  0.6176857E-006  0.8094499E+02  0.7818608E-02  0.1395057E+00
          2   -1    0    0  502    0  0.00000000000E+00  0.00000000000E+00  0.60174412402E+03  0.60174412402E+03  0.00000000000E+00 0. -1.
          1   -1    0    0  501    0 -0.00000000000E+00 -0.00000000000E+00 -0.37878252128E+03  0.37878252128E+03  0.00000000000E+00 0. -1.
         25    2    1    2    0    0 -0.13571648115E+02 -0.10319008697E+03 -0.46219001502E+02  0.16909817222E+03  0.12500244825E+03 0.  0.
          2    1    1    2  501    0  0.41875419564E+02  0.67606368278E+02 -0.26430460069E+03  0.27600922764E+03  0.00000000000E+00 0. -1.
          1    1    1    2  502    0 -0.28303771449E+02  0.35583718687E+02  0.53348520493E+03  0.53541924544E+03  0.00000000000E+00 0. -1.
         22    1    3    3    0    0 -0.24988718459E+02 -0.87318739659E+02 -0.85805831008E+02  0.12494654449E+03  0.00000000000E+00 0.  1.
         22    1    3    3    0    0  0.11417070343E+02 -0.15871347307E+02  0.39586829505E+02  0.44151627726E+02  0.00000000000E+00 0.  1.
</event>
<event>
 7    1  0.6176857E-006  0.2414566E+03  0.7818608E-02  0.1193271E+00
          2   -1    0    0  502    0  0.00000000000E+00  0.00000000000E+00  0.66917287782E+03  0.66917287782E+03  0.00000000000E+00 0. -1.
          1   -1    0    0  501    0 -0.00000000000E+00 -0.00000000000E+00 -0.55808161954E+03  0.55808161954E+03  0.00000000000E+00 0. -1.
         25    2    1    2    0    0 -0.10728174276E+03 -0.21972721216E+03 -0.86183535385E+02  0.28782204467E+03  0.12499803011E+03 0.  0.
          2    1    1    2  501    0  0.18789411595E+03  0.15919831592E+03 -0.32486040995E+03  0.40765498716E+03  0.00000000000E+00 0. -1.
          1    1    1    2  502    0 -0.80612373188E+02  0.60528896241E+02  0.52213520362E+03  0.53177746553E+03  0.00000000000E+00 0. -1.
         22    1    3    3    0    0 -0.41145075027E+02 -0.17120913295E+03 -0.10793655351E+02  0.17641424942E+03  0.00000000000E+00 0.  1.
         22    1    3    3    0    0 -0.66136667735E+02 -0.48518079215E+02 -0.75389880034E+02  0.11140779524E+03  0.00000000000E+00 0.  1.
</event>
<event>
 7    1  0.6176857E-006  0.1116607E+03  0.7818608E-02  0.1335154E+00
          2   -1    0    0  502    0  0.00000000000E+00  0.00000000000E+00  0.15333752286E+04  0.15333752286E+04  0.00000000000E+00 0. -1.
          1   -1    0    0  501    0 -0.00000000000E+00 -0.00000000000E+00 -0.10972188416E+03  0.10972188416E+03  0.00000000000E+00 0. -1.
         25    2    1    2    0    0  0.44173910139E+02 -0.74672791400E+02  0.10220821914E+04  0.10333465223E+04  0.12500267572E+03 0.  0.
          2    1    1    2  501    0 -0.96141215287E+02  0.58823867806E+02 -0.71561881223E+02  0.13350836507E+03  0.00000000000E+00 0. -1.
          1    1    1    2  502    0  0.51967305149E+02  0.15848923594E+02  0.47313303420E+03  0.47624222538E+03  0.00000000000E+00 0. -1.
         22    1    3    3    0    0  0.81336100262E+02 -0.60330974217E+02  0.87928868111E+03  0.88510110857E+03  0.00000000000E+00 0.  1.
         22    1    3    3    0    0 -0.37162190123E+02 -0.14341817183E+02  0.14279351032E+03  0.14824541370E+03  0.00000000000E+00 0.  1.
</event>
<event>
 7    1  0.6176857E-006  0.2460076E+03  0.7818608E-02  0.1177015E+00
          2   -1    0    0  502    0  0.00000000000E+00  0.00000000000E+00  0.36167850079E+03  0.36167850079E+03  0.00000000000E+00 0. -1.
          1   -1    0    0  501    0 -0.00000000000E+00 -0.00000000000E+00 -0.14222756527E+04  0.14222756527E+04  0.00000000000E+00 0. -1.
         25    2    1    2    0    0  0.23410467325E+03  0.60666842256E+01 -0.18091914617E+03  0.32124548903E+03  0.12500049631E+03 0.  0.
          2    1    1    2  501    0 -0.22658513133E+03  0.11228012883E+03 -0.11447350053E+04  0.11723335197E+04  0.00000000000E+00 0. -1.
          1    1    1    2  502    0 -0.75195419238E+01 -0.11834681305E+03  0.26505699956E+03  0.29037514475E+03  0.00000000000E+00 0. -1.
         22    1    3    3    0    0  0.16725984850E+03 -0.72285752659E+01 -0.18914760171E+03  0.25259636667E+03  0.00000000000E+00 0.  1.
         22    1    3    3    0    0  0.66844824750E+02  0.13295259492E+02  0.82284555398E+01  0.68649122364E+02  0.00000000000E+00 0.  1.
</event>
<event>
 7    1  0.6176857E-006  0.3282248E+02  0.7818608E-02  0.1578115E+00
          2   -1    0    0  502    0  0.00000000000E+00  0.00000000000E+00  0.63291569352E+02  0.63291569352E+02  0.00000000000E+00 0. -1.
          1   -1    0    0  501    0 -0.00000000000E+00 -0.00000000000E+00 -0.17490814734E+04  0.17490814734E+04  0.00000000000E+00 0. -1.
         25    2    1    2    0    0  0.51082625037E+01  0.22064294348E+00 -0.74383560060E+03  0.75428320764E+03  0.12500245427E+03 0.  0.
          2    1    1    2  501    0  0.89052806834E+01  0.29671629423E+02 -0.99506897000E+03  0.99555108592E+03  0.00000000000E+00 0. -1.
          1    1    1    2  502    0 -0.14013543187E+02 -0.29892272366E+02  0.53114666588E+02  0.62538749161E+02  0.00000000000E+00 0. -1.
         22    1    3    3    0    0  0.32021008852E+02  0.50821399646E+02 -0.24915075886E+03  0.25628940733E+03  0.00000000000E+00 0.  1.
         22    1    3    3    0    0 -0.26912746348E+02 -0.50600756703E+02 -0.49468484174E+03  0.49799380031E+03  0.00000000000E+00 0.  1.
</event>
<event>
 7    1  0.6176857E-006  0.1099446E+03  0.7818608E-02  0.1371391E+00
          2   -1    0    0  502    0  0.00000000000E+00  0.00000000000E+00  0.12160064284E+04  0.12160064284E+04  0.00000000000E+00 0. -1.
          1   -1    0    0  501    0 -0.00000000000E+00 -0.00000000000E+00 -0.12924961113E+03  0.12924961113E+03  0.00000000000E+00 0. -1.
         25    2    1    2    0    0 -0.18066968849E+02 -0.14524897487E+03  0.26553612246E+03  0.32795932947E+03  0.12499683753E+03 0.  0.
          2    1    1    2  501    0  0.10597019726E+02  0.39155751766E+02 -0.90614571436E+02  0.99279757655E+02  0.00000000000E+00 0. -1.
          1    1    1    2  502    0  0.74699491227E+01  0.10609322310E+03  0.91183526627E+03  0.91801695242E+03  0.00000000000E+00 0. -1.
         22    1    3    3    0    0  0.24927352479E+02 -0.13354219167E+03  0.24210598140E+03  0.27761519427E+03  0.00000000000E+00 0.  1.
         22    1    3    3    0    0 -0.42994321328E+02 -0.11706783192E+02  0.23430141062E+02  0.50344135203E+02  0.00000000000E+00 0.  1.
</event>
<event>
 7    1  0.1252467E-005  0.7593323E+02  0.7818608E-02  0.1447182E+00
          2   -1    0    0  502    0  0.00000000000E+00  0.00000000000E+00  0.18771222045E+04  0.18771222045E+04  0.00000000000E+00 0. -1.
          1   -1    0    0  501    0 -0.00000000000E+00 -0.00000000000E+00 -0.29733101742E+04  0.29733101742E+04  0.00000000000E+00 0. -1.
         25    2    1    2    0    0  0.19795124362E+02  0.48674634531E+02 -0.57805458222E+03  0.59374449698E+03  0.12499744266E+03 0.  0.
          2    1    1    2  501    0  0.31668411644E+02  0.72065495068E+01 -0.23865282471E+04  0.23867492321E+04  0.00000000000E+00 0. -1.
          1    1    1    2  502    0 -0.51463536007E+02 -0.55881184037E+02  0.18683948596E+04  0.18699386497E+04  0.00000000000E+00 0. -1.
         22    1    3    3    0    0 -0.16712903031E+02  0.28236641503E+02 -0.52571138883E+03  0.52673436702E+03  0.00000000000E+00 0.  1.
         22    1    3    3    0    0  0.36508027394E+02  0.20437993028E+02 -0.52343193393E+02  0.67010129964E+02  0.00000000000E+00 0.  1.
</event>
<event>
 7    1  0.6176857E-006  0.3967083E+02  0.7818608E-02  0.1555955E+00
          2   -1    0    0  502    0  0.00000000000E+00  0.00000000000E+00  0.52638240900E+03  0.52638240900E+03  0.00000000000E+00 0. -1.
          1   -1    0    0  501    0 -0.00000000000E+00 -0.00000000000E+00 -0.77482402173E+03  0.77482402173E+03  0.00000000000E+00 0. -1.
         25    2    1    2    0    0  0.13548653574E+02 -0.35889524875E+02  0.19451645349E+03  0.23437712472E+03  0.12499744760E+03 0.  0.
          2    1    1    2  501    0  0.22936388671E+02  0.18485853949E+02 -0.75329498138E+03  0.75387076724E+03  0.00000000000E+00 0. -1.
          1    1    1    2  502    0 -0.36485042245E+02  0.17403670926E+02  0.31033691516E+03  0.31295853876E+03  0.00000000000E+00 0. -1.
         22    1    3    3    0    0  0.15843267663E+02 -0.81710296519E+02  0.14243337064E+03  0.16496922974E+03  0.00000000000E+00 0.  1.
         22    1    3    3    0    0 -0.22946140898E+01  0.45820771644E+02  0.52083082849E+02  0.69407894990E+02  0.00000000000E+00 0.  1.
</event>
<event>
 7    1  0.6176857E-006  0.6526666E+02  0.7818608E-02  0.1402062E+00
          2   -1    0    0  502    0  0.00000000000E+00  0.00000000000E+00  0.16865975066E+03  0.16865975066E+03  0.00000000000E+00 0. -1.
          1   -1    0    0  501    0 -0.00000000000E+00 -0.00000000000E+00 -0.91224977014E+03  0.91224977014E+03  0.00000000000E+00 0. -1.
         25    2    1    2    0    0  0.43659481863E+02  0.34567588564E+02 -0.76650078861E+03  0.77861907739E+03  0.12499256060E+03 0.  0.
          2    1    1    2  501    0 -0.65763733169E+02  0.26842012887E+02 -0.12323115605E+03  0.14223670440E+03  0.00000000000E+00 0. -1.
          1    1    1    2  502    0  0.22104251306E+02 -0.61409601451E+02  0.14614192518E+03  0.16005373901E+03  0.00000000000E+00 0. -1.
         22    1    3    3    0    0  0.51361176121E+02  0.18543990713E+02 -0.75600318622E+03  0.75797273538E+03  0.00000000000E+00 0.  1.
         22    1    3    3    0    0 -0.77016942588E+01  0.16023597851E+02 -0.10497602387E+02  0.20646342011E+02  0.00000000000E+00 0.  1.
</event>
<event>
 7    1  0.6176857E-006  0.7090697E+02  0.7818608E-02  0.1363290E+00
          2   -1    0    0  502    0  0.00000000000E+00  0.00000000000E+00  0.95494004785E+02  0.95494004785E+02  0.00000000000E+00 0. -1.
          1   -1    0    0  501    0 -0.00000000000E+00 -0.00000000000E+00 -0.27613095655E+03  0.27613095655E+03  0.00000000000E+00 0. -1.
         25    2    1    2    0    0 -0.15249881917E+02 -0.56484606793E+01 -0.64113560430E+02  0.14142180862E+03  0.12500046126E+03 0.  0.
          2    1    1    2  501    0 -0.66074800057E+02 -0.25727788229E+02 -0.12386746037E+03  0.14272682309E+03  0.00000000000E+00 0. -1.
          1    1    1    2  502    0  0.81324681974E+02  0.31376248909E+02  0.73440690444E+01  0.87476329621E+02  0.00000000000E+00 0. -1.
         22    1    3    3    0    0 -0.49086671936E+02 -0.22344052714E+02  0.13083428181E+02  0.55497154399E+02  0.00000000000E+00 0. -1.
         22    1    3    3    0    0  0.33836790019E+02  0.16695592035E+02 -0.77196988611E+02  0.85924654220E+02  0.00000000000E+00 0. -1.
</event>
<event>
 7    1  0.6176857E-006  0.1205113E+03  0.7818608E-02  0.1348849E+00
          2   -1    0    0  502    0  0.00000000000E+00  0.00000000000E+00  0.13080444670E+03  0.13080444670E+03  0.00000000000E+00 0. -1.
          1   -1    0    0  501    0 -0.00000000000E+00 -0.00000000000E+00 -0.11368247769E+04  0.11368247769E+04  0.00000000000E+00 0. -1.
         25    2    1    2    0    0  0.30151672422E+02 -0.11756718341E+03 -0.21616675730E+03  0.27763959225E+03  0.12499804104E+03 0.  0.
          2    1    1    2  501    0 -0.70689511338E+02  0.98673138513E+02 -0.88054395356E+03  0.88887065956E+03  0.00000000000E+00 0. -1.
          1    1    1    2  502    0  0.40537838916E+02  0.18894044893E+02  0.90690380642E+02  0.10111897180E+03  0.00000000000E+00 0. -1.
         22    1    3    3    0    0 -0.38392730217E+02 -0.24539439276E+01 -0.66008272786E+02  0.76401018648E+02  0.00000000000E+00 0. -1.
         22    1    3    3    0    0  0.68544402639E+02 -0.11511323948E+03 -0.15015848451E+03  0.20123857361E+03  0.00000000000E+00 0. -1.
</event>
<event>
 7    1  0.6176857E-006  0.4066606E+02  0.7818608E-02  0.1610818E+00
          2   -1    0    0  502    0  0.00000000000E+00  0.00000000000E+00  0.10475665285E+04  0.10475665285E+04  0.00000000000E+00 0. -1.
          1   -1    0    0  501    0 -0.00000000000E+00 -0.00000000000E+00 -0.53674689788E+02  0.53674689788E+02  0.00000000000E+00 0. -1.
         25    2    1    2    0    0 -0.36123282527E+02  0.17946068705E+02  0.16682791655E+03  0.21232866002E+03  0.12499981282E+03 0.  0.
          2    1    1    2  501    0  0.40988237306E+02  0.19772910779E+01 -0.17131291824E+02  0.44468263256E+02  0.00000000000E+00 0. -1.
          1    1    1    2  502    0 -0.48649547792E+01 -0.19923359783E+02  0.84419521396E+03  0.84444429497E+03  0.00000000000E+00 0. -1.
         22    1    3    3    0    0  0.15322477558E+02 -0.20538589491E+02  0.14062952877E+03  0.14294501160E+03  0.00000000000E+00 0.  1.
         22    1    3    3    0    0 -0.51445760085E+02  0.38484658196E+02  0.26198387772E+02  0.69383648427E+02  0.00000000000E+00 0.  1.
</event>
<event>
 7    1  0.6176857E-006  0.6431580E+02  0.7818608E-02  0.1468785E+00
          2   -1    0    0  502    0  0.00000000000E+00  0.00000000000E+00  0.15154788536E+04  0.15154788536E+04  0.00000000000E+00 0. -1.
          1   -1    0    0  501    0 -0.00000000000E+00 -0.00000000000E+00 -0.18713948713E+02  0.18713948713E+02  0.00000000000E+00 0. -1.
         25    2    1    2    0    0  0.39699775523E+02 -0.81926105283E+02  0.43797270343E+03  0.46446967604E+03  0.12499612837E+03 0.  0.
          2    1    1    2  501    0 -0.11495183865E+01  0.32740711993E+02  0.55218473544E+02  0.64205571681E+02  0.00000000000E+00 0. -1.
          1    1    1    2  502    0 -0.38550257136E+02  0.49185393290E+02  0.10035737279E+04  0.10055175546E+04  0.00000000000E+00 0. -1.
         22    1    3    3    0    0  0.73460500608E+02 -0.92084778517E+02  0.36270268113E+03  0.38135191947E+03  0.00000000000E+00 0. -1.
         22    1    3    3    0    0 -0.33760725085E+02  0.10158673234E+02  0.75270022299E+02  0.83117756569E+02  0.00000000000E+00 0. -1.
</event>
<event>
 7    1  0.6176857E-006  0.8300406E+02  0.7818608E-02  0.1379651E+00
          2   -1    0    0  502    0  0.00000000000E+00  0.00000000000E+00  0.11643983173E+03  0.11643983173E+03  0.00000000000E+00 0. -1.
          1   -1    0    0  501    0 -0.00000000000E+00 -0.00000000000E+00 -0.47358225774E+03  0.47358225774E+03  0.00000000000E+00 0. -1.
         25    2    1    2    0    0 -0.78279694443E+02  0.36311893875E+02 -0.21500822720E+03  0.26324882768E+03  0.12500057325E+03 0.  0.
          2    1    1    2  501    0  0.84578628530E+02  0.13498706719E+02 -0.21889276393E+03  0.23505276341E+03  0.00000000000E+00 0. -1.
          1    1    1    2  502    0 -0.62989340873E+01 -0.49810600593E+02  0.76758565122E+02  0.91720498372E+02  0.00000000000E+00 0. -1.
         22    1    3    3    0    0  0.47147019372E+01  0.29215477893E+02 -0.16162852914E+03  0.16431541010E+03  0.00000000000E+00 0. -1.
         22    1    3    3    0    0 -0.82994396380E+02  0.70964159820E+01 -0.53379698057E+02  0.98933417584E+02  0.00000000000E+00 0. -1.
</event>
<event>
 7    1  0.6176857E-006  0.5843236E+02  0.7818608E-02  0.1417355E+00
          2   -1    0    0  502    0  0.00000000000E+00  0.00000000000E+00  0.83588680153E+03  0.83588680153E+03  0.00000000000E+00 0. -1.
          1   -1    0    0  501    0 -0.00000000000E+00 -0.00000000000E+00 -0.84072319484E+02  0.84072319484E+02  0.00000000000E+00 0. -1.
         25    2    1    2    0    0 -0.17297078342E+02 -0.21433324293E+02  0.11008195061E+03  0.16882627902E+03  0.12500280128E+03 0.  0.
          2    1    1    2  501    0 -0.16650948689E+02  0.61971143010E+02 -0.34486919089E+02  0.72849325642E+02  0.00000000000E+00 0. -1.
          1    1    1    2  502    0  0.33948027031E+02 -0.40537818716E+02  0.67621945052E+03  0.67828351635E+03  0.00000000000E+00 0. -1.
         22    1    3    3    0    0 -0.68444615761E+02 -0.19847465361E+02  0.38991310254E+02  0.81233672718E+02  0.00000000000E+00 0.  1.
         22    1    3    3    0    0  0.51147537419E+02 -0.15858589325E+01  0.71090640357E+02  0.87592606303E+02  0.00000000000E+00 0.  1.
</event>
<event>
 7    1  0.6176857E-006  0.7795918E+02  0.7818608E-02  0.1395013E+00
          2   -1    0    0  502    0  0.00000000000E+00  0.00000000000E+00  0.72281490267E+03  0.72281490267E+03  0.00000000000E+00 0. -1.
          1   -1    0    0  501    0 -0.00000000000E+00 -0.00000000000E+00 -0.22800658273E+04  0.22800658273E+04  0.00000000000E+00 0. -1.
         25    2    1    2    0    0 -0.70945326649E+01  0.30745378887E+02 -0.30448731468E+03  0.33065528226E+03  0.12499912068E+03 0.  0.
          2    1    1    2  501    0 -0.20855934400E+02  0.42371096518E+02 -0.19600509383E+04  0.19606197899E+04  0.00000000000E+00 0. -1.
          1    1    1    2  502    0  0.27950467064E+02 -0.73116475405E+02  0.70728732828E+03  0.71160565788E+03  0.00000000000E+00 0. -1.
         22    1    3    3    0    0 -0.64330290625E+02  0.31341715205E+02 -0.17629174273E+03  0.19026157773E+03  0.00000000000E+00 0. -1.
         22    1    3    3    0    0  0.57235757960E+02 -0.59633631828E+00 -0.12819557195E+03  0.14039370454E+03  0.00000000000E+00 0. -1.
</event>
<event>
 7    1  0.6176857E-006  0.6532525E+02  0.7818608E-02  0.1485867E+00
          2   -1    0    0  502    0  0.00000000000E+00  0.00000000000E+00  0.10626755043E+03  0.10626755043E+03  0.00000000000E+00 0. -1.
          1   -1    0    0  501    0 -0.00000000000E+00 -0.00000000000E+00 -0.13895561658E+04  0.13895561658E+04  0.00000000000E+00 0. -1.
         25    2    1    2    0    0  0.63014340896E+02 -0.11911693038E+02 -0.62890339712E+02  0.15392785981E+03  0.12500358238E+03 0.  0.
          2    1    1    2  501    0 -0.92265620851E+01 -0.27044857602E+02 -0.12627854576E+04  0.12631087307E+04  0.00000000000E+00 0. -1.
          1    1    1    2  502    0 -0.53787778811E+02  0.38956550640E+02  0.42387181901E+02  0.78787125704E+02  0.00000000000E+00 0. -1.
         22    1    3    3    0    0 -0.29996676514E+02  0.25423155605E+02 -0.25952289911E+02  0.47113254976E+02  0.00000000000E+00 0. -1.
         22    1    3    3    0    0  0.93011017410E+02 -0.37334848643E+02 -0.36938049801E+02  0.10681460483E+03  0.00000000000E+00 0. -1.
</event>
<event>
 7    1  0.1089875E-005  0.7560054E+02  0.7818608E-02  0.1371074E+00
          2   -1    0    0  502    0  0.00000000000E+00  0.00000000000E+00  0.18293520637E+04  0.18293520637E+04  0.00000000000E+00 0. -1.
          1   -1    0    0  501    0 -0.00000000000E+00 -0.00000000000E+00 -0.86755423883E+03  0.86755423883E+03  0.00000000000E+00 0. -1.
         25    2    1    2    0    0 -0.12416588145E+03 -0.19595103859E+02 -0.44045341102E+02  0.18266613082E+03  0.12500315623E+03 0.  0.
          2    1    1    2  501    0  0.57240754277E+02 -0.14893643554E+02 -0.75223195673E+03  0.75455367026E+03  0.00000000000E+00 0. -1.
          1    1    1    2  502    0  0.66925127168E+02  0.34488747413E+02  0.17580751227E+04  0.17596865015E+04  0.00000000000E+00 0. -1.
         22    1    3    3    0    0 -0.10496442363E+03 -0.64128498303E+02 -0.99948592454E+01  0.12340944751E+03  0.00000000000E+00 0. -1.
         22    1    3    3    0    0 -0.19201457813E+02  0.44533394444E+02 -0.34050481856E+02  0.59256683315E+02  0.00000000000E+00 0. -1.
</event>
<event>
 7    1  0.6176857E-006  0.1759637E+03  0.7818608E-02  0.1312634E+00
          2   -1    0    0  502    0  0.00000000000E+00  0.00000000000E+00  0.89103842385E+03  0.89103842385E+03  0.00000000000E+00 0. -1.
          1   -1    0    0  501    0 -0.00000000000E+00 -0.00000000000E+00 -0.31203259259E+03  0.31203259259E+03  0.00000000000E+00 0. -1.
         25    2    1    2    0    0 -0.39445054550E+02  0.14636997409E+03  0.67980285530E+03  0.70762818513E+03  0.12500257869E+03 0.  0.
          2    1    1    2  501    0  0.79934202464E+02 -0.15793676564E+03 -0.26901813944E+03  0.32203145500E+03  0.00000000000E+00 0. -1.
          1    1    1    2  502    0 -0.40489147915E+02  0.11566791545E+02  0.16822111540E+03  0.17341137631E+03  0.00000000000E+00 0. -1.
         22    1    3    3    0    0 -0.28909176037E+02  0.67935890725E+02  0.11078104285E+03  0.13312950523E+03  0.00000000000E+00 0. -1.
         22    1    3    3    0    0 -0.10535878513E+02  0.78434083368E+02  0.56902181245E+03  0.57449867990E+03  0.00000000000E+00 0. -1.
</event>
<event>
 7    1  0.6176857E-006  0.1218970E+03  0.7818608E-02  0.1396418E+00
          2   -1    0    0  502    0  0.00000000000E+00  0.00000000000E+00  0.21932509577E+03  0.21932509577E+03  0.00000000000E+00 0. -1.
          1   -1    0    0  501    0 -0.00000000000E+00 -0.00000000000E+00 -0.10390978476E+04  0.10390978476E+04  0.00000000000E+00 0. -1.
         25    2    1    2    0    0 -0.28216942235E+02  0.11018128273E+03 -0.14481707478E+03  0.22256040141E+03  0.12500014494E+03 0.  0.
          2    1    1    2  501    0  0.58043720124E+02 -0.10863191902E+03 -0.84970198893E+03  0.85858222511E+03  0.00000000000E+00 0. -1.
          1    1    1    2  502    0 -0.29826777889E+02 -0.15493637151E+01  0.17474631191E+03  0.17728031683E+03  0.00000000000E+00 0. -1.
         22    1    3    3    0    0 -0.77688527201E+02  0.77096504882E+02 -0.91633994759E+02  0.14274511312E+03  0.00000000000E+00 0.  1.
         22    1    3    3    0    0  0.49471584966E+02  0.33084777849E+02 -0.53183080025E+02  0.79815288293E+02  0.00000000000E+00 0.  1.
</event>
<event>
 7    1  0.6176857E-006  0.2074398E+03  0.7818608E-02  0.1224859E+00
          2   -1    0    0  502    0  0.00000000000E+00  0.00000000000E+00  0.18013580421E+04  0.18013580421E+04  0.00000000000E+00 0. -1.
          1   -1    0    0  501    0 -0.00000000000E+00 -0.00000000000E+00 -0.75387020535E+02  0.75387020535E+02  0.00000000000E+00 0. -1.
         25    2    1    2    0    0  0.12708740546E+03 -0.22845283507E+03  0.12974728734E+04  0.13294368310E+04  0.12499809566E+03 0.  0.
          2    1    1    2  501    0 -0.13825345658E+03  0.14550349948E+03  0.13445542474E+03  0.24158548769E+03  0.00000000000E+00 0. -1.
          1    1    1    2  502    0  0.11166051127E+02  0.82949335596E+02  0.29404272344E+03  0.30572274397E+03  0.00000000000E+00 0. -1.
         22    1    3    3    0    0 -0.23210967901E+02 -0.11924832813E+02  0.12700544807E+03  0.12965853041E+03  0.00000000000E+00 0.  1.
         22    1    3    3    0    0  0.15029837336E+03 -0.21652800226E+03  0.11704674253E+04  0.11997783006E+04  0.00000000000E+00 0.  1.
</event>
<event>
 7    1  0.6176857E-006  0.6000427E+02  0.7818608E-02  0.1401155E+00
          2   -1    0    0  502    0  0.00000000000E+00  0.00000000000E+00  0.16763469468E+04  0.16763469468E+04  0.00000000000E+00 0. -1.
          1   -1    0    0  501    0 -0.00000000000E+00 -0.00000000000E+00 -0.19951222110E+03  0.19951222110E+03  0.00000000000E+00 0. -1.
         25    2    1    2    0    0 -0.56675925956E+01 -0.10170484153E+02  0.66560611849E+03  0.67734208954E+03  0.12500096376E+03 0.  0.
          2    1    1    2  501    0 -0.43185835836E+02  0.42235137350E+02 -0.18805906903E+03  0.19752224353E+03  0.00000000000E+00 0. -1.
          1    1    1    2  502    0  0.48853428432E+02 -0.32064653197E+02  0.99928767629E+03  0.10009948349E+04  0.00000000000E+00 0. -1.
         22    1    3    3    0    0  0.36707709229E+00 -0.65242981358E+02  0.26450749911E+03  0.27243531057E+03  0.00000000000E+00 0.  1.
         22    1    3    3    0    0 -0.60346696879E+01  0.55072497205E+02  0.40109861938E+03  0.40490677897E+03  0.00000000000E+00 0.  1.
</event>
<event>
 7    1  0.6176857E-006  0.3078170E+02  0.7818608E-02  0.1595283E+00
          2   -1    0    0  502    0  0.00000000000E+00  0.00000000000E+00  0.16512825024E+04  0.16512825024E+04  0.00000000000E+00 0. -1.
          1   -1    0    0  501    0 -0.00000000000E+00 -0.00000000000E+00 -0.14539737068E+04  0.14539737068E+04  0.00000000000E+00 0. -1.
         25    2    1    2    0    0  0.44373406157E+01  0.41591580854E+02  0.23141402023E+03  0.26632162085E+03  0.12500082953E+03 0.  0.
          2    1    1    2  501    0 -0.23884721726E+02 -0.17716332836E+02 -0.14361969303E+04  0.14365047758E+04  0.00000000000E+00 0. -1.
          1    1    1    2  502    0  0.19447381111E+02 -0.23875248018E+02  0.14020917057E+04  0.14024298126E+04  0.00000000000E+00 0. -1.
         22    1    3    3    0    0  0.31647156071E+02  0.69472897324E+02  0.20629520729E+03  0.21996758512E+03  0.00000000000E+00 0.  1.
         22    1    3    3    0    0 -0.27209815455E+02 -0.27881316470E+02  0.25118812934E+02  0.46354035730E+02  0.00000000000E+00 0.  1.
</event>
<event>
 7    1  0.6176857E-006  0.4766570E+02  0.7818608E-02  0.1462876E+00
          2   -1    0    0  502    0  0.00000000000E+00  0.00000000000E+00  0.17623727565E+04  0.17623727565E+04  0.00000000000E+00 0. -1.
          1   -1    0    0  501    0 -0.00000000000E+00 -0.00000000000E+00 -0.83437275714E+02  0.83437275714E+02  0.00000000000E+00 0. -1.
         25    2    1    2    0    0  0.23816368265E+01 -0.51696800767E+01  0.42551018307E+03  0.44352741593E+03  0.12500102000E+03 0.  0.
          2    1    1    2  501    0 -0.42015650082E+02 -0.22510098982E+02 -0.66308916853E+02  0.81663283440E+02  0.00000000000E+00 0. -1.
          1    1    1    2  502    0  0.39634013255E+02  0.27679779059E+02  0.13197342146E+04  0.13206193329E+04  0.00000000000E+00 0. -1.
         22    1    3    3    0    0  0.78009947369E+01  0.57837613721E+02  0.15243616224E+03  0.16322631111E+03  0.00000000000E+00 0. -1.
         22    1    3    3    0    0 -0.54193579104E+01 -0.63007293798E+02  0.27307402083E+03  0.28030110482E+03  0.00000000000E+00 0. -1.
</event>
<event>
 7    1  0.6176857E-006  0.8107227E+02  0.7818608E-02  0.1359161E+00
          2   -1    0    0  502    0  0.00000000000E+00  0.00000000000E+00  0.53954195844E+03  0.53954195844E+03  0.00000000000E+00 0. -1.
          1   -1    0    0  501    0 -0.00000000000E+00 -0.00000000000E+00 -0.25878413843E+03  0.25878413843E+03  0.00000000000E+00 0. -1.
         25    2    1    2    0    0 -0.37035664591E+02 -0.10145564985E+03  0.37723305797E+03  0.41181805707E+03  0.12499777103E+03 0.  0.
          2    1    1    2  501    0  0.65451388992E+02  0.47573906904E+02 -0.22779969121E+03  0.24174337686E+03  0.00000000000E+00 0. -1.
          1    1    1    2  502    0 -0.28415724401E+02  0.53881742947E+02  0.13132445325E+03  0.14476466294E+03  0.00000000000E+00 0. -1.
         22    1    3    3    0    0 -0.57947631970E+02 -0.10400786817E+03  0.19573961707E+03  0.22910600687E+03  0.00000000000E+00 0.  1.
         22    1    3    3    0    0  0.20911967379E+02  0.25522183239E+01  0.18149344090E+03  0.18271205020E+03  0.00000000000E+00 0.  1.
</event>
<event>
 7    1  0.6176857E-006  0.1500022E+03  0.7818608E-02  0.1257264E+00
          2   -1    0    0  502    0  0.00000000000E+00  0.00000000000E+00  0.11437909968E+04  0.11437909968E+04  0.00000000000E+00 0. -1.
          1   -1    0    0  501    0 -0.00000000000E+00 -0.00000000000E+00 -0.25568000108E+03  0.25568000108E+03  0.00000000000E+00 0. -1.
         25    2    1    2    0    0 -0.21709656022E+03  0.65655270377E+02  0.32102001960E+03  0.41245649374E+03  0.12499990102E+03 0.  0.
          2    1    1    2  501    0  0.14149175461E+03 -0.30605662327E+02 -0.18242212289E+03  0.23288291931E+03  0.00000000000E+00 0. -1.
          1    1    1    2  502    0  0.75604805614E+02 -0.35049608049E+02  0.74951309899E+03  0.75413158482E+03  0.00000000000E+00 0. -1.
         22    1    3    3    0    0 -0.12678642518E+03  0.32925632010E+02  0.27777652439E+03  0.30711348449E+03  0.00000000000E+00 0.  1.
         22    1    3    3    0    0 -0.90310135045E+02  0.32729638367E+02  0.43243495208E+02  0.10534300925E+03  0.00000000000E+00 0.  1.
</event>
<event>
 7    1  0.6176857E-006  0.1112628E+03  0.7818608E-02  0.1335664E+00
          2   -1    0    0  502    0  0.00000000000E+00  0.00000000000E+00  0.19222192083E+04  0.19222192083E+04  0.00000000000E+00 0. -1.
          1   -1    0    0  501    0 -0.00000000000E+00 -0.00000000000E+00 -0.26913952287E+03  0.26913952287E+03  0.00000000000E+00 0. -1.
         25    2    1    2    0    0 -0.60934473241E+02  0.21370914262E+02  0.18509957383E+03  0.23248718675E+03  0.12497485253E+03 0.  0.
          2    1    1    2  501    0 -0.53581793338E+02 -0.86919873941E+01 -0.24048027352E+03  0.24653056844E+03  0.00000000000E+00 0. -1.
          1    1    1    2  502    0  0.11451626658E+03 -0.12678926868E+02  0.17084603851E+04  0.17123409759E+04  0.00000000000E+00 0. -1.
         22    1    3    3    0    0  0.37140333915E+02 -0.17844069973E+01  0.31241532880E+02  0.48565645144E+02  0.00000000000E+00 0. -1.
         22    1    3    3    0    0 -0.98074807156E+02  0.23155321260E+02  0.15385804095E+03  0.18392154160E+03  0.00000000000E+00 0. -1.
</event>
<event>
 7    1  0.6176857E-006  0.6064237E+02  0.7818608E-02  0.1416716E+00
          2   -1    0    0  502    0  0.00000000000E+00  0.00000000000E+00  0.30966412182E+04  0.30966412182E+04  0.00000000000E+00 0. -1.
          1   -1    0    0  501    0 -0.00000000000E+00 -0.00000000000E+00 -0.22027667845E+03  0.22027667845E+03  0.00000000000E+00 0. -1.
         25    2    1    2    0    0  0.23684316077E+02  0.60739668403E+02  0.20606106205E+03  0.24967642748E+03  0.12500761176E+03 0.  0.
          2    1    1    2  501    0 -0.56945004351E+02 -0.21813725644E+02 -0.19355069149E+03  0.20292964871E+03  0.00000000000E+00 0. -1.
          1    1    1    2  502    0  0.33260688274E+02 -0.38925942759E+02  0.28638541692E+04  0.28643118205E+04  0.00000000000E+00 0. -1.
         22    1    3    3    0    0  0.12479282729E+02 -0.21682662483E+01 -0.14961267807E+02  0.19602892907E+02  0.00000000000E+00 0. -1.
         22    1    3    3    0    0  0.11205033348E+02  0.62907934651E+02  0.22102232986E+03  0.23007353457E+03  0.00000000000E+00 0. -1.
</event>
<event>
 7    1  0.6176857E-006  0.7393822E+02  0.7818608E-02  0.1438475E+00
          2   -1    0    0  502    0  0.00000000000E+00  0.00000000000E+00  0.19989371431E+03  0.19989371431E+03  0.00000000000E+00 0. -1.
          1   -1    0    0  501    0 -0.00000000000E+00 -0.00000000000E+00 -0.52993762751E+03  0.52993762751E+03  0.00000000000E+00 0. -1.
         25    2    1    2    0    0  0.90333864149E+02  0.19525688644E+02 -0.22075931253E+03  0.27000230994E+03  0.12500045509E+03 0.  0.
          2    1    1    2  501    0 -0.70687959362E+02  0.10147490122E+02 -0.27819286606E+03  0.28721251693E+03  0.00000000000E+00 0. -1.
          1    1    1    2  502    0 -0.19645904786E+02 -0.29673178766E+02  0.16890826540E+03  0.17261651495E+03  0.00000000000E+00 0. -1.
         22    1    3    3    0    0  0.44087413641E+02 -0.46713042355E+02 -0.51057729386E+02  0.82053032227E+02  0.00000000000E+00 0. -1.
         22    1    3    3    0    0  0.46246450507E+02  0.66238730999E+02 -0.16970158315E+03  0.18794927771E+03  0.00000000000E+00 0. -1.
</event>
<event>
 7    1  0.6176857E-006  0.1588743E+03  0.7818608E-02  0.1256764E+00
          2   -1    0    0  502    0  0.00000000000E+00  0.00000000000E+00  0.71262491113E+03  0.71262491113E+03  0.00000000000E+00 0. -1.
          1   -1    0    0  501    0 -0.00000000000E+00 -0.00000000000E+00 -0.40741970126E+03  0.40741970126E+03  0.00000000000E+00 0. -1.
         25    2    1    2    0    0  0.61039973143E+02 -0.62002509733E+02 -0.50638073814E+02  0.16047861347E+03  0.12497592299E+03 0.  0.
          2    1    1    2  501    0  0.56432100313E+02 -0.55384634585E+02 -0.28592613060E+03  0.29665770149E+03  0.00000000000E+00 0. -1.
          1    1    1    2  502    0 -0.11747207346E+03  0.11738714432E+03  0.64176941428E+03  0.66290829743E+03  0.00000000000E+00 0. -1.
         22    1    3    3    0    0  0.99980191330E+02 -0.46101887706E+02 -0.33760167088E+02  0.11515716039E+03  0.00000000000E+00 0.  1.
         22    1    3    3    0    0 -0.38940218187E+02 -0.15900622028E+02 -0.16877906726E+02  0.45321453074E+02  0.00000000000E+00 0.  1.
</event>
<event>
 7    1  0.6176857E-006  0.1954846E+03  0.7818608E-02  0.1280399E+00
          2   -1    0    0  502    0  0.00000000000E+00  0.00000000000E+00  0.67794216870E+03  0.67794216870E+03  0.00000000000E+00 0. -1.
          1   -1    0    0  501    0 -0.00000000000E+00 -0.00000000000E+00 -0.36007206389E+03  0.36007206389E+03  0.00000000000E+00 0. -1.
         25    2    1    2    0    0 -0.29688684912E+02  0.20020453752E+03  0.25549952987E+03  0.34909646955E+03  0.12500024173E+03 0.  0.
          2    1    1    2  501    0 -0.21067666190E+02 -0.19424748236E+03 -0.28073053235E+03  0.34203152304E+03  0.00000000000E+00 0. -1.
          1    1    1    2  502    0  0.50756351103E+02 -0.59570551576E+01  0.34310110729E+03  0.34688624000E+03  0.00000000000E+00 0. -1.
         22    1    3    3    0    0 -0.77533528660E+01  0.20609425005E+03  0.25275212659E+03  0.32621862589E+03  0.00000000000E+00 0.  1.
         22    1    3    3    0    0 -0.21935332046E+02 -0.58897125280E+01  0.27474032800E+01  0.22877843658E+02  0.00000000000E+00 0.  1.
</event>
<event>
 7    1  0.6176857E-006  0.7609796E+02  0.7818608E-02  0.1378983E+00
          2   -1    0    0  502    0  0.00000000000E+00  0.00000000000E+00  0.77955873982E+03  0.77955873982E+03  0.00000000000E+00 0. -1.
          1   -1    0    0  501    0 -0.00000000000E+00 -0.00000000000E+00 -0.19311453770E+04  0.19311453770E+04  0.00000000000E+00 0. -1.
         25    2    1    2    0    0  0.13100099432E+02 -0.10260185918E+03  0.24358813993E+03  0.29267389831E+03  0.12499629884E+03 0.  0.
          2    1    1    2  501    0 -0.43016032182E+02  0.34374266318E+02 -0.19034892780E+04  0.19042855355E+04  0.00000000000E+00 0. -1.
          1    1    1    2  502    0  0.29915932750E+02  0.68227592867E+02  0.50831450092E+03  0.51374468300E+03  0.00000000000E+00 0. -1.
         22    1    3    3    0    0  0.26905988702E+01 -0.12953275804E+03  0.22032499538E+03  0.25559553657E+03  0.00000000000E+00 0. -1.
         22    1    3    3    0    0  0.10409500562E+02  0.26930898850E+02  0.23263144554E+02  0.37078361741E+02  0.00000000000E+00 0. -1.
</event>
<event>
 7    1  0.6176857E-006  0.5971415E+02  0.7818608E-02  0.1477798E+00
          2   -1    0    0  502    0  0.00000000000E+00  0.00000000000E+00  0.17696902530E+04  0.17696902530E+04  0.00000000000E+00 0. -1.
          1   -1    0    0  501    0 -0.00000000000E+00 -0.00000000000E+00 -0.13869656185E+03  0.13869656185E+03  0.00000000000E+00 0. -1.
         25    2    1    2    0    0  0.27246726145E+02 -0.33694301301E+02  0.26337314488E+03  0.29473486356E+03  0.12500214530E+03 0.  0.
          2    1    1    2  501    0 -0.19862067250E+02 -0.26464876136E+02 -0.12016233164E+03  0.12463497635E+03  0.00000000000E+00 0. -1.
          1    1    1    2  502    0 -0.73846588943E+01  0.60159177437E+02  0.14877828779E+04  0.14890169749E+04  0.00000000000E+00 0. -1.
         22    1    3    3    0    0  0.19483347239E+02  0.47147439924E+02  0.96924578520E+02  0.10953015946E+03  0.00000000000E+00 0.  1.
         22    1    3    3    0    0  0.77633789061E+01 -0.80841741225E+02  0.16644856636E+03  0.18520470409E+03  0.00000000000E+00 0.  1.
</event>
<event>
 7    1  0.6176857E-006  0.3535144E+02  0.7818608E-02  0.1565147E+00
          2   -1    0    0  502    0  0.00000000000E+00  0.00000000000E+00  0.21376305500E+04  0.21376305500E+04  0.00000000000E+00 0. -1.
          1   -1    0    0  501    0 -0.00000000000E+00 -0.00000000000E+00 -0.77497289605E+03  0.77497289605E+03  0.00000000000E+00 0. -1.
         25    2    1    2    0    0  0.12618568832E+00 -0.42146533510E+01 -0.54502341899E+03  0.55919065238E+03  0.12500351690E+03 0.  0.
          2    1    1    2  501    0 -0.39152704040E+01 -0.30941473501E+02 -0.22162722181E+03  0.22381092371E+03  0.00000000000E+00 0. -1.
          1    1    1    2  502    0  0.37890847156E+01  0.35156126852E+02  0.21293082947E+04  0.21296018699E+04  0.00000000000E+00 0. -1.
         22    1    3    3    0    0  0.40442846690E+02  0.11235359636E+02 -0.47551697629E+03  0.47736595176E+03  0.00000000000E+00 0. -1.
         22    1    3    3    0    0 -0.40316661002E+02 -0.15450012986E+02 -0.69506442697E+02  0.81824700623E+02  0.00000000000E+00 0. -1.
</event>
<event>
 7    1  0.6176857E-006  0.5483664E+02  0.7818608E-02  0.1454122E+00
          2   -1    0    0  502    0  0.00000000000E+00  0.00000000000E+00  0.16977877687E+04  0.16977877687E+04  0.00000000000E+00 0. -1.
          1   -1    0    0  501    0 -0.00000000000E+00 -0.00000000000E+00 -0.72774790477E+02  0.72774790477E+02  0.00000000000E+00 0. -1.
         25    2    1    2    0    0  0.57487743922E+02 -0.37030442477E+02  0.28819525539E+03  0.32149547851E+03  0.12500697220E+03 0.  0.
          2    1    1    2  501    0 -0.29084503200E+01  0.42634164367E+02 -0.47367398063E+02  0.63794995523E+02  0.00000000000E+00 0. -1.
          1    1    1    2  502    0 -0.54579293602E+02 -0.56037218906E+01  0.13841851209E+04  0.13852720851E+04  0.00000000000E+00 0. -1.
         22    1    3    3    0    0  0.66893008693E+02 -0.73112834851E+02  0.24586284221E+03  0.26508243701E+03  0.00000000000E+00 0.  1.
         22    1    3    3    0    0 -0.94052647708E+01  0.36082392374E+02  0.42332413182E+02  0.56413041494E+02  0.00000000000E+00 0.  1.
</event>
<event>
 7    1  0.6176857E-006  0.9673727E+02  0.7818608E-02  0.1370657E+00
          2   -1    0    0  502    0  0.00000000000E+00  0.00000000000E+00  0.62898159757E+03  0.62898159757E+03  0.00000000000E+00 0. -1.
          1   -1    0    0  501    0 -0.00000000000E+00 -0.00000000000E+00 -0.54469315431E+02  0.54469315431E+02  0.00000000000E+00 0. -1.
         25    2    1    2    0    0  0.85289236668E+02 -0.86992986235E+02  0.45099323548E+03  0.48359250638E+03  0.12499912094E+03 0.  0.
          2    1    1    2  501    0 -0.84753277534E+02  0.40612816221E+02  0.35682680750E+02  0.10052747187E+03  0.00000000000E+00 0. -1.
          1    1    1    2  502    0 -0.53595913396E+00  0.46380170014E+02  0.87836365905E+02  0.99330934749E+02  0.00000000000E+00 0. -1.
         22    1    3    3    0    0  0.30153657102E+02 -0.59406477873E+02  0.66297642169E+02  0.93988031191E+02  0.00000000000E+00 0.  1.
         22    1    3    3    0    0  0.55135579566E+02 -0.27586508362E+02  0.38469559331E+03  0.38960447519E+03  0.00000000000E+00 0.  1.
</event>
<event>
 7    1  0.6176857E-006  0.5426947E+02  0.7818608E-02  0.1502727E+00
          2   -1    0    0  502    0  0.00000000000E+00  0.00000000000E+00  0.81971412601E+03  0.81971412601E+03  0.00000000000E+00 0. -1.
          1   -1    0    0  501    0 -0.00000000000E+00 -0.00000000000E+00 -0.17072329425E+04  0.17072329425E+04  0.00000000000E+00 0. -1.
         25    2    1    2    0    0 -0.68679424464E+02 -0.22931853437E+02  0.12419162082E+03  0.19049955817E+03  0.12499515884E+03 0.  0.
          2    1    1    2  501    0  0.28003976551E+02 -0.12349453617E+02 -0.16728444849E+04  0.16731244431E+04  0.00000000000E+00 0. -1.
          1    1    1    2  502    0  0.40675447913E+02  0.35281307054E+02  0.66113404753E+03  0.66332306721E+03  0.00000000000E+00 0. -1.
         22    1    3    3    0    0 -0.75645881813E+02  0.28721723418E+01  0.14020907402E+03  0.15933967882E+03  0.00000000000E+00 0.  1.
         22    1    3    3    0    0  0.69664573491E+01 -0.25804025779E+02 -0.16017453194E+02  0.31159879352E+02  0.00000000000E+00 0.  1.
</event>
<event>
 7    1  0.6337472E-006  0.4291895E+02  0.7818608E-02  0.1499384E+00
          2   -1    0    0  502    0  0.00000000000E+00  0.00000000000E+00  0.29642854637E+04  0.29642854637E+04  0.00000000000E+00 0. -1.
          1   -1    0    0  501    0 -0.00000000000E+00 -0.00000000000E+00 -0.42178221641E+03  0.42178221641E+03  0.00000000000E+00 0. -1.
         25    2    1    2    0    0 -0.15319869898E+02 -0.79915561458E+02 -0.59601142333E+02  0.16062092618E+03  0.12500236151E+03 0.  0.
          2    1    1    2  501    0  0.96276808013E+01  0.40728457805E+02 -0.31013104851E+03  0.31294211407E+03  0.00000000000E+00 0. -1.
          1    1    1    2  502    0  0.56921890968E+01  0.39187103653E+02  0.29122354381E+04  0.29125046398E+04  0.00000000000E+00 0. -1.
         22    1    3    3    0    0 -0.65188792828E+02 -0.74151456927E+02 -0.43611120537E+02  0.10793492071E+03  0.00000000000E+00 0.  1.
         22    1    3    3    0    0  0.49868922929E+02 -0.57641045312E+01 -0.15990021797E+02  0.52686005469E+02  0.00000000000E+00 0.  1.
</event>
<event>
 7    1  0.6176857E-006  0.1198215E+03  0.7818608E-02  0.1295332E+00
          2   -1    0    0  502    0  0.00000000000E+00  0.00000000000E+00  0.52051347640E+03  0.52051347640E+03  0.00000000000E+00 0. -1.
          1   -1    0    0  501    0 -0.00000000000E+00 -0.00000000000E+00 -0.10226472763E+03  0.10226472763E+03  0.00000000000E+00 0. -1.
         25    2    1    2    0    0 -0.67792051033E+02 -0.39226307279E+02  0.16285552076E+03  0.21973282557E+03  0.12500451442E+03 0.  0.
          2    1    1    2  501    0  0.13579346988E+03  0.14201906915E+02 -0.10743037951E+01  0.13653832704E+03  0.00000000000E+00 0. -1.
          1    1    1    2  502    0 -0.68001418852E+02  0.25024400363E+02  0.25646753181E+03  0.26650705141E+03  0.00000000000E+00 0. -1.
         22    1    3    3    0    0 -0.53760712774E+01  0.43046970036E+02  0.37714665052E+02  0.57483386571E+02  0.00000000000E+00 0.  1.
         22    1    3    3    0    0 -0.62415979755E+02 -0.82273277315E+02  0.12514085571E+03  0.16224943900E+03  0.00000000000E+00 0.  1.
</event>
<event>
 7    1  0.6176857E-006  0.1034995E+03  0.7818608E-02  0.1284793E+00
          2   -1    0    0  502    0  0.00000000000E+00  0.00000000000E+00  0.76282865350E+03  0.76282865350E+03  0.00000000000E+00 0. -1.
          1   -1    0    0  501    0 -0.00000000000E+00 -0.00000000000E+00 -0.33576380487E+04  0.33576380487E+04  0.00000000000E+00 0. -1.
         25    2    1    2    0    0 -0.17458517338E+02  0.53608950748E+02  0.30309945929E+02  0.14043680921E+03  0.12500034053E+03 0.  0.
          2    1    1    2  501    0 -0.88573133255E+02 -0.26966754436E+02 -0.32975097810E+04  0.32988093551E+04  0.00000000000E+00 0. -1.
          1    1    1    2  502    0  0.10603165059E+03 -0.26642196312E+02  0.67239043987E+03  0.68122053785E+03  0.00000000000E+00 0. -1.
         22    1    3    3    0    0 -0.39522058961E+02 -0.23912887255E+02 -0.14246916331E+02  0.48340396629E+02  0.00000000000E+00 0.  1.
         22    1    3    3    0    0  0.22063541623E+02  0.77521838002E+02  0.44556862260E+02  0.92096412583E+02  0.00000000000E+00 0.  1.
</event>
<event>
 7    1  0.6176857E-006  0.5908162E+02  0.7818608E-02  0.1411834E+00
          2   -1    0    0  502    0  0.00000000000E+00  0.00000000000E+00  0.28790398031E+04  0.28790398031E+04  0.00000000000E+00 0. -1.
          1   -1    0    0  501    0 -0.00000000000E+00 -0.00000000000E+00 -0.18539377950E+03  0.18539377950E+03  0.00000000000E+00 0. -1.
         25    2    1    2    0    0  0.54123071255E+01 -0.13107908742E+02 -0.63083848955E+01  0.12593960152E+03  0.12497950701E+03 0.  0.
          2    1    1    2  501    0  0.93921405246E+01  0.65642540844E+02 -0.10976739087E+03  0.12824209750E+03  0.00000000000E+00 0. -1.
          1    1    1    2  502    0 -0.14804447650E+02 -0.52534632102E+02  0.28097217994E+04  0.28102518836E+04  0.00000000000E+00 0. -1.
         22    1    3    3    0    0  0.48864296173E+02 -0.15456265604E+02  0.38026655014E+02  0.63817255335E+02  0.00000000000E+00 0. -1.
         22    1    3    3    0    0 -0.43451989048E+02  0.23483568620E+01 -0.44335039910E+02  0.62122346188E+02  0.00000000000E+00 0. -1.
</event>
<event>
 7    1  0.6176857E-006  0.5227106E+02  0.7818608E-02  0.1469960E+00
          2   -1    0    0  502    0  0.00000000000E+00  0.00000000000E+00  0.19145647352E+04  0.19145647352E+04  0.00000000000E+00 0. -1.
          1   -1    0    0  501    0 -0.00000000000E+00 -0.00000000000E+00 -0.13072742532E+03  0.13072742532E+03  0.00000000000E+00 0. -1.
         25    2    1    2    0    0 -0.25253041678E+02  0.78920512448E+02  0.90718199115E+02  0.17527724702E+03  0.12500463300E+03 0.  0.
          2    1    1    2  501    0  0.32023201899E+02 -0.39526400367E+02 -0.80889569168E+02  0.95555974099E+02  0.00000000000E+00 0. -1.
          1    1    1    2  502    0 -0.67701602203E+01 -0.39394112081E+02  0.17740086800E+04  0.17744589394E+04  0.00000000000E+00 0. -1.
         22    1    3    3    0    0 -0.33249982864E+02  0.10249298458E+03  0.33435328308E+02  0.11281974308E+03  0.00000000000E+00 0. -1.
         22    1    3    3    0    0  0.79969411858E+01 -0.23572472132E+02  0.57282870807E+02  0.62457503942E+02  0.00000000000E+00 0. -1.
</event>
<event>
 7    1  0.6176857E-006  0.3794617E+02  0.7818608E-02  0.1577277E+00
          2   -1    0    0  502    0  0.00000000000E+00  0.00000000000E+00  0.18754542319E+04  0.18754542319E+04  0.00000000000E+00 0. -1.
          1   -1    0    0  501    0 -0.00000000000E+00 -0.00000000000E+00 -0.47705523178E+03  0.47705523178E+03  0.00000000000E+00 0. -1.
         25    2    1    2    0    0 -0.59132012701E+02  0.13912011864E+02  0.15365350655E+03  0.20718155857E+03  0.12499863654E+03 0.  0.
          2    1    1    2  501    0  0.32696939770E+02 -0.19080933176E+02 -0.44938826646E+03  0.45098002829E+03  0.00000000000E+00 0. -1.
          1    1    1    2  502    0  0.26435072931E+02  0.51689213118E+01  0.16941337600E+04  0.16943478768E+04  0.00000000000E+00 0. -1.
         22    1    3    3    0    0 -0.24613568292E+02  0.66932876160E+02  0.10693819561E+03  0.12853643583E+03  0.00000000000E+00 0. -1.
         22    1    3    3    0    0 -0.34518444408E+02 -0.53020864296E+02  0.46715310937E+02  0.78645122741E+02  0.00000000000E+00 0. -1.
</event>
<event>
 7    1  0.6176857E-006  0.1693206E+03  0.7818608E-02  0.1255830E+00
          2   -1    0    0  502    0  0.00000000000E+00  0.00000000000E+00  0.87947396778E+02  0.87947396778E+02  0.00000000000E+00 0. -1.
          1   -1    0    0  501    0 -0.00000000000E+00 -0.00000000000E+00 -0.29253533575E+04  0.29253533575E+04  0.00000000000E+00 0. -1.
         25    2    1    2    0    0  0.11834492666E+03  0.15662395346E+03 -0.12608982635E+04  0.12821944575E+04  0.12498644571E+03 0.  0.
          2    1    1    2  501    0 -0.74644871013E+02  0.59226596802E+01 -0.15602043002E+04  0.15620001258E+04  0.00000000000E+00 0. -1.
          1    1    1    2  502    0 -0.43700055648E+02 -0.16254661314E+03 -0.16303397077E+02  0.16910617097E+03  0.00000000000E+00 0. -1.
         22    1    3    3    0    0  0.78737915531E+02  0.16455934964E+03 -0.11453949816E+04  0.11598314976E+04  0.00000000000E+00 0.  1.
         22    1    3    3    0    0  0.39607011130E+02 -0.79353961829E+01 -0.11550328186E+03  0.12236295993E+03  0.00000000000E+00 0.  1.
</event>
<event>
 7    1  0.6176857E-006  0.9161844E+02  0.7818608E-02  0.1398646E+00
          2   -1    0    0  502    0  0.00000000000E+00  0.00000000000E+00  0.26188192835E+03  0.26188192835E+03  0.00000000000E+00 0. -1.
          1   -1    0    0  501    0 -0.00000000000E+00 -0.00000000000E+00 -0.14053790801E+04  0.14053790801E+04  0.00000000000E+00 0. -1.
         25    2    1    2    0    0  0.91511944283E+02 -0.91818562507E+02 -0.45092016984E+03  0.48554967438E+03  0.12499760940E+03 0.  0.
          2    1    1    2  501    0 -0.24344819628E+02  0.30520166421E+02 -0.92826705006E+03  0.92908765304E+03  0.00000000000E+00 0. -1.
          1    1    1    2  502    0 -0.67167124655E+02  0.61298396085E+02  0.23569006814E+03  0.25262368103E+03  0.00000000000E+00 0. -1.
         22    1    3    3    0    0 -0.15456691077E+02 -0.39833400990E+01 -0.23779485630E+01  0.16137872746E+02  0.00000000000E+00 0. -1.
         22    1    3    3    0    0  0.10696863536E+03 -0.87835222408E+02 -0.44854222127E+03  0.46941180163E+03  0.00000000000E+00 0. -1.
</event>
<event>
 7    1  0.6176857E-006  0.1674675E+03  0.7818608E-02  0.1245608E+00
          2   -1    0    0  502    0  0.00000000000E+00  0.00000000000E+00  0.22611629465E+04  0.22611629465E+04  0.00000000000E+00 0. -1.
          1   -1    0    0  501    0 -0.00000000000E+00 -0.00000000000E+00 -0.13905937555E+04  0.13905937555E+04  0.00000000000E+00 0. -1.
         25    2    1    2    0    0  0.37672026454E+02 -0.11284646861E+03  0.34344571817E+02  0.17593610607E+03  0.12498182569E+03 0.  0.
          2    1    1    2  501    0 -0.62681119114E+02 -0.55676221111E+02 -0.13150954751E+04  0.13177651054E+04  0.00000000000E+00 0. -1.
          1    1    1    2  502    0  0.25009092661E+02  0.16852268972E+03  0.21513200944E+04  0.21580554905E+04  0.00000000000E+00 0. -1.
         22    1    3    3    0    0 -0.13652844851E+02  0.22982021047E+02  0.16889260806E-01  0.26731512288E+02  0.00000000000E+00 0.  1.
         22    1    3    3    0    0  0.51324871305E+02 -0.13582848966E+03  0.34327682556E+02  0.14920459378E+03  0.00000000000E+00 0.  1.
</event>
<event>
 7    1  0.6176857E-006  0.1939268E+03  0.7818608E-02  0.1243684E+00
          2   -1    0    0  502    0  0.00000000000E+00  0.00000000000E+00  0.15547368519E+04  0.15547368519E+04  0.00000000000E+00 0. -1.
          1   -1    0    0  501    0 -0.00000000000E+00 -0.00000000000E+00 -0.36003075738E+04  0.36003075738E+04  0.00000000000E+00 0. -1.
         25    2    1    2    0    0  0.18483443906E+03 -0.39297646879E+02 -0.16160932217E+04  0.16318978811E+04  0.12500127285E+03 0.  0.
          2    1    1    2  501    0  0.61131957778E+01  0.73562491663E+02 -0.19695353123E+04  0.19709181002E+04  0.00000000000E+00 0. -1.
          1    1    1    2  502    0 -0.19094763484E+03 -0.34264844783E+02  0.15400578122E+04  0.15522284444E+04  0.00000000000E+00 0. -1.
         22    1    3    3    0    0  0.76718050041E+01  0.65744985022E+01 -0.55826085527E+03  0.55835227513E+03  0.00000000000E+00 0. -1.
         22    1    3    3    0    0  0.17716263406E+03 -0.45872145381E+02 -0.10578323664E+04  0.10735456060E+04  0.00000000000E+00 0. -1.
</event>
<event>
 7    1  0.6176857E-006  0.7093514E+02  0.7818608E-02  0.1370497E+00
          2   -1    0    0  502    0  0.00000000000E+00  0.00000000000E+00  0.69149208837E+03  0.69149208837E+03  0.00000000000E+00 0. -1.
          1   -1    0    0  501    0 -0.00000000000E+00 -0.00000000000E+00 -0.20897389725E+03  0.20897389725E+03  0.00000000000E+00 0. -1.
         25    2    1    2    0    0  0.56318129966E+02 -0.10826931398E+03  0.40524658214E+02  0.17933753708E+03  0.12500291264E+03 0.  0.
          2    1    1    2  501    0 -0.81843698556E+01  0.67100448842E+02 -0.12952903776E+03  0.14610689842E+03  0.00000000000E+00 0. -1.
          1    1    1    2  502    0 -0.48133760110E+02  0.41168865139E+02  0.57152257066E+03  0.57502155011E+03  0.00000000000E+00 0. -1.
         22    1    3    3    0    0  0.12702283958E+02  0.27830102084E+02  0.15323924102E+02  0.34215278015E+02  0.00000000000E+00 0. -1.
         22    1    3    3    0    0  0.43615846007E+02 -0.13609941607E+03  0.25200734112E+02  0.14512225906E+03  0.00000000000E+00 0. -1.
</event>
<event>
 7    1  0.9199967E-006  0.1086778E+03  0.7818608E-02  0.1345804E+00
          2   -1    0    0  502    0  0.00000000000E+00  0.00000000000E+00  0.15373010067E+04  0.15373010067E+04  0.00000000000E+00 0. -1.
          1   -1    0    0  501    0 -0.00000000000E+00 -0.00000000000E+00 -0.74569757403E+03  0.74569757403E+03  0.00000000000E+00 0. -1.
         25    2    1    2    0    0  0.92504308802E+01  0.72940633177E+02 -0.38716068867E+02  0.15009882674E+03  0.12499926944E+03 0.  0.
          2    1    1    2  501    0  0.46089254066E+02  0.21612767213E+02 -0.64826566318E+03  0.65026125604E+03  0.00000000000E+00 0. -1.
          1    1    1    2  502    0 -0.55339684946E+02 -0.94553400390E+02  0.14785851647E+04  0.14826384979E+04  0.00000000000E+00 0. -1.
         22    1    3    3    0    0 -0.20388078433E+02  0.10101922254E+03 -0.19129116812E+02  0.10481641176E+03  0.00000000000E+00 0. -1.
         22    1    3    3    0    0  0.29638509314E+02 -0.28078589364E+02 -0.19586952055E+02  0.45282414973E+02  0.00000000000E+00 0. -1.
</event>
<event>
 7    1  0.6176857E-006  0.4784591E+02  0.7818608E-02  0.1541649E+00
          2   -1    0    0  502    0  0.00000000000E+00  0.00000000000E+00  0.54498305120E+03  0.54498305120E+03  0.00000000000E+00 0. -1.
          1   -1    0    0  501    0 -0.00000000000E+00 -0.00000000000E+00 -0.36580803292E+02  0.36580803292E+02  0.00000000000E+00 0. -1.
         25    2    1    2    0    0  0.58553575031E+02  0.24423339167E+02  0.27366405893E+03  0.30747704479E+03  0.12500038112E+03 0.  0.
          2    1    1    2  501    0 -0.12231357066E+02 -0.23823466398E+02 -0.72180267908E+01  0.27735600907E+02  0.00000000000E+00 0. -1.
          1    1    1    2  502    0 -0.46322217965E+02 -0.59987276927E+00  0.24195621577E+03  0.24635120879E+03  0.00000000000E+00 0. -1.
         22    1    3    3    0    0  0.90792740380E+02 -0.69326911333E-01  0.13250695903E+03  0.16062820644E+03  0.00000000000E+00 0.  1.
         22    1    3    3    0    0 -0.32239165349E+02  0.24492666079E+02  0.14115709990E+03  0.14684883836E+03  0.00000000000E+00 0.  1.
</event>
<event>
 7    1  0.6176857E-006  0.1755449E+03  0.7818608E-02  0.1187165E+00
          2   -1    0    0  502    0  0.00000000000E+00  0.00000000000E+00  0.13015627125E+04  0.13015627125E+04  0.00000000000E+00 0. -1.
          1   -1    0    0  501    0 -0.00000000000E+00 -0.00000000000E+00 -0.86390640901E+03  0.86390640901E+03  0.00000000000E+00 0. -1.
         25    2    1    2    0    0 -0.17670757480E+03 -0.18155025860E+03  0.96761404854E+02  0.29861935314E+03  0.12499874083E+03 0.  0.
          2    1    1    2  501    0  0.17052275278E+03  0.33349958490E+02 -0.74799139205E+03  0.76790712428E+03  0.00000000000E+00 0. -1.
          1    1    1    2  502    0  0.61848220222E+01  0.14820030011E+03  0.10888862907E+04  0.10989426441E+04  0.00000000000E+00 0. -1.
         22    1    3    3    0    0 -0.45500837001E+02 -0.11202503546E+03  0.88612458586E+02  0.14990697967E+03  0.00000000000E+00 0.  1.
         22    1    3    3    0    0 -0.13120673780E+03 -0.69525223138E+02  0.81489462683E+01  0.14871237346E+03  0.00000000000E+00 0.  1.
</event>
<event>
 7    1  0.6176857E-006  0.7624842E+02  0.7818608E-02  0.1486460E+00
          2   -1    0    0  502    0  0.00000000000E+00  0.00000000000E+00  0.10515850778E+04  0.10515850778E+04  0.00000000000E+00 0. -1.
          1   -1    0    0  501    0 -0.00000000000E+00 -0.00000000000E+00 -0.79731528236E+02  0.79731528236E+02  0.00000000000E+00 0. -1.
         25    2    1    2    0    0 -0.72854134887E+02 -0.61049106791E+02  0.68405445528E+03  0.70184528811E+03  0.12498636822E+03 0.  0.
          2    1    1    2  501    0  0.65655219393E+02  0.37755835346E+02 -0.50026174910E+02  0.90767445223E+02  0.00000000000E+00 0. -1.
          1    1    1    2  502    0  0.71989154940E+01  0.23293271445E+02  0.33782526916E+03  0.33870387267E+03  0.00000000000E+00 0. -1.
         22    1    3    3    0    0 -0.57950800974E+02 -0.63192284938E+02  0.20059120126E+03  0.21814763403E+03  0.00000000000E+00 0.  1.
         22    1    3    3    0    0 -0.14903333913E+02  0.21431781464E+01  0.48346325402E+03  0.48369765408E+03  0.00000000000E+00 0.  1.
</event>
<event>
 7    1  0.6176857E-006  0.1060534E+03  0.7818608E-02  0.1461105E+00
          2   -1    0    0  502    0  0.00000000000E+00  0.00000000000E+00  0.47251195990E+03  0.47251195990E+03  0.00000000000E+00 0. -1.
          1   -1    0    0  501    0 -0.00000000000E+00 -0.00000000000E+00 -0.14460739264E+04  0.14460739264E+04  0.00000000000E+00 0. -1.
         25    2    1    2    0    0 -0.11594502452E+03 -0.50612903294E+02  0.75397514857E+02  0.19316766276E+03  0.12499618394E+03 0.  0.
          2    1    1    2  501    0  0.95731754024E+02  0.44920664573E+02 -0.13848451708E+04  0.13888767339E+04  0.00000000000E+00 0. -1.
          1    1    1    2  502    0  0.20213270494E+02  0.56922387214E+01  0.33588568945E+03  0.33654148966E+03  0.00000000000E+00 0. -1.
         22    1    3    3    0    0 -0.24427728411E+01  0.21047259609E+02 -0.19486894135E+02  0.28787033873E+02  0.00000000000E+00 0.  1.
         22    1    3    3    0    0 -0.11350225168E+03 -0.71660162903E+02  0.94884408992E+02  0.16438062889E+03  0.00000000000E+00 0.  1.
</event>
<event>
 7    1  0.6176857E-006  0.5925617E+03  0.7818608E-02  0.1195476E+00
          2   -1    0    0  502    0  0.00000000000E+00  0.00000000000E+00  0.19984248898E+04  0.19984248898E+04  0.00000000000E+00 0. -1.
          1   -1    0    0  501    0 -0.00000000000E+00 -0.00000000000E+00 -0.80934400559E+03  0.80934400559E+03  0.00000000000E+00 0. -1.
         25    2    1    2    0    0  0.18256101077E+03  0.58553524888E+03  0.45634020046E+02  0.62760532294E+03  0.12500370899E+03 0.  0.
          2    1    1    2  501    0 -0.19725569075E+03 -0.54822946067E+03 -0.35428390323E+03  0.68189620410E+03  0.00000000000E+00 0. -1.
          1    1    1    2  502    0  0.14694679979E+02 -0.37305788211E+02  0.14977307674E+04  0.14982673683E+04  0.00000000000E+00 0. -1.
         22    1    3    3    0    0 -0.12677169195E+02  0.11640174285E+03  0.20295808668E+02  0.11883600552E+03  0.00000000000E+00 0.  1.
         22    1    3    3    0    0  0.19523817997E+03  0.46913350603E+03  0.25338211378E+02  0.50876931742E+03  0.00000000000E+00 0.  1.
</event>
<event>
 7    1  0.6176857E-006  0.8095709E+02  0.7818608E-02  0.1410472E+00
          2   -1    0    0  502    0  0.00000000000E+00  0.00000000000E+00  0.36551694965E+03  0.36551694965E+03  0.00000000000E+00 0. -1.
          1   -1    0    0  501    0 -0.00000000000E+00 -0.00000000000E+00 -0.55658480889E+03  0.55658480889E+03  0.00000000000E+00 0. -1.
         25    2    1    2    0    0 -0.32765377111E+02 -0.44608246187E+02  0.31014503292E+02  0.14018164287E+03  0.12500211205E+03 0.  0.
          2    1    1    2  501    0  0.14017298214E+02 -0.37738153630E+02 -0.49479500312E+03  0.49643000312E+03  0.00000000000E+00 0. -1.
          1    1    1    2  502    0  0.18748078896E+02  0.82346399817E+02  0.27271264059E+03  0.28549011255E+03  0.00000000000E+00 0. -1.
         22    1    3    3    0    0  0.15510860036E+02 -0.70327885948E+02  0.43417217000E+02  0.84093121318E+02  0.00000000000E+00 0. -1.
         22    1    3    3    0    0 -0.48276237147E+02  0.25719639762E+02 -0.12402713708E+02  0.56088521552E+02  0.00000000000E+00 0. -1.
</event>
<event>
 7    1  0.6176857E-006  0.6015910E+02  0.7818608E-02  0.1435627E+00
          2   -1    0    0  502    0  0.00000000000E+00  0.00000000000E+00  0.27118473881E+04  0.27118473881E+04  0.00000000000E+00 0. -1.
          1   -1    0    0  501    0 -0.00000000000E+00 -0.00000000000E+00 -0.18807756428E+03  0.18807756428E+03  0.00000000000E+00 0. -1.
         25    2    1    2    0    0 -0.26443475662E+02  0.10037586481E+03  0.39411315582E+03  0.42629184885E+03  0.12499995666E+03 0.  0.
          2    1    1    2  501    0  0.10678722261E+02 -0.43388268850E+02 -0.16869936604E+03  0.17451662696E+03  0.00000000000E+00 0. -1.
          1    1    1    2  502    0  0.15764753400E+02 -0.56987595962E+02  0.22983560341E+04  0.22991164766E+04  0.00000000000E+00 0. -1.
         22    1    3    3    0    0 -0.18597371628E+02  0.12592097581E+03  0.36601016727E+03  0.38751180230E+03  0.00000000000E+00 0.  1.
         22    1    3    3    0    0 -0.78461040340E+01 -0.25545111001E+02  0.28102988551E+02  0.38780046546E+02  0.00000000000E+00 0.  1.
</event>
<event>
 7    1  0.6176857E-006  0.5886120E+02  0.7818608E-02  0.1422540E+00
          2   -1    0    0  502    0  0.00000000000E+00  0.00000000000E+00  0.34159105416E+04  0.34159105416E+04  0.00000000000E+00 0. -1.
          1   -1    0    0  501    0 -0.00000000000E+00 -0.00000000000E+00 -0.70996196414E+02  0.70996196414E+02  0.00000000000E+00 0. -1.
         25    2    1    2    0    0 -0.66929629771E+02 -0.30371797700E+02  0.10098350714E+03  0.17671420970E+03  0.12501288637E+03 0.  0.
          2    1    1    2  501    0  0.11122631024E+02  0.49196233655E+02 -0.13512680019E+02  0.52216614675E+02  0.00000000000E+00 0. -1.
          1    1    1    2  502    0  0.55806998746E+02 -0.18824435955E+02  0.32574435181E+04  0.32579759137E+04  0.00000000000E+00 0. -1.
         22    1    3    3    0    0 -0.14749161559E+02 -0.33757800545E+02  0.11648753047E+03  0.12217394001E+03  0.00000000000E+00 0.  1.
         22    1    3    3    0    0 -0.52180468211E+02  0.33860028444E+01 -0.15504023325E+02  0.54540269684E+02  0.00000000000E+00 0.  1.
</event>
<event>
 7    1  0.6176857E-006  0.1341310E+03  0.7818608E-02  0.1239314E+00
          2   -1    0    0  502    0  0.00000000000E+00  0.00000000000E+00  0.20183510880E+03  0.20183510880E+03  0.00000000000E+00 0. -1.
          1   -1    0    0  501    0 -0.00000000000E+00 -0.00000000000E+00 -0.53543748519E+03  0.53543748519E+03  0.00000000000E+00 0. -1.
         25    2    1    2    0    0  0.15579829756E+03  0.16174877584E+03 -0.19527886021E+03  0.32279294551E+03  0.12500270564E+03 0.  0.
          2    1    1    2  501    0 -0.66955524883E+02 -0.94285905676E+02 -0.23817510625E+03  0.26476452851E+03  0.00000000000E+00 0. -1.
          1    1    1    2  502    0 -0.88842772681E+02 -0.67462870160E+02  0.99851590070E+02  0.14971511997E+03  0.00000000000E+00 0. -1.
         22    1    3    3    0    0  0.10554612129E+03  0.44001478470E+02 -0.14637871596E+03  0.18574940730E+03  0.00000000000E+00 0. -1.
         22    1    3    3    0    0  0.50252176270E+02  0.11774729737E+03 -0.48900144251E+02  0.13704353821E+03  0.00000000000E+00 0. -1.
</event>
<event>
 7    1  0.9155000E-006  0.7247102E+02  0.7818608E-02  0.1419031E+00
          2   -1    0    0  502    0  0.00000000000E+00  0.00000000000E+00  0.29611226003E+04  0.29611226003E+04  0.00000000000E+00 0. -1.
          1   -1    0    0  501    0 -0.00000000000E+00 -0.00000000000E+00 -0.50310419549E+03  0.50310419549E+03  0.00000000000E+00 0. -1.
         25    2    1    2    0    0 -0.90710243774E+02  0.42632966673E+02 -0.23453216057E+03  0.28403579523E+03  0.12500032183E+03 0.  0.
          2    1    1    2  501    0  0.18434440449E+02 -0.37832907907E+02 -0.24155384591E+03  0.24519261406E+03  0.00000000000E+00 0. -1.
          1    1    1    2  502    0  0.72275803325E+02 -0.48000587656E+01  0.29341044113E+04  0.29349983865E+04  0.00000000000E+00 0. -1.
         22    1    3    3    0    0 -0.82454865924E+02  0.84098927841E+02 -0.16678369154E+03  0.20417696820E+03  0.00000000000E+00 0. -1.
         22    1    3    3    0    0 -0.82553778500E+01 -0.41465961168E+02 -0.67748469030E+02  0.79858827032E+02  0.00000000000E+00 0. -1.
</event>
<event>
 7    1  0.6176857E-006  0.1023455E+03  0.7818608E-02  0.1398889E+00
          2   -1    0    0  502    0  0.00000000000E+00  0.00000000000E+00  0.78214853220E+03  0.78214853220E+03  0.00000000000E+00 0. -1.
          1   -1    0    0  501    0 -0.00000000000E+00 -0.00000000000E+00 -0.15660492327E+04  0.15660492327E+04  0.00000000000E+00 0. -1.
         25    2    1    2    0    0 -0.73957092480E+02  0.11174487041E+03 -0.11051673421E+04  0.11202573184E+04  0.12500015085E+03 0.  0.
          2    1    1    2  501    0  0.28454870119E+02 -0.20174615527E+02 -0.44928346372E+03  0.45063546856E+03  0.00000000000E+00 0. -1.
          1    1    1    2  502    0  0.45502222361E+02 -0.91570254885E+02  0.77055010538E+03  0.77730497793E+03  0.00000000000E+00 0. -1.
         22    1    3    3    0    0 -0.42411276094E+02  0.61146893230E+02 -0.20450498008E+03  0.21762340354E+03  0.00000000000E+00 0.  1.
         22    1    3    3    0    0 -0.31545816386E+02  0.50597977182E+02 -0.90066236206E+03  0.90263391487E+03  0.00000000000E+00 0.  1.
</event>
<event>
 7    1  0.6176857E-006  0.9215120E+02  0.7818608E-02  0.1319582E+00
          2   -1    0    0  502    0  0.00000000000E+00  0.00000000000E+00  0.16049595430E+04  0.16049595430E+04  0.00000000000E+00 0. -1.
          1   -1    0    0  501    0 -0.00000000000E+00 -0.00000000000E+00 -0.20768384761E+03  0.20768384761E+03  0.00000000000E+00 0. -1.
         25    2    1    2    0    0 -0.62567810763E+02 -0.12965849684E+03  0.86766356965E+03  0.88836579822E+03  0.12501065795E+03 0.  0.
          2    1    1    2  501    0  0.60201897684E+00  0.75537209743E+02 -0.18766482936E+03  0.20229760419E+03  0.00000000000E+00 0. -1.
          1    1    1    2  502    0  0.61965791786E+02  0.54121287095E+02  0.71727695506E+03  0.72197998817E+03  0.00000000000E+00 0. -1.
         22    1    3    3    0    0 -0.88465202518E+02 -0.39587270967E+02  0.43357416710E+03  0.44427446748E+03  0.00000000000E+00 0.  1.
         22    1    3    3    0    0  0.25897391755E+02 -0.90071225871E+02  0.43408940255E+03  0.44409133074E+03  0.00000000000E+00 0.  1.
</event>
<event>
 7    1  0.6176857E-006  0.3966946E+02  0.7818608E-02  0.1568579E+00
          2   -1    0    0  502    0  0.00000000000E+00  0.00000000000E+00  0.71670110312E+03  0.71670110312E+03  0.00000000000E+00 0. -1.
          1   -1    0    0  501    0 -0.00000000000E+00 -0.00000000000E+00 -0.19561637337E+04  0.19561637337E+04  0.00000000000E+00 0. -1.
         25    2    1    2    0    0  0.35303477908E+02  0.73647154627E+01 -0.15020721284E+04  0.15076953629E+04  0.12499621481E+03 0.  0.
          2    1    1    2  501    0 -0.93475947295E+00 -0.27184605439E+02 -0.45031807409E+03  0.45113883051E+03  0.00000000000E+00 0. -1.
          1    1    1    2  502    0 -0.34368718435E+02  0.19819889976E+02  0.71292757196E+03  0.71403064339E+03  0.00000000000E+00 0. -1.
         22    1    3    3    0    0  0.46475065897E+02 -0.27966996123E+02 -0.28832270497E+03  0.29338041315E+03  0.00000000000E+00 0.  1.
         22    1    3    3    0    0 -0.11171587990E+02  0.35331711585E+02 -0.12137494234E+04  0.12143149497E+04  0.00000000000E+00 0.  1.
</event>
<event>
 7    1  0.6176857E-006  0.3657398E+02  0.7818608E-02  0.1550081E+00
          2   -1    0    0  502    0  0.00000000000E+00  0.00000000000E+00  0.87422162929E+03  0.87422162929E+03  0.00000000000E+00 0. -1.
          1   -1    0    0  501    0 -0.00000000000E+00 -0.00000000000E+00 -0.80750216420E+03  0.80750216420E+03  0.00000000000E+00 0. -1.
         25    2    1    2    0    0  0.51816153875E+02  0.44956370593E+02 -0.72604034432E+02  0.16000830177E+03  0.12500128704E+03 0.  0.
          2    1    1    2  501    0 -0.20716199612E+02 -0.25913592214E+02 -0.69039716586E+03  0.69119383810E+03  0.00000000000E+00 0. -1.
          1    1    1    2  502    0 -0.31099954263E+02 -0.19042778379E+02  0.82972066539E+03  0.83052165363E+03  0.00000000000E+00 0. -1.
         22    1    3    3    0    0 -0.12398887350E+02  0.75387932128E+01  0.29993966440E+02  0.33319721389E+02  0.00000000000E+00 0. -1.
         22    1    3    3    0    0  0.64215041225E+02  0.37417577381E+02 -0.10259800087E+03  0.12668858038E+03  0.00000000000E+00 0. -1.
</event>
<event>
 7    1  0.6176857E-006  0.4616638E+02  0.7818608E-02  0.1487612E+00
          2   -1    0    0  502    0  0.00000000000E+00  0.00000000000E+00  0.17661911618E+04  0.17661911618E+04  0.00000000000E+00 0. -1.
          1   -1    0    0  501    0 -0.00000000000E+00 -0.00000000000E+00 -0.32393845080E+02  0.32393845080E+02  0.00000000000E+00 0. -1.
         25    2    1    2    0    0 -0.54095242054E+02 -0.14688654136E+02  0.12452199339E+04  0.12527332784E+04  0.12500372507E+03 0.  0.
          2    1    1    2  501    0  0.40260664096E+02 -0.22782441140E+02 -0.86170132970E+01  0.47055431311E+02  0.00000000000E+00 0. -1.
          1    1    1    2  502    0  0.13834577959E+02  0.37471095276E+02  0.49719439615E+03  0.49879629719E+03  0.00000000000E+00 0. -1.
         22    1    3    3    0    0 -0.53295314017E+02 -0.38770677548E+02  0.29773887995E+03  0.30494589121E+03  0.00000000000E+00 0. -1.
         22    1    3    3    0    0 -0.79992803722E+00  0.24082023412E+02  0.94748105396E+03  0.94778738721E+03  0.00000000000E+00 0. -1.
</event>
<event>
 7    1  0.7097399E-006  0.1415880E+03  0.7818608E-02  0.1225605E+00
          2   -1    0    0  502    0  0.00000000000E+00  0.00000000000E+00  0.19552518099E+04  0.19552518099E+04  0.00000000000E+00 0. -1.
          1   -1    0    0  501    0 -0.00000000000E+00 -0.00000000000E+00 -0.13303555935E+04  0.13303555935E+04  0.00000000000E+00 0. -1.
         25    2    1    2    0    0 -0.12951993770E+03 -0.18283132545E+03 -0.42283300979E+03  0.49458594949E+03  0.12499919773E+03 0.  0.
          2    1    1    2  501    0  0.21734236243E+01  0.12165650872E+03 -0.86478157854E+03  0.87329960979E+03  0.00000000000E+00 0. -1.
          1    1    1    2  502    0  0.12734651407E+03  0.61174816733E+02  0.19125108048E+04  0.19177218441E+04  0.00000000000E+00 0. -1.
         22    1    3    3    0    0 -0.83999710900E+02 -0.19181297370E+03 -0.36012563697E+03  0.41657969551E+03  0.00000000000E+00 0. -1.
         22    1    3    3    0    0 -0.45520226798E+02  0.89816482455E+01 -0.62707372822E+02  0.78006253975E+02  0.00000000000E+00 0. -1.
</event>
<event>
 7    1  0.6176857E-006  0.7363327E+02  0.7818608E-02  0.1464704E+00
          2   -1    0    0  502    0  0.00000000000E+00  0.00000000000E+00  0.12558903345E+04  0.12558903345E+04  0.00000000000E+00 0. -1.
          1   -1    0    0  501    0 -0.00000000000E+00 -0.00000000000E+00 -0.18806707862E+02  0.18806707862E+02  0.00000000000E+00 0. -1.
         25    2    1    2    0    0  0.88246789765E+00  0.50603752231E+02  0.43644701505E+03  0.45680711486E+03  0.12500089901E+03 0.  0.
          2    1    1    2  501    0  0.13280097908E+02  0.26306065197E+02  0.25947901066E+02  0.39264024709E+02  0.00000000000E+00 0. -1.
          1    1    1    2  502    0 -0.14162565806E+02 -0.76909817427E+02  0.77468871050E+03  0.77862590277E+03  0.00000000000E+00 0. -1.
         22    1    3    3    0    0 -0.53332641489E+01  0.92421880904E+02  0.29777705243E+03  0.31183556682E+03  0.00000000000E+00 0.  1.
         22    1    3    3    0    0  0.62157320465E+01 -0.41818128673E+02  0.13866996262E+03  0.14497154805E+03  0.00000000000E+00 0.  1.
</event>
<event>
 7    1  0.6176857E-006  0.4425293E+02  0.7818608E-02  0.1529575E+00
          2   -1    0    0  502    0  0.00000000000E+00  0.00000000000E+00  0.13828933884E+03  0.13828933884E+03  0.00000000000E+00 0. -1.
          1   -1    0    0  501    0 -0.00000000000E+00 -0.00000000000E+00 -0.70934478678E+03  0.70934478678E+03  0.00000000000E+00 0. -1.
         25    2    1    2    0    0  0.21001313521E+02 -0.84002700521E+01  0.12360976459E+02  0.12763015786E+03  0.12500017499E+03 0.  0.
          2    1    1    2  501    0  0.68778906762E+01 -0.30571843711E+02 -0.64287619190E+03  0.64363944963E+03  0.00000000000E+00 0. -1.
          1    1    1    2  502    0 -0.27879204197E+02  0.38972113763E+02  0.59459767499E+02  0.76364518128E+02  0.00000000000E+00 0. -1.
         22    1    3    3    0    0 -0.26043538976E+01 -0.62028195278E+02 -0.13580708025E+02  0.63550887477E+02  0.00000000000E+00 0. -1.
         22    1    3    3    0    0  0.23605667419E+02  0.53627925226E+02  0.25941684484E+02  0.64079270378E+02  0.00000000000E+00 0. -1.
</event>
<event>
 7    1  0.9144638E-006  0.7921283E+02  0.7818608E-02  0.1351452E+00
          2   -1    0    0  502    0  0.00000000000E+00  0.00000000000E+00  0.90786275961E+03  0.90786275961E+03  0.00000000000E+00 0. -1.
          1   -1    0    0  501    0 -0.00000000000E+00 -0.00000000000E+00 -0.33774356936E+04  0.33774356936E+04  0.00000000000E+00 0. -1.
         25    2    1    2    0    0 -0.90060004681E+02 -0.36812021312E+01 -0.13958259702E+04  0.14043079009E+04  0.12500474294E+03 0.  0.
          2    1    1    2  501    0  0.32464584850E+02  0.58092912449E+02 -0.19750703974E+04  0.19761912383E+04  0.00000000000E+00 0. -1.
          1    1    1    2  502    0  0.57595419831E+02 -0.54411710318E+02  0.90132343362E+03  0.90479931399E+03  0.00000000000E+00 0. -1.
         22    1    3    3    0    0 -0.11174455655E+03  0.28485629056E+02 -0.10427746784E+04  0.10491316919E+04  0.00000000000E+00 0. -1.
         22    1    3    3    0    0  0.21684551867E+02 -0.32166831187E+02 -0.35305129181E+03  0.35517620903E+03  0.00000000000E+00 0. -1.
</event>
<event>
 7    1  0.6176857E-006  0.8777707E+02  0.7818608E-02  0.1354328E+00
          2   -1    0    0  502    0  0.00000000000E+00  0.00000000000E+00  0.91295675591E+03  0.91295675591E+03  0.00000000000E+00 0. -1.
          1   -1    0    0  501    0 -0.00000000000E+00 -0.00000000000E+00 -0.36707341789E+03  0.36707341789E+03  0.00000000000E+00 0. -1.
         25    2    1    2    0    0 -0.80084082723E+00 -0.52418717034E+02 -0.22856999299E+03  0.26573958498E+03  0.12499968837E+03 0.  0.
          2    1    1    2  501    0 -0.56821187142E+02 -0.14354623553E+02 -0.11043249712E+03  0.12502015416E+03  0.00000000000E+00 0. -1.
          1    1    1    2  502    0  0.57622027969E+02  0.66773340587E+02  0.88488582813E+03  0.88927043465E+03  0.00000000000E+00 0. -1.
         22    1    3    3    0    0  0.21913885945E+02 -0.42228252009E+02 -0.23521011023E+03  0.23997341440E+03  0.00000000000E+00 0.  1.
         22    1    3    3    0    0 -0.22714726772E+02 -0.10190465025E+02  0.66401172396E+01  0.25766170587E+02  0.00000000000E+00 0.  1.
</event>
<event>
 7    1  0.6176857E-006  0.1383768E+03  0.7818608E-02  0.1254756E+00
          2   -1    0    0  502    0  0.00000000000E+00  0.00000000000E+00  0.13015822009E+04  0.13015822009E+04  0.00000000000E+00 0. -1.
          1   -1    0    0  501    0 -0.00000000000E+00 -0.00000000000E+00 -0.23002821137E+03  0.23002821137E+03  0.00000000000E+00 0. -1.
         25    2    1    2    0    0  0.14792195100E+03  0.30569348195E+02  0.86662689079E+02  0.21436089054E+03  0.12499912431E+03 0.  0.
          2    1    1    2  501    0 -0.55685091875E+02  0.73991023077E+02 -0.14866636539E+03  0.17514904839E+03  0.00000000000E+00 0. -1.
          1    1    1    2  502    0 -0.92236859121E+02 -0.10456037127E+03  0.11335576658E+04  0.11421004733E+04  0.00000000000E+00 0. -1.
         22    1    3    3    0    0  0.30239418214E+02 -0.33752022816E+02  0.63886892153E+02  0.78327239496E+02  0.00000000000E+00 0. -1.
         22    1    3    3    0    0  0.11768253278E+03  0.64321371011E+02  0.22775796926E+02  0.13603365104E+03  0.00000000000E+00 0. -1.
</event>
<event>
 7    1  0.6176857E-006  0.5422616E+02  0.7818608E-02  0.1461402E+00
          2   -1    0    0  502    0  0.00000000000E+00  0.00000000000E+00  0.13079164327E+03  0.13079164327E+03  0.00000000000E+00 0. -1.
          1   -1    0    0  501    0 -0.00000000000E+00 -0.00000000000E+00 -0.52668944984E+03  0.52668944984E+03  0.00000000000E+00 0. -1.
         25    2    1    2    0    0  0.43871085509E+01  0.14173632431E+02 -0.15970771760E+03  0.20337335000E+03  0.12503609820E+03 0.  0.
          2    1    1    2  501    0  0.94920296466E+01  0.39867034043E+02 -0.33668136641E+03  0.33916636260E+03  0.00000000000E+00 0. -1.
          1    1    1    2  502    0 -0.13879138198E+02 -0.54040666474E+02  0.10049127745E+03  0.11494138051E+03  0.00000000000E+00 0. -1.
         22    1    3    3    0    0  0.23989578292E+01  0.20261227746E+02 -0.18048345042E+03  0.18163300423E+03  0.00000000000E+00 0. -1.
         22    1    3    3    0    0  0.19881507216E+01 -0.60875953150E+01  0.20775732823E+02  0.21740345773E+02  0.00000000000E+00 0. -1.
</event>
<event>
 7    1  0.6176857E-006  0.1995533E+03  0.7818608E-02  0.1159579E+00
          2   -1    0    0  502    0  0.00000000000E+00  0.00000000000E+00  0.32439026132E+03  0.32439026132E+03  0.00000000000E+00 0. -1.
          1   -1    0    0  501    0 -0.00000000000E+00 -0.00000000000E+00 -0.95668611741E+03  0.95668611741E+03  0.00000000000E+00 0. -1.
         25    2    1    2    0    0  0.26361059907E+03 -0.43255310266E+02  0.41255683093E+02  0.29781691545E+03  0.12502525318E+03 0.  0.
          2    1    1    2  501    0 -0.10557360664E+03  0.14401023549E+03 -0.75723466076E+03  0.77800325565E+03  0.00000000000E+00 0. -1.
          1    1    1    2  502    0 -0.15803699243E+03 -0.10075492523E+03  0.83683121580E+02  0.20525620763E+03  0.00000000000E+00 0. -1.
         22    1    3    3    0    0  0.56511532343E+02  0.19196949632E+00 -0.42010587657E+02  0.70416472614E+02  0.00000000000E+00 0.  1.
         22    1    3    3    0    0  0.20709906673E+03 -0.43447279762E+02  0.83266270750E+02  0.22740044284E+03  0.00000000000E+00 0.  1.
</event>
<event>
 7    1  0.6176857E-006  0.5396379E+02  0.7818608E-02  0.1479863E+00
          2   -1    0    0  502    0  0.00000000000E+00  0.00000000000E+00  0.75075321463E+03  0.75075321463E+03  0.00000000000E+00 0. -1.
          1   -1    0    0  501    0 -0.00000000000E+00 -0.00000000000E+00 -0.25719116437E+03  0.25719116437E+03  0.00000000000E+00 0. -1.
         25    2    1    2    0    0 -0.26655061870E+02 -0.49400363358E+02  0.96440332284E+02  0.16756128528E+03  0.12500063363E+03 0.  0.
          2    1    1    2  501    0  0.49699654613E+02  0.21633079865E+02 -0.21777970749E+03  0.22442381070E+03  0.00000000000E+00 0. -1.
          1    1    1    2  502    0 -0.23044592743E+02  0.27767283493E+02  0.61490142547E+03  0.61595928302E+03  0.00000000000E+00 0. -1.
         22    1    3    3    0    0 -0.43354059859E+02 -0.33464339967E+02  0.12163214021E+03  0.13339345594E+03  0.00000000000E+00 0. -1.
         22    1    3    3    0    0  0.16698997989E+02 -0.15936023391E+02 -0.25191807922E+02  0.34167829339E+02  0.00000000000E+00 0. -1.
</event>
<event>
 7    1  0.6176857E-006  0.1186613E+03  0.7818608E-02  0.1322119E+00
          2   -1    0    0  502    0  0.00000000000E+00  0.00000000000E+00  0.13118004861E+04  0.13118004861E+04  0.00000000000E+00 0. -1.
          1   -1    0    0  501    0 -0.00000000000E+00 -0.00000000000E+00 -0.84230808995E+02  0.84230808995E+02  0.00000000000E+00 0. -1.
         25    2    1    2    0    0 -0.11820389802E+03 -0.10848604343E+03  0.11803373539E+03  0.23515440268E+03  0.12499698909E+03 0.  0.
          2    1    1    2  501    0  0.14139448425E+02  0.55580134796E+02  0.13862865662E+02  0.59002156148E+02  0.00000000000E+00 0. -1.
          1    1    1    2  502    0  0.10406444960E+03  0.52905908639E+02  0.10956730760E+04  0.11018747363E+04  0.00000000000E+00 0. -1.
         22    1    3    3    0    0  0.22302673116E+02 -0.19726076740E+02  0.44210654879E+02  0.53302057526E+02  0.00000000000E+00 0.  1.
         22    1    3    3    0    0 -0.14050657114E+03 -0.88759966695E+02  0.73823080510E+02  0.18185234515E+03  0.00000000000E+00 0.  1.
</event>
<event>
 7    1  0.6176857E-006  0.4609701E+02  0.7818608E-02  0.1477545E+00
          2   -1    0    0  502    0  0.00000000000E+00  0.00000000000E+00  0.23392225118E+03  0.23392225118E+03  0.00000000000E+00 0. -1.
          1   -1    0    0  501    0 -0.00000000000E+00 -0.00000000000E+00 -0.10830632047E+04  0.10830632047E+04  0.00000000000E+00 0. -1.
         25    2    1    2    0    0  0.31806188268E+02 -0.33667919385E+02 -0.15774636376E+03  0.20652909528E+03  0.12500075803E+03 0.  0.
          2    1    1    2  501    0 -0.46067562422E+02 -0.68354311073E+01 -0.89811573545E+03  0.89932242143E+03  0.00000000000E+00 0. -1.
          1    1    1    2  502    0  0.14261374154E+02  0.40503350492E+02  0.20672114569E+03  0.21113393917E+03  0.00000000000E+00 0. -1.
         22    1    3    3    0    0  0.73809425986E+01  0.47684666350E+02 -0.53101738968E+02  0.71750264111E+02  0.00000000000E+00 0.  1.
         22    1    3    3    0    0  0.24425245669E+02 -0.81352585735E+02 -0.10464462479E+03  0.13477883116E+03  0.00000000000E+00 0.  1.
</event>
<event>
 7    1  0.6176857E-006  0.1720365E+03  0.7818608E-02  0.1279669E+00
          2   -1    0    0  502    0  0.00000000000E+00  0.00000000000E+00  0.14695618228E+03  0.14695618228E+03  0.00000000000E+00 0. -1.
          1   -1    0    0  501    0 -0.00000000000E+00 -0.00000000000E+00 -0.21793711714E+04  0.21793711714E+04  0.00000000000E+00 0. -1.
         25    2    1    2    0    0  0.19406799595E+03  0.32618393708E+01 -0.15049927364E+04  0.15225969150E+04  0.12500080930E+03 0.  0.
          2    1    1    2  501    0 -0.14864802658E+03  0.33566462493E+02 -0.65015705725E+03  0.66777776416E+03  0.00000000000E+00 0. -1.
          1    1    1    2  502    0 -0.45419969361E+02 -0.36828301864E+02  0.12273480459E+03  0.13595267446E+03  0.00000000000E+00 0. -1.
         22    1    3    3    0    0  0.34280118087E+02 -0.21659996988E+02 -0.94086597797E+02  0.10245276888E+03  0.00000000000E+00 0.  1.
         22    1    3    3    0    0  0.15978787786E+03  0.24921836359E+02 -0.14109061386E+04  0.14201441462E+04  0.00000000000E+00 0.  1.
</event>
<event>
 7    1  0.6176857E-006  0.9970678E+02  0.7818608E-02  0.1285618E+00
          2   -1    0    0  502    0  0.00000000000E+00  0.00000000000E+00  0.85493712209E+03  0.85493712209E+03  0.00000000000E+00 0. -1.
          1   -1    0    0  501    0 -0.00000000000E+00 -0.00000000000E+00 -0.15272314618E+04  0.15272314618E+04  0.00000000000E+00 0. -1.
         25    2    1    2    0    0 -0.76347196453E+02  0.11390838504E+03 -0.69227451714E+02  0.19802270038E+03  0.12496613624E+03 0.  0.
          2    1    1    2  501    0  0.97486207337E+02 -0.20916463459E+02 -0.13889368436E+04  0.13925109029E+04  0.00000000000E+00 0. -1.
          1    1    1    2  502    0 -0.21139010884E+02 -0.92991921579E+02  0.78586995567E+03  0.79163498059E+03  0.00000000000E+00 0. -1.
         22    1    3    3    0    0 -0.71327031525E+02  0.75219745958E+02 -0.10321335550E+03  0.14628244037E+03  0.00000000000E+00 0. -1.
         22    1    3    3    0    0 -0.50201649271E+01  0.38688639080E+02  0.33985903782E+02  0.51740260008E+02  0.00000000000E+00 0. -1.
</event>
<event>
 7    1  0.6176857E-006  0.1217935E+03  0.7818608E-02  0.1320375E+00
          2   -1    0    0  502    0  0.00000000000E+00  0.00000000000E+00  0.61204378909E+03  0.61204378909E+03  0.00000000000E+00 0. -1.
          1   -1    0    0  501    0 -0.00000000000E+00 -0.00000000000E+00 -0.50793374708E+03  0.50793374708E+03  0.00000000000E+00 0. -1.
         25    2    1    2    0    0 -0.48192069721E+02 -0.14504739608E+03  0.67010126227E+02  0.20850632995E+03  0.12499323950E+03 0.  0.
          2    1    1    2  501    0  0.74385841461E+02  0.94702630484E+02 -0.42713201576E+03  0.44378328103E+03  0.00000000000E+00 0. -1.
          1    1    1    2  502    0 -0.26193771740E+02  0.50344765598E+02  0.46423193154E+03  0.46768792519E+03  0.00000000000E+00 0. -1.
         22    1    3    3    0    0 -0.89739785462E+01 -0.49140907553E+02  0.89483030160E+02  0.10248206562E+03  0.00000000000E+00 0. -1.
         22    1    3    3    0    0 -0.39218091175E+02 -0.95906488529E+02 -0.22472903934E+02  0.10602426434E+03  0.00000000000E+00 0. -1.
</event>
<event>
 7    1  0.6176857E-006  0.3423224E+02  0.7818608E-02  0.1555853E+00
          2   -1    0    0  502    0  0.00000000000E+00  0.00000000000E+00  0.10632511549E+04  0.10632511549E+04  0.00000000000E+00 0. -1.
          1   -1    0    0  501    0 -0.00000000000E+00 -0.00000000000E+00 -0.79752434853E+02  0.79752434853E+02  0.00000000000E+00 0. -1.
         25    2    1    2    0    0 -0.10520322761E+02 -0.26917026175E+02  0.31868434779E+03  0.34354237026E+03  0.12500577246E+03 0.  0.
          2    1    1    2  501    0  0.34431224757E+02  0.25193631495E+01 -0.62470127275E+02  0.71374878148E+02  0.00000000000E+00 0. -1.
          1    1    1    2  502    0 -0.23910901996E+02  0.24397663025E+02  0.72728449958E+03  0.72808634139E+03  0.00000000000E+00 0. -1.
         22    1    3    3    0    0 -0.55358430135E+02 -0.84977094216E+01  0.26648499819E+03  0.27230685102E+03  0.00000000000E+00 0. -1.
         22    1    3    3    0    0  0.44838107374E+02 -0.18419316753E+02  0.52199349598E+02  0.71235519237E+02  0.00000000000E+00 0. -1.
</event>
<event>
 7    1  0.6176857E-006  0.5407396E+02  0.7818608E-02  0.1450204E+00
          2   -1    0    0  502    0  0.00000000000E+00  0.00000000000E+00  0.11151737169E+03  0.11151737169E+03  0.00000000000E+00 0. -1.
          1   -1    0    0  501    0 -0.00000000000E+00 -0.00000000000E+00 -0.94718066374E+03  0.94718066374E+03  0.00000000000E+00 0. -1.
         25    2    1    2    0    0  0.62970818798E+01  0.15937117337E+02 -0.21941309384E+03  0.25310282185E+03  0.12500115091E+03 0.  0.
          2    1    1    2  501    0 -0.26792744955E+02  0.35656875961E+02 -0.70201509604E+03  0.70343049341E+03  0.00000000000E+00 0. -1.
          1    1    1    2  502    0  0.20495663075E+02 -0.51593993299E+02  0.85764897829E+02  0.10216472018E+03  0.00000000000E+00 0. -1.
         22    1    3    3    0    0 -0.50252192201E+02  0.17216228422E+02 -0.16962615004E+03  0.17774901440E+03  0.00000000000E+00 0.  1.
         22    1    3    3    0    0  0.56549274081E+02 -0.12791110849E+01 -0.49786943802E+02  0.75353807451E+02  0.00000000000E+00 0.  1.
</event>
<event>
 7    1  0.6176857E-006  0.1762039E+03  0.7818608E-02  0.1274529E+00
          2   -1    0    0  502    0  0.00000000000E+00  0.00000000000E+00  0.41443604462E+03  0.41443604462E+03  0.00000000000E+00 0. -1.
          1   -1    0    0  501    0 -0.00000000000E+00 -0.00000000000E+00 -0.24246993362E+03  0.24246993362E+03  0.00000000000E+00 0. -1.
         25    2    1    2    0    0  0.12843245122E+03 -0.15362055947E+02 -0.31530770445E+02  0.18262406645E+03  0.12500589135E+03 0.  0.
          2    1    1    2  501    0  0.59414694533E+02  0.81249570486E+01 -0.10039752446E+03  0.11694350675E+03  0.00000000000E+00 0. -1.
          1    1    1    2  502    0 -0.18784714576E+03  0.72370988984E+01  0.30389440591E+03  0.35733840503E+03  0.00000000000E+00 0. -1.
         22    1    3    3    0    0  0.13641136628E+03 -0.11846485276E+02  0.12727566349E+02  0.13751505739E+03  0.00000000000E+00 0.  1.
         22    1    3    3    0    0 -0.79789150567E+01 -0.35155706712E+01 -0.44258336793E+02  0.45109009060E+02  0.00000000000E+00 0.  1.
</event>
<event>
 7    1  0.6176857E-006  0.9759884E+02  0.7818608E-02  0.1308215E+00
          2   -1    0    0  502    0  0.00000000000E+00  0.00000000000E+00  0.26060841298E+04  0.26060841298E+04  0.00000000000E+00 0. -1.
          1   -1    0    0  501    0 -0.00000000000E+00 -0.00000000000E+00 -0.62257499645E+03  0.62257499645E+03  0.00000000000E+00 0. -1.
         25    2    1    2    0    0 -0.44796062120E+02 -0.68008162344E+02 -0.34885489430E+03  0.37941505749E+03  0.12499700493E+03 0.  0.
          2    1    1    2  501    0 -0.51575294667E+02  0.83438497068E+02 -0.24817642105E+03  0.26685863257E+03  0.00000000000E+00 0. -1.
          1    1    1    2  502    0  0.96371356786E+02 -0.15430334723E+02  0.25805404487E+04  0.25823854361E+04  0.00000000000E+00 0. -1.
         22    1    3    3    0    0 -0.31326238816E+02 -0.94589798947E+02 -0.32862077708E+03  0.34339507631E+03  0.00000000000E+00 0. -1.
         22    1    3    3    0    0 -0.13469823304E+02  0.26581636603E+02 -0.20234117217E+02  0.36019981175E+02  0.00000000000E+00 0. -1.
</event>
<event>
 7    1  0.6176857E-006  0.1430473E+03  0.7818608E-02  0.1328960E+00
          2   -1    0    0  502    0  0.00000000000E+00  0.00000000000E+00  0.75833530649E+02  0.75833530649E+02  0.00000000000E+00 0. -1.
          1   -1    0    0  501    0 -0.00000000000E+00 -0.00000000000E+00 -0.50920758222E+03  0.50920758222E+03  0.00000000000E+00 0. -1.
         25    2    1    2    0    0  0.85412321462E+01 -0.13955859263E+03 -0.21048787503E+03  0.28192088509E+03  0.12499874596E+03 0.  0.
          2    1    1    2  501    0  0.44738126668E+02  0.18566755807E+01 -0.10511207557E+03  0.11425189562E+03  0.00000000000E+00 0. -1.
          1    1    1    2  502    0 -0.53279358815E+02  0.13770191705E+03 -0.11777410097E+03  0.18886833216E+03  0.00000000000E+00 0. -1.
         22    1    3    3    0    0  0.37007051086E+01  0.21971370666E+02 -0.10026842162E+02  0.24433049564E+02  0.00000000000E+00 0.  1.
         22    1    3    3    0    0  0.48405270375E+01 -0.16152996329E+03 -0.20046103287E+03  0.25748783553E+03  0.00000000000E+00 0.  1.
</event>
<event>
 7    1  0.6176857E-006  0.1218795E+03  0.7818608E-02  0.1337158E+00
          2   -1    0    0  502    0  0.00000000000E+00  0.00000000000E+00  0.24915366609E+03  0.24915366609E+03  0.00000000000E+00 0. -1.
          1   -1    0    0  501    0 -0.00000000000E+00 -0.00000000000E+00 -0.29782895491E+04  0.29782895491E+04  0.00000000000E+00 0. -1.
         25    2    1    2    0    0 -0.44749872467E+02  0.76990419614E+02  0.10199237417E+02  0.15381493195E+03  0.12499973219E+03 0.  0.
          2    1    1    2  501    0 -0.40795977564E+02  0.26985413754E+02 -0.28791247070E+04  0.28795401721E+04  0.00000000000E+00 0. -1.
          1    1    1    2  502    0  0.85545850030E+02 -0.10397583337E+03  0.13978958655E+03  0.19408811115E+03  0.00000000000E+00 0. -1.
         22    1    3    3    0    0  0.41015430220E+02  0.35182706242E+02  0.20612642211E+02  0.57835710020E+02  0.00000000000E+00 0.  1.
         22    1    3    3    0    0 -0.85765302687E+02  0.41807713371E+02 -0.10413404794E+02  0.95979221927E+02  0.00000000000E+00 0.  1.
</event>
<event>
 7    1  0.6176857E-006  0.4939857E+02  0.7818608E-02  0.1559740E+00
          2   -1    0    0  502    0  0.00000000000E+00  0.00000000000E+00  0.36367656682E+03  0.36367656682E+03  0.00000000000E+00 0. -1.
          1   -1    0    0  501    0 -0.00000000000E+00 -0.00000000000E+00 -0.17514330875E+04  0.17514330875E+04  0.00000000000E+00 0. -1.
         25    2    1    2    0    0 -0.15615762902E+02  0.25002286554E+02 -0.70155246796E+02  0.14634079752E+03  0.12499961593E+03 0.  0.
          2    1    1    2  501    0  0.12805393855E+02 -0.47925778386E+02 -0.16424005363E+04  0.16431495307E+04  0.00000000000E+00 0. -1.
          1    1    1    2  502    0  0.28103690477E+01  0.22923491831E+02  0.32479926246E+03  0.32561932612E+03  0.00000000000E+00 0. -1.
         22    1    3    3    0    0 -0.45001203089E+02 -0.36213818579E+02 -0.17321596370E+02  0.60304117905E+02  0.00000000000E+00 0.  1.
         22    1    3    3    0    0  0.29385440186E+02  0.61216105134E+02 -0.52833650425E+02  0.86036679620E+02  0.00000000000E+00 0.  1.
</event>
<event>
 7    1  0.6176857E-006  0.7231794E+02  0.7818608E-02  0.1448450E+00
          2   -1    0    0  502    0  0.00000000000E+00  0.00000000000E+00  0.52214041184E+03  0.52214041184E+03  0.00000000000E+00 0. -1.
          1   -1    0    0  501    0 -0.00000000000E+00 -0.00000000000E+00 -0.28444305319E+03  0.28444305319E+03  0.00000000000E+00 0. -1.
         25    2    1    2    0    0  0.33445651655E+02 -0.92309224896E+02 -0.84978042025E+02  0.18023721120E+03  0.12499832023E+03 0.  0.
          2    1    1    2  501    0 -0.10447295112E+02  0.67562437127E+02 -0.14349749752E+03  0.15895081214E+03  0.00000000000E+00 0. -1.
          1    1    1    2  502    0 -0.22998356543E+02  0.24746787769E+02  0.46617289819E+03  0.46739544169E+03  0.00000000000E+00 0. -1.
         22    1    3    3    0    0 -0.47282052014E+02 -0.23925148187E+02 -0.32174433183E+02  0.61993542478E+02  0.00000000000E+00 0. -1.
         22    1    3    3    0    0  0.80727703668E+02 -0.68384076710E+02 -0.52803608843E+02  0.11824366873E+03  0.00000000000E+00 0. -1.
</event>
<event>
 7    1  0.6176857E-006  0.8341347E+02  0.7818608E-02  0.1494701E+00
          2   -1    0    0  502    0  0.00000000000E+00  0.00000000000E+00  0.64674243463E+02  0.64674243463E+02  0.00000000000E+00 0. -1.
          1   -1    0    0  501    0 -0.00000000000E+00 -0.00000000000E+00 -0.94098039379E+03  0.94098039379E+03  0.00000000000E+00 0. -1.
         25    2    1    2    0    0  0.30658194002E+02 -0.97643688118E+02 -0.42681134777E+03  0.45636245524E+03  0.12499819709E+03 0.  0.
          2    1    1    2  501    0 -0.16293330528E+01  0.20980416214E+02 -0.46532660735E+03  0.46580219417E+03  0.00000000000E+00 0. -1.
          1    1    1    2  502    0 -0.29028860949E+02  0.76663271904E+02  0.15831804791E+02  0.83489987843E+02  0.00000000000E+00 0. -1.
         22    1    3    3    0    0 -0.48168406371E+01  0.71614553424E+01  0.54215452791E+01  0.10192229862E+02  0.00000000000E+00 0.  1.
         22    1    3    3    0    0  0.35475034639E+02 -0.10480514346E+03 -0.43223289305E+03  0.44617022537E+03  0.00000000000E+00 0.  1.
</event>
<event>
 7    1  0.6176857E-006  0.9750035E+02  0.7818608E-02  0.1335173E+00
          2   -1    0    0  502    0  0.00000000000E+00  0.00000000000E+00  0.13798159847E+04  0.13798159847E+04  0.00000000000E+00 0. -1.
          1   -1    0    0  501    0 -0.00000000000E+00 -0.00000000000E+00 -0.21799574886E+02  0.21799574886E+02  0.00000000000E+00 0. -1.
         25    2    1    2    0    0 -0.53840284156E+02 -0.87323563870E+02  0.60822969009E+03  0.62935861043E+03  0.12499889443E+03 0.  0.
          2    1    1    2  501    0  0.93316655170E+02  0.39242907528E+02  0.26820848646E+03  0.28667716360E+03  0.00000000000E+00 0. -1.
          1    1    1    2  502    0 -0.39476371014E+02  0.48080656342E+02  0.48157823324E+03  0.48557978553E+03  0.00000000000E+00 0. -1.
         22    1    3    3    0    0 -0.78720533313E+02 -0.13824439472E+02  0.37950199082E+03  0.38782702140E+03  0.00000000000E+00 0. -1.
         22    1    3    3    0    0  0.24880249158E+02 -0.73499124398E+02  0.22872769927E+03  0.24153158903E+03  0.00000000000E+00 0. -1.
</event>
<event>
 7    1  0.6176857E-006  0.8849704E+02  0.7818608E-02  0.1377462E+00
          2   -1    0    0  502    0  0.00000000000E+00  0.00000000000E+00  0.85742471515E+03  0.85742471515E+03  0.00000000000E+00 0. -1.
          1   -1    0    0  501    0 -0.00000000000E+00 -0.00000000000E+00 -0.87946271112E+03  0.87946271112E+03  0.00000000000E+00 0. -1.
         25    2    1    2    0    0  0.13340818777E+03 -0.19076549991E+02  0.47775123389E+03  0.51189142826E+03  0.12499973410E+03 0.  0.
          2    1    1    2  501    0 -0.88237391709E+02  0.30158828820E+01 -0.85853417619E+03  0.86306191234E+03  0.00000000000E+00 0. -1.
          1    1    1    2  502    0 -0.45170796058E+02  0.16060667109E+02  0.35874494633E+03  0.36193408566E+03  0.00000000000E+00 0. -1.
         22    1    3    3    0    0  0.13098772377E+03  0.19424728722E+02  0.43305969453E+03  0.45285295946E+03  0.00000000000E+00 0.  1.
         22    1    3    3    0    0  0.24204639970E+01 -0.38501278714E+02  0.44691539358E+02  0.59038468804E+02  0.00000000000E+00 0.  1.
</event>
<event>
 7    1  0.6176857E-006  0.1178091E+03  0.7818608E-02  0.1290947E+00
          2   -1    0    0  502    0  0.00000000000E+00  0.00000000000E+00  0.96519168556E+03  0.96519168556E+03  0.00000000000E+00 0. -1.
          1   -1    0    0  501    0 -0.00000000000E+00 -0.00000000000E+00 -0.19697220266E+03  0.19697220266E+03  0.00000000000E+00 0. -1.
         25    2    1    2    0    0 -0.47614685085E+02 -0.73733718470E+02  0.29364336639E+03  0.33099199115E+03  0.12500180840E+03 0.  0.
          2    1    1    2  501    0  0.11518767662E+03  0.37296581070E+02 -0.15513994410E+03  0.19679338927E+03  0.00000000000E+00 0. -1.
          1    1    1    2  502    0 -0.67572991539E+02  0.36437137401E+02  0.62971606061E+03  0.63437850780E+03  0.00000000000E+00 0. -1.
         22    1    3    3    0    0 -0.79416150491E+02 -0.28751390110E+02  0.10659567046E+03  0.13600075130E+03  0.00000000000E+00 0. -1.
         22    1    3    3    0    0  0.31801465406E+02 -0.44982328360E+02  0.18704769593E+03  0.19499123985E+03  0.00000000000E+00 0. -1.
</event>
<event>
 7    1  0.6176857E-006  0.1176197E+03  0.7818608E-02  0.1350348E+00
          2   -1    0    0  502    0  0.00000000000E+00  0.00000000000E+00  0.31955924620E+03  0.31955924620E+03  0.00000000000E+00 0. -1.
          1   -1    0    0  501    0 -0.00000000000E+00 -0.00000000000E+00 -0.26603814163E+04  0.26603814163E+04  0.00000000000E+00 0. -1.
         25    2    1    2    0    0  0.80639127615E+02 -0.19829335424E+02  0.19812457918E+02  0.15137141884E+03  0.12499960603E+03 0.  0.
          2    1    1    2  501    0  0.45095310488E+02  0.36364898506E+01 -0.25772161657E+04  0.25776132324E+04  0.00000000000E+00 0. -1.
          1    1    1    2  502    0 -0.12573443810E+03  0.16192845573E+02  0.21658153762E+03  0.25095601131E+03  0.00000000000E+00 0. -1.
         22    1    3    3    0    0  0.45359753360E+02  0.31627382971E+02 -0.37370497325E+02  0.66740936829E+02  0.00000000000E+00 0.  1.
         22    1    3    3    0    0  0.35279374255E+02 -0.51456718395E+02  0.57182955243E+02  0.84630482015E+02  0.00000000000E+00 0.  1.
</event>
<event>
 7    1  0.6176857E-006  0.4704763E+02  0.7818608E-02  0.1476810E+00
          2   -1    0    0  502    0  0.00000000000E+00  0.00000000000E+00  0.26299165670E+03  0.26299165670E+03  0.00000000000E+00 0. -1.
          1   -1    0    0  501    0 -0.00000000000E+00 -0.00000000000E+00 -0.21343480566E+03  0.21343480566E+03  0.00000000000E+00 0. -1.
         25    2    1    2    0    0 -0.11180221517E+02  0.37458434694E+01  0.97095542865E+02  0.15871918408E+03  0.12500082501E+03 0.  0.
          2    1    1    2  501    0  0.17231587651E+02  0.43778437623E+02 -0.17517139416E+03  0.18137942702E+03  0.00000000000E+00 0. -1.
          1    1    1    2  502    0 -0.60513661332E+01 -0.47524281093E+02  0.12763270233E+03  0.13632785126E+03  0.00000000000E+00 0. -1.
         22    1    3    3    0    0 -0.26528877184E+02  0.46265502285E+02  0.19345639616E+01  0.53366848923E+02  0.00000000000E+00 0.  1.
         22    1    3    3    0    0  0.15348655666E+02 -0.42519658815E+02  0.95160978904E+02  0.10535233515E+03  0.00000000000E+00 0.  1.
</event>
<event>
 7    1  0.6176857E-006  0.1828669E+03  0.7818608E-02  0.1340810E+00
          2   -1    0    0  502    0  0.00000000000E+00  0.00000000000E+00  0.12550001485E+03  0.12550001485E+03  0.00000000000E+00 0. -1.
          1   -1    0    0  501    0 -0.00000000000E+00 -0.00000000000E+00 -0.46111920791E+03  0.46111920791E+03  0.00000000000E+00 0. -1.
         25    2    1    2    0    0 -0.17706306508E+03  0.62707790596E+02 -0.12619549817E+03  0.25852881830E+03  0.12501299978E+03 0.  0.
          2    1    1    2  501    0  0.19468060258E+02  0.24869908190E+02 -0.12514780589E+03  0.12907165073E+03  0.00000000000E+00 0. -1.
          1    1    1    2  502    0  0.15759500482E+03 -0.87577698787E+02 -0.84275889001E+02  0.19901875373E+03  0.00000000000E+00 0. -1.
         22    1    3    3    0    0 -0.60446876558E+02  0.59852417677E+02 -0.11255297329E+03  0.14108263034E+03  0.00000000000E+00 0. -1.
         22    1    3    3    0    0 -0.11661618852E+03  0.28553729188E+01 -0.13642524876E+02  0.11744618796E+03  0.00000000000E+00 0. -1.
</event>
<event>
 7    1  0.6176857E-006  0.2077903E+03  0.7818608E-02  0.1224637E+00
          2   -1    0    0  502    0  0.00000000000E+00  0.00000000000E+00  0.85930474001E+03  0.85930474001E+03  0.00000000000E+00 0. -1.
          1   -1    0    0  501    0 -0.00000000000E+00 -0.00000000000E+00 -0.12975349942E+04  0.12975349942E+04  0.00000000000E+00 0. -1.
         25    2    1    2    0    0 -0.88814943258E+02 -0.18274156600E+03 -0.55819727905E+03  0.60703490679E+03  0.12499840654E+03 0.  0.
          2    1    1    2  501    0  0.16303661718E+03  0.14394573458E+03 -0.69618551582E+03  0.72936656455E+03  0.00000000000E+00 0. -1.
          1    1    1    2  502    0 -0.74221673920E+02  0.38795831412E+02  0.81615254071E+03  0.82043826283E+03  0.00000000000E+00 0. -1.
         22    1    3    3    0    0  0.27811739092E+02 -0.37144833849E+02 -0.66070405862E+02  0.80737414151E+02  0.00000000000E+00 0. -1.
         22    1    3    3    0    0 -0.11662668235E+03 -0.14559673215E+03 -0.49212687319E+03  0.52629749264E+03  0.00000000000E+00 0. -1.
</event>
<event>
 7    1  0.6176857E-006  0.5961717E+02  0.7818608E-02  0.1432789E+00
          2   -1    0    0  502    0  0.00000000000E+00  0.00000000000E+00  0.14978652602E+04  0.14978652602E+04  0.00000000000E+00 0. -1.
          1   -1    0    0  501    0 -0.00000000000E+00 -0.00000000000E+00 -0.34389094929E+03  0.34389094929E+03  0.00000000000E+00 0. -1.
         25    2    1    2    0    0  0.92569658745E+01  0.17801786503E+02  0.29640440341E+02  0.13002661529E+03  0.12500307980E+03 0.  0.
          2    1    1    2  501    0 -0.20295037684E+02  0.41352124047E+02 -0.29124853557E+03  0.29486877792E+03  0.00000000000E+00 0. -1.
          1    1    1    2  502    0  0.11038071809E+02 -0.59153910550E+02  0.14155824061E+04  0.14168608163E+04  0.00000000000E+00 0. -1.
         22    1    3    3    0    0  0.48973107948E+02 -0.13594445340E+02  0.53730454682E+02  0.73960367810E+02  0.00000000000E+00 0.  1.
         22    1    3    3    0    0 -0.39716142074E+02  0.31396231843E+02 -0.24090014341E+02  0.56066247477E+02  0.00000000000E+00 0.  1.
</event>
<event>
 7    1  0.6176857E-006  0.1803106E+03  0.7818608E-02  0.1191828E+00
          2   -1    0    0  502    0  0.00000000000E+00  0.00000000000E+00  0.47162910951E+03  0.47162910951E+03  0.00000000000E+00 0. -1.
          1   -1    0    0  501    0 -0.00000000000E+00 -0.00000000000E+00 -0.46279801050E+03  0.46279801050E+03  0.00000000000E+00 0. -1.
         25    2    1    2    0    0  0.61989970838E+02  0.62183051532E+02 -0.75149526609E+01  0.15293949587E+03  0.12499810599E+03 0.  0.
          2    1    1    2  501    0 -0.17769916768E+03 -0.13581750782E+03 -0.33586197812E+03  0.40351785335E+03  0.00000000000E+00 0. -1.
          1    1    1    2  502    0  0.11570919684E+03  0.73634456290E+02  0.35220802979E+03  0.37796977079E+03  0.00000000000E+00 0. -1.
         22    1    3    3    0    0  0.52944256272E+02 -0.23981604858E+02 -0.27077478036E+02  0.64120211014E+02  0.00000000000E+00 0.  1.
         22    1    3    3    0    0  0.90457145661E+01  0.86164656390E+02  0.19562525375E+02  0.88819284853E+02  0.00000000000E+00 0.  1.
</event>
<event>
 7    1  0.6176857E-006  0.6127949E+02  0.7818608E-02  0.1473465E+00
          2   -1    0    0  502    0  0.00000000000E+00  0.00000000000E+00  0.17817269881E+03  0.17817269881E+03  0.00000000000E+00 0. -1.
          1   -1    0    0  501    0 -0.00000000000E+00 -0.00000000000E+00 -0.35299523660E+04  0.35299523660E+04  0.00000000000E+00 0. -1.
         25    2    1    2    0    0  0.63958129521E+01  0.40530462750E+02  0.51240242735E+02  0.14118213494E+03  0.12499283146E+03 0.  0.
          2    1    1    2  501    0 -0.38926277328E+02 -0.47421914902E+02 -0.34813272855E+04  0.34818678554E+04  0.00000000000E+00 0. -1.
          1    1    1    2  502    0  0.32530464376E+02  0.68914521526E+01  0.78307375631E+02  0.85075074514E+02  0.00000000000E+00 0. -1.
         22    1    3    3    0    0  0.47921061724E+02  0.59755573125E+02  0.59961613353E+01  0.76831703268E+02  0.00000000000E+00 0. -1.
         22    1    3    3    0    0 -0.41525248772E+02 -0.19225110375E+02  0.45244081399E+02  0.64350431671E+02  0.00000000000E+00 0. -1.
</event>
<event>
 7    1  0.6176857E-006  0.1673098E+03  0.7818608E-02  0.1307733E+00
          2   -1    0    0  502    0  0.00000000000E+00  0.00000000000E+00  0.84374157028E+03  0.84374157028E+03  0.00000000000E+00 0. -1.
          1   -1    0    0  501    0 -0.00000000000E+00 -0.00000000000E+00 -0.83184893325E+03  0.83184893325E+03  0.00000000000E+00 0. -1.
         25    2    1    2    0    0 -0.23370908369E+01  0.16204891481E+03  0.93658633149E+02  0.22508308278E+03  0.12500056722E+03 0.  0.
          2    1    1    2  501    0 -0.46300134553E+02 -0.19863898328E+00 -0.75498334680E+03  0.75640174237E+03  0.00000000000E+00 0. -1.
          1    1    1    2  502    0  0.48637225390E+02 -0.16185027583E+03  0.67321735069E+03  0.69410567837E+03  0.00000000000E+00 0. -1.
         22    1    3    3    0    0  0.59638606756E+02  0.10277546576E+03  0.57656783191E+02  0.13207522260E+03  0.00000000000E+00 0. -1.
         22    1    3    3    0    0 -0.61975697592E+02  0.59273449050E+02  0.36001849958E+02  0.93007860177E+02  0.00000000000E+00 0. -1.
</event>
<event>
 7    1  0.6176857E-006  0.1261991E+03  0.7818608E-02  0.1309203E+00
          2   -1    0    0  502    0  0.00000000000E+00  0.00000000000E+00  0.15836453964E+04  0.15836453964E+04  0.00000000000E+00 0. -1.
          1   -1    0    0  501    0 -0.00000000000E+00 -0.00000000000E+00 -0.40763366574E+03  0.40763366574E+03  0.00000000000E+00 0. -1.
         25    2    1    2    0    0  0.29267695310E+02  0.98388087174E+02 -0.67378971687E+02  0.17521636741E+03  0.12499614353E+03 0.  0.
          2    1    1    2  501    0  0.60021828379E+02 -0.81159319358E+01 -0.28046291713E+03  0.28692845122E+03  0.00000000000E+00 0. -1.
          1    1    1    2  502    0 -0.89289523689E+02 -0.90272155238E+02  0.15238536194E+04  0.15291342435E+04  0.00000000000E+00 0. -1.
         22    1    3    3    0    0  0.13763237247E+02  0.10944728645E+03 -0.92314140680E+02  0.14384031347E+03  0.00000000000E+00 0.  1.
         22    1    3    3    0    0  0.15504458063E+02 -0.11059199271E+02  0.24935168993E+02  0.31376053944E+02  0.00000000000E+00 0.  1.
</event>
<event>
 7    1  0.6176857E-006  0.1532860E+03  0.7818608E-02  0.1245113E+00
          2   -1    0    0  502    0  0.00000000000E+00  0.00000000000E+00  0.16025047864E+04  0.16025047864E+04  0.00000000000E+00 0. -1.
          1   -1    0    0  501    0 -0.00000000000E+00 -0.00000000000E+00 -0.17465448146E+04  0.17465448146E+04  0.00000000000E+00 0. -1.
         25    2    1    2    0    0  0.26179944356E+02 -0.12958518536E+03  0.16375667118E+03  0.24478321637E+03  0.12499946364E+03 0.  0.
          2    1    1    2  501    0 -0.90869373523E+02 -0.14704321638E+02 -0.17003119313E+04  0.17028018452E+04  0.00000000000E+00 0. -1.
          1    1    1    2  502    0  0.64689429167E+02  0.14428950700E+03  0.13925152319E+04  0.14014645394E+04  0.00000000000E+00 0. -1.
         22    1    3    3    0    0  0.65814388164E+02 -0.60867464929E+02  0.40886351112E+02  0.98529567560E+02  0.00000000000E+00 0. -1.
         22    1    3    3    0    0 -0.39634443808E+02 -0.68717720436E+02  0.12287032007E+03  0.14625364881E+03  0.00000000000E+00 0. -1.
</event>
<event>
 7    1  0.6176857E-006  0.9341712E+02  0.7818608E-02  0.1301510E+00
          2   -1    0    0  502    0  0.00000000000E+00  0.00000000000E+00  0.76601846350E+03  0.76601846350E+03  0.00000000000E+00 0. -1.
          1   -1    0    0  501    0 -0.00000000000E+00 -0.00000000000E+00 -0.10975129241E+04  0.10975129241E+04  0.00000000000E+00 0. -1.
         25    2    1    2    0    0  0.60579126765E+02  0.13366043078E+02 -0.51105589008E+03  0.52976620663E+03  0.12500251674E+03 0.  0.
          2    1    1    2  501    0 -0.73637004460E+02 -0.10017276033E+03 -0.56780713039E+03  0.58125891620E+03  0.00000000000E+00 0. -1.
          1    1    1    2  502    0  0.13057877695E+02  0.86806717251E+02  0.74736855984E+03  0.75250626480E+03  0.00000000000E+00 0. -1.
         22    1    3    3    0    0 -0.38530167193E+02  0.11611268266E+02 -0.13555016335E+03  0.14139746150E+03  0.00000000000E+00 0. -1.
         22    1    3    3    0    0  0.99109293958E+02  0.17547748121E+01 -0.37550572673E+03  0.38836874513E+03  0.00000000000E+00 0. -1.
</event>
<event>
 7    1  0.6176857E-006  0.1019378E+03  0.7818608E-02  0.1283347E+00
          2   -1    0    0  502    0  0.00000000000E+00  0.00000000000E+00  0.14365078795E+03  0.14365078795E+03  0.00000000000E+00 0. -1.
          1   -1    0    0  501    0 -0.00000000000E+00 -0.00000000000E+00 -0.52672183235E+03  0.52672183235E+03  0.00000000000E+00 0. -1.
         25    2    1    2    0    0  0.15165354703E+02  0.46255789667E+02 -0.31363945691E+03  0.34111672188E+03  0.12498529096E+03 0.  0.
          2    1    1    2  501    0 -0.89923767355E+02  0.31555724664E+02 -0.16142669156E+03  0.18745832722E+03  0.00000000000E+00 0. -1.
          1    1    1    2  502    0  0.74758412652E+02 -0.77811514331E+02  0.91995104077E+02  0.14179757120E+03  0.00000000000E+00 0. -1.
         22    1    3    3    0    0 -0.26526462060E+02  0.23575940698E+02 -0.14667019966E+02  0.38400516193E+02  0.00000000000E+00 0. -1.
         22    1    3    3    0    0  0.41691816762E+02  0.22679848969E+02 -0.29897243695E+03  0.30271620569E+03  0.00000000000E+00 0. -1.
</event>
<event>
 7    1  0.6176857E-006  0.3011006E+03  0.7818608E-02  0.1181697E+00
          2   -1    0    0  502    0  0.00000000000E+00  0.00000000000E+00  0.11657673439E+04  0.11657673439E+04  0.00000000000E+00 0. -1.
          1   -1    0    0  501    0 -0.00000000000E+00 -0.00000000000E+00 -0.34953029027E+03  0.34953029027E+03  0.00000000000E+00 0. -1.
         25    2    1    2    0    0  0.32880434997E+03 -0.14754327763E+03  0.60370708129E+03  0.71412116698E+03  0.12500192716E+03 0.  0.
          2    1    1    2  501    0 -0.24007015757E+03  0.17151578326E+03 -0.21423828406E+03  0.36462225223E+03  0.00000000000E+00 0. -1.
          1    1    1    2  502    0 -0.88734192403E+02 -0.23972505625E+02  0.42676825637E+03  0.43655421493E+03  0.00000000000E+00 0. -1.
         22    1    3    3    0    0  0.36055661940E+02 -0.69106078553E+02  0.13762762133E+03  0.15816770531E+03  0.00000000000E+00 0.  1.
         22    1    3    3    0    0  0.29274868803E+03 -0.78437199080E+02  0.46607945996E+03  0.55595346167E+03  0.00000000000E+00 0.  1.
</event>
<event>
 7    1  0.6176857E-006  0.3525310E+03  0.7818608E-02  0.1282335E+00
          2   -1    0    0  502    0  0.00000000000E+00  0.00000000000E+00  0.10694109827E+04  0.10694109827E+04  0.00000000000E+00 0. -1.
          1   -1    0    0  501    0 -0.00000000000E+00 -0.00000000000E+00 -0.41410491176E+03  0.41410491176E+03  0.00000000000E+00 0. -1.
         25    2    1    2    0    0  0.20189616603E+03 -0.30049099318E+03  0.32465972410E+03  0.50208158532E+03  0.12500033210E+03 0.  0.
          2    1    1    2  501    0 -0.27813833434E+02 -0.69133724309E+00 -0.27853629524E+03  0.27992240897E+03  0.00000000000E+00 0. -1.
          1    1    1    2  502    0 -0.17408233260E+03  0.30118233043E+03  0.60918264211E+03  0.70151190021E+03  0.00000000000E+00 0. -1.
         22    1    3    3    0    0 -0.14899539425E+02 -0.43168027065E+02  0.50214258143E+02  0.67874491207E+02  0.00000000000E+00 0.  1.
         22    1    3    3    0    0  0.21679570545E+03 -0.25732296612E+03  0.27444546595E+03  0.43420709411E+03  0.00000000000E+00 0.  1.
</event>
<event>
 7    1  0.6176857E-006  0.1135421E+03  0.7818608E-02  0.1418213E+00
          2   -1    0    0  502    0  0.00000000000E+00  0.00000000000E+00  0.98751919300E+03  0.98751919300E+03  0.00000000000E+00 0. -1.
          1   -1    0    0  501    0 -0.00000000000E+00 -0.00000000000E+00 -0.11169981067E+04  0.11169981067E+04  0.00000000000E+00 0. -1.
         25    2    1    2    0    0  0.17710492979E+02  0.10643247454E+03  0.28759325477E+03  0.33162604900E+03  0.12499769192E+03 0.  0.
          2    1    1    2  501    0 -0.25614429342E+02  0.86379532298E+01 -0.10899067734E+04  0.10902419401E+04  0.00000000000E+00 0. -1.
          1    1    1    2  502    0  0.79039363629E+01 -0.11507042777E+03  0.67283460498E+03  0.68264931056E+03  0.00000000000E+00 0. -1.
         22    1    3    3    0    0  0.54923752588E+02  0.80896233747E+02  0.10474888345E+03  0.14329392108E+03  0.00000000000E+00 0. -1.
         22    1    3    3    0    0 -0.37213259609E+02  0.25536240788E+02  0.18284437132E+03  0.18833212792E+03  0.00000000000E+00 0. -1.
</event>
<event>
 7    1  0.6176857E-006  0.3975663E+02  0.7818608E-02  0.1531740E+00
          2   -1    0    0  502    0  0.00000000000E+00  0.00000000000E+00  0.11318509095E+02  0.11318509095E+02  0.00000000000E+00 0. -1.
          1   -1    0    0  501    0 -0.00000000000E+00 -0.00000000000E+00 -0.17150272177E+04  0.17150272177E+04  0.00000000000E+00 0. -1.
         25    2    1    2    0    0  0.24434393960E+02  0.51156011096E+01 -0.44746137655E+03  0.46527382114E+03  0.12503933842E+03 0.  0.
          2    1    1    2  501    0  0.13122704733E+02  0.31783174751E+02 -0.92733171731E+03  0.92796901323E+03  0.00000000000E+00 0. -1.
          1    1    1    2  502    0 -0.37557098693E+02 -0.36898775861E+02 -0.32891561479E+03  0.33310289247E+03  0.00000000000E+00 0. -1.
         22    1    3    3    0    0  0.37648951911E+02  0.60107014373E+02 -0.25356596531E+03  0.26329830140E+03  0.00000000000E+00 0. -1.
         22    1    3    3    0    0 -0.13214557951E+02 -0.54991413263E+02 -0.19389541124E+03  0.20197551974E+03  0.00000000000E+00 0. -1.
</event>
<event>
 7    1  0.6176857E-006  0.6085564E+02  0.7818608E-02  0.1516143E+00
          2   -1    0    0  502    0  0.00000000000E+00  0.00000000000E+00  0.62652190231E+03  0.62652190231E+03  0.00000000000E+00 0. -1.
          1   -1    0    0  501    0 -0.00000000000E+00 -0.00000000000E+00 -0.12842847990E+04  0.12842847990E+04  0.00000000000E+00 0. -1.
         25    2    1    2    0    0 -0.62682042097E+00  0.45499782459E+02 -0.14011028599E+03  0.19319835104E+03  0.12499634993E+03 0.  0.
          2    1    1    2  501    0 -0.22340070427E+02  0.11041080615E+02 -0.11159391524E+04  0.11162173517E+04  0.00000000000E+00 0. -1.
          1    1    1    2  502    0  0.22966890848E+02 -0.56540863074E+02  0.59828654170E+03  0.60139099865E+03  0.00000000000E+00 0. -1.
         22    1    3    3    0    0  0.10451952065E+01 -0.43706413131E+02 -0.42944500229E+02  0.61282730698E+02  0.00000000000E+00 0. -1.
         22    1    3    3    0    0 -0.16720156275E+01  0.89206195590E+02 -0.97165785761E+02  0.13191562034E+03  0.00000000000E+00 0. -1.
</event>
<event>
 7    1  0.6176857E-006  0.1127939E+03  0.7818608E-02  0.1368782E+00
          2   -1    0    0  502    0  0.00000000000E+00  0.00000000000E+00  0.26459758759E+04  0.26459758759E+04  0.00000000000E+00 0. -1.
          1   -1    0    0  501    0 -0.00000000000E+00 -0.00000000000E+00 -0.19239334845E+04  0.19239334845E+04  0.00000000000E+00 0. -1.
         25    2    1    2    0    0  0.91232403132E+02  0.69367806636E+02  0.11882370520E+04  0.12002812145E+04  0.12502982963E+03 0.  0.
          2    1    1    2  501    0 -0.10798711860E+03 -0.32602702187E+02 -0.19159711288E+04  0.19192888059E+04  0.00000000000E+00 0. -1.
          1    1    1    2  502    0  0.16754715466E+02 -0.36765104449E+02  0.14497764682E+04  0.14503393400E+04  0.00000000000E+00 0. -1.
         22    1    3    3    0    0  0.41582768895E+02 -0.82672155203E+01  0.80517121677E+03  0.80628664991E+03  0.00000000000E+00 0.  1.
         22    1    3    3    0    0  0.49649634238E+02  0.77635022157E+02  0.38306583520E+03  0.39399456461E+03  0.00000000000E+00 0.  1.
</event>
<event>
 7    1  0.6176857E-006  0.2136889E+03  0.7818608E-02  0.1202393E+00
          2   -1    0    0  502    0  0.00000000000E+00  0.00000000000E+00  0.33914004181E+04  0.33914004181E+04  0.00000000000E+00 0. -1.
          1   -1    0    0  501    0 -0.00000000000E+00 -0.00000000000E+00 -0.13082614577E+03  0.13082614577E+03  0.00000000000E+00 0. -1.
         25    2    1    2    0    0 -0.20843635478E+03 -0.13276592513E+03  0.45873052369E+03  0.53584590387E+03  0.12499853785E+03 0.  0.
          2    1    1    2  501    0  0.92685554789E+02 -0.45214404225E+02 -0.58235076092E+02  0.11843259055E+03  0.00000000000E+00 0. -1.
          1    1    1    2  502    0  0.11575079999E+03  0.17798032936E+03  0.28600788247E+04  0.28679480694E+04  0.00000000000E+00 0. -1.
         22    1    3    3    0    0 -0.16547984858E+03 -0.37780718386E+02  0.24508276493E+03  0.29812166080E+03  0.00000000000E+00 0.  1.
         22    1    3    3    0    0 -0.42956506195E+02 -0.94985206747E+02  0.21364775875E+03  0.23772424308E+03  0.00000000000E+00 0.  1.
</event>
<event>
 7    1  0.6176857E-006  0.4056448E+02  0.7818608E-02  0.1538844E+00
          2   -1    0    0  502    0  0.00000000000E+00  0.00000000000E+00  0.35891560602E+03  0.35891560602E+03  0.00000000000E+00 0. -1.
          1   -1    0    0  501    0 -0.00000000000E+00 -0.00000000000E+00 -0.68363808805E+03  0.68363808805E+03  0.00000000000E+00 0. -1.
         25    2    1    2    0    0 -0.40457886182E+02 -0.53731605786E+02 -0.36883165061E+03  0.39520623370E+03  0.12500901829E+03 0.  0.
          2    1    1    2  501    0  0.66268310362E+01  0.31478735519E+02 -0.29956935871E+03  0.30129159689E+03  0.00000000000E+00 0. -1.
          1    1    1    2  502    0  0.33831055146E+02  0.22252870268E+02  0.34367852729E+03  0.34605586347E+03  0.00000000000E+00 0. -1.
         22    1    3    3    0    0 -0.35951264948E+01 -0.43675733419E+02 -0.34977199012E+03  0.35250665199E+03  0.00000000000E+00 0.  1.
         22    1    3    3    0    0 -0.36862759688E+02 -0.10055872368E+02 -0.19059660490E+02  0.42699581717E+02  0.00000000000E+00 0.  1.
</event>
<event>
 7    1  0.6176857E-006  0.4596441E+02  0.7818608E-02  0.1556985E+00
          2   -1    0    0  502    0  0.00000000000E+00  0.00000000000E+00  0.45457709969E+03  0.45457709969E+03  0.00000000000E+00 0. -1.
          1   -1    0    0  501    0 -0.00000000000E+00 -0.00000000000E+00 -0.56228867050E+03  0.56228867050E+03  0.00000000000E+00 0. -1.
         25    2    1    2    0    0  0.47883429426E+01  0.70892418321E+02 -0.15589314817E+03  0.21207630948E+03  0.12500009677E+03 0.  0.
          2    1    1    2  501    0 -0.14838101016E+01 -0.25215199112E+02 -0.37665029586E+03  0.37749629578E+03  0.00000000000E+00 0. -1.
          1    1    1    2  502    0 -0.33045328410E+01 -0.45677219209E+02  0.42483187322E+03  0.42729316493E+03  0.00000000000E+00 0. -1.
         22    1    3    3    0    0  0.42385009100E+02 -0.63651666019E+01 -0.12043108300E+02  0.44520116799E+02  0.00000000000E+00 0. -1.
         22    1    3    3    0    0 -0.37596666157E+02  0.77257584923E+02 -0.14385003987E+03  0.16755619268E+03  0.00000000000E+00 0. -1.
</event>
<event>
 7    1  0.6176857E-006  0.5817223E+02  0.7818608E-02  0.1465065E+00
          2   -1    0    0  502    0  0.00000000000E+00  0.00000000000E+00  0.21682695007E+03  0.21682695007E+03  0.00000000000E+00 0. -1.
          1   -1    0    0  501    0 -0.00000000000E+00 -0.00000000000E+00 -0.12702578720E+04  0.12702578720E+04  0.00000000000E+00 0. -1.
         25    2    1    2    0    0 -0.74606007222E+02 -0.39193975457E+02 -0.62373774366E+03  0.64169659158E+03  0.12499407486E+03 0.  0.
          2    1    1    2  501    0  0.16878358265E+02  0.33153992872E+02 -0.63293160526E+03  0.63402403989E+03  0.00000000000E+00 0. -1.
          1    1    1    2  502    0  0.57727648957E+02  0.60399825857E+01  0.20323842701E+03  0.21136419057E+03  0.00000000000E+00 0. -1.
         22    1    3    3    0    0 -0.73598558790E+02 -0.10900386834E+01 -0.57563677024E+03  0.58032372629E+03  0.00000000000E+00 0.  1.
         22    1    3    3    0    0 -0.10074484326E+01 -0.38103936774E+02 -0.48100973421E+02  0.61372865291E+02  0.00000000000E+00 0.  1.
</event>
<event>
 7    1  0.6176857E-006  0.7443937E+02  0.7818608E-02  0.1369918E+00
          2   -1    0    0  502    0  0.00000000000E+00  0.00000000000E+00  0.48204273160E+03  0.48204273160E+03  0.00000000000E+00 0. -1.
          1   -1    0    0  501    0 -0.00000000000E+00 -0.00000000000E+00 -0.55442738395E+03  0.55442738395E+03  0.00000000000E+00 0. -1.
         25    2    1    2    0    0 -0.54428226076E+02 -0.47278004248E+02 -0.10675823198E+03  0.17953541755E+03  0.12505200750E+03 0.  0.
          2    1    1    2  501    0  0.53928033668E+02 -0.27744382910E+02 -0.40585394108E+03  0.41036009198E+03  0.00000000000E+00 0. -1.
          1    1    1    2  502    0  0.50019240735E+00  0.75022387159E+02  0.44022752070E+03  0.44657460603E+03  0.00000000000E+00 0. -1.
         22    1    3    3    0    0 -0.90388228728E+02 -0.54531249347E+02 -0.65080394505E+02  0.12401268805E+03  0.00000000000E+00 0. -1.
         22    1    3    3    0    0  0.35960002652E+02  0.72532450988E+01 -0.41677837471E+02  0.55522729503E+02  0.00000000000E+00 0. -1.
</event>
<event>
 7    1  0.6176857E-006  0.9438322E+02  0.7818608E-02  0.1370657E+00
          2   -1    0    0  502    0  0.00000000000E+00  0.00000000000E+00  0.13814822415E+03  0.13814822415E+03  0.00000000000E+00 0. -1.
          1   -1    0    0  501    0 -0.00000000000E+00 -0.00000000000E+00 -0.66347919042E+03  0.66347919042E+03  0.00000000000E+00 0. -1.
         25    2    1    2    0    0  0.33878959638E+02 -0.51728348268E+02 -0.35175487859E+03  0.37839119173E+03  0.12499917377E+03 0.  0.
          2    1    1    2  501    0  0.47539542412E+02  0.21498794411E+00 -0.27748823778E+03  0.28153112869E+03  0.00000000000E+00 0. -1.
          1    1    1    2  502    0 -0.81418502050E+02  0.51513360324E+02  0.10391215011E+03  0.14170509415E+03  0.00000000000E+00 0. -1.
         22    1    3    3    0    0  0.54462877726E+02 -0.45765945530E+02 -0.34970041344E+03  0.35686286719E+03  0.00000000000E+00 0.  1.
         22    1    3    3    0    0 -0.20583918088E+02 -0.59624027376E+01 -0.20544651524E+01  0.21528324536E+02  0.00000000000E+00 0.  1.
</event>
<event>
 7    1  0.6176857E-006  0.1277662E+03  0.7818608E-02  0.1261296E+00
          2   -1    0    0  502    0  0.00000000000E+00  0.00000000000E+00  0.21013350441E+04  0.21013350441E+04  0.00000000000E+00 0. -1.
          1   -1    0    0  501    0 -0.00000000000E+00 -0.00000000000E+00 -0.30827746523E+03  0.30827746523E+03  0.00000000000E+00 0. -1.
         25    2    1    2    0    0  0.12674694703E+03  0.12071636964E+03  0.73619928957E+03  0.76697595760E+03  0.12500198037E+03 0.  0.
          2    1    1    2  501    0 -0.12452472139E+03 -0.26710762152E+02 -0.27731096448E+03  0.30515773310E+03  0.00000000000E+00 0. -1.
          1    1    1    2  502    0 -0.22222256372E+01 -0.94005607485E+02  0.13341692537E+04  0.13374788186E+04  0.00000000000E+00 0. -1.
         22    1    3    3    0    0 -0.66258335888E+01  0.50087873930E+02  0.88313278930E+02  0.10174444467E+03  0.00000000000E+00 0.  1.
         22    1    3    3    0    0  0.13337278062E+03  0.70628495707E+02  0.64788601064E+03  0.66523151293E+03  0.00000000000E+00 0.  1.
</event>
<event>
 7    1  0.6176857E-006  0.1491847E+03  0.7818608E-02  0.1334081E+00
          2   -1    0    0  502    0  0.00000000000E+00  0.00000000000E+00  0.98175293328E+03  0.98175293328E+03  0.00000000000E+00 0. -1.
          1   -1    0    0  501    0 -0.00000000000E+00 -0.00000000000E+00 -0.17368248495E+03  0.17368248495E+03  0.00000000000E+00 0. -1.
         25    2    1    2    0    0  0.40216113634E+02 -0.10935812134E+03  0.14437129207E+03  0.22370572947E+03  0.12499859570E+03 0.  0.
          2    1    1    2  501    0 -0.57918069522E+02  0.14639243240E+03 -0.87024480826E+02  0.17988470559E+03  0.00000000000E+00 0. -1.
          1    1    1    2  502    0  0.17701955889E+02 -0.37034311068E+02  0.75072363709E+03  0.75184498317E+03  0.00000000000E+00 0. -1.
         22    1    3    3    0    0 -0.42458930938E+02 -0.17198515927E+02  0.51568295745E+02  0.68977089621E+02  0.00000000000E+00 0.  1.
         22    1    3    3    0    0  0.82675044572E+02 -0.92159605409E+02  0.92802996323E+02  0.15472863985E+03  0.00000000000E+00 0.  1.
</event>
<event>
 7    1  0.6176857E-006  0.5067610E+02  0.7818608E-02  0.1514827E+00
          2   -1    0    0  502    0  0.00000000000E+00  0.00000000000E+00  0.11542684148E+04  0.11542684148E+04  0.00000000000E+00 0. -1.
          1   -1    0    0  501    0 -0.00000000000E+00 -0.00000000000E+00 -0.32334316259E+02  0.32334316259E+02  0.00000000000E+00 0. -1.
         25    2    1    2    0    0  0.24905555505E+02  0.22306875567E+02  0.52051332549E+03  0.53635517750E+03  0.12499948409E+03 0.  0.
          2    1    1    2  501    0 -0.51304165087E+02 -0.76563710774E+01  0.39587197785E+01  0.52023156725E+02  0.00000000000E+00 0. -1.
          1    1    1    2  502    0  0.26398609582E+02 -0.14650504490E+02  0.59746205329E+03  0.59822439685E+03  0.00000000000E+00 0. -1.
         22    1    3    3    0    0  0.55787040353E+02  0.29794732641E+01  0.47396151816E+03  0.47724269699E+03  0.00000000000E+00 0.  1.
         22    1    3    3    0    0 -0.30881484848E+02  0.19327402303E+02  0.46551807329E+02  0.59112480508E+02  0.00000000000E+00 0.  1.
</event>
<event>
 7    1  0.6176857E-006  0.6092390E+02  0.7818608E-02  0.1547512E+00
          2   -1    0    0  502    0  0.00000000000E+00  0.00000000000E+00  0.14323188483E+04  0.14323188483E+04  0.00000000000E+00 0. -1.
          1   -1    0    0  501    0 -0.00000000000E+00 -0.00000000000E+00 -0.20550951026E+03  0.20550951026E+03  0.00000000000E+00 0. -1.
         25    2    1    2    0    0  0.63641675223E+02 -0.90424081905E+01 -0.64905682351E+02  0.15482170517E+03  0.12499993927E+03 0.  0.
          2    1    1    2  501    0 -0.90943565215E+01 -0.18091227605E+02 -0.93897249713E+02  0.96055678335E+02  0.00000000000E+00 0. -1.
          1    1    1    2  502    0 -0.54547318702E+02  0.27133635795E+02  0.13856122701E+04  0.13869509751E+04  0.00000000000E+00 0. -1.
         22    1    3    3    0    0  0.69251539847E+02  0.41350319552E+02 -0.12005545801E+02  0.81546047287E+02  0.00000000000E+00 0. -1.
         22    1    3    3    0    0 -0.56098646231E+01 -0.50392727743E+02 -0.52900136550E+02  0.73275657878E+02  0.00000000000E+00 0. -1.
</event>
<event>
 7    1  0.6176857E-006  0.1130730E+03  0.7818608E-02  0.1302114E+00
          2   -1    0    0  502    0  0.00000000000E+00  0.00000000000E+00  0.28613034154E+04  0.28613034154E+04  0.00000000000E+00 0. -1.
          1   -1    0    0  501    0 -0.00000000000E+00 -0.00000000000E+00 -0.21800810921E+03  0.21800810921E+03  0.00000000000E+00 0. -1.
         25    2    1    2    0    0  0.43879058313E+02 -0.15892953384E+03  0.29178903593E+03  0.35770062694E+03  0.12499971416E+03 0.  0.
          2    1    1    2  501    0 -0.53944792607E+02  0.47869982040E+02 -0.17674910094E+03  0.19089740835E+03  0.00000000000E+00 0. -1.
          1    1    1    2  502    0  0.10065734294E+02  0.11105955180E+03  0.25282553712E+04  0.25307134893E+04  0.00000000000E+00 0. -1.
         22    1    3    3    0    0  0.14134990794E+01 -0.11840976686E+03  0.93424623284E+02  0.15083444932E+03  0.00000000000E+00 0.  1.
         22    1    3    3    0    0  0.42465559234E+02 -0.40519766982E+02  0.19836441264E+03  0.20686617761E+03  0.00000000000E+00 0.  1.
</event>
<event>
 7    1  0.6176857E-006  0.1228660E+03  0.7818608E-02  0.1240715E+00
          2   -1    0    0  502    0  0.00000000000E+00  0.00000000000E+00  0.69944184621E+03  0.69944184621E+03  0.00000000000E+00 0. -1.
          1   -1    0    0  501    0 -0.00000000000E+00 -0.00000000000E+00 -0.21495991832E+03  0.21495991832E+03  0.00000000000E+00 0. -1.
         25    2    1    2    0    0  0.13648630788E+03 -0.55794400536E+02  0.18435214291E+03  0.26711917819E+03  0.12500166157E+03 0.  0.
          2    1    1    2  501    0 -0.10011215645E+03 -0.66275099900E+02 -0.14270536136E+03  0.18649303712E+03  0.00000000000E+00 0. -1.
          1    1    1    2  502    0 -0.36374151429E+02  0.12206950044E+03  0.44283514634E+03  0.46078954922E+03  0.00000000000E+00 0. -1.
         22    1    3    3    0    0  0.20758454816E+02 -0.46561336736E+02  0.12858934027E+03  0.13832602776E+03  0.00000000000E+00 0. -1.
         22    1    3    3    0    0  0.11572785306E+03 -0.92330638001E+01  0.55762802642E+02  0.12879315044E+03  0.00000000000E+00 0. -1.
</event>
<event>
 7    1  0.6176857E-006  0.1240653E+03  0.7818608E-02  0.1340351E+00
          2   -1    0    0  502    0  0.00000000000E+00  0.00000000000E+00  0.10472605463E+04  0.10472605463E+04  0.00000000000E+00 0. -1.
          1   -1    0    0  501    0 -0.00000000000E+00 -0.00000000000E+00 -0.48316334941E+03  0.48316334941E+03  0.00000000000E+00 0. -1.
         25    2    1    2    0    0  0.10488497066E+02 -0.15925076912E+03 -0.75614844624E+02  0.21636394262E+03  0.12499973961E+03 0.  0.
          2    1    1    2  501    0  0.23007274540E+02  0.40683110639E+02 -0.33164398265E+03  0.33492115699E+03  0.00000000000E+00 0. -1.
          1    1    1    2  502    0 -0.33495771606E+02  0.11856765848E+03  0.97135602420E+03  0.97913879614E+03  0.00000000000E+00 0. -1.
         22    1    3    3    0    0  0.45746330512E+02 -0.21169904087E+02 -0.51065788739E+02  0.71753789962E+02  0.00000000000E+00 0.  1.
         22    1    3    3    0    0 -0.35257833446E+02 -0.13808086503E+03 -0.24549055885E+02  0.14461015266E+03  0.00000000000E+00 0.  1.
</event>
<event>
 7    1  0.6176857E-006  0.1075416E+03  0.7818608E-02  0.1297349E+00
          2   -1    0    0  502    0  0.00000000000E+00  0.00000000000E+00  0.24571755569E+03  0.24571755569E+03  0.00000000000E+00 0. -1.
          1   -1    0    0  501    0 -0.00000000000E+00 -0.00000000000E+00 -0.82817259236E+03  0.82817259236E+03  0.00000000000E+00 0. -1.
         25    2    1    2    0    0 -0.47378792337E+02  0.22581671405E+02  0.24626251393E+01  0.13564871718E+03  0.12505929835E+03 0.  0.
          2    1    1    2  501    0  0.45653113969E+02 -0.10180063825E+03 -0.74834597496E+03  0.75661699360E+03  0.00000000000E+00 0. -1.
          1    1    1    2  502    0  0.17256783673E+01  0.79218966841E+02  0.16342831315E+03  0.18162443727E+03  0.00000000000E+00 0. -1.
         22    1    3    3    0    0  0.34389770235E+02  0.36892875867E+02  0.12695727809E+02  0.52008865505E+02  0.00000000000E+00 0.  1.
         22    1    3    3    0    0 -0.81768562572E+02 -0.14311204462E+02 -0.10233102669E+02  0.83639851676E+02  0.00000000000E+00 0.  1.
</event>
<event>
 7    1  0.6176857E-006  0.5202254E+02  0.7818608E-02  0.1496653E+00
          2   -1    0    0  502    0  0.00000000000E+00  0.00000000000E+00  0.12925240548E+04  0.12925240548E+04  0.00000000000E+00 0. -1.
          1   -1    0    0  501    0 -0.00000000000E+00 -0.00000000000E+00 -0.49729928019E+02  0.49729928019E+02  0.00000000000E+00 0. -1.
         25    2    1    2    0    0 -0.37344106580E+02  0.73172338899E+02  0.20214540525E+03  0.25146618655E+03  0.12499481845E+03 0.  0.
          2    1    1    2  501    0  0.57007629293E+01 -0.32797670631E+02 -0.13112439249E+02  0.35778792040E+02  0.00000000000E+00 0. -1.
          1    1    1    2  502    0  0.31643343651E+02 -0.40374668268E+02  0.10537611607E+04  0.10550090042E+04  0.00000000000E+00 0. -1.
         22    1    3    3    0    0 -0.82864813579E+02  0.51230533364E+02  0.14993344598E+03  0.17880487438E+03  0.00000000000E+00 0. -1.
         22    1    3    3    0    0  0.45520706998E+02  0.21941805535E+02  0.52211959276E+02  0.72661312176E+02  0.00000000000E+00 0. -1.
</event>
<event>
 7    1  0.6176857E-006  0.7735894E+02  0.7818608E-02  0.1362985E+00
          2   -1    0    0  502    0  0.00000000000E+00  0.00000000000E+00  0.16125895191E+04  0.16125895191E+04  0.00000000000E+00 0. -1.
          1   -1    0    0  501    0 -0.00000000000E+00 -0.00000000000E+00 -0.14448807544E+02  0.14448807544E+02  0.00000000000E+00 0. -1.
         25    2    1    2    0    0 -0.17675403473E+02 -0.76629896746E+02  0.72964709550E+03  0.74443866619E+03  0.12497792923E+03 0.  0.
          2    1    1    2  501    0 -0.54386467380E+02  0.29398504873E+02  0.51775778481E+03  0.52143579054E+03  0.00000000000E+00 0. -1.
          1    1    1    2  502    0  0.72061870853E+02  0.47231391873E+02  0.35073583128E+03  0.36116386994E+03  0.00000000000E+00 0. -1.
         22    1    3    3    0    0  0.16992588404E+02 -0.23661435639E+02  0.29583403241E+02  0.41518542177E+02  0.00000000000E+00 0.  1.
         22    1    3    3    0    0 -0.34667991877E+02 -0.52968461107E+02  0.70006369225E+03  0.70292012402E+03  0.00000000000E+00 0.  1.
</event>
<event>
 7    1  0.6878220E-006  0.1416446E+03  0.7818608E-02  0.1315316E+00
          2   -1    0    0  502    0  0.00000000000E+00  0.00000000000E+00  0.36596656582E+04  0.36596656582E+04  0.00000000000E+00 0. -1.
          1   -1    0    0  501    0 -0.00000000000E+00 -0.00000000000E+00 -0.94433445556E+03  0.94433445556E+03  0.00000000000E+00 0. -1.
         25    2    1    2    0    0  0.83830873913E+02  0.41307527096E+02 -0.36795246402E+03  0.39968539632E+03  0.12500189216E+03 0.  0.
          2    1    1    2  501    0  0.33206642587E+02  0.38789214045E+02 -0.55796935166E+03  0.56030088491E+03  0.00000000000E+00 0. -1.
          1    1    1    2  502    0 -0.11703751650E+03 -0.80096741141E+02  0.36412530183E+04  0.36440138325E+04  0.00000000000E+00 0. -1.
         22    1    3    3    0    0  0.35366011660E+02  0.69723445411E+02 -0.10563203122E+03  0.13141628377E+03  0.00000000000E+00 0. -1.
         22    1    3    3    0    0  0.48464862253E+02 -0.28415918315E+02 -0.26232043280E+03  0.26826911256E+03  0.00000000000E+00 0. -1.
</event>
<event>
 7    1  0.6176857E-006  0.4196934E+03  0.7818608E-02  0.1188152E+00
          2   -1    0    0  502    0  0.00000000000E+00  0.00000000000E+00  0.37852344010E+04  0.37852344010E+04  0.00000000000E+00 0. -1.
          1   -1    0    0  501    0 -0.00000000000E+00 -0.00000000000E+00 -0.39318124156E+03  0.39318124156E+03  0.00000000000E+00 0. -1.
         25    2    1    2    0    0 -0.25617321070E+03 -0.39370883355E+03  0.50240592477E+03  0.69904739295E+03  0.12499673936E+03 0.  0.
          2    1    1    2  501    0  0.12948144861E+02  0.59984645619E+02 -0.27811403692E+03  0.28480384425E+03  0.00000000000E+00 0. -1.
          1    1    1    2  502    0  0.24322506584E+03  0.33372418793E+03  0.31677612716E+04  0.31945644053E+04  0.00000000000E+00 0. -1.
         22    1    3    3    0    0 -0.17797270910E+03 -0.24659162820E+03  0.23645237033E+03  0.38521609483E+03  0.00000000000E+00 0. -1.
         22    1    3    3    0    0 -0.78200501606E+02 -0.14711720535E+03  0.26595355444E+03  0.31383129812E+03  0.00000000000E+00 0. -1.
</event>
<event>
 7    1  0.6176857E-006  0.5577240E+02  0.7818608E-02  0.1491661E+00
          2   -1    0    0  502    0  0.00000000000E+00  0.00000000000E+00  0.68752587117E+03  0.68752587117E+03  0.00000000000E+00 0. -1.
          1   -1    0    0  501    0 -0.00000000000E+00 -0.00000000000E+00 -0.65449022264E+03  0.65449022264E+03  0.00000000000E+00 0. -1.
         25    2    1    2    0    0  0.62113654882E+02 -0.88238440094E+01  0.11192271836E+03  0.17912934476E+03  0.12499864368E+03 0.  0.
          2    1    1    2  501    0 -0.43448504057E+02  0.34992891843E+02 -0.61915511075E+03  0.62166335436E+03  0.00000000000E+00 0. -1.
          1    1    1    2  502    0 -0.18665150826E+02 -0.26169047833E+02  0.54026804092E+03  0.54122339469E+03  0.00000000000E+00 0. -1.
         22    1    3    3    0    0  0.81755003881E+02 -0.29382139953E+02  0.29190356193E+02  0.91647518801E+02  0.00000000000E+00 0. -1.
         22    1    3    3    0    0 -0.19641348999E+02  0.20558295943E+02  0.82732362172E+02  0.87481825959E+02  0.00000000000E+00 0. -1.
</event>
<event>
 7    1  0.6176857E-006  0.1306374E+03  0.7818608E-02  0.1239497E+00
          2   -1    0    0  502    0  0.00000000000E+00  0.00000000000E+00  0.21218891349E+03  0.21218891349E+03  0.00000000000E+00 0. -1.
          1   -1    0    0  501    0 -0.00000000000E+00 -0.00000000000E+00 -0.73736880044E+03  0.73736880044E+03  0.00000000000E+00 0. -1.
         25    2    1    2    0    0 -0.86807001102E+01  0.68381553386E+01 -0.76306259586E+02  0.14686866097E+03  0.12500257357E+03 0.  0.
          2    1    1    2  501    0 -0.10170446055E+03  0.81989795135E+02 -0.58905965323E+03  0.60337169213E+03  0.00000000000E+00 0. -1.
          1    1    1    2  502    0  0.11038516066E+03 -0.88827950473E+02  0.14018602587E+03  0.19931736083E+03  0.00000000000E+00 0. -1.
         22    1    3    3    0    0  0.21060230814E+02  0.39901676586E+02  0.13126392505E+02  0.46989140198E+02  0.00000000000E+00 0.  1.
         22    1    3    3    0    0 -0.29740930924E+02 -0.33063521248E+02 -0.89432652091E+02  0.99879520772E+02  0.00000000000E+00 0.  1.
</event>
<event>
 7    1  0.6176857E-006  0.8859817E+02  0.7818608E-02  0.1452023E+00
          2   -1    0    0  502    0  0.00000000000E+00  0.00000000000E+00  0.62436699045E+02  0.62436699045E+02  0.00000000000E+00 0. -1.
          1   -1    0    0  501    0 -0.00000000000E+00 -0.00000000000E+00 -0.16801337193E+04  0.16801337193E+04  0.00000000000E+00 0. -1.
         25    2    1    2    0    0 -0.21067465949E+02  0.76298926014E+02 -0.13819772514E+04  0.13898749342E+04  0.12500338063E+03 0.  0.
          2    1    1    2  501    0 -0.26823914133E+02 -0.13821758863E+01 -0.25931457748E+03  0.26070190423E+03  0.00000000000E+00 0. -1.
          1    1    1    2  502    0  0.47891380081E+02 -0.74916750127E+02  0.23594808667E+02  0.91993579840E+02  0.00000000000E+00 0. -1.
         22    1    3    3    0    0  0.21397329910E+02 -0.19625530549E+02 -0.11674788349E+03  0.12030409584E+03  0.00000000000E+00 0. -1.
         22    1    3    3    0    0 -0.42464795859E+02  0.95924456563E+02 -0.12652293679E+04  0.12695708384E+04  0.00000000000E+00 0. -1.
</event>
<event>
 7    1  0.6176857E-006  0.8440563E+02  0.7818608E-02  0.1401676E+00
          2   -1    0    0  502    0  0.00000000000E+00  0.00000000000E+00  0.35467927176E+03  0.35467927176E+03  0.00000000000E+00 0. -1.
          1   -1    0    0  501    0 -0.00000000000E+00 -0.00000000000E+00 -0.21835170834E+03  0.21835170834E+03  0.00000000000E+00 0. -1.
         25    2    1    2    0    0  0.51859506545E+02  0.23416447582E+02 -0.31415350179E+02  0.14088887082E+03  0.12500004503E+03 0.  0.
          2    1    1    2  501    0 -0.92208551378E+02 -0.14273244251E+02 -0.11403478039E+03  0.14734338664E+03  0.00000000000E+00 0. -1.
          1    1    1    2  502    0  0.40349044833E+02 -0.91432033317E+01  0.28177769399E+03  0.28479872263E+03  0.00000000000E+00 0. -1.
         22    1    3    3    0    0  0.52390023937E+02 -0.37642981272E+02  0.12453518523E+02  0.65702349812E+02  0.00000000000E+00 0. -1.
         22    1    3    3    0    0 -0.53051739215E+00  0.61059428854E+02 -0.43868868702E+02  0.75186521012E+02  0.00000000000E+00 0. -1.
</event>
<event>
 7    1  0.6176857E-006  0.7438951E+02  0.7818608E-02  0.1412034E+00
          2   -1    0    0  502    0  0.00000000000E+00  0.00000000000E+00  0.13145661083E+04  0.13145661083E+04  0.00000000000E+00 0. -1.
          1   -1    0    0  501    0 -0.00000000000E+00 -0.00000000000E+00 -0.14921320568E+03  0.14921320568E+03  0.00000000000E+00 0. -1.
         25    2    1    2    0    0  0.40945906899E+02 -0.31009290422E+02  0.80829134029E+02  0.15747163227E+03  0.12500329067E+03 0.  0.
          2    1    1    2  501    0 -0.28472688777E+02  0.72454566320E+02 -0.96783886905E+02  0.12420740297E+03  0.00000000000E+00 0. -1.
          1    1    1    2  502    0 -0.12473218122E+02 -0.41445275898E+02  0.11813076555E+04  0.11821002788E+04  0.00000000000E+00 0. -1.
         22    1    3    3    0    0 -0.20784612052E+02 -0.53543980721E+02  0.57936885202E+01  0.57728024359E+02  0.00000000000E+00 0.  1.
         22    1    3    3    0    0  0.61730518951E+02  0.22534690299E+02  0.75035445509E+02  0.99743607913E+02  0.00000000000E+00 0.  1.
</event>
<event>
 7    1  0.6176857E-006  0.1875162E+03  0.7818608E-02  0.1332015E+00
          2   -1    0    0  502    0  0.00000000000E+00  0.00000000000E+00  0.75483114628E+03  0.75483114628E+03  0.00000000000E+00 0. -1.
          1   -1    0    0  501    0 -0.00000000000E+00 -0.00000000000E+00 -0.19405287126E+04  0.19405287126E+04  0.00000000000E+00 0. -1.
         25    2    1    2    0    0 -0.11656038549E+03  0.16229998394E+03  0.31741578024E+02  0.23782349169E+03  0.12499950868E+03 0.  0.
          2    1    1    2  501    0 -0.14367069324E+02 -0.29989121081E+02 -0.18233628039E+04  0.18236659987E+04  0.00000000000E+00 0. -1.
          1    1    1    2  502    0  0.13092745482E+03 -0.13231086286E+03  0.60592365956E+03  0.63387036851E+03  0.00000000000E+00 0. -1.
         22    1    3    3    0    0 -0.11069641193E+03  0.11011906750E+03  0.71722642047E+02  0.17182561515E+03  0.00000000000E+00 0. -1.
         22    1    3    3    0    0 -0.58639735678E+01  0.52180916443E+02 -0.39981064023E+02  0.65997876536E+02  0.00000000000E+00 0. -1.
</event>
<event>
 7    1  0.6176857E-006  0.3627247E+03  0.7818608E-02  0.1225019E+00
          2   -1    0    0  502    0  0.00000000000E+00  0.00000000000E+00  0.11022917085E+04  0.11022917085E+04  0.00000000000E+00 0. -1.
          1   -1    0    0  501    0 -0.00000000000E+00 -0.00000000000E+00 -0.92016257737E+03  0.92016257737E+03  0.00000000000E+00 0. -1.
         25    2    1    2    0    0  0.29483994248E+03 -0.26491949807E+03  0.54000899810E+03  0.68143001001E+03  0.12499683348E+03 0.  0.
          2    1    1    2  501    0 -0.24710259477E+03  0.26275566648E+03 -0.80984615165E+03  0.88653878762E+03  0.00000000000E+00 0. -1.
          1    1    1    2  502    0 -0.47737347714E+02  0.21638315863E+01  0.45196628468E+03  0.45448548824E+03  0.00000000000E+00 0. -1.
         22    1    3    3    0    0  0.33395399868E+02 -0.78477456358E+02  0.17895035174E+03  0.19823519434E+03  0.00000000000E+00 0.  1.
         22    1    3    3    0    0  0.26144454261E+03 -0.18644204171E+03  0.36105864636E+03  0.48319481567E+03  0.00000000000E+00 0.  1.
</event>
<event>
 7    1  0.6176857E-006  0.8771809E+02  0.7818608E-02  0.1397187E+00
          2   -1    0    0  502    0  0.00000000000E+00  0.00000000000E+00  0.13760183607E+04  0.13760183607E+04  0.00000000000E+00 0. -1.
          1   -1    0    0  501    0 -0.00000000000E+00 -0.00000000000E+00 -0.35157167623E+02  0.35157167623E+02  0.00000000000E+00 0. -1.
         25    2    1    2    0    0 -0.11739756221E+03  0.23105228391E+02  0.82741438653E+03  0.84530794395E+03  0.12495964903E+03 0.  0.
          2    1    1    2  501    0  0.77815607580E+02 -0.34722110579E+02  0.46443357288E+02  0.97045758188E+02  0.00000000000E+00 0. -1.
          1    1    1    2  502    0  0.39581954627E+02  0.11616882188E+02  0.46700344922E+03  0.46882182614E+03  0.00000000000E+00 0. -1.
         22    1    3    3    0    0 -0.60394691008E+02  0.22431980234E+01  0.71502104639E+03  0.71757065675E+03  0.00000000000E+00 0.  1.
         22    1    3    3    0    0 -0.57002871199E+02  0.20862030368E+02  0.11239334013E+03  0.12773728721E+03  0.00000000000E+00 0.  1.
</event>
<event>
 7    1  0.6986002E-006  0.1805887E+03  0.7818608E-02  0.1187671E+00
          2   -1    0    0  502    0  0.00000000000E+00  0.00000000000E+00  0.18346414065E+04  0.18346414065E+04  0.00000000000E+00 0. -1.
          1   -1    0    0  501    0 -0.00000000000E+00 -0.00000000000E+00 -0.11319069983E+04  0.11319069983E+04  0.00000000000E+00 0. -1.
         25    2    1    2    0    0  0.59490212778E+02 -0.90695740512E+02 -0.31109151642E+03  0.35237677046E+03  0.12500661587E+03 0.  0.
          2    1    1    2  501    0 -0.11767207421E+03 -0.81919669800E+02 -0.78912367854E+03  0.80204347100E+03  0.00000000000E+00 0. -1.
          1    1    1    2  502    0  0.58181861429E+02  0.17261541031E+03  0.18029496031E+04  0.18121281633E+04  0.00000000000E+00 0. -1.
         22    1    3    3    0    0  0.31038993787E+02 -0.78235060103E+02 -0.70511150922E+02  0.10979966379E+03  0.00000000000E+00 0.  1.
         22    1    3    3    0    0  0.28451218991E+02 -0.12460680410E+02 -0.24058036550E+03  0.24257710667E+03  0.00000000000E+00 0.  1.
</event>
<event>
 7    1  0.6176857E-006  0.8942842E+02  0.7818608E-02  0.1377436E+00
          2   -1    0    0  502    0  0.00000000000E+00  0.00000000000E+00  0.26180953454E+03  0.26180953454E+03  0.00000000000E+00 0. -1.
          1   -1    0    0  501    0 -0.00000000000E+00 -0.00000000000E+00 -0.65116583392E+03  0.65116583392E+03  0.00000000000E+00 0. -1.
         25    2    1    2    0    0  0.12508557059E+02 -0.12776014710E+03  0.61336942186E+01  0.17929053434E+03  0.12501341653E+03 0.  0.
          2    1    1    2  501    0  0.10826981399E+02  0.46200194686E+02 -0.55286707941E+03  0.55489971077E+03  0.00000000000E+00 0. -1.
          1    1    1    2  502    0 -0.23335538458E+02  0.81559952414E+02  0.15737708581E+03  0.17878512335E+03  0.00000000000E+00 0. -1.
         22    1    3    3    0    0  0.47404231506E+02 -0.17603233891E+02 -0.29281503747E+02  0.58433222313E+02  0.00000000000E+00 0.  1.
         22    1    3    3    0    0 -0.34895674448E+02 -0.11015691321E+03  0.35415197966E+02  0.12085731203E+03  0.00000000000E+00 0.  1.
</event>
<event>
 7    1  0.6176857E-006  0.6019149E+02  0.7818608E-02  0.1418635E+00
          2   -1    0    0  502    0  0.00000000000E+00  0.00000000000E+00  0.91357031467E+03  0.91357031467E+03  0.00000000000E+00 0. -1.
          1   -1    0    0  501    0 -0.00000000000E+00 -0.00000000000E+00 -0.40676076021E+03  0.40676076021E+03  0.00000000000E+00 0. -1.
         25    2    1    2    0    0 -0.52652966667E+02 -0.12286521739E+02 -0.31297144730E+03  0.34132009795E+03  0.12499995570E+03 0.  0.
          2    1    1    2  501    0  0.17055367589E+02  0.60823378213E+02 -0.65900440102E+02  0.91286564765E+02  0.00000000000E+00 0. -1.
          1    1    1    2  502    0  0.35597599078E+02 -0.48536856474E+02  0.88568144186E+03  0.88772441216E+03  0.00000000000E+00 0. -1.
         22    1    3    3    0    0 -0.33717667247E+02 -0.42008488360E+02 -0.29833728133E+03  0.30316122379E+03  0.00000000000E+00 0. -1.
         22    1    3    3    0    0 -0.18935299420E+02  0.29721966621E+02 -0.14634165976E+02  0.38158874168E+02  0.00000000000E+00 0. -1.
</event>
<event>
 7    1  0.8480305E-006  0.7465057E+02  0.7818608E-02  0.1360802E+00
          2   -1    0    0  502    0  0.00000000000E+00  0.00000000000E+00  0.66580517730E+03  0.66580517730E+03  0.00000000000E+00 0. -1.
          1   -1    0    0  501    0 -0.00000000000E+00 -0.00000000000E+00 -0.26120016895E+04  0.26120016895E+04  0.00000000000E+00 0. -1.
         25    2    1    2    0    0 -0.38644763894E+02 -0.42171686006E+02 -0.26098801432E+03  0.29497921803E+03  0.12500450622E+03 0.  0.
          2    1    1    2  501    0 -0.18332904464E+02  0.73968273810E+02 -0.23317535252E+04  0.23329984790E+04  0.00000000000E+00 0. -1.
          1    1    1    2  502    0  0.56977668358E+02 -0.31796587804E+02  0.64654502723E+03  0.64982916980E+03  0.00000000000E+00 0. -1.
         22    1    3    3    0    0 -0.16511667346E+02 -0.44212595504E+02 -0.17279210918E+02  0.50258928458E+02  0.00000000000E+00 0.  1.
         22    1    3    3    0    0 -0.22133096548E+02  0.20409094983E+01 -0.24370880340E+03  0.24472028958E+03  0.00000000000E+00 0.  1.
</event>
<event>
 7    1  0.6176857E-006  0.3285056E+02  0.7818608E-02  0.1577272E+00
          2   -1    0    0  502    0  0.00000000000E+00  0.00000000000E+00  0.48022019589E+03  0.48022019589E+03  0.00000000000E+00 0. -1.
          1   -1    0    0  501    0 -0.00000000000E+00 -0.00000000000E+00 -0.24180051599E+03  0.24180051599E+03  0.00000000000E+00 0. -1.
         25    2    1    2    0    0 -0.12249636661E+02  0.66239269444E+00  0.26318732664E+03  0.29162121800E+03  0.12499949409E+03 0.  0.
          2    1    1    2  501    0 -0.82069931191E+01 -0.30012970446E+02 -0.22492654031E+03  0.22706845150E+03  0.00000000000E+00 0. -1.
          1    1    1    2  502    0  0.20456629780E+02  0.29350577751E+02  0.20015889358E+03  0.20333104238E+03  0.00000000000E+00 0. -1.
         22    1    3    3    0    0 -0.62830621054E+02  0.12942512483E+02  0.19841074981E+03  0.20852343084E+03  0.00000000000E+00 0. -1.
         22    1    3    3    0    0  0.50580984393E+02 -0.12280119789E+02  0.64776576829E+02  0.83097787154E+02  0.00000000000E+00 0. -1.
</event>
<event>
 7    1  0.6176857E-006  0.3785761E+02  0.7818608E-02  0.1527434E+00
          2   -1    0    0  502    0  0.00000000000E+00  0.00000000000E+00  0.18769945849E+04  0.18769945849E+04  0.00000000000E+00 0. -1.
          1   -1    0    0  501    0 -0.00000000000E+00 -0.00000000000E+00 -0.16085020192E+04  0.16085020192E+04  0.00000000000E+00 0. -1.
         25    2    1    2    0    0  0.40356201647E+02  0.52194789971E+02  0.25552691155E+02  0.14363436872E+03  0.12499989097E+03 0.  0.
          2    1    1    2  501    0 -0.34014479954E+02 -0.14941989004E+02 -0.15490392564E+04  0.15494847097E+04  0.00000000000E+00 0. -1.
          1    1    1    2  502    0 -0.63417216926E+01 -0.37252800967E+02  0.17919791309E+04  0.17923775256E+04  0.00000000000E+00 0. -1.
         22    1    3    3    0    0 -0.83906850552E+00  0.86701136787E+02  0.78676718818E+01  0.87061423242E+02  0.00000000000E+00 0. -1.
         22    1    3    3    0    0  0.41195270153E+02 -0.34506346816E+02  0.17685019273E+02  0.56572945479E+02  0.00000000000E+00 0. -1.
</event>
<event>
 7    1  0.6176857E-006  0.1223809E+03  0.7818608E-02  0.1387866E+00
          2   -1    0    0  502    0  0.00000000000E+00  0.00000000000E+00  0.83466027603E+03  0.83466027603E+03  0.00000000000E+00 0. -1.
          1   -1    0    0  501    0 -0.00000000000E+00 -0.00000000000E+00 -0.41098426661E+03  0.41098426661E+03  0.00000000000E+00 0. -1.
         25    2    1    2    0    0  0.95752276511E+02 -0.70793629888E+01  0.16917504450E+03  0.23122312804E+03  0.12500129368E+03 0.  0.
          2    1    1    2  501    0  0.31825150057E+02 -0.14502932189E+01 -0.37283201035E+03  0.37419066192E+03  0.00000000000E+00 0. -1.
          1    1    1    2  502    0 -0.12757742657E+03  0.85296562076E+01  0.62733297528E+03  0.64023075268E+03  0.00000000000E+00 0. -1.
         22    1    3    3    0    0  0.78917460456E+02  0.52368747412E+02  0.11559412215E+03  0.14944046422E+03  0.00000000000E+00 0. -1.
         22    1    3    3    0    0  0.16834816055E+02 -0.59448110400E+02  0.53580922349E+02  0.81782663820E+02  0.00000000000E+00 0. -1.
</event>
<event>
 7    1  0.6176857E-006  0.3939055E+02  0.7818608E-02  0.1526304E+00
          2   -1    0    0  502    0  0.00000000000E+00  0.00000000000E+00  0.87599964492E+03  0.87599964492E+03  0.00000000000E+00 0. -1.
          1   -1    0    0  501    0 -0.00000000000E+00 -0.00000000000E+00 -0.52280060480E+02  0.52280060480E+02  0.00000000000E+00 0. -1.
         25    2    1    2    0    0 -0.40449674957E+02 -0.12232150462E+02  0.61192587864E+03  0.62599009422E+03  0.12499806160E+03 0.  0.
          2    1    1    2  501    0  0.24410801413E+02 -0.26424591428E+02 -0.36054856637E+02  0.50932297660E+02  0.00000000000E+00 0. -1.
          1    1    1    2  502    0  0.16038873543E+02  0.38656741890E+02  0.24784856243E+03  0.25135731351E+03  0.00000000000E+00 0. -1.
         22    1    3    3    0    0 -0.60364459489E+02  0.42186675486E+02  0.36503950546E+03  0.37239417840E+03  0.00000000000E+00 0. -1.
         22    1    3    3    0    0  0.19914784533E+02 -0.54418825948E+02  0.24688637318E+03  0.25359591582E+03  0.00000000000E+00 0. -1.
</event>
<event>
 7    1  0.6176857E-006  0.1345220E+03  0.7818608E-02  0.1312359E+00
          2   -1    0    0  502    0  0.00000000000E+00  0.00000000000E+00  0.21622040994E+04  0.21622040994E+04  0.00000000000E+00 0. -1.
          1   -1    0    0  501    0 -0.00000000000E+00 -0.00000000000E+00 -0.65184164202E+03  0.65184164202E+03  0.00000000000E+00 0. -1.
         25    2    1    2    0    0  0.44297125955E+02 -0.93636541536E+02  0.60593072167E+03  0.62730134190E+03  0.12499958721E+03 0.  0.
          2    1    1    2  501    0  0.53299562527E+02 -0.14430765221E+02 -0.63652866876E+03  0.63891927229E+03  0.00000000000E+00 0. -1.
          1    1    1    2  502    0 -0.97596688481E+02  0.10806730676E+03  0.15409604045E+04  0.15478251273E+04  0.00000000000E+00 0. -1.
         22    1    3    3    0    0  0.36031204884E+02 -0.11117815535E+02  0.38672998055E+02  0.54013464305E+02  0.00000000000E+00 0. -1.
         22    1    3    3    0    0  0.82659210706E+01 -0.82518726000E+02  0.56725772362E+03  0.57328787759E+03  0.00000000000E+00 0. -1.
</event>
<event>
 7    1  0.6176857E-006  0.7515600E+02  0.7818608E-02  0.1400751E+00
          2   -1    0    0  502    0  0.00000000000E+00  0.00000000000E+00  0.62423275887E+02  0.62423275887E+02  0.00000000000E+00 0. -1.
          1   -1    0    0  501    0 -0.00000000000E+00 -0.00000000000E+00 -0.71518479329E+03  0.71518479329E+03  0.00000000000E+00 0. -1.
         25    2    1    2    0    0  0.17507591319E+02  0.73410301198E+02 -0.54952879801E+02  0.15601437103E+03  0.12500030757E+03 0.  0.
          2    1    1    2  501    0 -0.46596826322E+02  0.44087108005E+01 -0.44676403339E+03  0.44920908549E+03  0.00000000000E+00 0. -1.
          1    1    1    2  502    0  0.29089235003E+02 -0.77819011998E+02 -0.15104460421E+03  0.17238461266E+03  0.00000000000E+00 0. -1.
         22    1    3    3    0    0  0.51818176654E+02  0.20744084947E+02 -0.71796149226E+02  0.90940241564E+02  0.00000000000E+00 0.  1.
         22    1    3    3    0    0 -0.34310585335E+02  0.52666216251E+02  0.16843269425E+02  0.65074129461E+02  0.00000000000E+00 0.  1.
</event>
<event>
 7    1  0.6176857E-006  0.1451115E+03  0.7818608E-02  0.1256470E+00
          2   -1    0    0  502    0  0.00000000000E+00  0.00000000000E+00  0.57780263860E+03  0.57780263860E+03  0.00000000000E+00 0. -1.
          1   -1    0    0  501    0 -0.00000000000E+00 -0.00000000000E+00 -0.90694356975E+03  0.90694356975E+03  0.00000000000E+00 0. -1.
         25    2    1    2    0    0 -0.10041582644E+03 -0.19487004852E+03 -0.15542667221E+03  0.29637909590E+03  0.12500177615E+03 0.  0.
          2    1    1    2  501    0  0.40655741064E+02  0.13188865936E+03 -0.67024300356E+03  0.68430489664E+03  0.00000000000E+00 0. -1.
          1    1    1    2  502    0  0.59760085380E+02  0.62981389161E+02  0.49652874461E+03  0.50406221581E+03  0.00000000000E+00 0. -1.
         22    1    3    3    0    0 -0.56645131154E+02 -0.20030103122E+03 -0.13125802242E+03  0.24608503092E+03  0.00000000000E+00 0.  1.
         22    1    3    3    0    0 -0.43770695290E+02  0.54309827043E+01 -0.24168649789E+02  0.50294064978E+02  0.00000000000E+00 0.  1.
</event>
<event>
 7    1  0.6176857E-006  0.8505625E+02  0.7818608E-02  0.1412042E+00
          2   -1    0    0  502    0  0.00000000000E+00  0.00000000000E+00  0.16594662042E+04  0.16594662042E+04  0.00000000000E+00 0. -1.
          1   -1    0    0  501    0 -0.00000000000E+00 -0.00000000000E+00 -0.59277109445E+03  0.59277109445E+03  0.00000000000E+00 0. -1.
         25    2    1    2    0    0  0.46292454755E+00 -0.78276039113E+02  0.64176123515E+00  0.14748854448E+03  0.12500042519E+03 0.  0.
          2    1    1    2  501    0  0.37372530368E+02  0.77176214872E+02 -0.51558025191E+03  0.52266229090E+03  0.00000000000E+00 0. -1.
          1    1    1    2  502    0 -0.37835454916E+02  0.10998242415E+01  0.15816336005E+04  0.15820864633E+04  0.00000000000E+00 0. -1.
         22    1    3    3    0    0  0.70883159871E+01 -0.84825484494E+02 -0.48163213773E+02  0.97802362979E+02  0.00000000000E+00 0. -1.
         22    1    3    3    0    0 -0.66253914395E+01  0.65494453810E+01  0.48804975008E+02  0.49686181500E+02  0.00000000000E+00 0. -1.
</event>
<event>
 7    1  0.6176857E-006  0.6592405E+02  0.7818608E-02  0.1380611E+00
          2   -1    0    0  502    0  0.00000000000E+00  0.00000000000E+00  0.20591026382E+03  0.20591026382E+03  0.00000000000E+00 0. -1.
          1   -1    0    0  501    0 -0.00000000000E+00 -0.00000000000E+00 -0.11349169145E+04  0.11349169145E+04  0.00000000000E+00 0. -1.
         25    2    1    2    0    0 -0.28023418380E+02 -0.77515420203E+02 -0.18608865243E+03  0.23884690929E+03  0.12499962867E+03 0.  0.
          2    1    1    2  501    0  0.59666875558E+02  0.19339383224E+02 -0.91523178658E+03  0.91737853199E+03  0.00000000000E+00 0. -1.
          1    1    1    2  502    0 -0.31643457178E+02  0.58176036979E+02  0.17231378834E+03  0.18460173703E+03  0.00000000000E+00 0. -1.
         22    1    3    3    0    0  0.67739809106E+01 -0.21980895334E+02  0.14925514029E+02  0.27419291495E+02  0.00000000000E+00 0. -1.
         22    1    3    3    0    0 -0.34797399291E+02 -0.55534524869E+02 -0.20101416646E+03  0.21142761780E+03  0.00000000000E+00 0. -1.
</event>
<event>
 7    1  0.6176857E-006  0.1405241E+03  0.7818608E-02  0.1316684E+00
          2   -1    0    0  502    0  0.00000000000E+00  0.00000000000E+00  0.11580482114E+04  0.11580482114E+04  0.00000000000E+00 0. -1.
          1   -1    0    0  501    0 -0.00000000000E+00 -0.00000000000E+00 -0.76635653897E+02  0.76635653897E+02  0.00000000000E+00 0. -1.
         25    2    1    2    0    0  0.16576555248E+03 -0.84472034248E+02  0.81268758495E+03  0.84303095958E+03  0.12500538035E+03 0.  0.
          2    1    1    2  501    0 -0.12505518510E+03  0.54020320399E+02  0.19879132145E+02  0.13766689591E+03  0.00000000000E+00 0. -1.
          1    1    1    2  502    0 -0.40710367380E+02  0.30451713848E+02  0.24884584046E+03  0.25398600985E+03  0.00000000000E+00 0. -1.
         22    1    3    3    0    0  0.17926004867E+02  0.29182835566E+02  0.18839009250E+03  0.19147795303E+03  0.00000000000E+00 0.  1.
         22    1    3    3    0    0  0.14783954761E+03 -0.11365486981E+03  0.62429749244E+03  0.65155300655E+03  0.00000000000E+00 0.  1.
</event>
<event>
 7    1  0.6176857E-006  0.1443702E+03  0.7818608E-02  0.1322722E+00
          2   -1    0    0  502    0  0.00000000000E+00  0.00000000000E+00  0.49414624588E+03  0.49414624588E+03  0.00000000000E+00 0. -1.
          1   -1    0    0  501    0 -0.00000000000E+00 -0.00000000000E+00 -0.10258771290E+04  0.10258771290E+04  0.00000000000E+00 0. -1.
         25    2    1    2    0    0  0.99805416840E+02  0.15544591390E+03 -0.22530392171E+02  0.22418027364E+03  0.12499849254E+03 0.  0.
          2    1    1    2  501    0 -0.61718668872E+02 -0.12810327856E+03 -0.89549467936E+03  0.90671404800E+03  0.00000000000E+00 0. -1.
          1    1    1    2  502    0 -0.38086747968E+02 -0.27342635345E+02  0.38629418842E+03  0.38912905325E+03  0.00000000000E+00 0. -1.
         22    1    3    3    0    0  0.12117853072E+03  0.84904687415E+02 -0.26707272696E+02  0.15035398454E+03  0.00000000000E+00 0.  1.
         22    1    3    3    0    0 -0.21373113880E+02  0.70541226485E+02  0.41768805256E+01  0.73826289097E+02  0.00000000000E+00 0.  1.
</event>
<event>
 7    1  0.6176857E-006  0.5718863E+02  0.7818608E-02  0.1527506E+00
          2   -1    0    0  502    0  0.00000000000E+00  0.00000000000E+00  0.70505869785E+03  0.70505869785E+03  0.00000000000E+00 0. -1.
          1   -1    0    0  501    0 -0.00000000000E+00 -0.00000000000E+00 -0.46158641744E+03  0.46158641744E+03  0.00000000000E+00 0. -1.
         25    2    1    2    0    0 -0.25070248245E+02  0.21230119561E+02  0.59130624800E+03  0.60526686772E+03  0.12500266762E+03 0.  0.
          2    1    1    2  501    0  0.46070606208E+02 -0.34007142595E+02 -0.45135794268E+03  0.45497580037E+03  0.00000000000E+00 0. -1.
          1    1    1    2  502    0 -0.21000357963E+02  0.12777023033E+02  0.10352397509E+03  0.10640244720E+03  0.00000000000E+00 0. -1.
         22    1    3    3    0    0 -0.14291148260E+02 -0.52490802023E+02  0.27149557741E+03  0.27689234328E+03  0.00000000000E+00 0.  1.
         22    1    3    3    0    0 -0.10779099985E+02  0.73720921584E+02  0.31981067059E+03  0.32837452443E+03  0.00000000000E+00 0.  1.
</event>
<event>
 7    1  0.6176857E-006  0.1649553E+03  0.7818608E-02  0.1232965E+00
          2   -1    0    0  502    0  0.00000000000E+00  0.00000000000E+00  0.23701557036E+03  0.23701557036E+03  0.00000000000E+00 0. -1.
          1   -1    0    0  501    0 -0.00000000000E+00 -0.00000000000E+00 -0.60308782425E+03  0.60308782425E+03  0.00000000000E+00 0. -1.
         25    2    1    2    0    0 -0.76825396232E+02 -0.47532978973E+02  0.13593936244E+03  0.20561591154E+03  0.12504745987E+03 0.  0.
          2    1    1    2  501    0 -0.10809732681E+03  0.12460019560E+03 -0.33598447359E+03  0.37429374467E+03  0.00000000000E+00 0. -1.
          1    1    1    2  502    0  0.18492272304E+03 -0.77067216624E+02 -0.16602714274E+03  0.26019373840E+03  0.00000000000E+00 0. -1.
         22    1    3    3    0    0 -0.62703788794E+02 -0.26325869533E+02  0.15793627412E+03  0.17195546871E+03  0.00000000000E+00 0.  1.
         22    1    3    3    0    0 -0.14121607438E+02 -0.21207109441E+02 -0.21996911685E+02  0.33660442824E+02  0.00000000000E+00 0.  1.
</event>
<event>
 7    1  0.6176857E-006  0.5387292E+02  0.7818608E-02  0.1545287E+00
          2   -1    0    0  502    0  0.00000000000E+00  0.00000000000E+00  0.17835388408E+04  0.17835388408E+04  0.00000000000E+00 0. -1.
          1   -1    0    0  501    0 -0.00000000000E+00 -0.00000000000E+00 -0.17571255700E+04  0.17571255700E+04  0.00000000000E+00 0. -1.
         25    2    1    2    0    0 -0.28276746624E+02 -0.39507538832E+02 -0.64677701444E+01  0.13426406218E+03  0.12499834526E+03 0.  0.
          2    1    1    2  501    0  0.47223558514E+02  0.26067254080E+02 -0.16862499281E+04  0.16871124403E+04  0.00000000000E+00 0. -1.
          1    1    1    2  502    0 -0.18946811891E+02  0.13440284752E+02  0.17191309690E+04  0.17192879083E+04  0.00000000000E+00 0. -1.
         22    1    3    3    0    0  0.83932366411E+01 -0.74023516711E+02 -0.27877279627E+02  0.79542882567E+02  0.00000000000E+00 0. -1.
         22    1    3    3    0    0 -0.36669983265E+02  0.34515977879E+02  0.21409509482E+02  0.54721179610E+02  0.00000000000E+00 0. -1.
</event>
<event>
 7    1  0.6176857E-006  0.1048121E+03  0.7818608E-02  0.1319385E+00
          2   -1    0    0  502    0  0.00000000000E+00  0.00000000000E+00  0.12874699154E+04  0.12874699154E+04  0.00000000000E+00 0. -1.
          1   -1    0    0  501    0 -0.00000000000E+00 -0.00000000000E+00 -0.24481184404E+03  0.24481184404E+03  0.00000000000E+00 0. -1.
         25    2    1    2    0    0 -0.15388924659E+02 -0.37699806162E+02  0.32228195688E+03  0.34806417945E+03  0.12499967559E+03 0.  0.
          2    1    1    2  501    0  0.36313923104E+02  0.10085561240E+03 -0.21829377589E+03  0.24319277982E+03  0.00000000000E+00 0. -1.
          1    1    1    2  502    0 -0.20924998445E+02 -0.63155806242E+02  0.93866989042E+03  0.94102480021E+03  0.00000000000E+00 0. -1.
         22    1    3    3    0    0 -0.34729041859E+02 -0.74781120301E+02  0.26220895553E+03  0.27486698358E+03  0.00000000000E+00 0. -1.
         22    1    3    3    0    0  0.19340117200E+02  0.37081314139E+02  0.60073001345E+02  0.73197195862E+02  0.00000000000E+00 0. -1.
</event>
<event>
 7    1  0.6176857E-006  0.4053116E+02  0.7818608E-02  0.1525985E+00
          2   -1    0    0  502    0  0.00000000000E+00  0.00000000000E+00  0.87787032090E+03  0.87787032090E+03  0.00000000000E+00 0. -1.
          1   -1    0    0  501    0 -0.00000000000E+00 -0.00000000000E+00 -0.86941985051E+03  0.86941985051E+03  0.00000000000E+00 0. -1.
         25    2    1    2    0    0 -0.46770543034E+01 -0.13295845342E+02  0.23098130891E+03  0.26301337189E+03  0.12500005754E+03 0.  0.
          2    1    1    2  501    0  0.27252550476E+02 -0.22018299491E+02 -0.85234738130E+03  0.85306715177E+03  0.00000000000E+00 0. -1.
          1    1    1    2  502    0 -0.22575496172E+02  0.35314144833E+02  0.62981654278E+03  0.63120964775E+03  0.00000000000E+00 0. -1.
         22    1    3    3    0    0 -0.27675559882E+02  0.55813856672E+01 -0.18455901860E+01  0.28293014754E+02  0.00000000000E+00 0. -1.
         22    1    3    3    0    0  0.22998505578E+02 -0.18877231009E+02  0.23282689910E+03  0.23472035713E+03  0.00000000000E+00 0. -1.
</event>
<event>
 7    1  0.6176857E-006  0.7561448E+02  0.7818608E-02  0.1375200E+00
          2   -1    0    0  502    0  0.00000000000E+00  0.00000000000E+00  0.38135621450E+03  0.38135621450E+03  0.00000000000E+00 0. -1.
          1   -1    0    0  501    0 -0.00000000000E+00 -0.00000000000E+00 -0.72596597451E+02  0.72596597451E+02  0.00000000000E+00 0. -1.
         25    2    1    2    0    0  0.41347372573E+01  0.92476764853E+02  0.18127775100E+03  0.23886662659E+03  0.12500637663E+03 0.  0.
          2    1    1    2  501    0 -0.47594745000E+02 -0.31653367850E+02 -0.10537409837E+02  0.58122564069E+02  0.00000000000E+00 0. -1.
          1    1    1    2  502    0  0.43460007743E+02 -0.60823397003E+02  0.13801927589E+03  0.15696362130E+03  0.00000000000E+00 0. -1.
         22    1    3    3    0    0 -0.30564151610E+02  0.76627099243E+02  0.38423783093E+02  0.91006960224E+02  0.00000000000E+00 0.  1.
         22    1    3    3    0    0  0.34698888868E+02  0.15849665610E+02  0.14285396791E+03  0.14785966636E+03  0.00000000000E+00 0.  1.
</event>
<event>
 7    1  0.6176857E-006  0.7972199E+02  0.7818608E-02  0.1394119E+00
          2   -1    0    0  502    0  0.00000000000E+00  0.00000000000E+00  0.36812728473E+03  0.36812728473E+03  0.00000000000E+00 0. -1.
          1   -1    0    0  501    0 -0.00000000000E+00 -0.00000000000E+00 -0.35546486981E+03  0.35546486981E+03  0.00000000000E+00 0. -1.
         25    2    1    2    0    0 -0.48215378796E+02 -0.81918766508E+02  0.29479709866E+03  0.33401494513E+03  0.12500098852E+03 0.  0.
          2    1    1    2  501    0  0.68782078696E+02  0.40200524029E+02 -0.31989539115E+03  0.32966667675E+03  0.00000000000E+00 0. -1.
          1    1    1    2  502    0 -0.20566699900E+02  0.41718242479E+02  0.37760707402E+02  0.59910532662E+02  0.00000000000E+00 0. -1.
         22    1    3    3    0    0  0.21877811167E+02  0.21112124917E+02  0.38742920668E+02  0.49248089727E+02  0.00000000000E+00 0. -1.
         22    1    3    3    0    0 -0.70093189963E+02 -0.10303089142E+03  0.25605417800E+03  0.28476685540E+03  0.00000000000E+00 0. -1.
</event>
<event>
 7    1  0.6176857E-006  0.1415758E+03  0.7818608E-02  0.1308160E+00
          2   -1    0    0  502    0  0.00000000000E+00  0.00000000000E+00  0.13416255816E+04  0.13416255816E+04  0.00000000000E+00 0. -1.
          1   -1    0    0  501    0 -0.00000000000E+00 -0.00000000000E+00 -0.69268585091E+03  0.69268585091E+03  0.00000000000E+00 0. -1.
         25    2    1    2    0    0 -0.94481967709E+02 -0.22302639680E+02  0.15392040009E+03  0.22077378931E+03  0.12500130608E+03 0.  0.
          2    1    1    2  501    0 -0.42317228925E+02 -0.34349958960E+02 -0.65337146529E+03  0.65564086145E+03  0.00000000000E+00 0. -1.
          1    1    1    2  502    0  0.13679919663E+03  0.56652598639E+02  0.11483907959E+04  0.11578967818E+04  0.00000000000E+00 0. -1.
         22    1    3    3    0    0  0.12808105509E+02 -0.81681180917E+01 -0.14226833947E+02  0.20812701027E+02  0.00000000000E+00 0.  1.
         22    1    3    3    0    0 -0.10729007322E+03 -0.14134521588E+02  0.16814723404E+03  0.19996108828E+03  0.00000000000E+00 0.  1.
</event>
<event>
 7    1  0.6176857E-006  0.4465866E+02  0.7818608E-02  0.1511679E+00
          2   -1    0    0  502    0  0.00000000000E+00  0.00000000000E+00  0.59364804526E+02  0.59364804526E+02  0.00000000000E+00 0. -1.
          1   -1    0    0  501    0 -0.00000000000E+00 -0.00000000000E+00 -0.20423500816E+04  0.20423500816E+04  0.00000000000E+00 0. -1.
         25    2    1    2    0    0 -0.19911106544E+02 -0.66465467406E+02 -0.26232724370E+03  0.29875682795E+03  0.12500379570E+03 0.  0.
          2    1    1    2  501    0 -0.67990648245E+01  0.43855487482E+02 -0.17540361597E+04  0.17545974981E+04  0.00000000000E+00 0. -1.
          1    1    1    2  502    0  0.26710171368E+02  0.22609979924E+02  0.33378126325E+02  0.48360560002E+02  0.00000000000E+00 0. -1.
         22    1    3    3    0    0 -0.47310252642E+02 -0.87970163967E+02 -0.14286033738E+03  0.17431605132E+03  0.00000000000E+00 0.  1.
         22    1    3    3    0    0  0.27399146099E+02  0.21504696561E+02 -0.11946690633E+03  0.12444077663E+03  0.00000000000E+00 0.  1.
</event>
<event>
 7    1  0.6176857E-006  0.5277824E+02  0.7818608E-02  0.1519630E+00
          2   -1    0    0  502    0  0.00000000000E+00  0.00000000000E+00  0.18713034288E+04  0.18713034288E+04  0.00000000000E+00 0. -1.
          1   -1    0    0  501    0 -0.00000000000E+00 -0.00000000000E+00 -0.44008892147E+02  0.44008892147E+02  0.00000000000E+00 0. -1.
         25    2    1    2    0    0  0.13380363052E+02  0.22959521289E+02  0.35526704015E+03  0.37755265456E+03  0.12500065366E+03 0.  0.
          2    1    1    2  501    0 -0.22732751803E+02 -0.49424910728E+02 -0.10129243145E+02  0.55337160857E+02  0.00000000000E+00 0. -1.
          1    1    1    2  502    0  0.93523887508E+01  0.26465389439E+02  0.14821567396E+04  0.14824225055E+04  0.00000000000E+00 0. -1.
         22    1    3    3    0    0 -0.34007656727E+02  0.53164105470E+02  0.11905479728E+03  0.13474786671E+03  0.00000000000E+00 0. -1.
         22    1    3    3    0    0  0.47388019779E+02 -0.30204584181E+02  0.23621224287E+03  0.24280478785E+03  0.00000000000E+00 0. -1.
</event>
<event>
 7    1  0.6176857E-006  0.9887736E+02  0.7818608E-02  0.1430188E+00
          2   -1    0    0  502    0  0.00000000000E+00  0.00000000000E+00  0.13137240335E+04  0.13137240335E+04  0.00000000000E+00 0. -1.
          1   -1    0    0  501    0 -0.00000000000E+00 -0.00000000000E+00 -0.14001437233E+04  0.14001437233E+04  0.00000000000E+00 0. -1.
         25    2    1    2    0    0 -0.19711392595E+02  0.10168489167E+03  0.30155010772E+03  0.34247102160E+03  0.12500230790E+03 0.  0.
          2    1    1    2  501    0  0.28131569521E+02 -0.33102815625E+01 -0.13770797807E+04  0.13773710704E+04  0.00000000000E+00 0. -1.
          1    1    1    2  502    0 -0.84201769260E+01 -0.98374610106E+02  0.98910998327E+03  0.99402566481E+03  0.00000000000E+00 0. -1.
         22    1    3    3    0    0 -0.44743648966E+02 -0.10982876074E+02  0.10255103045E+03  0.11242478168E+03  0.00000000000E+00 0. -1.
         22    1    3    3    0    0  0.25032256371E+02  0.11266776774E+03  0.19899907726E+03  0.23004623991E+03  0.00000000000E+00 0. -1.
</event>
<event>
 7    1  0.6176857E-006  0.1119472E+03  0.7818608E-02  0.1382446E+00
          2   -1    0    0  502    0  0.00000000000E+00  0.00000000000E+00  0.13342375998E+04  0.13342375998E+04  0.00000000000E+00 0. -1.
          1   -1    0    0  501    0 -0.00000000000E+00 -0.00000000000E+00 -0.15017473510E+04  0.15017473510E+04  0.00000000000E+00 0. -1.
         25    2    1    2    0    0 -0.15942362254E+02 -0.76317822974E+02  0.34672952291E+02  0.15137762614E+03  0.12503760657E+03 0.  0.
          2    1    1    2  501    0  0.35416574262E+02  0.10705739934E+03 -0.14409250433E+04  0.14453306199E+04  0.00000000000E+00 0. -1.
          1    1    1    2  502    0 -0.19474212008E+02 -0.30739576363E+02  0.12387423398E+04  0.12392767048E+04  0.00000000000E+00 0. -1.
         22    1    3    3    0    0 -0.43039352283E+02 -0.10132323571E+03  0.21113289804E+02  0.11209172559E+03  0.00000000000E+00 0. -1.
         22    1    3    3    0    0  0.27096990029E+02  0.25005412739E+02  0.13559662487E+02  0.39285900545E+02  0.00000000000E+00 0. -1.
</event>
<event>
 7    1  0.6176857E-006  0.1342231E+03  0.7818608E-02  0.1383418E+00
          2   -1    0    0  502    0  0.00000000000E+00  0.00000000000E+00  0.12021120330E+04  0.12021120330E+04  0.00000000000E+00 0. -1.
          1   -1    0    0  501    0 -0.00000000000E+00 -0.00000000000E+00 -0.19787352104E+03  0.19787352104E+03  0.00000000000E+00 0. -1.
         25    2    1    2    0    0 -0.97541068635E+01 -0.16127989892E+03  0.16641822765E+03  0.26349493287E+03  0.12501281838E+03 0.  0.
          2    1    1    2  501    0 -0.19157431157E+01  0.30050367202E+02 -0.14336839101E+03  0.14649638283E+03  0.00000000000E+00 0. -1.
          1    1    1    2  502    0  0.11669849979E+02  0.13122953172E+03  0.98118867527E+03  0.98999423830E+03  0.00000000000E+00 0. -1.
         22    1    3    3    0    0 -0.18628830230E+02  0.13619383592E+02  0.18010835821E+01  0.23146594291E+02  0.00000000000E+00 0. -1.
         22    1    3    3    0    0  0.88747233670E+01 -0.17489928251E+03  0.16461714407E+03  0.24034833858E+03  0.00000000000E+00 0. -1.
</event>
<event>
 7    1  0.6176857E-006  0.5161249E+02  0.7818608E-02  0.1507840E+00
          2   -1    0    0  502    0  0.00000000000E+00  0.00000000000E+00  0.86654093763E+03  0.86654093763E+03  0.00000000000E+00 0. -1.
          1   -1    0    0  501    0 -0.00000000000E+00 -0.00000000000E+00 -0.16634780799E+04  0.16634780799E+04  0.00000000000E+00 0. -1.
         25    2    1    2    0    0 -0.22347120617E+02 -0.67588458928E+02 -0.96911079396E+02  0.17344699768E+03  0.12499804045E+03 0.  0.
          2    1    1    2  501    0  0.33876649151E+02  0.38727565817E+02 -0.15275741998E+04  0.15284405084E+04  0.00000000000E+00 0. -1.
          1    1    1    2  502    0 -0.11529528534E+02  0.28860893112E+02  0.82754813699E+03  0.82813151142E+03  0.00000000000E+00 0. -1.
         22    1    3    3    0    0  0.13293847121E+02 -0.82082925812E+02 -0.10519404397E+03  0.13408996967E+03  0.00000000000E+00 0. -1.
         22    1    3    3    0    0 -0.35640967739E+02  0.14494466884E+02  0.82829645705E+01  0.39357028009E+02  0.00000000000E+00 0. -1.
</event>
<event>
 7    1  0.6176857E-006  0.1179731E+03  0.7818608E-02  0.1298694E+00
          2   -1    0    0  502    0  0.00000000000E+00  0.00000000000E+00  0.41380502599E+03  0.41380502599E+03  0.00000000000E+00 0. -1.
          1   -1    0    0  501    0 -0.00000000000E+00 -0.00000000000E+00 -0.33795339644E+03  0.33795339644E+03  0.00000000000E+00 0. -1.
         25    2    1    2    0    0 -0.11689154706E+03  0.85994692373E+01  0.20475641279E+03  0.26699835417E+03  0.12500139161E+03 0.  0.
          2    1    1    2  501    0  0.92052299392E+02 -0.75474094093E+02 -0.28733097477E+03  0.31101294790E+03  0.00000000000E+00 0. -1.
          1    1    1    2  502    0  0.24839247669E+02  0.66874624855E+02  0.15842619152E+03  0.17374712037E+03  0.00000000000E+00 0. -1.
         22    1    3    3    0    0 -0.88326178409E+02 -0.49223453553E+02  0.90035311578E+02  0.13539135683E+03  0.00000000000E+00 0.  1.
         22    1    3    3    0    0 -0.28565368651E+02  0.57822922790E+02  0.11472110121E+03  0.13160699734E+03  0.00000000000E+00 0.  1.
</event>
<event>
 7    1  0.6176857E-006  0.2808194E+02  0.7818608E-02  0.1653776E+00
          2   -1    0    0  502    0  0.00000000000E+00  0.00000000000E+00  0.51013505596E+03  0.51013505596E+03  0.00000000000E+00 0. -1.
          1   -1    0    0  501    0 -0.00000000000E+00 -0.00000000000E+00 -0.10141833378E+03  0.10141833378E+03  0.00000000000E+00 0. -1.
         25    2    1    2    0    0  0.19367898860E+02  0.37829121404E+02  0.53972545558E+02  0.14263524198E+03  0.12500247456E+03 0.  0.
          2    1    1    2  501    0 -0.23372462724E+02 -0.15003200376E+02 -0.53360651627E+02  0.60155857382E+02  0.00000000000E+00 0. -1.
          1    1    1    2  502    0  0.40045638645E+01 -0.22825921028E+02  0.40810482825E+03  0.40876229039E+03  0.00000000000E+00 0. -1.
         22    1    3    3    0    0 -0.29631611872E+02  0.29174723345E+02  0.77227420609E+02  0.87711295728E+02  0.00000000000E+00 0.  1.
         22    1    3    3    0    0  0.48999510732E+02  0.86543980588E+01 -0.23254875051E+02  0.54923946247E+02  0.00000000000E+00 0.  1.
</event>
<event>
 7    1  0.6176857E-006  0.7914199E+02  0.7818608E-02  0.1501330E+00
          2   -1    0    0  502    0  0.00000000000E+00  0.00000000000E+00  0.37228471538E+03  0.37228471538E+03  0.00000000000E+00 0. -1.
          1   -1    0    0  501    0 -0.00000000000E+00 -0.00000000000E+00 -0.19732212742E+03  0.19732212742E+03  0.00000000000E+00 0. -1.
         25    2    1    2    0    0  0.66403514733E+02  0.17520965697E+02  0.14984087457E+03  0.20686646116E+03  0.12500013622E+03 0.  0.
          2    1    1    2  501    0  0.16272094942E+02 -0.13572148998E+02 -0.15924392992E+03  0.16064748215E+03  0.00000000000E+00 0. -1.
          1    1    1    2  502    0 -0.82675609674E+02 -0.39488166993E+01  0.18436564332E+03  0.20209289949E+03  0.00000000000E+00 0. -1.
         22    1    3    3    0    0  0.47862845425E+02 -0.26496004156E+02  0.56823629780E+01  0.55001631407E+02  0.00000000000E+00 0.  1.
         22    1    3    3    0    0  0.18540669307E+02  0.44016969853E+02  0.14415851159E+03  0.15186482976E+03  0.00000000000E+00 0.  1.
</event>
<event>
 7    1  0.6176857E-006  0.8688945E+02  0.7818608E-02  0.1360372E+00
          2   -1    0    0  502    0  0.00000000000E+00  0.00000000000E+00  0.91540564536E+03  0.91540564536E+03  0.00000000000E+00 0. -1.
          1   -1    0    0  501    0 -0.00000000000E+00 -0.00000000000E+00 -0.53734104417E+03  0.53734104417E+03  0.00000000000E+00 0. -1.
         25    2    1    2    0    0 -0.12007488623E+00 -0.54855068357E+02 -0.17494991974E+03  0.22190227663E+03  0.12499621200E+03 0.  0.
          2    1    1    2  501    0  0.46542614068E+02  0.86640423707E+02 -0.33086656270E+03  0.34517453594E+03  0.00000000000E+00 0. -1.
          1    1    1    2  502    0 -0.46422539182E+02 -0.31785355350E+02  0.88388108363E+03  0.88566987696E+03  0.00000000000E+00 0. -1.
         22    1    3    3    0    0 -0.53513803536E+02 -0.60944054644E+02 -0.87901318723E+02  0.11960161704E+03  0.00000000000E+00 0. -1.
         22    1    3    3    0    0  0.53393728650E+02  0.60889862866E+01 -0.87048601020E+02  0.10230065959E+03  0.00000000000E+00 0. -1.
</event>
<event>
 7    1  0.6176857E-006  0.9665741E+02  0.7818608E-02  0.1316956E+00
          2   -1    0    0  502    0  0.00000000000E+00  0.00000000000E+00  0.34282349668E+03  0.34282349668E+03  0.00000000000E+00 0. -1.
          1   -1    0    0  501    0 -0.00000000000E+00 -0.00000000000E+00 -0.26865911845E+03  0.26865911845E+03  0.00000000000E+00 0. -1.
         25    2    1    2    0    0 -0.26824991949E+02  0.15106240452E+03  0.10505986175E+03  0.22405606621E+03  0.12499646396E+03 0.  0.
          2    1    1    2  501    0 -0.17184006900E+02 -0.91904381428E+02 -0.19017129577E+03  0.21191231006E+03  0.00000000000E+00 0. -1.
          1    1    1    2  502    0  0.44008998849E+02 -0.59158023097E+02  0.15927581224E+03  0.17551423886E+03  0.00000000000E+00 0. -1.
         22    1    3    3    0    0  0.56900571207E+01 -0.20756193972E+02  0.20860498265E+02  0.29972599589E+02  0.00000000000E+00 0.  1.
         22    1    3    3    0    0 -0.32515049069E+02  0.17181859850E+03  0.84199363486E+02  0.19408346662E+03  0.00000000000E+00 0.  1.
</event>
<event>
 7    1  0.1061093E-005  0.1219558E+03  0.7818608E-02  0.1309252E+00
          2   -1    0    0  502    0  0.00000000000E+00  0.00000000000E+00  0.15513053891E+04  0.15513053891E+04  0.00000000000E+00 0. -1.
          1   -1    0    0  501    0 -0.00000000000E+00 -0.00000000000E+00 -0.15627848978E+04  0.15627848978E+04  0.00000000000E+00 0. -1.
         25    2    1    2    0    0  0.18073646931E+03 -0.11261863587E+02 -0.71687611586E+03  0.74988563221E+03  0.12499837997E+03 0.  0.
          2    1    1    2  501    0 -0.61348983400E+02 -0.12689564959E+02 -0.82580056143E+03  0.82817346618E+03  0.00000000000E+00 0. -1.
          1    1    1    2  502    0 -0.11938748591E+03  0.23951428547E+02  0.15311971686E+04  0.15360311884E+04  0.00000000000E+00 0. -1.
         22    1    3    3    0    0  0.15468633828E+03  0.30451703673E+01 -0.69739227149E+03  0.71434803607E+03  0.00000000000E+00 0. -1.
         22    1    3    3    0    0  0.26050131036E+02 -0.14307033955E+02 -0.19483844369E+02  0.35537596134E+02  0.00000000000E+00 0. -1.
</event>
<event>
 7    1  0.6176857E-006  0.5498820E+02  0.7818608E-02  0.1488321E+00
          2   -1    0    0  502    0  0.00000000000E+00  0.00000000000E+00  0.95382445318E+03  0.95382445318E+03  0.00000000000E+00 0. -1.
          1   -1    0    0  501    0 -0.00000000000E+00 -0.00000000000E+00 -0.15511516636E+03  0.15511516636E+03  0.00000000000E+00 0. -1.
         25    2    1    2    0    0  0.25671504514E+02  0.14303851623E+02  0.97286210529E+02  0.16110459319E+03  0.12500582735E+03 0.  0.
          2    1    1    2  501    0 -0.56422047177E+02 -0.13449729449E+01 -0.11638454208E+03  0.12934689017E+03  0.00000000000E+00 0. -1.
          1    1    1    2  502    0  0.30750542662E+02 -0.12958878679E+02  0.81780761837E+03  0.81848813619E+03  0.00000000000E+00 0. -1.
         22    1    3    3    0    0  0.10393708693E+02  0.66208622553E+02  0.26642025557E+02  0.72120790390E+02  0.00000000000E+00 0.  1.
         22    1    3    3    0    0  0.15277795821E+02 -0.51904770929E+02  0.70644184972E+02  0.88983802800E+02  0.00000000000E+00 0.  1.
</event>
<event>
 7    1  0.6176857E-006  0.1183735E+03  0.7818608E-02  0.1289016E+00
          2   -1    0    0  502    0  0.00000000000E+00  0.00000000000E+00  0.49508012302E+03  0.49508012302E+03  0.00000000000E+00 0. -1.
          1   -1    0    0  501    0 -0.00000000000E+00 -0.00000000000E+00 -0.10898076453E+04  0.10898076453E+04  0.00000000000E+00 0. -1.
         25    2    1    2    0    0 -0.85858525984E+02  0.86490741686E+02 -0.21371290419E+02  0.17587421852E+03  0.12499069487E+03 0.  0.
          2    1    1    2  501    0  0.14907733215E+02 -0.11840930035E+03 -0.98392607249E+03  0.99113748746E+03  0.00000000000E+00 0. -1.
          1    1    1    2  502    0  0.70950792768E+02  0.31918558667E+02  0.41056984067E+03  0.41787606230E+03  0.00000000000E+00 0. -1.
         22    1    3    3    0    0 -0.40028625462E+02  0.49242888156E+02 -0.73497258644E+02  0.97103037638E+02  0.00000000000E+00 0.  1.
         22    1    3    3    0    0 -0.45829900522E+02  0.37247853531E+02  0.52125968224E+02  0.78771180884E+02  0.00000000000E+00 0.  1.
</event>
<event>
 7    1  0.6176857E-006  0.1104011E+03  0.7818608E-02  0.1371132E+00
          2   -1    0    0  502    0  0.00000000000E+00  0.00000000000E+00  0.12018252509E+04  0.12018252509E+04  0.00000000000E+00 0. -1.
          1   -1    0    0  501    0 -0.00000000000E+00 -0.00000000000E+00 -0.15429315755E+03  0.15429315755E+03  0.00000000000E+00 0. -1.
         25    2    1    2    0    0  0.83436026702E+02 -0.43192944485E+02  0.52079740434E+03  0.54376592283E+03  0.12499696582E+03 0.  0.
          2    1    1    2  501    0 -0.74524809954E+02  0.82683048211E+02 -0.12038929508E+03  0.16396345974E+03  0.00000000000E+00 0. -1.
          1    1    1    2  502    0 -0.89112167482E+01 -0.39490103726E+02  0.64712398410E+03  0.64838902588E+03  0.00000000000E+00 0. -1.
         22    1    3    3    0    0 -0.72717255008E+01  0.33959790926E+02  0.80985462070E+02  0.88118048424E+02  0.00000000000E+00 0.  1.
         22    1    3    3    0    0  0.90707752203E+02 -0.77152735411E+02  0.43981194227E+03  0.45564787441E+03  0.00000000000E+00 0.  1.
</event>
<event>
 7    1  0.6176857E-006  0.2991577E+03  0.7818608E-02  0.1219535E+00
          2   -1    0    0  502    0  0.00000000000E+00  0.00000000000E+00  0.27235382978E+04  0.27235382978E+04  0.00000000000E+00 0. -1.
          1   -1    0    0  501    0 -0.00000000000E+00 -0.00000000000E+00 -0.96977112794E+03  0.96977112794E+03  0.00000000000E+00 0. -1.
         25    2    1    2    0    0  0.28784469923E+03  0.21009093484E+03  0.12979107094E+04  0.13517361049E+04  0.12500206428E+03 0.  0.
          2    1    1    2  501    0 -0.25086070672E+03 -0.16112884401E+03 -0.91858656543E+03  0.96576129387E+03  0.00000000000E+00 0. -1.
          1    1    1    2  502    0 -0.36983992511E+02 -0.48962090831E+02  0.13744430259E+04  0.13758120269E+04  0.00000000000E+00 0. -1.
         22    1    3    3    0    0  0.17866249351E+03  0.57945342912E+02  0.57139193174E+03  0.60147043902E+03  0.00000000000E+00 0.  1.
         22    1    3    3    0    0  0.10918220572E+03  0.15214559192E+03  0.72651877762E+03  0.75026566589E+03  0.00000000000E+00 0.  1.
</event>
<event>
 7    1  0.6176857E-006  0.1528489E+03  0.7818608E-02  0.1229047E+00
          2   -1    0    0  502    0  0.00000000000E+00  0.00000000000E+00  0.70576373818E+02  0.70576373818E+02  0.00000000000E+00 0. -1.
          1   -1    0    0  501    0 -0.00000000000E+00 -0.00000000000E+00 -0.12706202996E+04  0.12706202996E+04  0.00000000000E+00 0. -1.
         25    2    1    2    0    0  0.53065394127E+02  0.57819270422E+02 -0.71129834699E+03  0.72646011043E+03  0.12505978379E+03 0.  0.
          2    1    1    2  501    0 -0.20830101601E+02  0.10674636433E+03 -0.41939737996E+03  0.43326994097E+03  0.00000000000E+00 0. -1.
          1    1    1    2  502    0 -0.32235292527E+02 -0.16456563475E+03 -0.69348198813E+02  0.18146662201E+03  0.00000000000E+00 0. -1.
         22    1    3    3    0    0  0.40099671403E+02 -0.33325667995E+02 -0.33679533839E+03  0.34080739979E+03  0.00000000000E+00 0.  1.
         22    1    3    3    0    0  0.12965722724E+02  0.91144938417E+02 -0.37450300860E+03  0.38565271063E+03  0.00000000000E+00 0.  1.
</event>
<event>
 7    1  0.6176857E-006  0.1640977E+03  0.7818608E-02  0.1259424E+00
          2   -1    0    0  502    0  0.00000000000E+00  0.00000000000E+00  0.32404285133E+04  0.32404285133E+04  0.00000000000E+00 0. -1.
          1   -1    0    0  501    0 -0.00000000000E+00 -0.00000000000E+00 -0.19710554876E+03  0.19710554876E+03  0.00000000000E+00 0. -1.
         25    2    1    2    0    0 -0.59249310953E+02  0.71511808700E+02 -0.30800519434E+02  0.15874056006E+03  0.12500189510E+03 0.  0.
          2    1    1    2  501    0 -0.29422882878E+02  0.68521344695E+02 -0.86283832164E+02  0.11404288846E+03  0.00000000000E+00 0. -1.
          1    1    1    2  502    0  0.88672193831E+02 -0.14003315340E+03  0.31604073162E+04  0.31647506136E+04  0.00000000000E+00 0. -1.
         22    1    3    3    0    0  0.32845198363E+02 -0.78072810939E+01 -0.19333101084E+01  0.33815652907E+02  0.00000000000E+00 0. -1.
         22    1    3    3    0    0 -0.92094509316E+02  0.79319089794E+02 -0.28867209326E+02  0.12492490715E+03  0.00000000000E+00 0. -1.
</event>
<event>
 7    1  0.6176857E-006  0.8154271E+02  0.7818608E-02  0.1416124E+00
          2   -1    0    0  502    0  0.00000000000E+00  0.00000000000E+00  0.19369676475E+03  0.19369676475E+03  0.00000000000E+00 0. -1.
          1   -1    0    0  501    0 -0.00000000000E+00 -0.00000000000E+00 -0.79493869417E+03  0.79493869417E+03  0.00000000000E+00 0. -1.
         25    2    1    2    0    0 -0.95359580923E+01 -0.48389509506E+02 -0.21559763252E+03  0.25404714325E+03  0.12500053088E+03 0.  0.
          2    1    1    2  501    0  0.10725790374E+02  0.86622744558E+02 -0.55456440219E+03  0.56139132397E+03  0.00000000000E+00 0. -1.
          1    1    1    2  502    0 -0.11898322822E+01 -0.38233235052E+02  0.16892010529E+03  0.17319699170E+03  0.00000000000E+00 0. -1.
         22    1    3    3    0    0 -0.45085880089E+02 -0.37233196939E+02 -0.20794547558E+03  0.21601011169E+03  0.00000000000E+00 0.  1.
         22    1    3    3    0    0  0.35549921997E+02 -0.11156312568E+02 -0.76521569359E+01  0.38037031560E+02  0.00000000000E+00 0.  1.
</event>
<event>
 7    1  0.6176857E-006  0.7588790E+02  0.7818608E-02  0.1488846E+00
          2   -1    0    0  502    0  0.00000000000E+00  0.00000000000E+00  0.34492741827E+04  0.34492741827E+04  0.00000000000E+00 0. -1.
          1   -1    0    0  501    0 -0.00000000000E+00 -0.00000000000E+00 -0.15819486092E+03  0.15819486092E+03  0.00000000000E+00 0. -1.
         25    2    1    2    0    0  0.81818240492E+02  0.97238875123E+01  0.32789093197E+03  0.36045411721E+03  0.12500371545E+03 0.  0.
          2    1    1    2  501    0 -0.12377246746E+02  0.20668416044E+02 -0.14042474579E+03  0.14247627483E+03  0.00000000000E+00 0. -1.
          1    1    1    2  502    0 -0.69440993746E+02 -0.30392303557E+02  0.31036131356E+04  0.31045386516E+04  0.00000000000E+00 0. -1.
         22    1    3    3    0    0  0.10137066049E+03 -0.25731808663E+02  0.19172174972E+03  0.21839268784E+03  0.00000000000E+00 0.  1.
         22    1    3    3    0    0 -0.19552419998E+02  0.35455696175E+02  0.13616918225E+03  0.14206142937E+03  0.00000000000E+00 0.  1.
</event>
<event>
 7    1  0.6176857E-006  0.1954470E+03  0.7818608E-02  0.1312116E+00
          2   -1    0    0  502    0  0.00000000000E+00  0.00000000000E+00  0.16509102997E+04  0.16509102997E+04  0.00000000000E+00 0. -1.
          1   -1    0    0  501    0 -0.00000000000E+00 -0.00000000000E+00 -0.32237569163E+03  0.32237569163E+03  0.00000000000E+00 0. -1.
         25    2    1    2    0    0 -0.19643621417E+03 -0.65204104797E+02  0.65348369213E+02  0.25049468884E+03  0.12505366151E+03 0.  0.
          2    1    1    2  501    0  0.19117476489E+03  0.27480039306E+02 -0.18892713556E+03  0.27017847035E+03  0.00000000000E+00 0. -1.
          1    1    1    2  502    0  0.52614492828E+01  0.37724065491E+02  0.14521133744E+04  0.14526128321E+04  0.00000000000E+00 0. -1.
         22    1    3    3    0    0 -0.55934262668E+02 -0.72770141708E+02 -0.74266304524E+01  0.92083060898E+02  0.00000000000E+00 0. -1.
         22    1    3    3    0    0 -0.14050195150E+03  0.75660369110E+01  0.72774999665E+02  0.15841162794E+03  0.00000000000E+00 0. -1.
</event>
<event>
 7    1  0.6176857E-006  0.5835157E+02  0.7818608E-02  0.1491062E+00
          2   -1    0    0  502    0  0.00000000000E+00  0.00000000000E+00  0.11482981919E+04  0.11482981919E+04  0.00000000000E+00 0. -1.
          1   -1    0    0  501    0 -0.00000000000E+00 -0.00000000000E+00 -0.20638166787E+03  0.20638166787E+03  0.00000000000E+00 0. -1.
         25    2    1    2    0    0  0.55166320943E+02 -0.68637519710E+02  0.19393030699E+03  0.24695939212E+03  0.12500218121E+03 0.  0.
          2    1    1    2  501    0 -0.17345596528E+02  0.25513233718E+02 -0.17764989297E+03  0.18030884417E+03  0.00000000000E+00 0. -1.
          1    1    1    2  502    0 -0.37820724416E+02  0.43124285992E+02  0.92563610995E+03  0.92741162343E+03  0.00000000000E+00 0. -1.
         22    1    3    3    0    0  0.26471107305E+02 -0.63667726885E+02  0.20462928195E+03  0.21593388340E+03  0.00000000000E+00 0. -1.
         22    1    3    3    0    0  0.28695213638E+02 -0.49697928244E+01 -0.10698974955E+02  0.31025508723E+02  0.00000000000E+00 0. -1.
</event>
<event>
 7    1  0.6176857E-006  0.1563652E+03  0.7818608E-02  0.1306642E+00
          2   -1    0    0  502    0  0.00000000000E+00  0.00000000000E+00  0.70232529288E+03  0.70232529288E+03  0.00000000000E+00 0. -1.
          1   -1    0    0  501    0 -0.00000000000E+00 -0.00000000000E+00 -0.60847336987E+03  0.60847336987E+03  0.00000000000E+00 0. -1.
         25    2    1    2    0    0  0.11339214473E+03  0.12266302713E+03 -0.27834709020E+03  0.34785937874E+03  0.12500019219E+03 0.  0.
          2    1    1    2  501    0 -0.46470157900E+02  0.18551613462E+02 -0.28400790483E+03  0.28838191334E+03  0.00000000000E+00 0. -1.
          1    1    1    2  502    0 -0.66921986829E+02 -0.14121464059E+03  0.65620691804E+03  0.67455737066E+03  0.00000000000E+00 0. -1.
         22    1    3    3    0    0  0.41624504890E+02  0.12414251834E+03 -0.21695764578E+03  0.25340596743E+03  0.00000000000E+00 0.  1.
         22    1    3    3    0    0  0.71767639839E+02 -0.14794912133E+01 -0.61389444420E+02  0.94453411312E+02  0.00000000000E+00 0.  1.
</event>
<event>
 7    1  0.6176857E-006  0.1190494E+03  0.7818608E-02  0.1414673E+00
          2   -1    0    0  502    0  0.00000000000E+00  0.00000000000E+00  0.28701174578E+03  0.28701174578E+03  0.00000000000E+00 0. -1.
          1   -1    0    0  501    0 -0.00000000000E+00 -0.00000000000E+00 -0.22182948231E+04  0.22182948231E+04  0.00000000000E+00 0. -1.
         25    2    1    2    0    0  0.98451626454E+02 -0.33649425879E+02 -0.15592782029E+03  0.22530700980E+03  0.12499902764E+03 0.  0.
          2    1    1    2  501    0 -0.11875101421E+03  0.16620034153E+02 -0.20252035465E+04  0.20287502147E+04  0.00000000000E+00 0. -1.
          1    1    1    2  502    0  0.20299387753E+02  0.17029391726E+02  0.24984828944E+03  0.25124934440E+03  0.00000000000E+00 0. -1.
         22    1    3    3    0    0  0.84946535662E+02 -0.15026117531E+01 -0.16812039333E+03  0.18836835832E+03  0.00000000000E+00 0.  1.
         22    1    3    3    0    0  0.13505090792E+02 -0.32146814126E+02  0.12192573042E+02  0.36938651479E+02  0.00000000000E+00 0.  1.
</event>
<event>
 7    1  0.6176857E-006  0.1449808E+03  0.7818608E-02  0.1317225E+00
          2   -1    0    0  502    0  0.00000000000E+00  0.00000000000E+00  0.26063608153E+04  0.26063608153E+04  0.00000000000E+00 0. -1.
          1   -1    0    0  501    0 -0.00000000000E+00 -0.00000000000E+00 -0.42884697584E+03  0.42884697584E+03  0.00000000000E+00 0. -1.
         25    2    1    2    0    0 -0.10983172023E+03 -0.53035544315E+02 -0.96743206312E+02  0.19964909961E+03  0.12499895712E+03 0.  0.
          2    1    1    2  501    0  0.59424951895E+01 -0.48676799688E+02 -0.27642263376E+03  0.28073869796E+03  0.00000000000E+00 0. -1.
          1    1    1    2  502    0  0.10388922504E+03  0.10171234400E+03  0.25506796795E+04  0.25548199935E+04  0.00000000000E+00 0. -1.
         22    1    3    3    0    0 -0.75534185326E+02 -0.44668938696E+02 -0.12617213431E+03  0.15368843390E+03  0.00000000000E+00 0.  1.
         22    1    3    3    0    0 -0.34297534904E+02 -0.83666056199E+01  0.29428927999E+02  0.45960665718E+02  0.00000000000E+00 0.  1.
</event>
<event>
 7    1  0.6176857E-006  0.1258889E+03  0.7818608E-02  0.1280348E+00
          2   -1    0    0  502    0  0.00000000000E+00  0.00000000000E+00  0.70705440924E+03  0.70705440924E+03  0.00000000000E+00 0. -1.
          1   -1    0    0  501    0 -0.00000000000E+00 -0.00000000000E+00 -0.39992404833E+03  0.39992404833E+03  0.00000000000E+00 0. -1.
         25    2    1    2    0    0  0.26732838113E+02 -0.14867573925E+03 -0.28685202317E+02  0.19816259229E+03  0.12500580817E+03 0.  0.
          2    1    1    2  501    0  0.57153315516E+02  0.55110475206E+02 -0.27447219633E+03  0.28572478456E+03  0.00000000000E+00 0. -1.
          1    1    1    2  502    0 -0.83886153629E+02  0.93565264040E+02  0.61028775956E+03  0.62309108072E+03  0.00000000000E+00 0. -1.
         22    1    3    3    0    0  0.37209749362E+02  0.55153801862E+01  0.98491727347E+01  0.38884329359E+02  0.00000000000E+00 0.  1.
         22    1    3    3    0    0 -0.10476911248E+02 -0.15419111943E+03 -0.38534375051E+02  0.15927826293E+03  0.00000000000E+00 0.  1.
</event>
<event>
 7    1  0.6176857E-006  0.6429357E+02  0.7818608E-02  0.1395598E+00
          2   -1    0    0  502    0  0.00000000000E+00  0.00000000000E+00  0.26483854413E+03  0.26483854413E+03  0.00000000000E+00 0. -1.
          1   -1    0    0  501    0 -0.00000000000E+00 -0.00000000000E+00 -0.92426654572E+03  0.92426654572E+03  0.00000000000E+00 0. -1.
         25    2    1    2    0    0  0.82139477670E+01  0.14401022295E+02  0.74648265593E+02  0.14653239890E+03  0.12499808794E+03 0.  0.
          2    1    1    2  501    0  0.27659221078E+02 -0.58692926686E+02 -0.88182626461E+03  0.88421007296E+03  0.00000000000E+00 0. -1.
          1    1    1    2  502    0 -0.35873168845E+02  0.44291904391E+02  0.14774999743E+03  0.15836261800E+03  0.00000000000E+00 0. -1.
         22    1    3    3    0    0 -0.20983725446E+02 -0.74889737281E+01 -0.29044478836E+02  0.36605781127E+02  0.00000000000E+00 0. -1.
         22    1    3    3    0    0  0.29197673213E+02  0.21889996023E+02  0.10369274443E+03  0.10992661777E+03  0.00000000000E+00 0. -1.
</event>
<event>
 7    1  0.6176857E-006  0.1173891E+03  0.7818608E-02  0.1406720E+00
          2   -1    0    0  502    0  0.00000000000E+00  0.00000000000E+00  0.13076255733E+03  0.13076255733E+03  0.00000000000E+00 0. -1.
          1   -1    0    0  501    0 -0.00000000000E+00 -0.00000000000E+00 -0.42192898845E+03  0.42192898845E+03  0.00000000000E+00 0. -1.
         25    2    1    2    0    0  0.11268707896E+03 -0.38150506461E+02 -0.15194019112E+03  0.22992341588E+03  0.12500046634E+03 0.  0.
          2    1    1    2  501    0 -0.99232948492E+02  0.63376796727E+02 -0.21314958162E+03  0.24350881005E+03  0.00000000000E+00 0. -1.
          1    1    1    2  502    0 -0.13454130467E+02 -0.25226290266E+02  0.73923341618E+02  0.79259319851E+02  0.00000000000E+00 0. -1.
         22    1    3    3    0    0  0.57290471837E+01  0.28992153732E+02 -0.78400935248E+02  0.83785879523E+02  0.00000000000E+00 0. -1.
         22    1    3    3    0    0  0.10695803177E+03 -0.67142660194E+02 -0.73539255876E+02  0.14613753636E+03  0.00000000000E+00 0. -1.
</event>
<event>
 7    1  0.6176857E-006  0.9173101E+02  0.7818608E-02  0.1302251E+00
          2   -1    0    0  502    0  0.00000000000E+00  0.00000000000E+00  0.44715342008E+03  0.44715342008E+03  0.00000000000E+00 0. -1.
          1   -1    0    0  501    0 -0.00000000000E+00 -0.00000000000E+00 -0.70186611001E+03  0.70186611001E+03  0.00000000000E+00 0. -1.
         25    2    1    2    0    0 -0.85421094808E+02  0.66198214688E+02  0.55964924005E+02  0.17445955712E+03  0.12500038915E+03 0.  0.
          2    1    1    2  501    0  0.84307016615E+02  0.27857744464E+02 -0.63279285770E+03  0.63899180569E+03  0.00000000000E+00 0. -1.
          1    1    1    2  502    0  0.11140781933E+01 -0.94055959152E+02  0.32211524377E+03  0.33556816728E+03  0.00000000000E+00 0. -1.
         22    1    3    3    0    0 -0.10217239533E+02  0.81206935755E+02  0.53405877000E+02  0.97729965193E+02  0.00000000000E+00 0.  1.
         22    1    3    3    0    0 -0.75203855275E+02 -0.15008721067E+02  0.25590470054E+01  0.76729591931E+02  0.00000000000E+00 0.  1.
</event>
<event>
 7    1  0.6176857E-006  0.7157390E+02  0.7818608E-02  0.1443221E+00
          2   -1    0    0  502    0  0.00000000000E+00  0.00000000000E+00  0.26355897583E+03  0.26355897583E+03  0.00000000000E+00 0. -1.
          1   -1    0    0  501    0 -0.00000000000E+00 -0.00000000000E+00 -0.94564668315E+03  0.94564668315E+03  0.00000000000E+00 0. -1.
         25    2    1    2    0    0 -0.42109095242E+01 -0.92317045679E+02  0.10954210382E+03  0.19017149682E+03  0.12500222803E+03 0.  0.
          2    1    1    2  501    0 -0.21685860141E+02  0.68059390993E+02 -0.90111542667E+03  0.90394212725E+03  0.00000000000E+00 0. -1.
          1    1    1    2  502    0  0.25896769666E+02  0.24257654686E+02  0.10948561553E+03  0.11509203491E+03  0.00000000000E+00 0. -1.
         22    1    3    3    0    0  0.30658148483E+02  0.94814925689E+01  0.67323806728E+02  0.74580934039E+02  0.00000000000E+00 0.  1.
         22    1    3    3    0    0 -0.34869058007E+02 -0.10179853825E+03  0.42218297094E+02  0.11559056279E+03  0.00000000000E+00 0.  1.
</event>
<event>
 7    1  0.6176857E-006  0.2063172E+03  0.7818608E-02  0.1257925E+00
          2   -1    0    0  502    0  0.00000000000E+00  0.00000000000E+00  0.11133782284E+04  0.11133782284E+04  0.00000000000E+00 0. -1.
          1   -1    0    0  501    0 -0.00000000000E+00 -0.00000000000E+00 -0.33287587706E+03  0.33287587706E+03  0.00000000000E+00 0. -1.
         25    2    1    2    0    0 -0.14118333907E+03  0.18850249701E+03 -0.68140669537E+02  0.27520231415E+03  0.12500894473E+03 0.  0.
          2    1    1    2  501    0  0.14231812231E+03 -0.12831914492E+03 -0.10296879271E+03  0.21753809589E+03  0.00000000000E+00 0. -1.
          1    1    1    2  502    0 -0.11347832433E+01 -0.60183352088E+02  0.95161181358E+03  0.95351369541E+03  0.00000000000E+00 0. -1.
         22    1    3    3    0    0  0.44381334354E+01 -0.15294796560E+02 -0.68418588335E+01  0.17333172315E+02  0.00000000000E+00 0. -1.
         22    1    3    3    0    0 -0.14562147250E+03  0.20379729356E+03 -0.61298810703E+02  0.25786914184E+03  0.00000000000E+00 0. -1.
</event>
<event>
 7    1  0.6176857E-006  0.1002573E+03  0.7818608E-02  0.1329938E+00
          2   -1    0    0  502    0  0.00000000000E+00  0.00000000000E+00  0.24239090746E+04  0.24239090746E+04  0.00000000000E+00 0. -1.
          1   -1    0    0  501    0 -0.00000000000E+00 -0.00000000000E+00 -0.48543962919E+03  0.48543962919E+03  0.00000000000E+00 0. -1.
         25    2    1    2    0    0  0.52220595269E+02  0.38735984094E+02  0.14061038013E+04  0.14131456785E+04  0.12500136645E+03 0.  0.
          2    1    1    2  501    0 -0.26865860671E+02 -0.96779558062E+02 -0.47568060274E+03  0.48616879081E+03  0.00000000000E+00 0. -1.
          1    1    1    2  502    0 -0.25354734598E+02  0.58043573968E+02  0.10080462468E+04  0.10100342345E+04  0.00000000000E+00 0. -1.
         22    1    3    3    0    0  0.49425232110E+02 -0.34073906429E+02  0.40888492560E+03  0.41326839590E+03  0.00000000000E+00 0. -1.
         22    1    3    3    0    0  0.27953631584E+01  0.72809890523E+02  0.99721887573E+03  0.99987728264E+03  0.00000000000E+00 0. -1.
</event>
<event>
 7    1  0.6176857E-006  0.6193350E+02  0.7818608E-02  0.1439273E+00
          2   -1    0    0  502    0  0.00000000000E+00  0.00000000000E+00  0.16180132549E+03  0.16180132549E+03  0.00000000000E+00 0. -1.
          1   -1    0    0  501    0 -0.00000000000E+00 -0.00000000000E+00 -0.19022426830E+04  0.19022426830E+04  0.00000000000E+00 0. -1.
         25    2    1    2    0    0 -0.49940164053E+02 -0.15553632307E+02 -0.45018039494E+03  0.47012961785E+03  0.12499413637E+03 0.  0.
          2    1    1    2  501    0  0.32991208383E+02  0.54235560072E+02 -0.14384371822E+04  0.14398372973E+04  0.00000000000E+00 0. -1.
          1    1    1    2  502    0  0.16948955670E+02 -0.38681927765E+02  0.14817621958E+03  0.15407709331E+03  0.00000000000E+00 0. -1.
         22    1    3    3    0    0 -0.32912850230E+02  0.43915706382E+01 -0.19207847719E+02  0.38359914194E+02  0.00000000000E+00 0.  1.
         22    1    3    3    0    0 -0.17027313823E+02 -0.19945202945E+02 -0.43097254722E+03  0.43176970365E+03  0.00000000000E+00 0.  1.
</event>
<event>
 7    1  0.6176857E-006  0.1603533E+03  0.7818608E-02  0.1319643E+00
          2   -1    0    0  502    0  0.00000000000E+00  0.00000000000E+00  0.21575053432E+04  0.21575053432E+04  0.00000000000E+00 0. -1.
          1   -1    0    0  501    0 -0.00000000000E+00 -0.00000000000E+00 -0.10942702334E+04  0.10942702334E+04  0.00000000000E+00 0. -1.
         25    2    1    2    0    0  0.10427858696E+03  0.79628912409E+02 -0.68167230688E+02  0.19361949601E+03  0.12500780178E+03 0.  0.
          2    1    1    2  501    0 -0.14703936524E+03 -0.72283348979E+02 -0.95618333182E+03  0.97011959135E+03  0.00000000000E+00 0. -1.
          1    1    1    2  502    0  0.42760778274E+02 -0.73455634300E+01  0.20875856722E+04  0.20880364892E+04  0.00000000000E+00 0. -1.
         22    1    3    3    0    0  0.96297411543E+02  0.22133464031E+02  0.65252705398E+01  0.99023536876E+02  0.00000000000E+00 0. -1.
         22    1    3    3    0    0  0.79811754193E+01  0.57495448379E+02 -0.74692501228E+02  0.94595959137E+02  0.00000000000E+00 0. -1.
</event>
<event>
 7    1  0.6176857E-006  0.1306040E+03  0.7818608E-02  0.1266688E+00
          2   -1    0    0  502    0  0.00000000000E+00  0.00000000000E+00  0.69995978589E+03  0.69995978589E+03  0.00000000000E+00 0. -1.
          1   -1    0    0  501    0 -0.00000000000E+00 -0.00000000000E+00 -0.36475254473E+03  0.36475254473E+03  0.00000000000E+00 0. -1.
         25    2    1    2    0    0  0.14679989779E+03 -0.15189120845E+03  0.79501514768E+02  0.25800437634E+03  0.12499847266E+03 0.  0.
          2    1    1    2  501    0 -0.59778315926E+02  0.63582396983E+02 -0.26106886128E+03  0.27526917479E+03  0.00000000000E+00 0. -1.
          1    1    1    2  502    0 -0.87021581859E+02  0.88308811463E+02  0.51677458767E+03  0.53143877950E+03  0.00000000000E+00 0. -1.
         22    1    3    3    0    0 -0.14363470990E+02 -0.10036590150E+01 -0.12269733174E+02  0.18917266780E+02  0.00000000000E+00 0. -1.
         22    1    3    3    0    0  0.16116336877E+03 -0.15088754943E+03  0.91771247942E+02  0.23908710956E+03  0.00000000000E+00 0. -1.
</event>
<event>
 7    1  0.6176857E-006  0.5814933E+02  0.7818608E-02  0.1419966E+00
          2   -1    0    0  502    0  0.00000000000E+00  0.00000000000E+00  0.12360008462E+04  0.12360008462E+04  0.00000000000E+00 0. -1.
          1   -1    0    0  501    0 -0.00000000000E+00 -0.00000000000E+00 -0.16344295728E+03  0.16344295728E+03  0.00000000000E+00 0. -1.
         25    2    1    2    0    0 -0.11421515932E+02 -0.33794095867E+01 -0.15109060966E+02  0.12647285945E+03  0.12500091607E+03 0.  0.
          2    1    1    2  501    0  0.34575271086E+02 -0.49961460911E+02 -0.81890471177E+02  0.10196884925E+03  0.00000000000E+00 0. -1.
          1    1    1    2  502    0 -0.23153755154E+02  0.53340870497E+02  0.11695574211E+04  0.11710020948E+04  0.00000000000E+00 0. -1.
         22    1    3    3    0    0 -0.59861537004E+02  0.24906188102E+02 -0.25046310186E+02  0.69505679424E+02  0.00000000000E+00 0. -1.
         22    1    3    3    0    0  0.48440021072E+02 -0.28285597689E+02  0.99372492202E+01  0.56967180026E+02  0.00000000000E+00 0. -1.
</event>
<event>
 7    1  0.6176857E-006  0.4796247E+02  0.7818608E-02  0.1462968E+00
          2   -1    0    0  502    0  0.00000000000E+00  0.00000000000E+00  0.34422837921E+03  0.34422837921E+03  0.00000000000E+00 0. -1.
          1   -1    0    0  501    0 -0.00000000000E+00 -0.00000000000E+00 -0.78774809173E+03  0.78774809173E+03  0.00000000000E+00 0. -1.
         25    2    1    2    0    0  0.36623472721E+02 -0.39607025406E+02  0.43080027710E+02  0.14279849241E+03  0.12500210171E+03 0.  0.
          2    1    1    2  501    0  0.11798769533E+02  0.44265678971E+02 -0.73481456254E+03  0.73624119866E+03  0.00000000000E+00 0. -1.
          1    1    1    2  502    0 -0.48422242254E+02 -0.46586535652E+01  0.24821482230E+03  0.25293677986E+03  0.00000000000E+00 0. -1.
         22    1    3    3    0    0  0.51788653888E+02  0.33244772524E+02  0.23268566929E+02  0.65792900670E+02  0.00000000000E+00 0.  1.
         22    1    3    3    0    0 -0.15165181167E+02 -0.72851797930E+02  0.19811460781E+02  0.77005591743E+02  0.00000000000E+00 0.  1.
</event>
<event>
 7    1  0.6176857E-006  0.1036793E+03  0.7818608E-02  0.1368284E+00
          2   -1    0    0  502    0  0.00000000000E+00  0.00000000000E+00  0.36679396366E+03  0.36679396366E+03  0.00000000000E+00 0. -1.
          1   -1    0    0  501    0 -0.00000000000E+00 -0.00000000000E+00 -0.15129631987E+04  0.15129631987E+04  0.00000000000E+00 0. -1.
         25    2    1    2    0    0  0.10025025997E+03 -0.61573243405E+02 -0.71492261097E+02  0.18595001249E+03  0.12499953928E+03 0.  0.
          2    1    1    2  501    0 -0.61704309441E+02  0.83072973232E+02 -0.13807227399E+04  0.13845951845E+04  0.00000000000E+00 0. -1.
          1    1    1    2  502    0 -0.38545950533E+02 -0.21499729828E+02  0.30604576590E+03  0.30921196535E+03  0.00000000000E+00 0. -1.
         22    1    3    3    0    0  0.67073251815E+02 -0.38051667185E+02  0.25138978039E+02  0.81109300955E+02  0.00000000000E+00 0. -1.
         22    1    3    3    0    0  0.33177008159E+02 -0.23521576220E+02 -0.96631239136E+02  0.10484071154E+03  0.00000000000E+00 0. -1.
</event>
<event>
 7    1  0.6176857E-006  0.8094656E+02  0.7818608E-02  0.1383945E+00
          2   -1    0    0  502    0  0.00000000000E+00  0.00000000000E+00  0.16223619927E+03  0.16223619927E+03  0.00000000000E+00 0. -1.
          1   -1    0    0  501    0 -0.00000000000E+00 -0.00000000000E+00 -0.48665075942E+03  0.48665075942E+03  0.00000000000E+00 0. -1.
         25    2    1    2    0    0  0.45833523256E+02  0.12841342757E+02 -0.84240866808E+02  0.15807248465E+03  0.12499909929E+03 0.  0.
          2    1    1    2  501    0  0.15226585402E+02  0.47327357875E+02 -0.34886297039E+03  0.35238771235E+03  0.00000000000E+00 0. -1.
          1    1    1    2  502    0 -0.61060108658E+02 -0.60168700632E+02  0.10868927705E+03  0.13842676169E+03  0.00000000000E+00 0. -1.
         22    1    3    3    0    0  0.88252955178E+02  0.11910062730E+02 -0.70149891058E+02  0.11336419588E+03  0.00000000000E+00 0. -1.
         22    1    3    3    0    0 -0.42419431922E+02  0.93128002723E+00 -0.14090975749E+02  0.44708288769E+02  0.00000000000E+00 0. -1.
</event>
<event>
 7    1  0.6176857E-006  0.1995247E+03  0.7818608E-02  0.1303450E+00
          2   -1    0    0  502    0  0.00000000000E+00  0.00000000000E+00  0.17164042867E+04  0.17164042867E+04  0.00000000000E+00 0. -1.
          1   -1    0    0  501    0 -0.00000000000E+00 -0.00000000000E+00 -0.76615938809E+03  0.76615938809E+03  0.00000000000E+00 0. -1.
         25    2    1    2    0    0 -0.15416095200E+03 -0.17862327362E+03  0.12221438725E+04  0.12509725270E+04  0.12499898082E+03 0.  0.
          2    1    1    2  501    0  0.11819819239E+03  0.16027212876E+03 -0.73766778016E+03  0.76407573042E+03  0.00000000000E+00 0. -1.
          1    1    1    2  502    0  0.35962759617E+02  0.18351144851E+02  0.46576880633E+03  0.46751541744E+03  0.00000000000E+00 0. -1.
         22    1    3    3    0    0 -0.13451137962E+03 -0.61251953449E+02  0.70149581607E+03  0.71689712861E+03  0.00000000000E+00 0. -1.
         22    1    3    3    0    0 -0.19649572383E+02 -0.11737132017E+03  0.52064805640E+03  0.53407539836E+03  0.00000000000E+00 0. -1.
</event>
<event>
 7    1  0.6176857E-006  0.6832885E+02  0.7818608E-02  0.1471407E+00
          2   -1    0    0  502    0  0.00000000000E+00  0.00000000000E+00  0.22055640085E+03  0.22055640085E+03  0.00000000000E+00 0. -1.
          1   -1    0    0  501    0 -0.00000000000E+00 -0.00000000000E+00 -0.54969611314E+03  0.54969611314E+03  0.00000000000E+00 0. -1.
         25    2    1    2    0    0 -0.81561243328E+02 -0.78253785632E+01 -0.18182904454E+03  0.23537332834E+03  0.12500131716E+03 0.  0.
          2    1    1    2  501    0  0.15880858822E+02  0.25761551599E+02 -0.33441009188E+03  0.33577666502E+03  0.00000000000E+00 0. -1.
          1    1    1    2  502    0  0.65680384506E+02 -0.17936173036E+02  0.18709942413E+03  0.19910252064E+03  0.00000000000E+00 0. -1.
         22    1    3    3    0    0  0.69231010506E+01 -0.47532808674E+02 -0.35115803026E+02  0.59501402091E+02  0.00000000000E+00 0. -1.
         22    1    3    3    0    0 -0.88484344379E+02  0.39707430111E+02 -0.14671324152E+03  0.17587192625E+03  0.00000000000E+00 0. -1.
</event>
<event>
 7    1  0.6176857E-006  0.5302004E+02  0.7818608E-02  0.1477461E+00
          2   -1    0    0  502    0  0.00000000000E+00  0.00000000000E+00  0.37708090343E+03  0.37708090343E+03  0.00000000000E+00 0. -1.
          1   -1    0    0  501    0 -0.00000000000E+00 -0.00000000000E+00 -0.23316454257E+04  0.23316454257E+04  0.00000000000E+00 0. -1.
         25    2    1    2    0    0 -0.33681081343E+02 -0.71392584591E+02 -0.43660409376E+03  0.46095414593E+03  0.12499709433E+03 0.  0.
          2    1    1    2  501    0  0.32471464023E+02  0.18468396313E+02 -0.18807598843E+04  0.18811308354E+04  0.00000000000E+00 0. -1.
          1    1    1    2  502    0  0.12096173196E+01  0.52924188278E+02  0.36279945571E+03  0.36664134784E+03  0.00000000000E+00 0. -1.
         22    1    3    3    0    0 -0.57081145242E+02 -0.80035268999E+02 -0.41911343706E+03  0.43048806551E+03  0.00000000000E+00 0. -1.
         22    1    3    3    0    0  0.23400063899E+02  0.86426844078E+01 -0.17490656697E+02  0.30466080417E+02  0.00000000000E+00 0. -1.
</event>
<event>
 7    1  0.6176857E-006  0.1519703E+03  0.7818608E-02  0.1327856E+00
          2   -1    0    0  502    0  0.00000000000E+00  0.00000000000E+00  0.16792741600E+04  0.16792741600E+04  0.00000000000E+00 0. -1.
          1   -1    0    0  501    0 -0.00000000000E+00 -0.00000000000E+00 -0.18310007941E+03  0.18310007941E+03  0.00000000000E+00 0. -1.
         25    2    1    2    0    0 -0.17951382891E+03 -0.24056248280E+02  0.17580771423E+03  0.28166899897E+03  0.12500061899E+03 0.  0.
          2    1    1    2  501    0  0.14695786142E+03 -0.33564273868E+01 -0.88245788620E+02  0.17145027806E+03  0.00000000000E+00 0. -1.
          1    1    1    2  502    0  0.32555967495E+02  0.27412675667E+02  0.14086121550E+04  0.14092549624E+04  0.00000000000E+00 0. -1.
         22    1    3    3    0    0  0.10707802278E+02  0.11648813345E+02  0.45949989165E+02  0.48597874298E+02  0.00000000000E+00 0. -1.
         22    1    3    3    0    0 -0.19022163119E+03 -0.35705061625E+02  0.12985772506E+03  0.23307112467E+03  0.00000000000E+00 0. -1.
</event>
<event>
 7    1  0.6176857E-006  0.1319027E+03  0.7818608E-02  0.1416823E+00
          2   -1    0    0  502    0  0.00000000000E+00  0.00000000000E+00  0.71628156347E+03  0.71628156347E+03  0.00000000000E+00 0. -1.
          1   -1    0    0  501    0 -0.00000000000E+00 -0.00000000000E+00 -0.52989764400E+03  0.52989764400E+03  0.00000000000E+00 0. -1.
         25    2    1    2    0    0  0.90104361515E+02  0.11944846175E+03 -0.11401997697E+03  0.22586001673E+03  0.12500184411E+03 0.  0.
          2    1    1    2  501    0 -0.84485968680E+02 -0.96609280296E+02 -0.34829804572E+03  0.37119100285E+03  0.00000000000E+00 0. -1.
          1    1    1    2  502    0 -0.56183928346E+01 -0.22839181456E+02  0.64870194216E+03  0.64912818788E+03  0.00000000000E+00 0. -1.
         22    1    3    3    0    0  0.90411910828E+02  0.62871526060E+02 -0.14084453658E+02  0.11102033257E+03  0.00000000000E+00 0. -1.
         22    1    3    3    0    0 -0.30754931337E+00  0.56576935692E+02 -0.99935523309E+02  0.11483968416E+03  0.00000000000E+00 0. -1.
</event>
<event>
 7    1  0.6176857E-006  0.1526699E+03  0.7818608E-02  0.1266237E+00
          2   -1    0    0  502    0  0.00000000000E+00  0.00000000000E+00  0.26433017166E+04  0.26433017166E+04  0.00000000000E+00 0. -1.
          1   -1    0    0  501    0 -0.00000000000E+00 -0.00000000000E+00 -0.57023015554E+03  0.57023015554E+03  0.00000000000E+00 0. -1.
         25    2    1    2    0    0  0.19363749149E+03  0.87814359323E+02  0.12334462225E+02  0.24694990383E+03  0.12500110491E+03 0.  0.
          2    1    1    2  501    0 -0.74724813604E+02  0.62503465162E+01 -0.44751382271E+03  0.45375267064E+03  0.00000000000E+00 0. -1.
          1    1    1    2  502    0 -0.11891267789E+03 -0.94064705839E+02  0.25082509216E+04  0.25128292977E+04  0.00000000000E+00 0. -1.
         22    1    3    3    0    0  0.68698200379E+02  0.91921832273E+02  0.34850020823E+02  0.11993160524E+03  0.00000000000E+00 0.  1.
         22    1    3    3    0    0  0.12493929112E+03 -0.41074729504E+01 -0.22515558598E+02  0.12701829859E+03  0.00000000000E+00 0.  1.
</event>
<event>
 7    1  0.6176857E-006  0.1291107E+03  0.7818608E-02  0.1316490E+00
          2   -1    0    0  502    0  0.00000000000E+00  0.00000000000E+00  0.87841830311E+03  0.87841830311E+03  0.00000000000E+00 0. -1.
          1   -1    0    0  501    0 -0.00000000000E+00 -0.00000000000E+00 -0.69875472254E+03  0.69875472254E+03  0.00000000000E+00 0. -1.
         25    2    1    2    0    0  0.13181273389E+03 -0.10502248848E+03 -0.37282330176E+03  0.42781741213E+03  0.12500481545E+03 0.  0.
          2    1    1    2  501    0 -0.84879095647E+02  0.75531306502E+02 -0.28667247394E+03  0.30836755091E+03  0.00000000000E+00 0. -1.
          1    1    1    2  502    0 -0.46933638245E+02  0.29491181981E+02  0.83915935628E+03  0.84098806260E+03  0.00000000000E+00 0. -1.
         22    1    3    3    0    0  0.70366619691E+02 -0.92638270497E+01 -0.53646300862E+02  0.88967439294E+02  0.00000000000E+00 0.  1.
         22    1    3    3    0    0  0.61446114201E+02 -0.95758661433E+02 -0.31917700090E+03  0.33884997284E+03  0.00000000000E+00 0.  1.
</event>
<event>
 7    1  0.6176857E-006  0.1798393E+03  0.7818608E-02  0.1316403E+00
          2   -1    0    0  502    0  0.00000000000E+00  0.00000000000E+00  0.31324850841E+04  0.31324850841E+04  0.00000000000E+00 0. -1.
          1   -1    0    0  501    0 -0.00000000000E+00 -0.00000000000E+00 -0.44448578003E+03  0.44448578003E+03  0.00000000000E+00 0. -1.
         25    2    1    2    0    0  0.18282065110E+03  0.29483247660E+02  0.33877602377E+03  0.40581557743E+03  0.12499774495E+03 0.  0.
          2    1    1    2  501    0 -0.15692608039E+02  0.36603555819E+02 -0.40706774941E+03  0.40901128451E+03  0.00000000000E+00 0. -1.
          1    1    1    2  502    0 -0.16712804306E+03 -0.66086803479E+02  0.27562910297E+04  0.27621440022E+04  0.00000000000E+00 0. -1.
         22    1    3    3    0    0  0.28179437357E+02 -0.19796130322E+02  0.51707809062E+01  0.34823906165E+02  0.00000000000E+00 0.  1.
         22    1    3    3    0    0  0.15464121375E+03  0.49279377982E+02  0.33360524286E+03  0.37099167127E+03  0.00000000000E+00 0.  1.
</event>
<event>
 7    1  0.6176857E-006  0.4456503E+02  0.7818608E-02  0.1481333E+00
          2   -1    0    0  502    0  0.00000000000E+00  0.00000000000E+00  0.43078187071E+02  0.43078187071E+02  0.00000000000E+00 0. -1.
          1   -1    0    0  501    0 -0.00000000000E+00 -0.00000000000E+00 -0.57208198142E+03  0.57208198142E+03  0.00000000000E+00 0. -1.
         25    2    1    2    0    0  0.28790386746E+02  0.14871707412E+02 -0.16676425624E+03  0.21091653532E+03  0.12500165464E+03 0.  0.
          2    1    1    2  501    0  0.41670837181E+02 -0.11555780515E+02 -0.91809111959E+01  0.44207282941E+02  0.00000000000E+00 0. -1.
          1    1    1    2  502    0 -0.70461223927E+02 -0.33159268972E+01 -0.35305862691E+03  0.36003635022E+03  0.00000000000E+00 0. -1.
         22    1    3    3    0    0  0.47719287216E+02 -0.33410676950E+02 -0.31879381129E+02  0.66405561874E+02  0.00000000000E+00 0.  1.
         22    1    3    3    0    0 -0.18928900470E+02  0.48282384362E+02 -0.13488487511E+03  0.14451097345E+03  0.00000000000E+00 0.  1.
</event>
<event>
 7    1  0.6176857E-006  0.8057582E+02  0.7818608E-02  0.1356120E+00
          2   -1    0    0  502    0  0.00000000000E+00  0.00000000000E+00  0.75378525830E+03  0.75378525830E+03  0.00000000000E+00 0. -1.
          1   -1    0    0  501    0 -0.00000000000E+00 -0.00000000000E+00 -0.32725639901E+03  0.32725639901E+03  0.00000000000E+00 0. -1.
         25    2    1    2    0    0 -0.86267252861E+01  0.61045128493E+02  0.68494317524E+02  0.15529777770E+03  0.12500000049E+03 0.  0.
          2    1    1    2  501    0 -0.60896067962E+02 -0.15681132622E+02 -0.27763984375E+03  0.28467193724E+03  0.00000000000E+00 0. -1.
          1    1    1    2  502    0  0.69522793248E+02 -0.45363995871E+02  0.63567438551E+03  0.64107194237E+03  0.00000000000E+00 0. -1.
         22    1    3    3    0    0  0.29796154086E+02  0.85958100384E+02  0.30997184965E+02  0.96111556515E+02  0.00000000000E+00 0. -1.
         22    1    3    3    0    0 -0.38422879372E+02 -0.24912971891E+02  0.37497132559E+02  0.59186221182E+02  0.00000000000E+00 0. -1.
</event>
<event>
 7    1  0.6176857E-006  0.5882488E+02  0.7818608E-02  0.1464767E+00
          2   -1    0    0  502    0  0.00000000000E+00  0.00000000000E+00  0.14698918045E+03  0.14698918045E+03  0.00000000000E+00 0. -1.
          1   -1    0    0  501    0 -0.00000000000E+00 -0.00000000000E+00 -0.56352788189E+03  0.56352788189E+03  0.00000000000E+00 0. -1.
         25    2    1    2    0    0 -0.21419275394E+02 -0.22455768397E+02 -0.26219141186E+03  0.29211718429E+03  0.12500026405E+03 0.  0.
          2    1    1    2  501    0 -0.36181873453E+02  0.70871013153E+01 -0.27836563268E+03  0.28079668878E+03  0.00000000000E+00 0. -1.
          1    1    1    2  502    0  0.57601148847E+02  0.15368667082E+02  0.12401834309E+03  0.13760318928E+03  0.00000000000E+00 0. -1.
         22    1    3    3    0    0 -0.26012659088E+02  0.49720607684E+02 -0.12544455711E+03  0.13742319371E+03  0.00000000000E+00 0. -1.
         22    1    3    3    0    0  0.45933836946E+01 -0.72176376081E+02 -0.13674685475E+03  0.15469399058E+03  0.00000000000E+00 0. -1.
</event>
<event>
 7    1  0.6176857E-006  0.6317163E+02  0.7818608E-02  0.1421433E+00
          2   -1    0    0  502    0  0.00000000000E+00  0.00000000000E+00  0.43616435272E+03  0.43616435272E+03  0.00000000000E+00 0. -1.
          1   -1    0    0  501    0 -0.00000000000E+00 -0.00000000000E+00 -0.51276967234E+02  0.51276967234E+02  0.00000000000E+00 0. -1.
         25    2    1    2    0    0  0.14518929688E+02 -0.42225684577E+02  0.10502839658E+03  0.16926501746E+03  0.12500349712E+03 0.  0.
          2    1    1    2  501    0 -0.61122532000E+02  0.50861748330E+02  0.80082401221E+02  0.11285420837E+03  0.00000000000E+00 0. -1.
          1    1    1    2  502    0  0.46603602312E+02 -0.86360637536E+01  0.19977658769E+03  0.20532209412E+03  0.00000000000E+00 0. -1.
         22    1    3    3    0    0  0.23674285513E+02  0.35918534024E+02  0.72132105512E+02  0.83986031735E+02  0.00000000000E+00 0. -1.
         22    1    3    3    0    0 -0.91553558252E+01 -0.78144218601E+02  0.32896291064E+02  0.85278985728E+02  0.00000000000E+00 0. -1.
</event>
<event>
 7    1  0.6176857E-006  0.8636345E+02  0.7818608E-02  0.1491517E+00
          2   -1    0    0  502    0  0.00000000000E+00  0.00000000000E+00  0.59765774351E+03  0.59765774351E+03  0.00000000000E+00 0. -1.
          1   -1    0    0  501    0 -0.00000000000E+00 -0.00000000000E+00 -0.36210639110E+03  0.36210639110E+03  0.00000000000E+00 0. -1.
         25    2    1    2    0    0 -0.45563363299E+02 -0.49554291775E+02  0.15940140828E+03  0.21346099888E+03  0.12500056470E+03 0.  0.
          2    1    1    2  501    0  0.52923929903E+02  0.68985645852E+02 -0.32916550597E+03  0.34045541854E+03  0.00000000000E+00 0. -1.
          1    1    1    2  502    0 -0.73605666039E+01 -0.19431354077E+02  0.40531545010E+03  0.40584771720E+03  0.00000000000E+00 0. -1.
         22    1    3    3    0    0 -0.42109181341E+02  0.27539978741E+02  0.20040277742E+02  0.54159452676E+02  0.00000000000E+00 0.  1.
         22    1    3    3    0    0 -0.34541819581E+01 -0.77094270516E+02  0.13936113054E+03  0.15930154621E+03  0.00000000000E+00 0.  1.
</event>
<event>
 7    1  0.6176857E-006  0.1693587E+03  0.7818608E-02  0.1221793E+00
          2   -1    0    0  502    0  0.00000000000E+00  0.00000000000E+00  0.16031040435E+04  0.16031040435E+04  0.00000000000E+00 0. -1.
          1   -1    0    0  501    0 -0.00000000000E+00 -0.00000000000E+00 -0.16253481967E+03  0.16253481967E+03  0.00000000000E+00 0. -1.
         25    2    1    2    0    0 -0.88431673203E+02  0.15181947060E+03  0.27280130627E+03  0.34772845508E+03  0.12500085317E+03 0.  0.
          2    1    1    2  501    0  0.10389044192E+03  0.20286111127E+02 -0.95688564890E+02  0.14269215703E+03  0.00000000000E+00 0. -1.
          1    1    1    2  502    0 -0.15458768717E+02 -0.17210558172E+03  0.12634564824E+04  0.12752182510E+04  0.00000000000E+00 0. -1.
         22    1    3    3    0    0 -0.87577252307E+02  0.16849845052E+03  0.21172469016E+03  0.28440964712E+03  0.00000000000E+00 0. -1.
         22    1    3    3    0    0 -0.85442089609E+00 -0.16678979927E+02  0.61076616111E+02  0.63318807964E+02  0.00000000000E+00 0. -1.
</event>
<event>
 7    1  0.6176857E-006  0.4627240E+02  0.7818608E-02  0.1567969E+00
          2   -1    0    0  502    0  0.00000000000E+00  0.00000000000E+00  0.60530623614E+03  0.60530623614E+03  0.00000000000E+00 0. -1.
          1   -1    0    0  501    0 -0.00000000000E+00 -0.00000000000E+00 -0.10529508376E+04  0.10529508376E+04  0.00000000000E+00 0. -1.
         25    2    1    2    0    0  0.20786067507E+02  0.15567202490E+02  0.29251190280E+03  0.31915871169E+03  0.12499868629E+03 0.  0.
          2    1    1    2  501    0  0.19015761349E+02  0.13651556853E+02 -0.10374593171E+04  0.10377233730E+04  0.00000000000E+00 0. -1.
          1    1    1    2  502    0 -0.39801828855E+02 -0.29218759343E+02  0.29730281287E+03  0.30137498904E+03  0.00000000000E+00 0. -1.
         22    1    3    3    0    0  0.40849754074E+02 -0.19642378734E+02  0.26798141459E+03  0.27178771867E+03  0.00000000000E+00 0. -1.
         22    1    3    3    0    0 -0.20063686567E+02  0.35209581224E+02  0.24530488205E+02  0.47370993026E+02  0.00000000000E+00 0. -1.
</event>
<event>
 7    1  0.6176857E-006  0.1547517E+03  0.7818608E-02  0.1244641E+00
          2   -1    0    0  502    0  0.00000000000E+00  0.00000000000E+00  0.11514284835E+04  0.11514284835E+04  0.00000000000E+00 0. -1.
          1   -1    0    0  501    0 -0.00000000000E+00 -0.00000000000E+00 -0.28496376705E+03  0.28496376705E+03  0.00000000000E+00 0. -1.
         25    2    1    2    0    0  0.11567172159E+03 -0.10902711089E+03  0.10855185480E+03  0.22951089078E+03  0.12499954289E+03 0.  0.
          2    1    1    2  501    0  0.38995768095E+02  0.82900084333E+02 -0.20854295374E+03  0.22777896625E+03  0.00000000000E+00 0. -1.
          1    1    1    2  502    0 -0.15466748968E+03  0.26127026553E+02  0.96645581543E+03  0.97910239355E+03  0.00000000000E+00 0. -1.
         22    1    3    3    0    0 -0.16564283830E+02  0.93830209764E+01  0.29709739099E+02  0.35285764535E+02  0.00000000000E+00 0. -1.
         22    1    3    3    0    0  0.13223600542E+03 -0.11841013186E+03  0.78842115702E+02  0.19422512624E+03  0.00000000000E+00 0. -1.
</event>
<event>
 7    1  0.6176857E-006  0.3856882E+02  0.7818608E-02  0.1602855E+00
          2   -1    0    0  502    0  0.00000000000E+00  0.00000000000E+00  0.85516392600E+02  0.85516392600E+02  0.00000000000E+00 0. -1.
          1   -1    0    0  501    0 -0.00000000000E+00 -0.00000000000E+00 -0.33289842296E+03  0.33289842296E+03  0.00000000000E+00 0. -1.
         25    2    1    2    0    0 -0.21382541926E+02 -0.52328461305E+02 -0.10196491542E+03  0.17093053148E+03  0.12499968661E+03 0.  0.
          2    1    1    2  501    0 -0.18664561082E+01  0.22598736790E+02 -0.18870023896E+03  0.19005779844E+03  0.00000000000E+00 0. -1.
          1    1    1    2  502    0  0.23248998034E+02  0.29729724515E+02  0.43283124017E+02  0.57426485649E+02  0.00000000000E+00 0. -1.
         22    1    3    3    0    0  0.35808039960E+01 -0.34913839390E+02 -0.12684954102E+03  0.13161536535E+03  0.00000000000E+00 0.  1.
         22    1    3    3    0    0 -0.24963345922E+02 -0.17414621915E+02  0.24884625604E+02  0.39315166126E+02  0.00000000000E+00 0.  1.
</event>
<event>
 7    1  0.6176857E-006  0.2038408E+03  0.7818608E-02  0.1182975E+00
          2   -1    0    0  502    0  0.00000000000E+00  0.00000000000E+00  0.46500997369E+03  0.46500997369E+03  0.00000000000E+00 0. -1.
          1   -1    0    0  501    0 -0.00000000000E+00 -0.00000000000E+00 -0.71259617908E+03  0.71259617908E+03  0.00000000000E+00 0. -1.
         25    2    1    2    0    0 -0.14037519575E+03  0.10439339460E+02 -0.29106858465E+03  0.34663836060E+03  0.12499222647E+03 0.  0.
          2    1    1    2  501    0 -0.34481208012E+02 -0.12932539143E+03 -0.35525757980E+03  0.37963397975E+03  0.00000000000E+00 0. -1.
          1    1    1    2  502    0  0.17485640376E+03  0.11888605197E+03  0.39873995905E+03  0.45133381242E+03  0.00000000000E+00 0. -1.
         22    1    3    3    0    0 -0.14168743809E+03  0.29153292861E+02 -0.16605929311E+03  0.22022927468E+03  0.00000000000E+00 0. -1.
         22    1    3    3    0    0  0.13122423393E+01 -0.18713953401E+02 -0.12500929154E+03  0.12640908592E+03  0.00000000000E+00 0. -1.
</event>
<event>
 7    1  0.6176857E-006  0.5422396E+02  0.7818608E-02  0.1543185E+00
          2   -1    0    0  502    0  0.00000000000E+00  0.00000000000E+00  0.73153112408E+03  0.73153112408E+03  0.00000000000E+00 0. -1.
          1   -1    0    0  501    0 -0.00000000000E+00 -0.00000000000E+00 -0.20478284456E+03  0.20478284456E+03  0.00000000000E+00 0. -1.
         25    2    1    2    0    0 -0.42844176687E+01  0.44690268475E+02  0.20168546046E+03  0.24149045783E+03  0.12500015972E+03 0.  0.
          2    1    1    2  501    0  0.27568108531E+02 -0.46976049755E+02 -0.18059228006E+03  0.18862746745E+03  0.00000000000E+00 0. -1.
          1    1    1    2  502    0 -0.23283690863E+02  0.22857812792E+01  0.50565509911E+03  0.50619604336E+03  0.00000000000E+00 0. -1.
         22    1    3    3    0    0  0.17335297326E+02  0.19778269429E+02  0.20648920552E+03  0.20815735507E+03  0.00000000000E+00 0. -1.
         22    1    3    3    0    0 -0.21619714994E+02  0.24911999046E+02 -0.48037450574E+01  0.33333102758E+02  0.00000000000E+00 0. -1.
</event>
<event>
 7    1  0.6176857E-006  0.3980261E+02  0.7818608E-02  0.1531262E+00
          2   -1    0    0  502    0  0.00000000000E+00  0.00000000000E+00  0.74656595458E+03  0.74656595458E+03  0.00000000000E+00 0. -1.
          1   -1    0    0  501    0 -0.00000000000E+00 -0.00000000000E+00 -0.46132754925E+02  0.46132754925E+02  0.00000000000E+00 0. -1.
         25    2    1    2    0    0  0.11963101161E+02  0.38597877835E+01  0.31753458457E+03  0.34148460647E+03  0.12500204121E+03 0.  0.
          2    1    1    2  501    0 -0.14985761383E+02 -0.38181241263E+02 -0.20840391990E+02  0.46007631616E+02  0.00000000000E+00 0. -1.
          1    1    1    2  502    0  0.30226602220E+01  0.34321453480E+02  0.40373900708E+03  0.40520647142E+03  0.00000000000E+00 0. -1.
         22    1    3    3    0    0  0.36458072839E+02 -0.50040579474E+02  0.11671932175E+03  0.13212361916E+03  0.00000000000E+00 0. -1.
         22    1    3    3    0    0 -0.24494971678E+02  0.53900367258E+02  0.20081526281E+03  0.20936098731E+03  0.00000000000E+00 0. -1.
</event>
<event>
 7    1  0.6176857E-006  0.4561229E+02  0.7818608E-02  0.1513809E+00
          2   -1    0    0  502    0  0.00000000000E+00  0.00000000000E+00  0.31917986133E+03  0.31917986133E+03  0.00000000000E+00 0. -1.
          1   -1    0    0  501    0 -0.00000000000E+00 -0.00000000000E+00 -0.15864899595E+04  0.15864899595E+04  0.00000000000E+00 0. -1.
         25    2    1    2    0    0 -0.26032775277E+02  0.21392905162E+02 -0.57006242829E+03  0.58457802132E+03  0.12499971635E+03 0.  0.
          2    1    1    2  501    0  0.41051789705E+01 -0.47080920168E+02 -0.10077000675E+04  0.10088076584E+04  0.00000000000E+00 0. -1.
          1    1    1    2  502    0  0.21927596306E+02  0.25688015005E+02  0.31045239764E+03  0.31228414112E+03  0.00000000000E+00 0. -1.
         22    1    3    3    0    0 -0.47208116914E+02  0.43151786912E+01 -0.74719092094E+02  0.88488246638E+02  0.00000000000E+00 0.  1.
         22    1    3    3    0    0  0.21175341637E+02  0.17077726471E+02 -0.49534333620E+03  0.49608977469E+03  0.00000000000E+00 0.  1.
</event>
<event>
 7    1  0.6176857E-006  0.1092219E+03  0.7818608E-02  0.1357160E+00
          2   -1    0    0  502    0  0.00000000000E+00  0.00000000000E+00  0.31966005716E+03  0.31966005716E+03  0.00000000000E+00 0. -1.
          1   -1    0    0  501    0 -0.00000000000E+00 -0.00000000000E+00 -0.33315910174E+03  0.33315910174E+03  0.00000000000E+00 0. -1.
         25    2    1    2    0    0  0.11508371165E+03  0.59984305594E+01  0.75474420731E+01  0.17018560945E+03  0.12500374364E+03 0.  0.
          2    1    1    2  501    0 -0.98101204698E+02 -0.48732183636E+02 -0.23739714254E+03  0.26144994812E+03  0.00000000000E+00 0. -1.
          1    1    1    2  502    0 -0.16982506948E+02  0.42733753076E+02  0.21635065589E+03  0.22118360134E+03  0.00000000000E+00 0. -1.
         22    1    3    3    0    0  0.14182458283E+03  0.69039907601E+01 -0.13188110029E+01  0.14199865015E+03  0.00000000000E+00 0.  1.
         22    1    3    3    0    0 -0.26740871180E+02 -0.90556020064E+00  0.88662530760E+01  0.28186959296E+02  0.00000000000E+00 0.  1.
</event>
<event>
 7    1  0.6176857E-006  0.1134875E+03  0.7818608E-02  0.1314849E+00
          2   -1    0    0  502    0  0.00000000000E+00  0.00000000000E+00  0.27537619797E+04  0.27537619797E+04  0.00000000000E+00 0. -1.
          1   -1    0    0  501    0 -0.00000000000E+00 -0.00000000000E+00 -0.17651253754E+03  0.17651253754E+03  0.00000000000E+00 0. -1.
         25    2    1    2    0    0 -0.11042256287E+02 -0.16552727819E+03  0.79694636742E+03  0.82357155550E+03  0.12500153295E+03 0.  0.
          2    1    1    2  501    0 -0.17657674834E+02  0.61514725647E+02 -0.15536486576E+03  0.16803004631E+03  0.00000000000E+00 0. -1.
          1    1    1    2  502    0  0.28699931120E+02  0.10401255254E+03  0.19356679405E+04  0.19386729155E+04  0.00000000000E+00 0. -1.
         22    1    3    3    0    0  0.52386991868E+02 -0.55480791455E+02  0.22154278365E+03  0.23431542870E+03  0.00000000000E+00 0.  1.
         22    1    3    3    0    0 -0.63429248155E+02 -0.11004648674E+03  0.57540358377E+03  0.58925612680E+03  0.00000000000E+00 0.  1.
</event>
<event>
 7    1  0.6176857E-006  0.7802837E+02  0.7818608E-02  0.1353278E+00
          2   -1    0    0  502    0  0.00000000000E+00  0.00000000000E+00  0.45566016936E+03  0.45566016936E+03  0.00000000000E+00 0. -1.
          1   -1    0    0  501    0 -0.00000000000E+00 -0.00000000000E+00 -0.85584107660E+03  0.85584107660E+03  0.00000000000E+00 0. -1.
         25    2    1    2    0    0  0.67321932187E+02 -0.85665671468E+01 -0.19277912173E+03  0.23957121105E+03  0.12499978705E+03 0.  0.
          2    1    1    2  501    0 -0.12823833891E+02  0.65270494056E+02 -0.63433508456E+03  0.63781320746E+03  0.00000000000E+00 0. -1.
          1    1    1    2  502    0 -0.54498098296E+02 -0.56703926909E+02  0.42693329904E+03  0.43411682745E+03  0.00000000000E+00 0. -1.
         22    1    3    3    0    0  0.81587357663E+02  0.28185991490E+02 -0.71629342604E+02  0.11216822085E+03  0.00000000000E+00 0.  1.
         22    1    3    3    0    0 -0.14265425475E+02 -0.36752558637E+02 -0.12114977912E+03  0.12740299020E+03  0.00000000000E+00 0.  1.
</event>
<event>
 7    1  0.6176857E-006  0.4398345E+02  0.7818608E-02  0.1563832E+00
          2   -1    0    0  502    0  0.00000000000E+00  0.00000000000E+00  0.15286337256E+04  0.15286337256E+04  0.00000000000E+00 0. -1.
          1   -1    0    0  501    0 -0.00000000000E+00 -0.00000000000E+00 -0.87321422236E+03  0.87321422236E+03  0.00000000000E+00 0. -1.
         25    2    1    2    0    0  0.41130225182E+02  0.51671826411E+02 -0.27728733940E+03  0.31124978305E+03  0.12500594303E+03 0.  0.
          2    1    1    2  501    0 -0.19743221613E+02 -0.38200766571E+02 -0.57804132686E+03  0.57963856749E+03  0.00000000000E+00 0. -1.
          1    1    1    2  502    0 -0.21387003569E+02 -0.13471059840E+02  0.15107481695E+04  0.15109595974E+04  0.00000000000E+00 0. -1.
         22    1    3    3    0    0  0.10169584942E+02 -0.23747650384E+02 -0.19023918043E+03  0.19198520028E+03  0.00000000000E+00 0.  1.
         22    1    3    3    0    0  0.30960640240E+02  0.75419476796E+02 -0.87048158967E+02  0.11926458277E+03  0.00000000000E+00 0.  1.
</event>
<event>
 7    1  0.6176857E-006  0.6797754E+02  0.7818608E-02  0.1451015E+00
          2   -1    0    0  502    0  0.00000000000E+00  0.00000000000E+00  0.37025052647E+03  0.37025052647E+03  0.00000000000E+00 0. -1.
          1   -1    0    0  501    0 -0.00000000000E+00 -0.00000000000E+00 -0.45770147354E+03  0.45770147354E+03  0.00000000000E+00 0. -1.
         25    2    1    2    0    0 -0.43543083022E+02  0.22094384541E+02  0.44084739739E+02  0.14123062784E+03  0.12497385348E+03 0.  0.
          2    1    1    2  501    0  0.28792210170E+01  0.35149699598E+02 -0.40390746935E+03  0.40544424412E+03  0.00000000000E+00 0. -1.
          1    1    1    2  502    0  0.40663862006E+02 -0.57244084140E+02  0.27237178254E+03  0.28127712805E+03  0.00000000000E+00 0. -1.
         22    1    3    3    0    0 -0.35840333211E+01  0.38235568598E+02  0.77635514423E+02  0.86614531694E+02  0.00000000000E+00 0. -1.
         22    1    3    3    0    0 -0.39959049701E+02 -0.16141184057E+02 -0.33550774684E+02  0.54616096141E+02  0.00000000000E+00 0. -1.
</event>
<event>
 7    1  0.6176857E-006  0.6666284E+02  0.7818608E-02  0.1438016E+00
          2   -1    0    0  502    0  0.00000000000E+00  0.00000000000E+00  0.13869992707E+04  0.13869992707E+04  0.00000000000E+00 0. -1.
          1   -1    0    0  501    0 -0.00000000000E+00 -0.00000000000E+00 -0.84038504278E+03  0.84038504278E+03  0.00000000000E+00 0. -1.
         25    2    1    2    0    0  0.91071104170E+02  0.51556566327E+02  0.87666835860E+02  0.18510137145E+03  0.12500007223E+03 0.  0.
          2    1    1    2  501    0 -0.61126841568E+02 -0.25632314185E+02 -0.78996586424E+03  0.79274180725E+03  0.00000000000E+00 0. -1.
          1    1    1    2  502    0 -0.29944262602E+02 -0.25924252142E+02  0.12489132563E+04  0.12495411348E+04  0.00000000000E+00 0. -1.
         22    1    3    3    0    0  0.40214586093E+02  0.81632475458E+02  0.16296868569E+02  0.92448157954E+02  0.00000000000E+00 0. -1.
         22    1    3    3    0    0  0.50856518076E+02 -0.30075909130E+02  0.71369967291E+02  0.92653213501E+02  0.00000000000E+00 0. -1.
</event>
<event>
 7    1  0.6176857E-006  0.2988843E+02  0.7818608E-02  0.1638428E+00
          2   -1    0    0  502    0  0.00000000000E+00  0.00000000000E+00  0.11259055098E+04  0.11259055098E+04  0.00000000000E+00 0. -1.
          1   -1    0    0  501    0 -0.00000000000E+00 -0.00000000000E+00 -0.30582558224E+03  0.30582558224E+03  0.00000000000E+00 0. -1.
         25    2    1    2    0    0  0.15646405034E+02 -0.10008140406E+02  0.11605047936E+03  0.17157319224E+03  0.12499869467E+03 0.  0.
          2    1    1    2  501    0 -0.12953754214E+02 -0.19912450431E+02 -0.27732659875E+03  0.27834214162E+03  0.00000000000E+00 0. -1.
          1    1    1    2  502    0 -0.26926508195E+01  0.29920590837E+02  0.98135604692E+03  0.98181575815E+03  0.00000000000E+00 0. -1.
         22    1    3    3    0    0  0.47888699496E+02 -0.31094593048E+02  0.90021322553E+01  0.57803457002E+02  0.00000000000E+00 0. -1.
         22    1    3    3    0    0 -0.32242294462E+02  0.21086452641E+02  0.10704834711E+03  0.11376973523E+03  0.00000000000E+00 0. -1.
</event>
<event>
 7    1  0.6176857E-006  0.1505533E+03  0.7818608E-02  0.1262852E+00
          2   -1    0    0  502    0  0.00000000000E+00  0.00000000000E+00  0.78552156826E+03  0.78552156826E+03  0.00000000000E+00 0. -1.
          1   -1    0    0  501    0 -0.00000000000E+00 -0.00000000000E+00 -0.19813795389E+04  0.19813795389E+04  0.00000000000E+00 0. -1.
         25    2    1    2    0    0  0.70811677649E+02 -0.51959011099E+02 -0.20316896081E+03  0.25419872477E+03  0.12500133004E+03 0.  0.
          2    1    1    2  501    0  0.97095768177E+01 -0.77990922949E+02 -0.17441141481E+04  0.17458840230E+04  0.00000000000E+00 0. -1.
          1    1    1    2  502    0 -0.80521254467E+02  0.12994993405E+03  0.75142513834E+03  0.76681835940E+03  0.00000000000E+00 0. -1.
         22    1    3    3    0    0  0.66666594187E+02  0.27633433486E+02 -0.82806211415E+02  0.10984038454E+03  0.00000000000E+00 0.  1.
         22    1    3    3    0    0  0.41450834621E+01 -0.79592444585E+02 -0.12036274940E+03  0.14435834023E+03  0.00000000000E+00 0.  1.
</event>
<event>
 7    1  0.6176857E-006  0.7969477E+02  0.7818608E-02  0.1408536E+00
          2   -1    0    0  502    0  0.00000000000E+00  0.00000000000E+00  0.83882047527E+03  0.83882047527E+03  0.00000000000E+00 0. -1.
          1   -1    0    0  501    0 -0.00000000000E+00 -0.00000000000E+00 -0.34324061130E+03  0.34324061130E+03  0.00000000000E+00 0. -1.
         25    2    1    2    0    0  0.57452254963E+02 -0.71927552974E+02 -0.12892022331E+02  0.15577471719E+03  0.12500089520E+03 0.  0.
          2    1    1    2  501    0 -0.16338784498E+02  0.77708465891E+02 -0.25223920311E+03  0.26444314537E+03  0.00000000000E+00 0. -1.
          1    1    1    2  502    0 -0.41113470465E+02 -0.57809129168E+01  0.76071108941E+03  0.76184322400E+03  0.00000000000E+00 0. -1.
         22    1    3    3    0    0  0.88068671709E+02 -0.57210273603E+02  0.21758915535E+02  0.10724997318E+03  0.00000000000E+00 0. -1.
         22    1    3    3    0    0 -0.30616416746E+02 -0.14717279371E+02 -0.34650937866E+02  0.48524744012E+02  0.00000000000E+00 0. -1.
</event>
<event>
 7    1  0.6176857E-006  0.5783260E+02  0.7818608E-02  0.1436465E+00
          2   -1    0    0  502    0  0.00000000000E+00  0.00000000000E+00  0.32226321325E+04  0.32226321325E+04  0.00000000000E+00 0. -1.
          1   -1    0    0  501    0 -0.00000000000E+00 -0.00000000000E+00 -0.65817694174E+03  0.65817694174E+03  0.00000000000E+00 0. -1.
         25    2    1    2    0    0 -0.25294541941E+02 -0.36147337917E+02  0.17451721663E+03  0.21915028778E+03  0.12499658332E+03 0.  0.
          2    1    1    2  501    0  0.57933356982E+02  0.34651181166E+01 -0.63435939197E+03  0.63700872763E+03  0.00000000000E+00 0. -1.
          1    1    1    2  502    0 -0.32638815040E+02  0.32682219800E+02  0.30242973662E+04  0.30246500589E+04  0.00000000000E+00 0. -1.
         22    1    3    3    0    0  0.30223884162E+00  0.20921918326E+02  0.15082058590E+03  0.15226512124E+03  0.00000000000E+00 0.  1.
         22    1    3    3    0    0 -0.25596780783E+02 -0.57069256243E+02  0.23696630732E+02  0.66885166536E+02  0.00000000000E+00 0.  1.
</event>
<event>
 7    1  0.6176857E-006  0.7743625E+02  0.7818608E-02  0.1461943E+00
          2   -1    0    0  502    0  0.00000000000E+00  0.00000000000E+00  0.13635994108E+04  0.13635994108E+04  0.00000000000E+00 0. -1.
          1   -1    0    0  501    0 -0.00000000000E+00 -0.00000000000E+00 -0.55962341425E+03  0.55962341425E+03  0.00000000000E+00 0. -1.
         25    2    1    2    0    0 -0.43984767199E+02 -0.85337073457E+02 -0.10983294908E+02  0.15799558378E+03  0.12499958350E+03 0.  0.
          2    1    1    2  501    0  0.26756903479E+02  0.10060671050E+02 -0.47354698120E+03  0.47440899274E+03  0.00000000000E+00 0. -1.
          1    1    1    2  502    0  0.17227863720E+02  0.75276402407E+02  0.12885062727E+04  0.12908182486E+04  0.00000000000E+00 0. -1.
         22    1    3    3    0    0 -0.46883584713E+02 -0.61633336984E+02  0.50220794634E+02  0.92297708297E+02  0.00000000000E+00 0. -1.
         22    1    3    3    0    0  0.28988175134E+01 -0.23703736473E+02 -0.61204089542E+02  0.65697875479E+02  0.00000000000E+00 0. -1.
</event>
<event>
 7    1  0.6176857E-006  0.1208075E+03  0.7818608E-02  0.1399362E+00
          2   -1    0    0  502    0  0.00000000000E+00  0.00000000000E+00  0.43494406192E+03  0.43494406192E+03  0.00000000000E+00 0. -1.
          1   -1    0    0  501    0 -0.00000000000E+00 -0.00000000000E+00 -0.96354385522E+03  0.96354385522E+03  0.00000000000E+00 0. -1.
         25    2    1    2    0    0  0.14916981508E+03  0.33594834837E+01  0.40600623107E+02  0.19884758830E+03  0.12501613061E+03 0.  0.
          2    1    1    2  501    0 -0.11975601412E+03 -0.45981993248E+01 -0.87966091187E+03  0.88778711763E+03  0.00000000000E+00 0. -1.
          1    1    1    2  502    0 -0.29413800959E+02  0.12387158411E+01  0.31046049547E+03  0.31185321122E+03  0.00000000000E+00 0. -1.
         22    1    3    3    0    0  0.90641294380E+02  0.63551385574E+02  0.23500816482E+02  0.11316762448E+03  0.00000000000E+00 0.  1.
         22    1    3    3    0    0  0.58528520703E+02 -0.60191902090E+02  0.17099806625E+02  0.85679963816E+02  0.00000000000E+00 0.  1.
</event>
<event>
 7    1  0.6176857E-006  0.6999020E+02  0.7818608E-02  0.1373526E+00
          2   -1    0    0  502    0  0.00000000000E+00  0.00000000000E+00  0.21009667035E+03  0.21009667035E+03  0.00000000000E+00 0. -1.
          1   -1    0    0  501    0 -0.00000000000E+00 -0.00000000000E+00 -0.38383314121E+04  0.38383314121E+04  0.00000000000E+00 0. -1.
         25    2    1    2    0    0  0.75786899661E+02  0.10791210859E+03 -0.52420567646E+03  0.55480155121E+03  0.12499797056E+03 0.  0.
          2    1    1    2  501    0 -0.34918739687E+02 -0.51966554220E+02 -0.32923604045E+04  0.32929556442E+04  0.00000000000E+00 0. -1.
          1    1    1    2  502    0 -0.40868159974E+02 -0.55945554366E+02  0.18833133928E+03  0.20067088704E+03  0.00000000000E+00 0. -1.
         22    1    3    3    0    0  0.20280429611E+02 -0.18257312500E+02 -0.25325105231E+02  0.37228836134E+02  0.00000000000E+00 0. -1.
         22    1    3    3    0    0  0.55506470051E+02  0.12616942109E+03 -0.49888057123E+03  0.51757271507E+03  0.00000000000E+00 0. -1.
</event>
<event>
 7    1  0.6176857E-006  0.6690355E+02  0.7818608E-02  0.1427120E+00
          2   -1    0    0  502    0  0.00000000000E+00  0.00000000000E+00  0.44587763198E+03  0.44587763198E+03  0.00000000000E+00 0. -1.
          1   -1    0    0  501    0 -0.00000000000E+00 -0.00000000000E+00 -0.11176565757E+03  0.11176565757E+03  0.00000000000E+00 0. -1.
         25    2    1    2    0    0 -0.83872956528E+02 -0.61442162546E+02  0.19439468801E+03  0.25342582113E+03  0.12500215964E+03 0.  0.
          2    1    1    2  501    0  0.36801037370E+02  0.21949707723E+02 -0.71987998040E+02  0.83775759516E+02  0.00000000000E+00 0. -1.
          1    1    1    2  502    0  0.47071919157E+02  0.39492454823E+02  0.21170528445E+03  0.22044170890E+03  0.00000000000E+00 0. -1.
         22    1    3    3    0    0 -0.97571746037E+02 -0.86466463484E+02  0.17762167231E+03  0.22033191645E+03  0.00000000000E+00 0. -1.
         22    1    3    3    0    0  0.13698789510E+02  0.25024300938E+02  0.16773015701E+02  0.33093904683E+02  0.00000000000E+00 0. -1.
</event>
<event>
 7    1  0.6176857E-006  0.1724693E+03  0.7818608E-02  0.1261527E+00
          2   -1    0    0  502    0  0.00000000000E+00  0.00000000000E+00  0.82338363078E+03  0.82338363078E+03  0.00000000000E+00 0. -1.
          1   -1    0    0  501    0 -0.00000000000E+00 -0.00000000000E+00 -0.48315222622E+03  0.48315222622E+03  0.00000000000E+00 0. -1.
         25    2    1    2    0    0  0.69094600683E+02  0.87381809207E+02  0.22431385444E+03  0.27991373596E+03  0.12500139943E+03 0.  0.
          2    1    1    2  501    0 -0.84770672288E+02 -0.15509258817E+03 -0.43593867432E+03  0.47040653221E+03  0.00000000000E+00 0. -1.
          1    1    1    2  502    0  0.15676071606E+02  0.67710778963E+02  0.55185622444E+03  0.55621558883E+03  0.00000000000E+00 0. -1.
         22    1    3    3    0    0  0.34889357889E+02  0.84703174641E+02  0.22770034930E+03  0.24543704724E+03  0.00000000000E+00 0.  1.
         22    1    3    3    0    0  0.34205242794E+02  0.26786345660E+01 -0.33864948535E+01  0.34476688720E+02  0.00000000000E+00 0.  1.
</event>
<event>
 7    1  0.6176857E-006  0.5032836E+02  0.7818608E-02  0.1568214E+00
          2   -1    0    0  502    0  0.00000000000E+00  0.00000000000E+00  0.19074235949E+04  0.19074235949E+04  0.00000000000E+00 0. -1.
          1   -1    0    0  501    0 -0.00000000000E+00 -0.00000000000E+00 -0.41443440953E+03  0.41443440953E+03  0.00000000000E+00 0. -1.
         25    2    1    2    0    0  0.39923885601E+02 -0.15763812270E+02  0.32728060243E+03  0.35295462425E+03  0.12498783793E+03 0.  0.
          2    1    1    2  501    0 -0.50288378130E+02 -0.30605447406E+01 -0.39994325627E+03  0.40310407608E+03  0.00000000000E+00 0. -1.
          1    1    1    2  502    0  0.10364492529E+02  0.18824357011E+02  0.15656518392E+04  0.15657993041E+04  0.00000000000E+00 0. -1.
         22    1    3    3    0    0 -0.16626692055E+02 -0.14844883113E+02  0.27510317996E+03  0.27600466856E+03  0.00000000000E+00 0. -1.
         22    1    3    3    0    0  0.56550577656E+02 -0.91892915745E+00  0.52177422469E+02  0.76949955682E+02  0.00000000000E+00 0. -1.
</event>
<event>
 7    1  0.6176857E-006  0.1241186E+03  0.7818608E-02  0.1399085E+00
          2   -1    0    0  502    0  0.00000000000E+00  0.00000000000E+00  0.23282548483E+04  0.23282548483E+04  0.00000000000E+00 0. -1.
          1   -1    0    0  501    0 -0.00000000000E+00 -0.00000000000E+00 -0.17289775349E+03  0.17289775349E+03  0.00000000000E+00 0. -1.
         25    2    1    2    0    0  0.86367175157E+02 -0.58751973065E+02  0.42250299597E+02  0.16828941819E+03  0.12500062870E+03 0.  0.
          2    1    1    2  501    0  0.27567942053E+02  0.80435475901E+01 -0.10622087904E+03  0.11003438204E+03  0.00000000000E+00 0. -1.
          1    1    1    2  502    0 -0.11393511721E+03  0.50708425475E+02  0.22193276743E+04  0.22228288016E+04  0.00000000000E+00 0. -1.
         22    1    3    3    0    0  0.86121302677E+02 -0.93986949798E+02  0.36391187770E+02  0.13256977052E+03  0.00000000000E+00 0.  1.
         22    1    3    3    0    0  0.24587247951E+00  0.35234976733E+02  0.58591118267E+01  0.35719647675E+02  0.00000000000E+00 0.  1.
</event>
<event>
 7    1  0.6176857E-006  0.5002547E+02  0.7818608E-02  0.1524942E+00
          2   -1    0    0  502    0  0.00000000000E+00  0.00000000000E+00  0.17441602507E+04  0.17441602507E+04  0.00000000000E+00 0. -1.
          1   -1    0    0  501    0 -0.00000000000E+00 -0.00000000000E+00 -0.10162580987E+03  0.10162580987E+03  0.00000000000E+00 0. -1.
         25    2    1    2    0    0 -0.66333374938E+02 -0.40020651944E+02  0.20450144647E+03  0.25188815423E+03  0.12500012568E+03 0.  0.
          2    1    1    2  501    0  0.40550609129E+02  0.27680927791E+02 -0.70050634282E+02  0.85543421883E+02  0.00000000000E+00 0. -1.
          1    1    1    2  502    0  0.25782765809E+02  0.12339724153E+02  0.15080836286E+04  0.15083544845E+04  0.00000000000E+00 0. -1.
         22    1    3    3    0    0  0.18636802185E+02  0.28952024758E+02  0.73664206399E+02  0.81313992878E+02  0.00000000000E+00 0. -1.
         22    1    3    3    0    0 -0.84970177123E+02 -0.68972676701E+02  0.13083724007E+03  0.17057416135E+03  0.00000000000E+00 0. -1.
</event>
<event>
 7    1  0.6176857E-006  0.3388245E+03  0.7818608E-02  0.1151636E+00
          2   -1    0    0  502    0  0.00000000000E+00  0.00000000000E+00  0.24964783756E+03  0.24964783756E+03  0.00000000000E+00 0. -1.
          1   -1    0    0  501    0 -0.00000000000E+00 -0.00000000000E+00 -0.16763138972E+04  0.16763138972E+04  0.00000000000E+00 0. -1.
         25    2    1    2    0    0 -0.32975815083E+03  0.25505364251E+02  0.25385531193E+02  0.35448587004E+03  0.12499938086E+03 0.  0.
          2    1    1    2  501    0  0.32953284883E+03  0.89929617433E+02 -0.14064897943E+04  0.14473744423E+04  0.00000000000E+00 0. -1.
          1    1    1    2  502    0  0.22530200780E+00 -0.11543498168E+03 -0.45561796510E+02  0.12410142247E+03  0.00000000000E+00 0. -1.
         22    1    3    3    0    0 -0.18699062116E+03  0.65048812319E+02 -0.21389872486E+02  0.19913404287E+03  0.00000000000E+00 0. -1.
         22    1    3    3    0    0 -0.14276752968E+03 -0.39543448068E+02  0.46775403679E+02  0.15535182717E+03  0.00000000000E+00 0. -1.
</event>
<event>
 7    1  0.6176857E-006  0.9063486E+02  0.7818608E-02  0.1377412E+00
          2   -1    0    0  502    0  0.00000000000E+00  0.00000000000E+00  0.18617878805E+04  0.18617878805E+04  0.00000000000E+00 0. -1.
          1   -1    0    0  501    0 -0.00000000000E+00 -0.00000000000E+00 -0.13756614423E+04  0.13756614423E+04  0.00000000000E+00 0. -1.
         25    2    1    2    0    0 -0.42640802850E+02 -0.27505455568E+02  0.17428702616E+03  0.22039782365E+03  0.12499778009E+03 0.  0.
          2    1    1    2  501    0 -0.17497586067E+02 -0.43437815432E+02 -0.13509008392E+04  0.13517122795E+04  0.00000000000E+00 0. -1.
          1    1    1    2  502    0  0.60138388918E+02  0.70943271000E+02  0.16627402512E+04  0.16653392197E+04  0.00000000000E+00 0. -1.
         22    1    3    3    0    0 -0.21835122546E+02 -0.72017301677E+02  0.14454824009E+03  0.16296459134E+03  0.00000000000E+00 0. -1.
         22    1    3    3    0    0 -0.20805680305E+02  0.44511846109E+02  0.29738786077E+02  0.57433232316E+02  0.00000000000E+00 0. -1.
</event>
<event>
 7    1  0.6176857E-006  0.8682941E+02  0.7818608E-02  0.1334816E+00
          2   -1    0    0  502    0  0.00000000000E+00  0.00000000000E+00  0.15858758933E+04  0.15858758933E+04  0.00000000000E+00 0. -1.
          1   -1    0    0  501    0 -0.00000000000E+00 -0.00000000000E+00 -0.36256218432E+03  0.36256218432E+03  0.00000000000E+00 0. -1.
         25    2    1    2    0    0  0.13906026845E+03  0.34315785056E+02  0.91214371485E+03  0.93174680100E+03  0.12502245106E+03 0.  0.
          2    1    1    2  501    0 -0.69831311523E+02 -0.58237186389E+01 -0.34713814207E+03  0.35414010991E+03  0.00000000000E+00 0. -1.
          1    1    1    2  502    0 -0.69228956929E+02 -0.28492066417E+02  0.65830813622E+03  0.66255116674E+03  0.00000000000E+00 0. -1.
         22    1    3    3    0    0  0.16451907798E+02 -0.18089505742E+02  0.45232702347E+03  0.45298745197E+03  0.00000000000E+00 0. -1.
         22    1    3    3    0    0  0.12260836065E+03  0.52405290797E+02  0.45981669139E+03  0.47875934903E+03  0.00000000000E+00 0. -1.
</event>
<event>
 7    1  0.6176857E-006  0.8025540E+02  0.7818608E-02  0.1335475E+00
          2   -1    0    0  502    0  0.00000000000E+00  0.00000000000E+00  0.43341262058E+02  0.43341262058E+02  0.00000000000E+00 0. -1.
          1   -1    0    0  501    0 -0.00000000000E+00 -0.00000000000E+00 -0.18576325880E+04  0.18576325880E+04  0.00000000000E+00 0. -1.
         25    2    1    2    0    0  0.22088434341E+02  0.23056722216E+02 -0.76700256141E+03  0.77777751217E+03  0.12500167144E+03 0.  0.
          2    1    1    2  501    0 -0.93926484081E+02 -0.45889416333E+02 -0.10424322787E+04  0.10476607650E+04  0.00000000000E+00 0. -1.
          1    1    1    2  502    0  0.71838049739E+02  0.22832694117E+02 -0.48564858463E+01  0.75535572850E+02  0.00000000000E+00 0. -1.
         22    1    3    3    0    0 -0.36527836093E+02  0.49100045067E+02 -0.46715289883E+03  0.47114427527E+03  0.00000000000E+00 0.  1.
         22    1    3    3    0    0  0.58616270434E+02 -0.26043322851E+02 -0.29984966258E+03  0.30663323690E+03  0.00000000000E+00 0.  1.
</event>
<event>
 7    1  0.6176857E-006  0.1055033E+03  0.7818608E-02  0.1369402E+00
          2   -1    0    0  502    0  0.00000000000E+00  0.00000000000E+00  0.10347296554E+04  0.10347296554E+04  0.00000000000E+00 0. -1.
          1   -1    0    0  501    0 -0.00000000000E+00 -0.00000000000E+00 -0.12131607282E+04  0.12131607282E+04  0.00000000000E+00 0. -1.
         25    2    1    2    0    0  0.26838450471E+02 -0.89720563482E+02 -0.38004986602E+02  0.16075224376E+03  0.12500729151E+03 0.  0.
          2    1    1    2  501    0  0.42014108775E+02  0.90288096730E+01 -0.11104753291E+04  0.11113065110E+04  0.00000000000E+00 0. -1.
          1    1    1    2  502    0 -0.68852559246E+02  0.80691753809E+02  0.97004924301E+03  0.97583162887E+03  0.00000000000E+00 0. -1.
         22    1    3    3    0    0  0.53797105986E+01 -0.92512767972E+02  0.23457252188E+02  0.95591820802E+02  0.00000000000E+00 0. -1.
         22    1    3    3    0    0  0.21458739873E+02  0.27922044893E+01 -0.61462238790E+02  0.65160422957E+02  0.00000000000E+00 0. -1.
</event>
<event>
 7    1  0.7491611E-006  0.1327558E+03  0.7818608E-02  0.1375358E+00
          2   -1    0    0  502    0  0.00000000000E+00  0.00000000000E+00  0.77881588745E+03  0.77881588745E+03  0.00000000000E+00 0. -1.
          1   -1    0    0  501    0 -0.00000000000E+00 -0.00000000000E+00 -0.11322363152E+04  0.11322363152E+04  0.00000000000E+00 0. -1.
         25    2    1    2    0    0  0.14158257051E+03 -0.19256190599E+02 -0.35771706133E+03  0.40497497637E+03  0.12500724130E+03 0.  0.
          2    1    1    2  501    0 -0.17422788059E+02 -0.27452405503E+02 -0.74470733416E+03  0.74541679727E+03  0.00000000000E+00 0. -1.
          1    1    1    2  502    0 -0.12415978245E+03  0.46708596101E+02  0.74900396775E+03  0.76066042899E+03  0.00000000000E+00 0. -1.
         22    1    3    3    0    0 -0.30418498318E+00  0.13822059441E+02  0.45132230674E+01  0.14543419067E+02  0.00000000000E+00 0.  1.
         22    1    3    3    0    0  0.14188675549E+03 -0.33078250040E+02 -0.36223028439E+03  0.39043155731E+03  0.00000000000E+00 0.  1.
</event>
<event>
 7    1  0.6176857E-006  0.1438780E+03  0.7818608E-02  0.1318716E+00
          2   -1    0    0  502    0  0.00000000000E+00  0.00000000000E+00  0.18007489208E+04  0.18007489208E+04  0.00000000000E+00 0. -1.
          1   -1    0    0  501    0 -0.00000000000E+00 -0.00000000000E+00 -0.88722659913E+03  0.88722659913E+03  0.00000000000E+00 0. -1.
         25    2    1    2    0    0 -0.40744367711E+02 -0.89024776583E+02  0.25477555655E+03  0.30019993641E+03  0.12499561295E+03 0.  0.
          2    1    1    2  501    0  0.74305775239E+02  0.12439362269E+03 -0.85804856226E+03  0.87019679199E+03  0.00000000000E+00 0. -1.
          1    1    1    2  502    0 -0.33561407528E+02 -0.35368846108E+02  0.15167953274E+04  0.15175787915E+04  0.00000000000E+00 0. -1.
         22    1    3    3    0    0 -0.58925934171E+02 -0.68156269323E+02  0.25709505610E+03  0.27242505509E+03  0.00000000000E+00 0. -1.
         22    1    3    3    0    0  0.18181566461E+02 -0.20868507260E+02 -0.23194995514E+01  0.27774881321E+02  0.00000000000E+00 0. -1.
</event>
<event>
 7    1  0.6176857E-006  0.3008319E+03  0.7818608E-02  0.1291741E+00
          2   -1    0    0  502    0  0.00000000000E+00  0.00000000000E+00  0.44568342140E+03  0.44568342140E+03  0.00000000000E+00 0. -1.
          1   -1    0    0  501    0 -0.00000000000E+00 -0.00000000000E+00 -0.66944298893E+03  0.66944298893E+03  0.00000000000E+00 0. -1.
         25    2    1    2    0    0  0.20621826986E+03 -0.23992347147E+03 -0.33011667924E+03  0.47401848350E+03  0.12500901489E+03 0.  0.
          2    1    1    2  501    0 -0.29823281031E+02 -0.10598829102E+01 -0.20647051178E+03  0.20861597177E+03  0.00000000000E+00 0. -1.
          1    1    1    2  502    0 -0.17639498883E+03  0.24098335438E+03  0.31282762350E+03  0.43249195506E+03  0.00000000000E+00 0. -1.
         22    1    3    3    0    0  0.16719037597E+03 -0.17901670463E+03 -0.31682089491E+03  0.40046857780E+03  0.00000000000E+00 0.  1.
         22    1    3    3    0    0  0.39027893889E+02 -0.60906766836E+02 -0.13295784331E+02  0.73549905703E+02  0.00000000000E+00 0.  1.
</event>
<event>
 7    1  0.6176857E-006  0.1394968E+03  0.7818608E-02  0.1258361E+00
          2   -1    0    0  502    0  0.00000000000E+00  0.00000000000E+00  0.59653754710E+02  0.59653754710E+02  0.00000000000E+00 0. -1.
          1   -1    0    0  501    0 -0.00000000000E+00 -0.00000000000E+00 -0.37234459049E+04  0.37234459049E+04  0.00000000000E+00 0. -1.
         25    2    1    2    0    0 -0.40316860126E+02  0.47690204960E+02 -0.10181882391E+04  0.10277320713E+04  0.12500446077E+03 0.  0.
          2    1    1    2  501    0 -0.81300464695E+02  0.35331837046E+02 -0.25995783297E+04  0.26010893096E+04  0.00000000000E+00 0. -1.
          1    1    1    2  502    0  0.12161732482E+03 -0.83022042006E+02 -0.46025581419E+02  0.15427827877E+03  0.00000000000E+00 0. -1.
         22    1    3    3    0    0 -0.24959937370E+02  0.21195821745E+02 -0.54664488021E+02  0.63721798340E+02  0.00000000000E+00 0. -1.
         22    1    3    3    0    0 -0.15356922756E+02  0.26494383214E+02 -0.96352375110E+03  0.96401027295E+03  0.00000000000E+00 0. -1.
</event>
<event>
 7    1  0.6176857E-006  0.5465974E+02  0.7818608E-02  0.1447903E+00
          2   -1    0    0  502    0  0.00000000000E+00  0.00000000000E+00  0.35738514401E+03  0.35738514401E+03  0.00000000000E+00 0. -1.
          1   -1    0    0  501    0 -0.00000000000E+00 -0.00000000000E+00 -0.21850684532E+03  0.21850684532E+03  0.00000000000E+00 0. -1.
         25    2    1    2    0    0  0.32482066377E+02  0.92996616709E+02  0.13711676977E+03  0.21007392503E+03  0.12500636012E+03 0.  0.
          2    1    1    2  501    0 -0.16789408605E+02 -0.50951202913E+02 -0.17521312012E+03  0.18324177139E+03  0.00000000000E+00 0. -1.
          1    1    1    2  502    0 -0.15692657773E+02 -0.42045413797E+02  0.17697464904E+03  0.18257629291E+03  0.00000000000E+00 0. -1.
         22    1    3    3    0    0 -0.17958152345E+01 -0.30587661397E+02  0.21805591886E+02  0.37607363901E+02  0.00000000000E+00 0.  1.
         22    1    3    3    0    0  0.34277881612E+02  0.12358427811E+03  0.11531117788E+03  0.17246656113E+03  0.00000000000E+00 0.  1.
</event>
<event>
 7    1  0.6176857E-006  0.3807415E+02  0.7818608E-02  0.1625811E+00
          2   -1    0    0  502    0  0.00000000000E+00  0.00000000000E+00  0.52158885775E+03  0.52158885775E+03  0.00000000000E+00 0. -1.
          1   -1    0    0  501    0 -0.00000000000E+00 -0.00000000000E+00 -0.30018855596E+03  0.30018855596E+03  0.00000000000E+00 0. -1.
         25    2    1    2    0    0 -0.34492175823E+02  0.37025615069E+02  0.15085486977E+03  0.20234405656E+03  0.12500127651E+03 0.  0.
          2    1    1    2  501    0  0.19929585228E+02 -0.22609301050E+01 -0.27304552404E+03  0.27378122355E+03  0.00000000000E+00 0. -1.
          1    1    1    2  502    0  0.14562590595E+02 -0.34764684964E+02  0.34359095606E+03  0.34565213359E+03  0.00000000000E+00 0. -1.
         22    1    3    3    0    0 -0.23828488552E+02  0.19157310442E+02  0.17080329421E+03  0.17351819710E+03  0.00000000000E+00 0.  1.
         22    1    3    3    0    0 -0.10663687271E+02  0.17868304627E+02 -0.19948424440E+02  0.28825859468E+02  0.00000000000E+00 0.  1.
</event>
<event>
 7    1  0.6176857E-006  0.6682293E+02  0.7818608E-02  0.1496860E+00
          2   -1    0    0  502    0  0.00000000000E+00  0.00000000000E+00  0.46323265246E+03  0.46323265246E+03  0.00000000000E+00 0. -1.
          1   -1    0    0  501    0 -0.00000000000E+00 -0.00000000000E+00 -0.68829943362E+02  0.68829943362E+02  0.00000000000E+00 0. -1.
         25    2    1    2    0    0  0.28592310415E+02 -0.82946470688E+02  0.36472703484E+03  0.39541055374E+03  0.12500423531E+03 0.  0.
          2    1    1    2  501    0 -0.99814814537E+01  0.64963830140E+02 -0.29516595977E+02  0.72049695604E+02  0.00000000000E+00 0. -1.
          1    1    1    2  502    0 -0.18610828961E+02  0.17982640548E+02  0.59192270229E+02  0.64602346478E+02  0.00000000000E+00 0. -1.
         22    1    3    3    0    0 -0.99011295383E+01 -0.63517545685E+02  0.60940180704E+02  0.88578872200E+02  0.00000000000E+00 0. -1.
         22    1    3    3    0    0  0.38493439953E+02 -0.19428925003E+02  0.30378685414E+03  0.30683168154E+03  0.00000000000E+00 0. -1.
</event>
<event>
 7    1  0.6176857E-006  0.1438574E+03  0.7818608E-02  0.1311335E+00
          2   -1    0    0  502    0  0.00000000000E+00  0.00000000000E+00  0.17029529403E+04  0.17029529403E+04  0.00000000000E+00 0. -1.
          1   -1    0    0  501    0 -0.00000000000E+00 -0.00000000000E+00 -0.56051022151E+03  0.56051022151E+03  0.00000000000E+00 0. -1.
         25    2    1    2    0    0 -0.64420297755E+02  0.10796762734E+03  0.19461508283E+03  0.26325913947E+03  0.12499344276E+03 0.  0.
          2    1    1    2  501    0  0.37589067268E+02  0.36098311784E+02 -0.52124330633E+03  0.52384216181E+03  0.00000000000E+00 0. -1.
          1    1    1    2  502    0  0.26831230487E+02 -0.14406593913E+03  0.14690709423E+04  0.14763618606E+04  0.00000000000E+00 0. -1.
         22    1    3    3    0    0 -0.51100228927E+01 -0.18588191908E+02  0.80644830219E+02  0.82916957574E+02  0.00000000000E+00 0. -1.
         22    1    3    3    0    0 -0.59310274862E+02  0.12655581925E+03  0.11397025261E+03  0.18034218190E+03  0.00000000000E+00 0. -1.
</event>
<event>
 7    1  0.6176857E-006  0.5142372E+02  0.7818608E-02  0.1465297E+00
          2   -1    0    0  502    0  0.00000000000E+00  0.00000000000E+00  0.14575916010E+04  0.14575916010E+04  0.00000000000E+00 0. -1.
          1   -1    0    0  501    0 -0.00000000000E+00 -0.00000000000E+00 -0.19742482815E+02  0.19742482815E+02  0.00000000000E+00 0. -1.
         25    2    1    2    0    0  0.28261174894E+02 -0.66981779953E+02  0.95157671925E+03  0.96250086951E+03  0.12499767334E+03 0.  0.
          2    1    1    2  501    0  0.12304472595E+02  0.40172886735E+02  0.20897685428E+02  0.46925197184E+02  0.00000000000E+00 0. -1.
          1    1    1    2  502    0 -0.40565647489E+02  0.26808893218E+02  0.46537471349E+03  0.46790801710E+03  0.00000000000E+00 0. -1.
         22    1    3    3    0    0 -0.54678659432E+01 -0.21801629279E+02  0.22806958940E+02  0.32021336220E+02  0.00000000000E+00 0.  1.
         22    1    3    3    0    0  0.33729040837E+02 -0.45180150674E+02  0.92876976031E+03  0.93047953329E+03  0.00000000000E+00 0.  1.
</event>
<event>
 7    1  0.6176857E-006  0.2021922E+03  0.7818608E-02  0.1266467E+00
          2   -1    0    0  502    0  0.00000000000E+00  0.00000000000E+00  0.18234436583E+04  0.18234436583E+04  0.00000000000E+00 0. -1.
          1   -1    0    0  501    0 -0.00000000000E+00 -0.00000000000E+00 -0.17001979892E+03  0.17001979892E+03  0.00000000000E+00 0. -1.
         25    2    1    2    0    0 -0.37973752532E+02  0.22059600405E+03  0.62301427745E+03  0.67370367978E+03  0.12500102142E+03 0.  0.
          2    1    1    2  501    0  0.80637675703E+02 -0.18356577879E+03 -0.74140918321E+02  0.21376553898E+03  0.00000000000E+00 0. -1.
          1    1    1    2  502    0 -0.42663923171E+02 -0.37030225258E+02  0.11045505003E+04  0.11059942385E+04  0.00000000000E+00 0. -1.
         22    1    3    3    0    0  0.16067999681E+02  0.98749938558E+02  0.13636784603E+03  0.16913284841E+03  0.00000000000E+00 0.  1.
         22    1    3    3    0    0 -0.54041752213E+02  0.12184606549E+03  0.48664643142E+03  0.50457083137E+03  0.00000000000E+00 0.  1.
</event>
<event>
 7    1  0.6176857E-006  0.1270255E+03  0.7818608E-02  0.1332424E+00
          2   -1    0    0  502    0  0.00000000000E+00  0.00000000000E+00  0.12907765684E+04  0.12907765684E+04  0.00000000000E+00 0. -1.
          1   -1    0    0  501    0 -0.00000000000E+00 -0.00000000000E+00 -0.56059264416E+03  0.56059264416E+03  0.00000000000E+00 0. -1.
         25    2    1    2    0    0  0.59304008149E+02  0.55023239346E+02  0.41169511093E+03  0.43778985830E+03  0.12499029330E+03 0.  0.
          2    1    1    2  501    0 -0.81175520240E+02 -0.98773045463E+02 -0.53937601241E+03  0.55432126278E+03  0.00000000000E+00 0. -1.
          1    1    1    2  502    0  0.21871512091E+02  0.43749806117E+02  0.85786482575E+03  0.85925809151E+03  0.00000000000E+00 0. -1.
         22    1    3    3    0    0 -0.12409577927E+02  0.21053341858E+02  0.29879448321E+03  0.29979223476E+03  0.00000000000E+00 0.  1.
         22    1    3    3    0    0  0.71713586075E+02  0.33969897488E+02  0.11290062773E+03  0.13799762354E+03  0.00000000000E+00 0.  1.
</event>
<event>
 7    1  0.6176857E-006  0.9945684E+02  0.7818608E-02  0.1327531E+00
          2   -1    0    0  502    0  0.00000000000E+00  0.00000000000E+00  0.72342669910E+03  0.72342669910E+03  0.00000000000E+00 0. -1.
          1   -1    0    0  501    0 -0.00000000000E+00 -0.00000000000E+00 -0.15648262183E+04  0.15648262183E+04  0.00000000000E+00 0. -1.
         25    2    1    2    0    0  0.18679397629E+02  0.86564798292E+02  0.16046309746E+03  0.22184880429E+03  0.12500440840E+03 0.  0.
          2    1    1    2  501    0  0.61873216476E+02 -0.20617888922E+02 -0.15283409465E+04  0.15297318200E+04  0.00000000000E+00 0. -1.
          1    1    1    2  502    0 -0.80552614106E+02 -0.65946909370E+02  0.52647832982E+03  0.53667229317E+03  0.00000000000E+00 0. -1.
         22    1    3    3    0    0  0.27348186460E+02 -0.27390118206E+02  0.45683106825E+02  0.59875605444E+02  0.00000000000E+00 0.  1.
         22    1    3    3    0    0 -0.86687888310E+01  0.11395491650E+03  0.11477999063E+03  0.16197319884E+03  0.00000000000E+00 0.  1.
</event>
<event>
 7    1  0.6176857E-006  0.5321363E+02  0.7818608E-02  0.1451165E+00
          2   -1    0    0  502    0  0.00000000000E+00  0.00000000000E+00  0.16805799838E+04  0.16805799838E+04  0.00000000000E+00 0. -1.
          1   -1    0    0  501    0 -0.00000000000E+00 -0.00000000000E+00 -0.60258325055E+03  0.60258325055E+03  0.00000000000E+00 0. -1.
         25    2    1    2    0    0 -0.50044953094E+02  0.41580355493E+02  0.10069387334E+04  0.10167550265E+04  0.12502698817E+03 0.  0.
          2    1    1    2  501    0  0.43439758084E+02  0.11757019376E+02 -0.59574522215E+03  0.59744255774E+03  0.00000000000E+00 0. -1.
          1    1    1    2  502    0  0.66051950099E+01 -0.53337374869E+02  0.66680322205E+03  0.66896565016E+03  0.00000000000E+00 0. -1.
         22    1    3    3    0    0 -0.12330201032E+02  0.11760417872E+02  0.12446135177E+02  0.21100890191E+02  0.00000000000E+00 0.  1.
         22    1    3    3    0    0 -0.37714752062E+02  0.29819937621E+02  0.99449259820E+03  0.99565413627E+03  0.00000000000E+00 0.  1.
</event>
<event>
 7    1  0.6176857E-006  0.1178069E+03  0.7818608E-02  0.1302877E+00
          2   -1    0    0  502    0  0.00000000000E+00  0.00000000000E+00  0.19732848885E+04  0.19732848885E+04  0.00000000000E+00 0. -1.
          1   -1    0    0  501    0 -0.00000000000E+00 -0.00000000000E+00 -0.28951897027E+03  0.28951897027E+03  0.00000000000E+00 0. -1.
         25    2    1    2    0    0 -0.23391400940E+02 -0.11739093030E+03  0.70105966345E+03  0.72210605926E+03  0.12499888378E+03 0.  0.
          2    1    1    2  501    0  0.83323169420E+02  0.83723702911E+02 -0.26550520415E+03  0.29059494562E+03  0.00000000000E+00 0. -1.
          1    1    1    2  502    0 -0.59931768480E+02  0.33667227392E+02  0.12482114590E+04  0.12501028539E+04  0.00000000000E+00 0. -1.
         22    1    3    3    0    0 -0.66669650185E+01 -0.26954405117E+02  0.18470474937E+02  0.33348865380E+02  0.00000000000E+00 0.  1.
         22    1    3    3    0    0 -0.16724435921E+02 -0.90436525186E+02  0.68258918852E+03  0.68875719388E+03  0.00000000000E+00 0.  1.
</event>
<event>
 7    1  0.6176857E-006  0.2719762E+03  0.7818608E-02  0.1198169E+00
          2   -1    0    0  502    0  0.00000000000E+00  0.00000000000E+00  0.25814537042E+04  0.25814537042E+04  0.00000000000E+00 0. -1.
          1   -1    0    0  501    0 -0.00000000000E+00 -0.00000000000E+00 -0.52666489456E+02  0.52666489456E+02  0.00000000000E+00 0. -1.
         25    2    1    2    0    0 -0.60650583438E+02 -0.23014746115E+03  0.78406702003E+03  0.82887403526E+03  0.12499890911E+03 0.  0.
          2    1    1    2  501    0 -0.79913485389E+02 -0.28449768863E+02  0.86666769766E+02  0.12127111559E+03  0.00000000000E+00 0. -1.
          1    1    1    2  502    0  0.14056406883E+03  0.25859723001E+03  0.16580534250E+04  0.16839750429E+04  0.00000000000E+00 0. -1.
         22    1    3    3    0    0  0.38274937702E+02 -0.72835475410E+02  0.21342992412E+03  0.22874070439E+03  0.00000000000E+00 0.  1.
         22    1    3    3    0    0 -0.98925521140E+02 -0.15731198574E+03  0.57063709591E+03  0.60013333087E+03  0.00000000000E+00 0.  1.
</event>
<event>
 7    1  0.6176857E-006  0.1883788E+03  0.7818608E-02  0.1235715E+00
          2   -1    0    0  502    0  0.00000000000E+00  0.00000000000E+00  0.24091573653E+04  0.24091573653E+04  0.00000000000E+00 0. -1.
          1   -1    0    0  501    0 -0.00000000000E+00 -0.00000000000E+00 -0.88564418434E+03  0.88564418434E+03  0.00000000000E+00 0. -1.
         25    2    1    2    0    0  0.43211968594E+02 -0.19143286224E+03 -0.99697497329E+02  0.25313978180E+03  0.12500537262E+03 0.  0.
          2    1    1    2  501    0  0.38976764487E+02  0.18555366637E+03 -0.69580870140E+03  0.72117896546E+03  0.00000000000E+00 0. -1.
          1    1    1    2  502    0 -0.82188733081E+02  0.58791958657E+01  0.23190193797E+04  0.23204828024E+04  0.00000000000E+00 0. -1.
         22    1    3    3    0    0  0.15259184192E+02 -0.11438393275E+03 -0.12226919967E+03  0.16812579802E+03  0.00000000000E+00 0.  1.
         22    1    3    3    0    0  0.27952784402E+02 -0.77048929492E+02  0.22571702341E+02  0.85013983781E+02  0.00000000000E+00 0.  1.
</event>
<event>
 7    1  0.6176857E-006  0.1085485E+03  0.7818608E-02  0.1368961E+00
          2   -1    0    0  502    0  0.00000000000E+00  0.00000000000E+00  0.13236380012E+03  0.13236380012E+03  0.00000000000E+00 0. -1.
          1   -1    0    0  501    0 -0.00000000000E+00 -0.00000000000E+00 -0.12973035736E+04  0.12973035736E+04  0.00000000000E+00 0. -1.
         25    2    1    2    0    0  0.43421108401E+02 -0.60385494351E+02 -0.78318603529E+02  0.16520338284E+03  0.12500621369E+03 0.  0.
          2    1    1    2  501    0 -0.42374425282E+02  0.10229301846E+03 -0.11678334439E+04  0.11730705035E+04  0.00000000000E+00 0. -1.
          1    1    1    2  502    0 -0.10466831194E+01 -0.41907524108E+02  0.81212273858E+02  0.91393487447E+02  0.00000000000E+00 0. -1.
         22    1    3    3    0    0 -0.33416736332E+02 -0.24951909653E+02  0.10006768522E+02  0.42888360643E+02  0.00000000000E+00 0. -1.
         22    1    3    3    0    0  0.76837844733E+02 -0.35433584698E+02 -0.88325372051E+02  0.12231502220E+03  0.00000000000E+00 0. -1.
</event>
<event>
 7    1  0.6176857E-006  0.2377370E+03  0.7818608E-02  0.1275128E+00
          2   -1    0    0  502    0  0.00000000000E+00  0.00000000000E+00  0.27040658907E+04  0.27040658907E+04  0.00000000000E+00 0. -1.
          1   -1    0    0  501    0 -0.00000000000E+00 -0.00000000000E+00 -0.14876863802E+04  0.14876863802E+04  0.00000000000E+00 0. -1.
         25    2    1    2    0    0 -0.20025284999E+03 -0.38289604887E+02  0.47066563730E+03  0.52793519371E+03  0.12498851489E+03 0.  0.
          2    1    1    2  501    0  0.22677100546E+03  0.73640194765E+02 -0.14490871276E+04  0.14685712344E+04  0.00000000000E+00 0. -1.
          1    1    1    2  502    0 -0.26518155471E+02 -0.35350589877E+02  0.21948010008E+04  0.21952458427E+04  0.00000000000E+00 0. -1.
         22    1    3    3    0    0 -0.12864848296E+03  0.27048186963E+02  0.34520907098E+03  0.36939320416E+03  0.00000000000E+00 0.  1.
         22    1    3    3    0    0 -0.71604367023E+02 -0.65337791851E+02  0.12545656632E+03  0.15854198956E+03  0.00000000000E+00 0.  1.
</event>
<event>
 7    1  0.6176857E-006  0.7438929E+02  0.7818608E-02  0.1412092E+00
          2   -1    0    0  502    0  0.00000000000E+00  0.00000000000E+00  0.91345853093E+02  0.91345853093E+02  0.00000000000E+00 0. -1.
          1   -1    0    0  501    0 -0.00000000000E+00 -0.00000000000E+00 -0.80604593639E+03  0.80604593639E+03  0.00000000000E+00 0. -1.
         25    2    1    2    0    0  0.23268438603E+02 -0.73822659908E+02 -0.40847098716E+03  0.43412574841E+03  0.12500165091E+03 0.  0.
          2    1    1    2  501    0  0.19993473615E+02  0.73680357066E+02 -0.37463121210E+03  0.38233111185E+03  0.00000000000E+00 0. -1.
          1    1    1    2  502    0 -0.43261912218E+02  0.14230284242E+00  0.68402115970E+02  0.80934929221E+02  0.00000000000E+00 0. -1.
         22    1    3    3    0    0  0.37168209829E+02 -0.91985711583E+02 -0.18891437975E+03  0.21338109062E+03  0.00000000000E+00 0.  1.
         22    1    3    3    0    0 -0.13899771226E+02  0.18163051675E+02 -0.21955660741E+03  0.22074465779E+03  0.00000000000E+00 0.  1.
</event>
<event>
 7    1  0.6176857E-006  0.8897139E+02  0.7818608E-02  0.1328000E+00
          2   -1    0    0  502    0  0.00000000000E+00  0.00000000000E+00  0.35110481354E+04  0.35110481354E+04  0.00000000000E+00 0. -1.
          1   -1    0    0  501    0 -0.00000000000E+00 -0.00000000000E+00 -0.21285176375E+03  0.21285176375E+03  0.00000000000E+00 0. -1.
         25    2    1    2    0    0 -0.23699245865E+02  0.51861497245E+01  0.12138518553E+04  0.12205122856E+04  0.12500144888E+03 0.  0.
          2    1    1    2  501    0  0.54810098969E+02 -0.70786270919E+02 -0.19935496857E+03  0.21853431445E+03  0.00000000000E+00 0. -1.
          1    1    1    2  502    0 -0.31110853104E+02  0.65600121195E+02  0.22836994849E+04  0.22848532991E+04  0.00000000000E+00 0. -1.
         22    1    3    3    0    0  0.41891123700E+02 -0.24385260247E+02  0.69605407521E+03  0.69773976723E+03  0.00000000000E+00 0.  1.
         22    1    3    3    0    0 -0.65590369565E+02  0.29571409972E+02  0.51779778009E+03  0.52277251834E+03  0.00000000000E+00 0.  1.
</event>
<event>
 7    1  0.6176857E-006  0.1079608E+03  0.7818608E-02  0.1343539E+00
          2   -1    0    0  502    0  0.00000000000E+00  0.00000000000E+00  0.14278509872E+04  0.14278509872E+04  0.00000000000E+00 0. -1.
          1   -1    0    0  501    0 -0.00000000000E+00 -0.00000000000E+00 -0.44710990353E+03  0.44710990353E+03  0.00000000000E+00 0. -1.
         25    2    1    2    0    0  0.34949183610E+02  0.63200232703E+02  0.31368698514E+03  0.34531373130E+03  0.12500533401E+03 0.  0.
          2    1    1    2  501    0 -0.87163337228E+02 -0.65178957997E+02 -0.42379484868E+03  0.43754750335E+03  0.00000000000E+00 0. -1.
          1    1    1    2  502    0  0.52214153618E+02  0.19787252941E+01  0.10908489472E+04  0.10920996561E+04  0.00000000000E+00 0. -1.
         22    1    3    3    0    0  0.18469326390E+02  0.30681473453E+02  0.70271538172E+01  0.36494516318E+02  0.00000000000E+00 0.  1.
         22    1    3    3    0    0  0.16479857220E+02  0.32518759250E+02  0.30665983132E+03  0.30881921498E+03  0.00000000000E+00 0.  1.
</event>
<event>
 7    1  0.6176857E-006  0.7702745E+02  0.7818608E-02  0.1504068E+00
          2   -1    0    0  502    0  0.00000000000E+00  0.00000000000E+00  0.26134038276E+03  0.26134038276E+03  0.00000000000E+00 0. -1.
          1   -1    0    0  501    0 -0.00000000000E+00 -0.00000000000E+00 -0.12879309546E+04  0.12879309546E+04  0.00000000000E+00 0. -1.
         25    2    1    2    0    0 -0.53511165149E+02 -0.38600133750E+02  0.14082132767E+03  0.19952140475E+03  0.12499891802E+03 0.  0.
          2    1    1    2  501    0  0.71939338763E+02  0.27786481581E+02 -0.12561300256E+04  0.12584951324E+04  0.00000000000E+00 0. -1.
          1    1    1    2  502    0 -0.18428173614E+02  0.10813652168E+02  0.88718126121E+02  0.91254800194E+02  0.00000000000E+00 0. -1.
         22    1    3    3    0    0 -0.35281040071E+02 -0.61334763876E+02  0.15250888296E+03  0.16812395555E+03  0.00000000000E+00 0.  1.
         22    1    3    3    0    0 -0.18230125078E+02  0.22734630126E+02 -0.11687555297E+02  0.31397449198E+02  0.00000000000E+00 0.  1.
</event>
<event>
 7    1  0.6176857E-006  0.5873313E+02  0.7818608E-02  0.1403401E+00
          2   -1    0    0  502    0  0.00000000000E+00  0.00000000000E+00  0.31055917735E+02  0.31055917735E+02  0.00000000000E+00 0. -1.
          1   -1    0    0  501    0 -0.00000000000E+00 -0.00000000000E+00 -0.84218431762E+03  0.84218431762E+03  0.00000000000E+00 0. -1.
         25    2    1    2    0    0 -0.34536181894E+02 -0.21068351453E+02 -0.24492771697E+03  0.27794217076E+03  0.12500256179E+03 0.  0.
          2    1    1    2  501    0 -0.62832704642E+01  0.63186013933E+02 -0.51042518594E+03  0.51435962350E+03  0.00000000000E+00 0. -1.
          1    1    1    2  502    0  0.40819452358E+02 -0.42117662480E+02 -0.55775496969E+02  0.80938441088E+02  0.00000000000E+00 0. -1.
         22    1    3    3    0    0 -0.35841140395E+02  0.22324691508E+02 -0.16352994572E+02  0.45281338620E+02  0.00000000000E+00 0. -1.
         22    1    3    3    0    0  0.13049585005E+01 -0.43393042961E+02 -0.22857472240E+03  0.23266083214E+03  0.00000000000E+00 0. -1.
</event>
<event>
 7    1  0.6176857E-006  0.9207924E+02  0.7818608E-02  0.1323248E+00
          2   -1    0    0  502    0  0.00000000000E+00  0.00000000000E+00  0.25541644153E+03  0.25541644153E+03  0.00000000000E+00 0. -1.
          1   -1    0    0  501    0 -0.00000000000E+00 -0.00000000000E+00 -0.65525937549E+03  0.65525937549E+03  0.00000000000E+00 0. -1.
         25    2    1    2    0    0 -0.49403007530E+02  0.14496429254E+03  0.53981127653E+02  0.20492295658E+03  0.12499661086E+03 0.  0.
          2    1    1    2  501    0  0.54966394020E+02 -0.72007878415E+02 -0.56524347979E+03  0.57245666253E+03  0.00000000000E+00 0. -1.
          1    1    1    2  502    0 -0.55633864902E+01 -0.72956414126E+02  0.11141941817E+03  0.13329619791E+03  0.00000000000E+00 0. -1.
         22    1    3    3    0    0  0.14913717943E+02  0.83016161867E+02  0.75353159070E+02  0.11310261136E+03  0.00000000000E+00 0. -1.
         22    1    3    3    0    0 -0.64316725473E+02  0.61948130675E+02 -0.21372031417E+02  0.91820345222E+02  0.00000000000E+00 0. -1.
</event>
<event>
 7    1  0.6176857E-006  0.7011386E+02  0.7818608E-02  0.1408178E+00
          2   -1    0    0  502    0  0.00000000000E+00  0.00000000000E+00  0.20934798659E+03  0.20934798659E+03  0.00000000000E+00 0. -1.
          1   -1    0    0  501    0 -0.00000000000E+00 -0.00000000000E+00 -0.16628531527E+04  0.16628531527E+04  0.00000000000E+00 0. -1.
         25    2    1    2    0    0  0.28095287859E+02  0.17824264623E+01 -0.33319041557E+03  0.35697701010E+03  0.12499684185E+03 0.  0.
          2    1    1    2  501    0 -0.69799678697E+02 -0.24149178437E+02 -0.13138818014E+04  0.13159561414E+04  0.00000000000E+00 0. -1.
          1    1    1    2  502    0  0.41704390838E+02  0.22366751975E+02  0.19356705083E+03  0.19926798784E+03  0.00000000000E+00 0. -1.
         22    1    3    3    0    0  0.12545360937E+02  0.56048013943E+02 -0.85947976014E+02  0.10337224255E+03  0.00000000000E+00 0.  1.
         22    1    3    3    0    0  0.15549926922E+02 -0.54265587481E+02 -0.24724243955E+03  0.25360476756E+03  0.00000000000E+00 0.  1.
</event>
<event>
 7    1  0.6176857E-006  0.4767891E+02  0.7818608E-02  0.1562925E+00
          2   -1    0    0  502    0  0.00000000000E+00  0.00000000000E+00  0.28863443493E+03  0.28863443493E+03  0.00000000000E+00 0. -1.
          1   -1    0    0  501    0 -0.00000000000E+00 -0.00000000000E+00 -0.13163644197E+04  0.13163644197E+04  0.00000000000E+00 0. -1.
         25    2    1    2    0    0  0.26928135371E+02  0.21670312141E+02 -0.38624892649E+03  0.40743870017E+03  0.12499333693E+03 0.  0.
          2    1    1    2  501    0 -0.78201610504E+01  0.22108362204E+02 -0.91731806391E+03  0.91761776627E+03  0.00000000000E+00 0. -1.
          1    1    1    2  502    0 -0.19107974321E+02 -0.43778674345E+02  0.27583700565E+03  0.27994238817E+03  0.00000000000E+00 0. -1.
         22    1    3    3    0    0 -0.27417504554E+02 -0.38675120429E+02 -0.11802235365E+03  0.12718789430E+03  0.00000000000E+00 0. -1.
         22    1    3    3    0    0  0.54345639925E+02  0.60345432570E+02 -0.26822657284E+03  0.28025080587E+03  0.00000000000E+00 0. -1.
</event>
<event>
 7    1  0.6176857E-006  0.4525108E+02  0.7818608E-02  0.1521944E+00
          2   -1    0    0  502    0  0.00000000000E+00  0.00000000000E+00  0.47712392959E+03  0.47712392959E+03  0.00000000000E+00 0. -1.
          1   -1    0    0  501    0 -0.00000000000E+00 -0.00000000000E+00 -0.45582507239E+03  0.45582507239E+03  0.00000000000E+00 0. -1.
         25    2    1    2    0    0  0.32858461097E+01 -0.68668888650E+02  0.12092369489E+03  0.18701123361E+03  0.12499779381E+03 0.  0.
          2    1    1    2  501    0 -0.19375616127E+02  0.40735084354E+02 -0.42076886412E+03  0.42317986555E+03  0.00000000000E+00 0. -1.
          1    1    1    2  502    0  0.16089770017E+02  0.27933804297E+02  0.32114402643E+03  0.32275790282E+03  0.00000000000E+00 0. -1.
         22    1    3    3    0    0  0.38928033322E+02 -0.91669519179E+02  0.76454392284E+02  0.12555463601E+03  0.00000000000E+00 0.  1.
         22    1    3    3    0    0 -0.35642187213E+02  0.23000630529E+02  0.44469302607E+02  0.61456597599E+02  0.00000000000E+00 0.  1.
</event>
<event>
 7    1  0.6176857E-006  0.7563253E+02  0.7818608E-02  0.1357696E+00
          2   -1    0    0  502    0  0.00000000000E+00  0.00000000000E+00  0.11453331671E+04  0.11453331671E+04  0.00000000000E+00 0. -1.
          1   -1    0    0  501    0 -0.00000000000E+00 -0.00000000000E+00 -0.28366412907E+03  0.28366412907E+03  0.00000000000E+00 0. -1.
         25    2    1    2    0    0 -0.10276692169E+03 -0.27495588506E+02  0.21370053281E+03  0.26946542355E+03  0.12500659656E+03 0.  0.
          2    1    1    2  501    0  0.45355736903E+02  0.60270083639E+02 -0.24897766180E+03  0.26015284340E+03  0.00000000000E+00 0. -1.
          1    1    1    2  502    0  0.57411184787E+02 -0.32774495133E+02  0.89694616705E+03  0.89937902925E+03  0.00000000000E+00 0. -1.
         22    1    3    3    0    0 -0.53746238952E+02 -0.50502064616E+02  0.32947663959E+02  0.80775400292E+02  0.00000000000E+00 0.  1.
         22    1    3    3    0    0 -0.49020682738E+02  0.23006476110E+02  0.18075286885E+03  0.18869002326E+03  0.00000000000E+00 0.  1.
</event>
<event>
 7    1  0.6176857E-006  0.3539516E+02  0.7818608E-02  0.1628243E+00
          2   -1    0    0  502    0  0.00000000000E+00  0.00000000000E+00  0.11142982757E+04  0.11142982757E+04  0.00000000000E+00 0. -1.
          1   -1    0    0  501    0 -0.00000000000E+00 -0.00000000000E+00 -0.10442910562E+04  0.10442910562E+04  0.00000000000E+00 0. -1.
         25    2    1    2    0    0 -0.13711805208E+02  0.54277616400E+02 -0.27299392288E+03  0.30542496063E+03  0.12499860560E+03 0.  0.
          2    1    1    2  501    0  0.10478630312E+01 -0.21246820756E+02 -0.75464678464E+03  0.75494655107E+03  0.00000000000E+00 0. -1.
          1    1    1    2  502    0  0.12663942177E+02 -0.33030795644E+02  0.10976479270E+04  0.10982178202E+04  0.00000000000E+00 0. -1.
         22    1    3    3    0    0  0.46751616534E+02  0.35790035989E+02 -0.20177418847E+03  0.21018911356E+03  0.00000000000E+00 0. -1.
         22    1    3    3    0    0 -0.60463421742E+02  0.18487580411E+02 -0.71219734409E+02  0.95235847072E+02  0.00000000000E+00 0. -1.
</event>
<event>
 7    1  0.6176857E-006  0.2414413E+03  0.7818608E-02  0.1234028E+00
          2   -1    0    0  502    0  0.00000000000E+00  0.00000000000E+00  0.64861831140E+03  0.64861831140E+03  0.00000000000E+00 0. -1.
          1   -1    0    0  501    0 -0.00000000000E+00 -0.00000000000E+00 -0.29451628029E+03  0.29451628029E+03  0.00000000000E+00 0. -1.
         25    2    1    2    0    0 -0.22548573362E+03 -0.13439254605E+02 -0.89272826045E+02  0.27316500461E+03  0.12500021057E+03 0.  0.
          2    1    1    2  501    0 -0.64549736119E+01 -0.65090635139E+02 -0.73277165087E+02  0.98224235249E+02  0.00000000000E+00 0. -1.
          1    1    1    2  502    0  0.23194070723E+03  0.78529889744E+02  0.51665202224E+03  0.57174535183E+03  0.00000000000E+00 0. -1.
         22    1    3    3    0    0 -0.74404344700E+02 -0.20583560878E+02  0.27638945900E+02  0.81997565934E+02  0.00000000000E+00 0. -1.
         22    1    3    3    0    0 -0.15108138892E+03  0.71443062724E+01 -0.11691177195E+03  0.19116743867E+03  0.00000000000E+00 0. -1.
</event>
<event>
 7    1  0.6176857E-006  0.1490374E+03  0.7818608E-02  0.1378617E+00
          2   -1    0    0  502    0  0.00000000000E+00  0.00000000000E+00  0.62322466504E+03  0.62322466504E+03  0.00000000000E+00 0. -1.
          1   -1    0    0  501    0 -0.00000000000E+00 -0.00000000000E+00 -0.15825147149E+03  0.15825147149E+03  0.00000000000E+00 0. -1.
         25    2    1    2    0    0  0.72819034470E+02  0.15391474367E+03  0.12468150438E+03  0.24528135170E+03  0.12500041542E+03 0.  0.
          2    1    1    2  501    0 -0.55010172350E+02 -0.13205054485E+03 -0.44931378001E+02  0.14994096901E+03  0.00000000000E+00 0. -1.
          1    1    1    2  502    0 -0.17808862121E+02 -0.21864198819E+02  0.38522306718E+03  0.38625381583E+03  0.00000000000E+00 0. -1.
         22    1    3    3    0    0  0.99969037721E+02  0.13087599056E+03  0.67639392133E+02  0.17803769481E+03  0.00000000000E+00 0. -1.
         22    1    3    3    0    0 -0.27150003251E+02  0.23038753116E+02  0.57042112245E+02  0.67243656883E+02  0.00000000000E+00 0. -1.
</event>
<event>
 7    1  0.6176857E-006  0.1261514E+03  0.7818608E-02  0.1348996E+00
          2   -1    0    0  502    0  0.00000000000E+00  0.00000000000E+00  0.62488060293E+03  0.62488060293E+03  0.00000000000E+00 0. -1.
          1   -1    0    0  501    0 -0.00000000000E+00 -0.00000000000E+00 -0.45018832861E+03  0.45018832861E+03  0.00000000000E+00 0. -1.
         25    2    1    2    0    0 -0.83699385917E+02  0.39776649907E+02 -0.21357145636E+02  0.15707926357E+03  0.12501999157E+03 0.  0.
          2    1    1    2  501    0  0.11017066099E+03 -0.73244901679E+02 -0.34798477834E+03  0.37228456337E+03  0.00000000000E+00 0. -1.
          1    1    1    2  502    0 -0.26471275071E+02  0.33468251772E+02  0.54403419830E+03  0.54570510461E+03  0.00000000000E+00 0. -1.
         22    1    3    3    0    0 -0.26287120016E+02  0.78632977641E+02  0.46389646982E+01  0.83040218237E+02  0.00000000000E+00 0.  1.
         22    1    3    3    0    0 -0.57412265900E+02 -0.38856327734E+02 -0.25996110335E+02  0.74039045329E+02  0.00000000000E+00 0.  1.
</event>
<event>
 7    1  0.6176857E-006  0.1663457E+03  0.7818608E-02  0.1347516E+00
          2   -1    0    0  502    0  0.00000000000E+00  0.00000000000E+00  0.53612451394E+02  0.53612451394E+02  0.00000000000E+00 0. -1.
          1   -1    0    0  501    0 -0.00000000000E+00 -0.00000000000E+00 -0.22501705676E+04  0.22501705676E+04  0.00000000000E+00 0. -1.
         25    2    1    2    0    0  0.19606572711E+03 -0.49700746805E+01 -0.14964365130E+04  0.15144031205E+04  0.12501241135E+03 0.  0.
          2    1    1    2  501    0 -0.32769663859E+02  0.46857371263E+00 -0.59328138967E+03  0.59418589495E+03  0.00000000000E+00 0. -1.
          1    1    1    2  502    0 -0.16329606325E+03  0.45015009678E+01 -0.10684021353E+03  0.19519400352E+03  0.00000000000E+00 0. -1.
         22    1    3    3    0    0  0.30183908054E+02  0.15702740524E+02 -0.68922229964E+03  0.69006160789E+03  0.00000000000E+00 0. -1.
         22    1    3    3    0    0  0.16588181905E+03 -0.20672815205E+02 -0.80721421340E+03  0.82434151266E+03  0.00000000000E+00 0. -1.
</event>
<event>
 7    1  0.6176857E-006  0.1550616E+03  0.7818608E-02  0.1338492E+00
          2   -1    0    0  502    0  0.00000000000E+00  0.00000000000E+00  0.34976759219E+03  0.34976759219E+03  0.00000000000E+00 0. -1.
          1   -1    0    0  501    0 -0.00000000000E+00 -0.00000000000E+00 -0.25589886905E+03  0.25589886905E+03  0.00000000000E+00 0. -1.
         25    2    1    2    0    0  0.12789064346E+03  0.59976836258E+02  0.16769098319E+03  0.25238528619E+03  0.12499931709E+03 0.  0.
          2    1    1    2  501    0  0.18746383736E+02  0.33057692686E+02 -0.15642598307E+03  0.16097616633E+03  0.00000000000E+00 0. -1.
          1    1    1    2  502    0 -0.14663702719E+03 -0.93034528944E+02  0.82603723017E+02  0.19230500871E+03  0.00000000000E+00 0. -1.
         22    1    3    3    0    0  0.74444563568E+00  0.32241174045E+02  0.10126505371E+03  0.10627633135E+03  0.00000000000E+00 0. -1.
         22    1    3    3    0    0  0.12714619782E+03  0.27735662213E+02  0.66425929482E+02  0.14610895484E+03  0.00000000000E+00 0. -1.
</event>
<event>
 7    1  0.6176857E-006  0.1726318E+03  0.7818608E-02  0.1350075E+00
          2   -1    0    0  502    0  0.00000000000E+00  0.00000000000E+00  0.53601373910E+03  0.53601373910E+03  0.00000000000E+00 0. -1.
          1   -1    0    0  501    0 -0.00000000000E+00 -0.00000000000E+00 -0.54226118378E+03  0.54226118378E+03  0.00000000000E+00 0. -1.
         25    2    1    2    0    0 -0.81852843565E+02 -0.17467328621E+03 -0.12786676882E+03  0.26303041004E+03  0.12499776448E+03 0.  0.
          2    1    1    2  501    0  0.84365035569E+02  0.14387909973E+03 -0.32619639781E+03  0.36636422384E+03  0.00000000000E+00 0. -1.
          1    1    1    2  502    0 -0.25121920037E+01  0.30794186477E+02  0.44781572194E+03  0.44888028900E+03  0.00000000000E+00 0. -1.
         22    1    3    3    0    0 -0.90640757457E+02 -0.18670048470E+03 -0.97699798413E+02  0.22938628667E+03  0.00000000000E+00 0. -1.
         22    1    3    3    0    0  0.87879138921E+01  0.12027198497E+02 -0.30166970409E+02  0.33644123379E+02  0.00000000000E+00 0. -1.
</event>
<event>
 7    1  0.6176857E-006  0.5011948E+02  0.7818608E-02  0.1555062E+00
          2   -1    0    0  502    0  0.00000000000E+00  0.00000000000E+00  0.13623492836E+04  0.13623492836E+04  0.00000000000E+00 0. -1.
          1   -1    0    0  501    0 -0.00000000000E+00 -0.00000000000E+00 -0.84984515708E+02  0.84984515708E+02  0.00000000000E+00 0. -1.
         25    2    1    2    0    0  0.40326258531E+02  0.10785441057E+02  0.46611322168E+03  0.48438472704E+03  0.12499798196E+03 0.  0.
          2    1    1    2  501    0 -0.49145505491E+02  0.10943396108E+02 -0.67319468253E+02  0.84065149939E+02  0.00000000000E+00 0. -1.
          1    1    1    2  502    0  0.88192469596E+01 -0.21728837165E+02  0.87857101443E+03  0.87888392230E+03  0.00000000000E+00 0. -1.
         22    1    3    3    0    0  0.26509637932E+02 -0.52138874024E+02  0.31053257036E+03  0.31599319667E+03  0.00000000000E+00 0. -1.
         22    1    3    3    0    0  0.13816620600E+02  0.62924315081E+02  0.15558065132E+03  0.16839153036E+03  0.00000000000E+00 0. -1.
</event>
<event>
 7    1  0.6176857E-006  0.1177089E+03  0.7818608E-02  0.1295252E+00
          2   -1    0    0  502    0  0.00000000000E+00  0.00000000000E+00  0.66700033977E+03  0.66700033977E+03  0.00000000000E+00 0. -1.
          1   -1    0    0  501    0 -0.00000000000E+00 -0.00000000000E+00 -0.14209591388E+03  0.14209591388E+03  0.00000000000E+00 0. -1.
         25    2    1    2    0    0 -0.10357114566E+03 -0.46687471326E+02  0.62347557163E+02  0.18005550665E+03  0.12500426151E+03 0.  0.
          2    1    1    2  501    0  0.44859090107E+02 -0.58620555800E+02 -0.58519166629E+02  0.94197666587E+02  0.00000000000E+00 0. -1.
          1    1    1    2  502    0  0.58712055557E+02  0.10530802713E+03  0.52107603536E+03  0.53484308041E+03  0.00000000000E+00 0. -1.
         22    1    3    3    0    0 -0.69193610821E+02 -0.89963649288E+02  0.45496562711E+02  0.12227490008E+03  0.00000000000E+00 0. -1.
         22    1    3    3    0    0 -0.34377534842E+02  0.43276177961E+02  0.16850994452E+02  0.57780606563E+02  0.00000000000E+00 0. -1.
</event>
<event>
 7    1  0.6176857E-006  0.1041163E+03  0.7818608E-02  0.1459876E+00
          2   -1    0    0  502    0  0.00000000000E+00  0.00000000000E+00  0.17151822372E+04  0.17151822372E+04  0.00000000000E+00 0. -1.
          1   -1    0    0  501    0 -0.00000000000E+00 -0.00000000000E+00 -0.36506283238E+03  0.36506283238E+03  0.00000000000E+00 0. -1.
         25    2    1    2    0    0  0.54095224264E+02  0.74726885125E+02  0.38834583065E+03  0.41826584310E+03  0.12499372253E+03 0.  0.
          2    1    1    2  501    0 -0.75511111664E+02 -0.72055785358E+02 -0.34223243325E+03  0.35779463740E+03  0.00000000000E+00 0. -1.
          1    1    1    2  502    0  0.21415887400E+02 -0.26710997670E+01  0.13040060074E+04  0.13041845890E+04  0.00000000000E+00 0. -1.
         22    1    3    3    0    0 -0.37111790882E+02  0.41073012260E+02  0.18069428609E+03  0.18898333890E+03  0.00000000000E+00 0. -1.
         22    1    3    3    0    0  0.91207015146E+02  0.33653872865E+02  0.20765154456E+03  0.22928250419E+03  0.00000000000E+00 0. -1.
</event>
<event>
 7    1  0.6176857E-006  0.6885426E+02  0.7818608E-02  0.1450195E+00
          2   -1    0    0  502    0  0.00000000000E+00  0.00000000000E+00  0.10491436828E+04  0.10491436828E+04  0.00000000000E+00 0. -1.
          1   -1    0    0  501    0 -0.00000000000E+00 -0.00000000000E+00 -0.54120828806E+03  0.54120828806E+03  0.00000000000E+00 0. -1.
         25    2    1    2    0    0  0.77564354462E+01  0.34387382037E+02  0.96420560735E+03  0.97291378132E+03  0.12500447315E+03 0.  0.
          2    1    1    2  501    0 -0.27941760089E+02 -0.63016151196E+02 -0.53071010917E+03  0.53516819528E+03  0.00000000000E+00 0. -1.
          1    1    1    2  502    0  0.20185324643E+02  0.28628769159E+02  0.74439896511E+02  0.82269994209E+02  0.00000000000E+00 0. -1.
         22    1    3    3    0    0 -0.58030626745E+02  0.14958226832E+02  0.52022136526E+03  0.52366169524E+03  0.00000000000E+00 0.  1.
         22    1    3    3    0    0  0.65787062191E+02  0.19429155205E+02  0.44398424209E+03  0.44925208608E+03  0.00000000000E+00 0.  1.
</event>
<event>
 7    1  0.6176857E-006  0.5464072E+02  0.7818608E-02  0.1438424E+00
          2   -1    0    0  502    0  0.00000000000E+00  0.00000000000E+00  0.35558564744E+03  0.35558564744E+03  0.00000000000E+00 0. -1.
          1   -1    0    0  501    0 -0.00000000000E+00 -0.00000000000E+00 -0.18183745197E+03  0.18183745197E+03  0.00000000000E+00 0. -1.
         25    2    1    2    0    0 -0.13683077272E+02 -0.90234783841E+02  0.10370620215E+03  0.18632340365E+03  0.12502756322E+03 0.  0.
          2    1    1    2  501    0 -0.14183123921E+02  0.46039080396E+02 -0.13299338379E+03  0.14144963082E+03  0.00000000000E+00 0. -1.
          1    1    1    2  502    0  0.27866201193E+02  0.44195703445E+02  0.20303537711E+03  0.20965006494E+03  0.00000000000E+00 0. -1.
         22    1    3    3    0    0 -0.45145037200E+02 -0.10617930854E+03  0.59644335310E+02  0.12988289603E+03  0.00000000000E+00 0.  1.
         22    1    3    3    0    0  0.31461959928E+02  0.15944524702E+02  0.44061866844E+02  0.56440507619E+02  0.00000000000E+00 0.  1.
</event>
<event>
 7    1  0.6176857E-006  0.1208803E+03  0.7818608E-02  0.1338389E+00
          2   -1    0    0  502    0  0.00000000000E+00  0.00000000000E+00  0.17994274357E+04  0.17994274357E+04  0.00000000000E+00 0. -1.
          1   -1    0    0  501    0 -0.00000000000E+00 -0.00000000000E+00 -0.32802545930E+03  0.32802545930E+03  0.00000000000E+00 0. -1.
         25    2    1    2    0    0  0.16845552950E+03 -0.20746285478E+01  0.58973201565E+03  0.62593179197E+03  0.12500075365E+03 0.  0.
          2    1    1    2  501    0 -0.11982160044E+03  0.60062715183E+01 -0.29779196058E+03  0.32105037458E+03  0.00000000000E+00 0. -1.
          1    1    1    2  502    0 -0.48633929054E+02 -0.39316429705E+01  0.11794619213E+04  0.11804707285E+04  0.00000000000E+00 0. -1.
         22    1    3    3    0    0  0.12026105915E+03  0.19578994510E+02  0.53929294673E+03  0.55288601155E+03  0.00000000000E+00 0. -1.
         22    1    3    3    0    0  0.48194470348E+02 -0.21653623058E+02  0.50439068918E+02  0.73045780419E+02  0.00000000000E+00 0. -1.
</event>
<event>
 7    1  0.6176857E-006  0.9402342E+02  0.7818608E-02  0.1328489E+00
          2   -1    0    0  502    0  0.00000000000E+00  0.00000000000E+00  0.44477952575E+03  0.44477952575E+03  0.00000000000E+00 0. -1.
          1   -1    0    0  501    0 -0.00000000000E+00 -0.00000000000E+00 -0.26371832391E+03  0.26371832391E+03  0.00000000000E+00 0. -1.
         25    2    1    2    0    0  0.47865972069E+02 -0.54694085958E+02  0.16402479484E+03  0.21866017816E+03  0.12500218346E+03 0.  0.
          2    1    1    2  501    0  0.66697057486E+01  0.95989786425E+02 -0.22160081313E+03  0.24158941296E+03  0.00000000000E+00 0. -1.
          1    1    1    2  502    0 -0.54535677817E+02 -0.41295700466E+02  0.23863722014E+03  0.24824825854E+03  0.00000000000E+00 0. -1.
         22    1    3    3    0    0 -0.42745580309E+02 -0.16202072564E+02  0.60081632044E+02  0.75494995201E+02  0.00000000000E+00 0.  1.
         22    1    3    3    0    0  0.90611552378E+02 -0.38492013395E+02  0.10394316279E+03  0.14316518296E+03  0.00000000000E+00 0.  1.
</event>
<event>
 7    1  0.6176857E-006  0.8787818E+02  0.7818608E-02  0.1370553E+00
          2   -1    0    0  502    0  0.00000000000E+00  0.00000000000E+00  0.93265485806E+03  0.93265485806E+03  0.00000000000E+00 0. -1.
          1   -1    0    0  501    0 -0.00000000000E+00 -0.00000000000E+00 -0.15896088826E+04  0.15896088826E+04  0.00000000000E+00 0. -1.
         25    2    1    2    0    0  0.96302843925E+02 -0.18403922170E+02  0.21127498129E+03  0.26433893934E+03  0.12500006012E+03 0.  0.
          2    1    1    2  501    0 -0.30894416173E+02 -0.40706923229E+02 -0.15598603578E+04  0.15606972334E+04  0.00000000000E+00 0. -1.
          1    1    1    2  502    0 -0.65408427753E+02  0.59110845399E+02  0.69163135195E+03  0.69722756792E+03  0.00000000000E+00 0. -1.
         22    1    3    3    0    0  0.70319109740E+02 -0.58113029690E+02  0.19302450598E+03  0.21349557683E+03  0.00000000000E+00 0. -1.
         22    1    3    3    0    0  0.25983734185E+02  0.39709107521E+02  0.18250475310E+02  0.50843362510E+02  0.00000000000E+00 0. -1.
</event>
<event>
 7    1  0.6176857E-006  0.8270322E+02  0.7818608E-02  0.1485545E+00
          2   -1    0    0  502    0  0.00000000000E+00  0.00000000000E+00  0.11763776739E+04  0.11763776739E+04  0.00000000000E+00 0. -1.
          1   -1    0    0  501    0 -0.00000000000E+00 -0.00000000000E+00 -0.12237033623E+03  0.12237033623E+03  0.00000000000E+00 0. -1.
         25    2    1    2    0    0 -0.29925936175E+02  0.52843363751E+02  0.81006152004E+03  0.82189505374E+03  0.12499532140E+03 0.  0.
          2    1    1    2  501    0  0.37522753153E+02 -0.74151738506E+02 -0.10120941092E+03  0.13095717692E+03  0.00000000000E+00 0. -1.
          1    1    1    2  502    0 -0.75968169772E+01  0.21308374754E+02  0.34515522851E+03  0.34589577943E+03  0.00000000000E+00 0. -1.
         22    1    3    3    0    0 -0.64661629663E+01  0.37191389323E+02  0.57370849160E+02  0.68676233419E+02  0.00000000000E+00 0. -1.
         22    1    3    3    0    0 -0.23459773209E+02  0.15651974428E+02  0.75269067088E+03  0.75321882032E+03  0.00000000000E+00 0. -1.
</event>
<event>
 7    1  0.6176857E-006  0.1484354E+03  0.7818608E-02  0.1337191E+00
          2   -1    0    0  502    0  0.00000000000E+00  0.00000000000E+00  0.34591555102E+04  0.34591555102E+04  0.00000000000E+00 0. -1.
          1   -1    0    0  501    0 -0.00000000000E+00 -0.00000000000E+00 -0.17302748824E+04  0.17302748824E+04  0.00000000000E+00 0. -1.
         25    2    1    2    0    0 -0.65745202526E+02 -0.10284979932E+03 -0.29277066701E+03  0.34093971453E+03  0.12499885044E+03 0.  0.
          2    1    1    2  501    0  0.15573369974E+02 -0.37007829772E+02 -0.14115273279E+04  0.14120982638E+04  0.00000000000E+00 0. -1.
          1    1    1    2  502    0  0.50171832553E+02  0.13985762909E+03  0.34331786227E+04  0.34363924142E+04  0.00000000000E+00 0. -1.
         22    1    3    3    0    0 -0.37487457906E+02 -0.12533918795E+03 -0.17995012896E+03  0.22247982031E+03  0.00000000000E+00 0. -1.
         22    1    3    3    0    0 -0.28257744620E+02  0.22489388631E+02 -0.11282053805E+03  0.11845989422E+03  0.00000000000E+00 0. -1.
</event>
<event>
 7    1  0.6176857E-006  0.9419033E+02  0.7818608E-02  0.1380003E+00
          2   -1    0    0  502    0  0.00000000000E+00  0.00000000000E+00  0.94197377359E+03  0.94197377359E+03  0.00000000000E+00 0. -1.
          1   -1    0    0  501    0 -0.00000000000E+00 -0.00000000000E+00 -0.15988939761E+04  0.15988939761E+04  0.00000000000E+00 0. -1.
         25    2    1    2    0    0 -0.81713267200E+02  0.93808087528E+02  0.13974615802E+03  0.22501084647E+03  0.12499550801E+03 0.  0.
          2    1    1    2  501    0  0.43017301338E+02 -0.97925183007E+01 -0.15531312625E+04  0.15537577354E+04  0.00000000000E+00 0. -1.
          1    1    1    2  502    0  0.38695965862E+02 -0.84015569227E+02  0.75646490200E+03  0.76209916783E+03  0.00000000000E+00 0. -1.
         22    1    3    3    0    0 -0.50988008505E+02  0.11016253539E+03  0.14576041359E+03  0.18968832169E+03  0.00000000000E+00 0.  1.
         22    1    3    3    0    0 -0.30725258695E+02 -0.16354447865E+02 -0.60142555636E+01  0.35322524780E+02  0.00000000000E+00 0.  1.
</event>
<event>
 7    1  0.6176857E-006  0.1349097E+03  0.7818608E-02  0.1303229E+00
          2   -1    0    0  502    0  0.00000000000E+00  0.00000000000E+00  0.36659110999E+03  0.36659110999E+03  0.00000000000E+00 0. -1.
          1   -1    0    0  501    0 -0.00000000000E+00 -0.00000000000E+00 -0.20502776900E+04  0.20502776900E+04  0.00000000000E+00 0. -1.
         25    2    1    2    0    0 -0.25384053628E+02  0.72289794760E+02 -0.48658825729E+03  0.50819660596E+03  0.12500197428E+03 0.  0.
          2    1    1    2  501    0 -0.20743892763E+02  0.56121905161E+02 -0.15392007917E+04  0.15403632865E+04  0.00000000000E+00 0. -1.
          1    1    1    2  502    0  0.46127946392E+02 -0.12841169992E+03  0.34210246894E+03  0.36830890753E+03  0.00000000000E+00 0. -1.
         22    1    3    3    0    0 -0.71500503521E+01  0.10579325284E+03 -0.39496087792E+03  0.40894673328E+03  0.00000000000E+00 0. -1.
         22    1    3    3    0    0 -0.18234003276E+02 -0.33503458082E+02 -0.91627379364E+02  0.99249872686E+02  0.00000000000E+00 0. -1.
</event>
<event>
 7    1  0.6176857E-006  0.9169460E+02  0.7818608E-02  0.1351708E+00
          2   -1    0    0  502    0  0.00000000000E+00  0.00000000000E+00  0.42013783837E+04  0.42013783837E+04  0.00000000000E+00 0. -1.
          1   -1    0    0  501    0 -0.00000000000E+00 -0.00000000000E+00 -0.91191216878E+02  0.91191216878E+02  0.00000000000E+00 0. -1.
         25    2    1    2    0    0 -0.27523690528E+02  0.29993782457E+02  0.60332234476E+03  0.61747791151E+03  0.12499575587E+03 0.  0.
          2    1    1    2  501    0 -0.20932407384E+02  0.53408889670E+02 -0.73607336104E+02  0.93320496693E+02  0.00000000000E+00 0. -1.
          1    1    1    2  502    0  0.48456097913E+02 -0.83402672127E+02  0.35804721582E+04  0.35817711924E+04  0.00000000000E+00 0. -1.
         22    1    3    3    0    0 -0.31949027779E+02  0.77430597178E+02  0.37617402347E+03  0.38538699211E+03  0.00000000000E+00 0. -1.
         22    1    3    3    0    0  0.44253372503E+01 -0.47436814721E+02  0.22714832130E+03  0.23209091940E+03  0.00000000000E+00 0. -1.
</event>
<event>
 7    1  0.6176857E-006  0.1068486E+03  0.7818608E-02  0.1413920E+00
          2   -1    0    0  502    0  0.00000000000E+00  0.00000000000E+00  0.93109129816E+03  0.93109129816E+03  0.00000000000E+00 0. -1.
          1   -1    0    0  501    0 -0.00000000000E+00 -0.00000000000E+00 -0.77865436180E+03  0.77865436180E+03  0.00000000000E+00 0. -1.
         25    2    1    2    0    0 -0.34800463974E+02 -0.70046376393E+02  0.20918406643E+03  0.25591582685E+03  0.12496947486E+03 0.  0.
          2    1    1    2  501    0  0.53822431763E+02  0.92848830340E+02 -0.75115719421E+03  0.75878514078E+03  0.00000000000E+00 0. -1.
          1    1    1    2  502    0 -0.19021967789E+02 -0.22802453947E+02  0.69441006414E+03  0.69504469233E+03  0.00000000000E+00 0. -1.
         22    1    3    3    0    0 -0.65578905359E+02 -0.52593736856E+02  0.61777689287E+02  0.10432246584E+03  0.00000000000E+00 0.  1.
         22    1    3    3    0    0  0.30778441385E+02 -0.17452639537E+02  0.14740637715E+03  0.15159336102E+03  0.00000000000E+00 0.  1.
</event>
<event>
 7    1  0.6176857E-006  0.6209042E+02  0.7818608E-02  0.1424854E+00
          2   -1    0    0  502    0  0.00000000000E+00  0.00000000000E+00  0.23084322588E+04  0.23084322588E+04  0.00000000000E+00 0. -1.
          1   -1    0    0  501    0 -0.00000000000E+00 -0.00000000000E+00 -0.98668220657E+01  0.98668220657E+01  0.00000000000E+00 0. -1.
         25    2    1    2    0    0 -0.10391044521E+02  0.16858295387E+02  0.14133317554E+04  0.14189868928E+04  0.12499990069E+03 0.  0.
          2    1    1    2  501    0  0.46506195328E+02  0.41138717762E+02  0.17292287257E+03  0.18373225128E+03  0.00000000000E+00 0. -1.
          1    1    1    2  502    0 -0.36115150807E+02 -0.57997013149E+02  0.71231080871E+03  0.71557993674E+03  0.00000000000E+00 0. -1.
         22    1    3    3    0    0 -0.16509398850E+02  0.59481726778E+02  0.39950197844E+03  0.40424307891E+03  0.00000000000E+00 0. -1.
         22    1    3    3    0    0  0.61183543289E+01 -0.42623431391E+02  0.10138297770E+04  0.10147438139E+04  0.00000000000E+00 0. -1.
</event>
<event>
 7    1  0.6176857E-006  0.1595003E+03  0.7818608E-02  0.1228865E+00
          2   -1    0    0  502    0  0.00000000000E+00  0.00000000000E+00  0.10374747385E+04  0.10374747385E+04  0.00000000000E+00 0. -1.
          1   -1    0    0  501    0 -0.00000000000E+00 -0.00000000000E+00 -0.13563827103E+04  0.13563827103E+04  0.00000000000E+00 0. -1.
         25    2    1    2    0    0 -0.60945451666E+02 -0.11925467985E+02 -0.86099645749E+02  0.16400159735E+03  0.12500724007E+03 0.  0.
          2    1    1    2  501    0 -0.10391449978E+03  0.10269638190E+02 -0.12222853195E+04  0.12267375803E+04  0.00000000000E+00 0. -1.
          1    1    1    2  502    0  0.16485995145E+03  0.16558297942E+01  0.98947699347E+03  0.10031182712E+04  0.00000000000E+00 0. -1.
         22    1    3    3    0    0  0.25587045227E+02  0.33197486022E+02 -0.23369838326E+02  0.47988741440E+02  0.00000000000E+00 0. -1.
         22    1    3    3    0    0 -0.86532496894E+02 -0.45122954007E+02 -0.62729807423E+02  0.11601285591E+03  0.00000000000E+00 0. -1.
</event>
<event>
 7    1  0.6176857E-006  0.1855026E+03  0.7818608E-02  0.1304358E+00
          2   -1    0    0  502    0  0.00000000000E+00  0.00000000000E+00  0.40178886707E+03  0.40178886707E+03  0.00000000000E+00 0. -1.
          1   -1    0    0  501    0 -0.00000000000E+00 -0.00000000000E+00 -0.27224977146E+04  0.27224977146E+04  0.00000000000E+00 0. -1.
         25    2    1    2    0    0  0.12178703115E+03 -0.18278597243E+03 -0.88683282835E+03  0.92214061489E+03  0.12501222148E+03 0.  0.
          2    1    1    2  501    0 -0.92819792445E+02  0.15091704589E+03 -0.18124705499E+04  0.18211098162E+04  0.00000000000E+00 0. -1.
          1    1    1    2  502    0 -0.28967238701E+02  0.31868926541E+02  0.37859453067E+03  0.38103615058E+03  0.00000000000E+00 0. -1.
         22    1    3    3    0    0  0.66470860851E+02 -0.18428700066E+03 -0.64717339488E+03  0.67617562585E+03  0.00000000000E+00 0.  1.
         22    1    3    3    0    0  0.55316170295E+02  0.15010282309E+01 -0.23965943347E+03  0.24596498904E+03  0.00000000000E+00 0.  1.
</event>
<event>
 7    1  0.6176857E-006  0.1519718E+03  0.7818608E-02  0.1212173E+00
          2   -1    0    0  502    0  0.00000000000E+00  0.00000000000E+00  0.88986016288E+03  0.88986016288E+03  0.00000000000E+00 0. -1.
          1   -1    0    0  501    0 -0.00000000000E+00 -0.00000000000E+00 -0.22683504852E+03  0.22683504852E+03  0.00000000000E+00 0. -1.
         25    2    1    2    0    0  0.50424880283E+01  0.15264967913E+02  0.89002092156E+02  0.15428039177E+03  0.12499048341E+03 0.  0.
          2    1    1    2  501    0 -0.12090386543E+03 -0.11360916265E+03 -0.14936434543E+03  0.22323640877E+03  0.00000000000E+00 0. -1.
          1    1    1    2  502    0  0.11586137741E+03  0.98344194739E+02  0.72338736764E+03  0.73917841085E+03  0.00000000000E+00 0. -1.
         22    1    3    3    0    0 -0.10396832513E+02 -0.52552510356E+02  0.22676735472E+02  0.58172973130E+02  0.00000000000E+00 0. -1.
         22    1    3    3    0    0  0.15439320542E+02  0.67817478269E+02  0.66325356684E+02  0.96107418636E+02  0.00000000000E+00 0. -1.
</event>
<event>
 7    1  0.6176857E-006  0.4053271E+02  0.7818608E-02  0.1556520E+00
          2   -1    0    0  502    0  0.00000000000E+00  0.00000000000E+00  0.26301824722E+03  0.26301824722E+03  0.00000000000E+00 0. -1.
          1   -1    0    0  501    0 -0.00000000000E+00 -0.00000000000E+00 -0.95516527926E+02  0.95516527926E+02  0.00000000000E+00 0. -1.
         25    2    1    2    0    0 -0.12862469668E+02 -0.12177124389E+01  0.13260945544E+03  0.18269133667E+03  0.12499572342E+03 0.  0.
          2    1    1    2  501    0  0.41352012069E+02  0.49155542697E+01 -0.62053020802E+02  0.74731044196E+02  0.00000000000E+00 0. -1.
          1    1    1    2  502    0 -0.28489542401E+02 -0.36978418309E+01  0.96945284654E+02  0.10111239428E+03  0.00000000000E+00 0. -1.
         22    1    3    3    0    0 -0.66559900528E+02  0.70055377049E+01  0.96589680364E+02  0.11751112403E+03  0.00000000000E+00 0. -1.
         22    1    3    3    0    0  0.53697430860E+02 -0.82232501438E+01  0.36019775080E+02  0.65180212647E+02  0.00000000000E+00 0. -1.
</event>
<event>
 7    1  0.6176857E-006  0.2768947E+02  0.7818608E-02  0.1655900E+00
          2   -1    0    0  502    0  0.00000000000E+00  0.00000000000E+00  0.20648257724E+04  0.20648257724E+04  0.00000000000E+00 0. -1.
          1   -1    0    0  501    0 -0.00000000000E+00 -0.00000000000E+00 -0.23227412076E+03  0.23227412076E+03  0.00000000000E+00 0. -1.
         25    2    1    2    0    0 -0.15888681156E+02 -0.42100264333E+02  0.46576985940E+03  0.48434370138E+03  0.12498950634E+03 0.  0.
          2    1    1    2  501    0  0.19895776161E+02  0.19224050407E+02 -0.22204387929E+03  0.22376078824E+03  0.00000000000E+00 0. -1.
          1    1    1    2  502    0 -0.40070950045E+01  0.22876213926E+02  0.15888256715E+04  0.15889954036E+04  0.00000000000E+00 0. -1.
         22    1    3    3    0    0  0.27334803325E+02 -0.61662830870E+02  0.38339338418E+03  0.38928136767E+03  0.00000000000E+00 0.  1.
         22    1    3    3    0    0 -0.43223484482E+02  0.19562566537E+02  0.82376475228E+02  0.95062333715E+02  0.00000000000E+00 0.  1.
</event>
<event>
 7    1  0.6176857E-006  0.1019231E+03  0.7818608E-02  0.1373753E+00
          2   -1    0    0  502    0  0.00000000000E+00  0.00000000000E+00  0.77179688870E+02  0.77179688870E+02  0.00000000000E+00 0. -1.
          1   -1    0    0  501    0 -0.00000000000E+00 -0.00000000000E+00 -0.16989423064E+04  0.16989423064E+04  0.00000000000E+00 0. -1.
         25    2    1    2    0    0 -0.81182243219E+02  0.10570735598E+03 -0.92300227638E+03  0.94091590087E+03  0.12499971435E+03 0.  0.
          2    1    1    2  501    0  0.64230504426E+02 -0.66284490621E+02 -0.75714337449E+03  0.76274850438E+03  0.00000000000E+00 0. -1.
          1    1    1    2  502    0  0.16951738793E+02 -0.39422865358E+02  0.58383033373E+02  0.72457589988E+02  0.00000000000E+00 0. -1.
         22    1    3    3    0    0  0.19911792678E+02  0.51683566589E+02 -0.15917243141E+03  0.16853347876E+03  0.00000000000E+00 0.  1.
         22    1    3    3    0    0 -0.10109403590E+03  0.54023789390E+02 -0.76382984497E+03  0.77238242211E+03  0.00000000000E+00 0.  1.
</event>
<event>
 7    1  0.6176857E-006  0.8651062E+02  0.7818608E-02  0.1410660E+00
          2   -1    0    0  502    0  0.00000000000E+00  0.00000000000E+00  0.48811294209E+03  0.48811294209E+03  0.00000000000E+00 0. -1.
          1   -1    0    0  501    0 -0.00000000000E+00 -0.00000000000E+00 -0.22824023819E+04  0.22824023819E+04  0.00000000000E+00 0. -1.
         25    2    1    2    0    0 -0.79787330406E+02  0.36234720368E+02  0.80976293892E+02  0.17280461093E+03  0.12500120133E+03 0.  0.
          2    1    1    2  501    0  0.86553396488E+02  0.76952588608E+00 -0.22346687174E+04  0.22363444188E+04  0.00000000000E+00 0. -1.
          1    1    1    2  502    0 -0.67660660819E+01 -0.37004246254E+02  0.35940298377E+03  0.36136629427E+03  0.00000000000E+00 0. -1.
         22    1    3    3    0    0 -0.18612000242E+02  0.62208120201E+02  0.84124345567E+02  0.10626929137E+03  0.00000000000E+00 0.  1.
         22    1    3    3    0    0 -0.61175330164E+02 -0.25973399833E+02 -0.31480516754E+01  0.66535319560E+02  0.00000000000E+00 0.  1.
</event>
<event>
 7    1  0.6176857E-006  0.6904982E+02  0.7818608E-02  0.1415462E+00
          2   -1    0    0  502    0  0.00000000000E+00  0.00000000000E+00  0.24892371060E+03  0.24892371060E+03  0.00000000000E+00 0. -1.
          1   -1    0    0  501    0 -0.00000000000E+00 -0.00000000000E+00 -0.76436565688E+03  0.76436565688E+03  0.00000000000E+00 0. -1.
         25    2    1    2    0    0 -0.98004889942E+02 -0.15233146395E+02 -0.41476603050E+02  0.16486711175E+03  0.12499539485E+03 0.  0.
          2    1    1    2  501    0  0.57873942499E+02  0.36471967926E+02 -0.65663782131E+03  0.66019150709E+03  0.00000000000E+00 0. -1.
          1    1    1    2  502    0  0.40130947443E+02 -0.21238821530E+02  0.18267247808E+03  0.18823074864E+03  0.00000000000E+00 0. -1.
         22    1    3    3    0    0  0.28040817255E+02 -0.93516870096E+01 -0.22754422896E+02  0.37302885191E+02  0.00000000000E+00 0. -1.
         22    1    3    3    0    0 -0.12604570720E+03 -0.58814593858E+01 -0.18722180153E+02  0.12756422656E+03  0.00000000000E+00 0. -1.
</event>
<event>
 7    1  0.6176857E-006  0.1082869E+03  0.7818608E-02  0.1390621E+00
          2   -1    0    0  502    0  0.00000000000E+00  0.00000000000E+00  0.28375930074E+04  0.28375930074E+04  0.00000000000E+00 0. -1.
          1   -1    0    0  501    0 -0.00000000000E+00 -0.00000000000E+00 -0.95483149289E+02  0.95483149289E+02  0.00000000000E+00 0. -1.
         25    2    1    2    0    0 -0.33905725985E+02 -0.12563772798E+03  0.12239692077E+04  0.12372000651E+04  0.12501576934E+03 0.  0.
          2    1    1    2  501    0  0.27013658533E+02  0.22592033237E+02 -0.83649513674E+02  0.90760006891E+02  0.00000000000E+00 0. -1.
          1    1    1    2  502    0  0.68920674518E+01  0.10304569474E+03  0.16017901641E+04  0.16051160847E+04  0.00000000000E+00 0. -1.
         22    1    3    3    0    0  0.40440105760E+02 -0.86553196004E+02  0.58849138491E+03  0.59619541093E+03  0.00000000000E+00 0. -1.
         22    1    3    3    0    0 -0.74345831744E+02 -0.39084531975E+02  0.63547782281E+03  0.64100465413E+03  0.00000000000E+00 0. -1.
</event>
<event>
 7    1  0.6176857E-006  0.1766841E+03  0.7818608E-02  0.1250182E+00
          2   -1    0    0  502    0  0.00000000000E+00  0.00000000000E+00  0.29013052212E+03  0.29013052212E+03  0.00000000000E+00 0. -1.
          1   -1    0    0  501    0 -0.00000000000E+00 -0.00000000000E+00 -0.38743771918E+03  0.38743771918E+03  0.00000000000E+00 0. -1.
         25    2    1    2    0    0 -0.12471838702E+03 -0.12597111230E+03 -0.29401131796E+02  0.21888721979E+03  0.12499516488E+03 0.  0.
          2    1    1    2  501    0  0.62194600124E+02 -0.43509236005E+02 -0.21354856346E+03  0.22663673766E+03  0.00000000000E+00 0. -1.
          1    1    1    2  502    0  0.62523786893E+02  0.16948034831E+03  0.14564249819E+03  0.23204428385E+03  0.00000000000E+00 0. -1.
         22    1    3    3    0    0 -0.67188031503E+02 -0.77465689920E+02 -0.78409055350E+02  0.12908580345E+03  0.00000000000E+00 0. -1.
         22    1    3    3    0    0 -0.57530355514E+02 -0.48505422380E+02  0.49007923554E+02  0.89801416341E+02  0.00000000000E+00 0. -1.
</event>
<event>
 7    1  0.6176857E-006  0.1556858E+03  0.7818608E-02  0.1262893E+00
          2   -1    0    0  502    0  0.00000000000E+00  0.00000000000E+00  0.16292687831E+04  0.16292687831E+04  0.00000000000E+00 0. -1.
          1   -1    0    0  501    0 -0.00000000000E+00 -0.00000000000E+00 -0.12395858738E+04  0.12395858738E+04  0.00000000000E+00 0. -1.
         25    2    1    2    0    0  0.65623629973E+02  0.10880065540E+03  0.61690749154E+03  0.64214018650E+03  0.12500049025E+03 0.  0.
          2    1    1    2  501    0 -0.36903491013E+02  0.66405711596E+02 -0.12178940464E+04  0.12202612402E+04  0.00000000000E+00 0. -1.
          1    1    1    2  502    0 -0.28720138960E+02 -0.17520636700E+03  0.99066946408E+03  0.10064532301E+04  0.00000000000E+00 0. -1.
         22    1    3    3    0    0  0.91538848328E+01 -0.16597879516E+02  0.24308051021E+03  0.24381841123E+03  0.00000000000E+00 0.  1.
         22    1    3    3    0    0  0.56469745141E+02  0.12539853492E+03  0.37382698134E+03  0.39832177527E+03  0.00000000000E+00 0.  1.
</event>
<event>
 7    1  0.6176857E-006  0.6114312E+02  0.7818608E-02  0.1441880E+00
          2   -1    0    0  502    0  0.00000000000E+00  0.00000000000E+00  0.83707244052E+02  0.83707244052E+02  0.00000000000E+00 0. -1.
          1   -1    0    0  501    0 -0.00000000000E+00 -0.00000000000E+00 -0.13192193456E+04  0.13192193456E+04  0.00000000000E+00 0. -1.
         25    2    1    2    0    0 -0.31719950933E+02  0.43997979821E+01 -0.10602717052E+03  0.16700917707E+03  0.12499916331E+03 0.  0.
          2    1    1    2  501    0 -0.20063570139E+02  0.36844993918E+02 -0.11615859694E+04  0.11623433507E+04  0.00000000000E+00 0. -1.
          1    1    1    2  502    0  0.51783521072E+02 -0.41244791900E+02  0.32101038445E+02  0.73574061889E+02  0.00000000000E+00 0. -1.
         22    1    3    3    0    0 -0.66125258815E+02 -0.29139572213E+02 -0.91940063237E+02  0.11693861531E+03  0.00000000000E+00 0. -1.
         22    1    3    3    0    0  0.34405307883E+02  0.33539370196E+02 -0.14087107284E+02  0.50070561763E+02  0.00000000000E+00 0. -1.
</event>
<event>
 7    1  0.6176857E-006  0.3855832E+02  0.7818608E-02  0.1543242E+00
          2   -1    0    0  502    0  0.00000000000E+00  0.00000000000E+00  0.10186680184E+04  0.10186680184E+04  0.00000000000E+00 0. -1.
          1   -1    0    0  501    0 -0.00000000000E+00 -0.00000000000E+00 -0.46612997010E+03  0.46612997010E+03  0.00000000000E+00 0. -1.
         25    2    1    2    0    0 -0.15229538878E+02  0.93058948892E+01  0.66637566285E+03  0.67823376131E+03  0.12500388958E+03 0.  0.
          2    1    1    2  501    0  0.34461819067E+02  0.17373483557E+02 -0.45860784485E+03  0.46022886727E+03  0.00000000000E+00 0. -1.
          1    1    1    2  502    0 -0.19232280189E+02 -0.26679378446E+02  0.34477023030E+03  0.34633535993E+03  0.00000000000E+00 0. -1.
         22    1    3    3    0    0 -0.34974030396E+02  0.58514193108E+01  0.65338795516E+03  0.65434947991E+03  0.00000000000E+00 0. -1.
         22    1    3    3    0    0  0.19744491519E+02  0.34544755785E+01  0.12987707683E+02  0.23884281394E+02  0.00000000000E+00 0. -1.
</event>
<event>
 7    1  0.6176857E-006  0.7546967E+02  0.7818608E-02  0.1428368E+00
          2   -1    0    0  502    0  0.00000000000E+00  0.00000000000E+00  0.15310293594E+04  0.15310293594E+04  0.00000000000E+00 0. -1.
          1   -1    0    0  501    0 -0.00000000000E+00 -0.00000000000E+00 -0.62944988204E+03  0.62944988204E+03  0.00000000000E+00 0. -1.
         25    2    1    2    0    0 -0.42957942873E+02 -0.20352678833E+02  0.24895073108E+03  0.28259614458E+03  0.12499799212E+03 0.  0.
          2    1    1    2  501    0 -0.34526701858E+02  0.14956896196E+02 -0.61085569609E+03  0.61201346663E+03  0.00000000000E+00 0. -1.
          1    1    1    2  502    0  0.77484644731E+02  0.53957826365E+01  0.12634844423E+04  0.12658696302E+04  0.00000000000E+00 0. -1.
         22    1    3    3    0    0  0.21317295497E+02 -0.49107125774E+01 -0.30339822616E+01  0.22085000197E+02  0.00000000000E+00 0. -1.
         22    1    3    3    0    0 -0.64275238370E+02 -0.15441966255E+02  0.25198471334E+03  0.26051114438E+03  0.00000000000E+00 0. -1.
</event>
<event>
 7    1  0.6176857E-006  0.6254240E+02  0.7818608E-02  0.1415152E+00
          2   -1    0    0  502    0  0.00000000000E+00  0.00000000000E+00  0.42723633778E+03  0.42723633778E+03  0.00000000000E+00 0. -1.
          1   -1    0    0  501    0 -0.00000000000E+00 -0.00000000000E+00 -0.22062602658E+03  0.22062602658E+03  0.00000000000E+00 0. -1.
         25    2    1    2    0    0  0.38197169203E+02 -0.42452365553E+01  0.69320441548E+02  0.14800062715E+03  0.12498726436E+03 0.  0.
          2    1    1    2  501    0 -0.13324937952E+01 -0.50231579893E+02 -0.17430303684E+03  0.18140158712E+03  0.00000000000E+00 0. -1.
          1    1    1    2  502    0 -0.36864675408E+02  0.54476816448E+02  0.31159290649E+03  0.31846015009E+03  0.00000000000E+00 0. -1.
         22    1    3    3    0    0  0.13939912963E+02 -0.64345070801E+02  0.31838435837E+02  0.73132040218E+02  0.00000000000E+00 0.  1.
         22    1    3    3    0    0  0.24257256240E+02  0.60099834246E+02  0.37482005711E+02  0.74868586930E+02  0.00000000000E+00 0.  1.
</event>
<event>
 7    1  0.6176857E-006  0.2282334E+03  0.7818608E-02  0.1226794E+00
          2   -1    0    0  502    0  0.00000000000E+00  0.00000000000E+00  0.74419630706E+03  0.74419630706E+03  0.00000000000E+00 0. -1.
          1   -1    0    0  501    0 -0.00000000000E+00 -0.00000000000E+00 -0.24609075257E+04  0.24609075257E+04  0.00000000000E+00 0. -1.
         25    2    1    2    0    0  0.25246405692E+03  0.66709668848E+02 -0.24541481599E+02  0.29053968079E+03  0.12499096703E+03 0.  0.
          2    1    1    2  501    0 -0.58138253024E+02  0.46676794362E+02 -0.22820326309E+04  0.22832502509E+04  0.00000000000E+00 0. -1.
          1    1    1    2  502    0 -0.19432580390E+03 -0.11338646321E+03  0.58986289389E+03  0.63131390107E+03  0.00000000000E+00 0. -1.
         22    1    3    3    0    0  0.17773716599E+03  0.65624638041E+02  0.37821020074E+02  0.19320331999E+03  0.00000000000E+00 0. -1.
         22    1    3    3    0    0  0.74726890929E+02  0.10850308064E+01 -0.62362501673E+02  0.97336360805E+02  0.00000000000E+00 0. -1.
</event>
<event>
 7    1  0.6176857E-006  0.2442416E+02  0.7818608E-02  0.1676969E+00
          2   -1    0    0  502    0  0.00000000000E+00  0.00000000000E+00  0.11739125688E+03  0.11739125688E+03  0.00000000000E+00 0. -1.
          1   -1    0    0  501    0 -0.00000000000E+00 -0.00000000000E+00 -0.22311468119E+03  0.22311468119E+03  0.00000000000E+00 0. -1.
         25    2    1    2    0    0 -0.10102177929E+02 -0.91866338993E+01 -0.15737008036E+03  0.20143622090E+03  0.12499904262E+03 0.  0.
          2    1    1    2  501    0  0.26961056305E+02 -0.70878178908E+01 -0.37594989169E+02  0.46802979928E+02  0.00000000000E+00 0. -1.
          1    1    1    2  502    0 -0.16858878376E+02  0.16274451790E+02  0.89241645221E+02  0.92266737250E+02  0.00000000000E+00 0. -1.
         22    1    3    3    0    0  0.95205801837E+01  0.34175487755E+02  0.15811854422E+01  0.35512048064E+02  0.00000000000E+00 0. -1.
         22    1    3    3    0    0 -0.19622758113E+02 -0.43362121654E+02 -0.15895126580E+03  0.16592417284E+03  0.00000000000E+00 0. -1.
</event>
<event>
 7    1  0.6176857E-006  0.1113060E+03  0.7818608E-02  0.1334805E+00
          2   -1    0    0  502    0  0.00000000000E+00  0.00000000000E+00  0.58036036720E+03  0.58036036720E+03  0.00000000000E+00 0. -1.
          1   -1    0    0  501    0 -0.00000000000E+00 -0.00000000000E+00 -0.32618720488E+04  0.32618720488E+04  0.00000000000E+00 0. -1.
         25    2    1    2    0    0  0.49934385980E+02  0.13084802258E+03 -0.53522153878E+03  0.56718719411E+03  0.12499827865E+03 0.  0.
          2    1    1    2  501    0  0.56547340902E+00 -0.10990743277E+03 -0.27082264919E+04  0.27104558095E+04  0.00000000000E+00 0. -1.
          1    1    1    2  502    0 -0.50499859389E+02 -0.20940589811E+02  0.56193634914E+03  0.56458941239E+03  0.00000000000E+00 0. -1.
         22    1    3    3    0    0  0.52842037856E+02  0.15363221023E+03 -0.43452386166E+03  0.46390314003E+03  0.00000000000E+00 0.  1.
         22    1    3    3    0    0 -0.29076518759E+01 -0.22784187655E+02 -0.10069767713E+03  0.10328405407E+03  0.00000000000E+00 0.  1.
</event>
<event>
 7    1  0.6176857E-006  0.1060471E+03  0.7818608E-02  0.1274987E+00
          2   -1    0    0  502    0  0.00000000000E+00  0.00000000000E+00  0.14759036208E+04  0.14759036208E+04  0.00000000000E+00 0. -1.
          1   -1    0    0  501    0 -0.00000000000E+00 -0.00000000000E+00 -0.91331194014E+03  0.91331194014E+03  0.00000000000E+00 0. -1.
         25    2    1    2    0    0  0.24164644992E+02 -0.35217322117E+02  0.14563139683E+03  0.19661510485E+03  0.12499922347E+03 0.  0.
          2    1    1    2  501    0 -0.10560330448E+03 -0.21429580673E+02 -0.88265316669E+03  0.88920633011E+03  0.00000000000E+00 0. -1.
          1    1    1    2  502    0  0.81438659489E+02  0.56646902790E+02  0.12996134506E+04  0.13033941260E+04  0.00000000000E+00 0. -1.
         22    1    3    3    0    0  0.22458896278E+02  0.16473324280E+01 -0.18027946572E+02  0.28846535039E+02  0.00000000000E+00 0. -1.
         22    1    3    3    0    0  0.17057487142E+01 -0.36864654545E+02  0.16365934340E+03  0.16776856981E+03  0.00000000000E+00 0. -1.
</event>
<event>
 7    1  0.6176857E-006  0.1783049E+03  0.7818608E-02  0.1249831E+00
          2   -1    0    0  502    0  0.00000000000E+00  0.00000000000E+00  0.13100635417E+04  0.13100635417E+04  0.00000000000E+00 0. -1.
          1   -1    0    0  501    0 -0.00000000000E+00 -0.00000000000E+00 -0.99084210401E+03  0.99084210401E+03  0.00000000000E+00 0. -1.
         25    2    1    2    0    0 -0.91726835643E+02  0.21678304800E+03 -0.10188076961E+03  0.28533214243E+03  0.12500415196E+03 0.  0.
          2    1    1    2  501    0 -0.12761299560E+02 -0.74390874574E+02 -0.78902446199E+03  0.79262630199E+03  0.00000000000E+00 0. -1.
          1    1    1    2  502    0  0.10448813520E+03 -0.14239217343E+03  0.12101266692E+04  0.12229472013E+04  0.00000000000E+00 0. -1.
         22    1    3    3    0    0 -0.44784141802E+02  0.18544678348E+03 -0.28715226810E+02  0.19292665216E+03  0.00000000000E+00 0.  1.
         22    1    3    3    0    0 -0.46942693841E+02  0.31336264518E+02 -0.73165542799E+02  0.92405490271E+02  0.00000000000E+00 0.  1.
</event>
<event>
 7    1  0.6176857E-006  0.7040975E+02  0.7818608E-02  0.1487677E+00
          2   -1    0    0  502    0  0.00000000000E+00  0.00000000000E+00  0.13997637439E+04  0.13997637439E+04  0.00000000000E+00 0. -1.
          1   -1    0    0  501    0 -0.00000000000E+00 -0.00000000000E+00 -0.23366145404E+02  0.23366145404E+02  0.00000000000E+00 0. -1.
         25    2    1    2    0    0 -0.33213061613E+02 -0.72730060848E+02  0.38952001363E+03  0.41683221075E+03  0.12502192484E+03 0.  0.
          2    1    1    2  501    0  0.74654821971E+01  0.68001462571E+02  0.11346177286E+03  0.13248964577E+03  0.00000000000E+00 0. -1.
          1    1    1    2  502    0  0.25747579416E+02  0.47285982772E+01  0.87341581200E+03  0.87380803278E+03  0.00000000000E+00 0. -1.
         22    1    3    3    0    0 -0.89067618734E+01  0.18187622733E+02  0.48592446102E+01  0.20826240322E+02  0.00000000000E+00 0.  1.
         22    1    3    3    0    0 -0.24306299740E+02 -0.90917683581E+02  0.38466076902E+03  0.39600597043E+03  0.00000000000E+00 0.  1.
</event>
<event>
 7    1  0.6176857E-006  0.2954922E+02  0.7818608E-02  0.1626169E+00
          2   -1    0    0  502    0  0.00000000000E+00  0.00000000000E+00  0.14926026637E+04  0.14926026637E+04  0.00000000000E+00 0. -1.
          1   -1    0    0  501    0 -0.00000000000E+00 -0.00000000000E+00 -0.95684885220E+03  0.95684885220E+03  0.00000000000E+00 0. -1.
         25    2    1    2    0    0 -0.47720781100E+02  0.15574586874E+02 -0.34959539800E+02  0.13916664378E+03  0.12500137845E+03 0.  0.
          2    1    1    2  501    0  0.22211091676E+02 -0.19367639886E+02 -0.86942066041E+03  0.86991995196E+03  0.00000000000E+00 0. -1.
          1    1    1    2  502    0  0.25509689424E+02  0.37930530123E+01  0.14401340117E+04  0.14403649202E+04  0.00000000000E+00 0. -1.
         22    1    3    3    0    0 -0.54962787997E+02  0.62745593737E+02 -0.37325350633E+02  0.91384349851E+02  0.00000000000E+00 0. -1.
         22    1    3    3    0    0  0.72420068970E+01 -0.47171006864E+02  0.23658108331E+01  0.47782293931E+02  0.00000000000E+00 0. -1.
</event>
<event>
 7    1  0.6176857E-006  0.7290029E+02  0.7818608E-02  0.1481838E+00
          2   -1    0    0  502    0  0.00000000000E+00  0.00000000000E+00  0.49563195241E+03  0.49563195241E+03  0.00000000000E+00 0. -1.
          1   -1    0    0  501    0 -0.00000000000E+00 -0.00000000000E+00 -0.26217695952E+04  0.26217695952E+04  0.00000000000E+00 0. -1.
         25    2    1    2    0    0  0.84641635352E+01  0.48400009769E+02  0.84276758962E+02  0.15855728295E+03  0.12499454735E+03 0.  0.
          2    1    1    2  501    0  0.95830027653E+00 -0.72998519190E+02 -0.25836495319E+04  0.25846807551E+04  0.00000000000E+00 0. -1.
          1    1    1    2  502    0 -0.94224638117E+01  0.24598509421E+02  0.37323513015E+03  0.37416350954E+03  0.00000000000E+00 0. -1.
         22    1    3    3    0    0  0.28804314446E+02 -0.36138311072E+02  0.19639660778E+02  0.50213368074E+02  0.00000000000E+00 0. -1.
         22    1    3    3    0    0 -0.20340150911E+02  0.84538320842E+02  0.64637098185E+02  0.10834391488E+03  0.00000000000E+00 0. -1.
</event>
<event>
 7    1  0.6176857E-006  0.4473917E+02  0.7818608E-02  0.1569816E+00
          2   -1    0    0  502    0  0.00000000000E+00  0.00000000000E+00  0.10133021930E+04  0.10133021930E+04  0.00000000000E+00 0. -1.
          1   -1    0    0  501    0 -0.00000000000E+00 -0.00000000000E+00 -0.62625645008E+02  0.62625645008E+02  0.00000000000E+00 0. -1.
         25    2    1    2    0    0  0.67003109007E+02  0.59552310363E+01  0.93895545931E+02  0.17019468837E+03  0.12499990804E+03 0.  0.
          2    1    1    2  501    0 -0.23647035631E+02  0.36838992788E+01 -0.17924649143E+02  0.29900609608E+02  0.00000000000E+00 0. -1.
          1    1    1    2  502    0 -0.43356073376E+02 -0.96391303151E+01  0.87470565119E+03  0.87583254002E+03  0.00000000000E+00 0. -1.
         22    1    3    3    0    0  0.19701437829E+02 -0.42235301334E+02 -0.86623772767E+01  0.47402574945E+02  0.00000000000E+00 0.  1.
         22    1    3    3    0    0  0.47301671179E+02  0.48190532370E+02  0.10255792321E+03  0.12279211342E+03  0.00000000000E+00 0.  1.
</event>
<event>
 7    1  0.6176857E-006  0.1019538E+03  0.7818608E-02  0.1418831E+00
          2   -1    0    0  502    0  0.00000000000E+00  0.00000000000E+00  0.28157144202E+04  0.28157144202E+04  0.00000000000E+00 0. -1.
          1   -1    0    0  501    0 -0.00000000000E+00 -0.00000000000E+00 -0.39513479548E+03  0.39513479548E+03  0.00000000000E+00 0. -1.
         25    2    1    2    0    0 -0.62492647584E+02 -0.55757014836E+02 -0.24705421454E-01  0.15046493463E+03  0.12500208094E+03 0.  0.
          2    1    1    2  501    0  0.59100819198E+01 -0.29372642998E+02 -0.31823290718E+03  0.31964021092E+03  0.00000000000E+00 0. -1.
          1    1    1    2  502    0  0.56582565664E+02  0.85129657834E+02  0.27388372374E+04  0.27407440702E+04  0.00000000000E+00 0. -1.
         22    1    3    3    0    0 -0.81976775341E+01 -0.84380514802E+02 -0.17672732105E+02  0.86600223183E+02  0.00000000000E+00 0.  1.
         22    1    3    3    0    0 -0.54294970050E+02  0.28623499967E+02  0.17648026683E+02  0.63864711452E+02  0.00000000000E+00 0.  1.
</event>
<event>
 7    1  0.6176857E-006  0.1287497E+03  0.7818608E-02  0.1296847E+00
          2   -1    0    0  502    0  0.00000000000E+00  0.00000000000E+00  0.41162446905E+03  0.41162446905E+03  0.00000000000E+00 0. -1.
          1   -1    0    0  501    0 -0.00000000000E+00 -0.00000000000E+00 -0.34692157913E+03  0.34692157913E+03  0.00000000000E+00 0. -1.
         25    2    1    2    0    0 -0.88669163185E+02  0.57239392431E+02  0.69286673326E+02  0.17766294852E+03  0.12499964652E+03 0.  0.
          2    1    1    2  501    0  0.19681607306E+02  0.63514830241E+02 -0.27170735418E+03  0.27972555415E+03  0.00000000000E+00 0. -1.
          1    1    1    2  502    0  0.68987555879E+02 -0.12075422267E+03  0.26712357078E+03  0.30115754552E+03  0.00000000000E+00 0. -1.
         22    1    3    3    0    0 -0.92538652815E+01 -0.36429622182E+02  0.20140136448E+01  0.37640505389E+02  0.00000000000E+00 0. -1.
         22    1    3    3    0    0 -0.79415297903E+02  0.93669014613E+02  0.67272659681E+02  0.14002244313E+03  0.00000000000E+00 0. -1.
</event>
<event>
 7    1  0.6176857E-006  0.5712178E+02  0.7818608E-02  0.1443533E+00
          2   -1    0    0  502    0  0.00000000000E+00  0.00000000000E+00  0.21832404565E+04  0.21832404565E+04  0.00000000000E+00 0. -1.
          1   -1    0    0  501    0 -0.00000000000E+00 -0.00000000000E+00 -0.41977454612E+03  0.41977454612E+03  0.00000000000E+00 0. -1.
         25    2    1    2    0    0 -0.52339509375E+01  0.58119464216E+02  0.60270736039E+03  0.61829271729E+03  0.12499782243E+03 0.  0.
          2    1    1    2  501    0 -0.36748776172E+02 -0.43798856742E+02 -0.40968360266E+03  0.41365380053E+03  0.00000000000E+00 0. -1.
          1    1    1    2  502    0  0.41982727109E+02 -0.14320607474E+02  0.15704421527E+04  0.15710684849E+04  0.00000000000E+00 0. -1.
         22    1    3    3    0    0 -0.36088270159E+02  0.10114403298E+02  0.49187882873E+02  0.61839406681E+02  0.00000000000E+00 0. -1.
         22    1    3    3    0    0  0.30854319222E+02  0.48005060918E+02  0.55351947752E+03  0.55645331061E+03  0.00000000000E+00 0. -1.
</event>
<event>
 7    1  0.6176857E-006  0.1049169E+03  0.7818608E-02  0.1353941E+00
          2   -1    0    0  502    0  0.00000000000E+00  0.00000000000E+00  0.62866027698E+03  0.62866027698E+03  0.00000000000E+00 0. -1.
          1   -1    0    0  501    0 -0.00000000000E+00 -0.00000000000E+00 -0.77507919008E+02  0.77507919008E+02  0.00000000000E+00 0. -1.
         25    2    1    2    0    0 -0.79306881216E+02 -0.49097597506E+01  0.12994300227E+03  0.19704219409E+03  0.12500702086E+03 0.  0.
          2    1    1    2  501    0 -0.20247938065E+02 -0.44832551154E+02 -0.20735228054E+02  0.53384326551E+02  0.00000000000E+00 0. -1.
          1    1    1    2  502    0  0.99554819281E+02  0.49742310905E+02  0.44194458375E+03  0.45574167534E+03  0.00000000000E+00 0. -1.
         22    1    3    3    0    0 -0.59492738227E+01  0.13881151118E+02 -0.22342423430E+02  0.26967834546E+02  0.00000000000E+00 0.  1.
         22    1    3    3    0    0 -0.73357607393E+02 -0.18790910869E+02  0.15228542570E+03  0.17007435955E+03  0.00000000000E+00 0.  1.
</event>
<event>
 7    1  0.6176857E-006  0.2606929E+03  0.7818608E-02  0.1263114E+00
          2   -1    0    0  502    0  0.00000000000E+00  0.00000000000E+00  0.30253882565E+04  0.30253882565E+04  0.00000000000E+00 0. -1.
          1   -1    0    0  501    0 -0.00000000000E+00 -0.00000000000E+00 -0.10149185670E+04  0.10149185670E+04  0.00000000000E+00 0. -1.
         25    2    1    2    0    0  0.71114368714E+02  0.22390019978E+03  0.36813191263E+03  0.45424143676E+03  0.12500249945E+03 0.  0.
          2    1    1    2  501    0  0.42534684896E+02  0.15503371360E+02 -0.96461533192E+03  0.96567711608E+03  0.00000000000E+00 0. -1.
          1    1    1    2  502    0 -0.11364905361E+03 -0.23940357114E+03  0.26069531088E+04  0.26203882706E+04  0.00000000000E+00 0. -1.
         22    1    3    3    0    0 -0.29784594181E+00  0.10014719744E+03  0.65749386944E+02  0.11980205236E+03  0.00000000000E+00 0.  1.
         22    1    3    3    0    0  0.71412214656E+02  0.12375300234E+03  0.30238252569E+03  0.33443938440E+03  0.00000000000E+00 0.  1.
</event>
<event>
 7    1  0.6176857E-006  0.7604102E+02  0.7818608E-02  0.1420247E+00
          2   -1    0    0  502    0  0.00000000000E+00  0.00000000000E+00  0.90268500305E+03  0.90268500305E+03  0.00000000000E+00 0. -1.
          1   -1    0    0  501    0 -0.00000000000E+00 -0.00000000000E+00 -0.26224116717E+02  0.26224116717E+02  0.00000000000E+00 0. -1.
         25    2    1    2    0    0  0.89148928725E+02  0.11953237683E+02  0.48472506239E+03  0.50860227525E+03  0.12500990719E+03 0.  0.
          2    1    1    2  501    0 -0.19034212707E+02 -0.34880289189E+02  0.26655290563E+02  0.47848096537E+02  0.00000000000E+00 0. -1.
          1    1    1    2  502    0 -0.70114716018E+02  0.22927051506E+02  0.36508053339E+03  0.37245874799E+03  0.00000000000E+00 0. -1.
         22    1    3    3    0    0  0.28799259438E+02  0.25382649947E+02  0.40920865256E+03  0.41100534984E+03  0.00000000000E+00 0. -1.
         22    1    3    3    0    0  0.60349669287E+02 -0.13429412264E+02  0.75516409824E+02  0.97596925410E+02  0.00000000000E+00 0. -1.
</event>
<event>
 7    1  0.6176857E-006  0.3136366E+03  0.7818608E-02  0.1198471E+00
          2   -1    0    0  502    0  0.00000000000E+00  0.00000000000E+00  0.95092144977E+02  0.95092144977E+02  0.00000000000E+00 0. -1.
          1   -1    0    0  501    0 -0.00000000000E+00 -0.00000000000E+00 -0.22121289717E+04  0.22121289717E+04  0.00000000000E+00 0. -1.
         25    2    1    2    0    0  0.22475531578E+03 -0.19093767430E+03 -0.34404262242E+03  0.47006644084E+03  0.12499994131E+03 0.  0.
          2    1    1    2  501    0  0.37232068202E+02 -0.63159882917E+02 -0.69914453718E+03  0.70297829382E+03  0.00000000000E+00 0. -1.
          1    1    1    2  502    0 -0.26198738398E+03  0.25409755721E+03 -0.10738496671E+04  0.11341763820E+04  0.00000000000E+00 0. -1.
         22    1    3    3    0    0  0.16402031912E+03 -0.19987016214E+03 -0.26895617683E+03  0.37307931041E+03  0.00000000000E+00 0.  1.
         22    1    3    3    0    0  0.60734996663E+02  0.89324878459E+01 -0.75086445586E+02  0.96987130433E+02  0.00000000000E+00 0.  1.
</event>
<event>
 7    1  0.6176857E-006  0.1069721E+03  0.7818608E-02  0.1332220E+00
          2   -1    0    0  502    0  0.00000000000E+00  0.00000000000E+00  0.84783842933E+03  0.84783842933E+03  0.00000000000E+00 0. -1.
          1   -1    0    0  501    0 -0.00000000000E+00 -0.00000000000E+00 -0.14800601914E+03  0.14800601914E+03  0.00000000000E+00 0. -1.
         25    2    1    2    0    0  0.93977260538E+02  0.97321654527E+02  0.16264601582E+03  0.24572390138E+03  0.12499311704E+03 0.  0.
          2    1    1    2  501    0 -0.97020607434E+02 -0.39215631265E+02 -0.79047117523E+02  0.13114614288E+03  0.00000000000E+00 0. -1.
          1    1    1    2  502    0  0.30433468964E+01 -0.58106023262E+02  0.61623351189E+03  0.61897440421E+03  0.00000000000E+00 0. -1.
         22    1    3    3    0    0  0.53270657071E+02  0.10327677186E+03  0.51309291669E+02  0.12702951595E+03  0.00000000000E+00 0.  1.
         22    1    3    3    0    0  0.40706603467E+02 -0.59551173286E+01  0.11133672415E+03  0.11869438543E+03  0.00000000000E+00 0.  1.
</event>
<event>
 7    1  0.6176857E-006  0.1556448E+03  0.7818608E-02  0.1337931E+00
          2   -1    0    0  502    0  0.00000000000E+00  0.00000000000E+00  0.49999935679E+03  0.49999935679E+03  0.00000000000E+00 0. -1.
          1   -1    0    0  501    0 -0.00000000000E+00 -0.00000000000E+00 -0.10256395282E+04  0.10256395282E+04  0.00000000000E+00 0. -1.
         25    2    1    2    0    0 -0.39964745692E+00  0.18379311848E+03 -0.82995334378E+02  0.23726525700E+03  0.12500602597E+03 0.  0.
          2    1    1    2  501    0  0.21060448695E+02 -0.15184619195E+03 -0.85784452789E+03  0.87143447404E+03  0.00000000000E+00 0. -1.
          1    1    1    2  502    0 -0.20660801238E+02 -0.31946926536E+02  0.41519969086E+03  0.41693915397E+03  0.00000000000E+00 0. -1.
         22    1    3    3    0    0  0.91337958738E+01  0.18647055983E+03 -0.37139461411E+02  0.19035239821E+03  0.00000000000E+00 0. -1.
         22    1    3    3    0    0 -0.95334433307E+01 -0.26774413468E+01 -0.45855872967E+02  0.46912858786E+02  0.00000000000E+00 0. -1.
</event>
<event>
 7    1  0.6176857E-006  0.7727662E+02  0.7818608E-02  0.1368555E+00
          2   -1    0    0  502    0  0.00000000000E+00  0.00000000000E+00  0.13115770133E+03  0.13115770133E+03  0.00000000000E+00 0. -1.
          1   -1    0    0  501    0 -0.00000000000E+00 -0.00000000000E+00 -0.21064434125E+04  0.21064434125E+04  0.00000000000E+00 0. -1.
         25    2    1    2    0    0 -0.10552942561E+03  0.56749861082E+02 -0.10368477220E+03  0.20182394563E+03  0.12500146655E+03 0.  0.
          2    1    1    2  501    0  0.59083305030E+02  0.23415105784E+00 -0.19366884980E+04  0.19375895412E+04  0.00000000000E+00 0. -1.
          1    1    1    2  502    0  0.46446120578E+02 -0.56984012140E+02  0.65087559048E+02  0.98187627016E+02  0.00000000000E+00 0. -1.
         22    1    3    3    0    0 -0.24264936341E+02 -0.36117678694E+02 -0.49678791765E+01  0.43794447974E+02  0.00000000000E+00 0.  1.
         22    1    3    3    0    0 -0.81264489268E+02  0.92867539776E+02 -0.98716893024E+02  0.15802949765E+03  0.00000000000E+00 0.  1.
</event>
<event>
 7    1  0.6176857E-006  0.1159017E+03  0.7818608E-02  0.1338299E+00
          2   -1    0    0  502    0  0.00000000000E+00  0.00000000000E+00  0.55742259210E+03  0.55742259210E+03  0.00000000000E+00 0. -1.
          1   -1    0    0  501    0 -0.00000000000E+00 -0.00000000000E+00 -0.43178451542E+03  0.43178451542E+03  0.00000000000E+00 0. -1.
         25    2    1    2    0    0 -0.23093780014E+02  0.11499261797E+03 -0.13488428596E+03  0.21811972133E+03  0.12500326943E+03 0.  0.
          2    1    1    2  501    0  0.70026929673E+02 -0.95219346362E+02 -0.24023998968E+03  0.26774194188E+03  0.00000000000E+00 0. -1.
          1    1    1    2  502    0 -0.46933149658E+02 -0.19773271613E+02  0.50076235232E+03  0.50334544431E+03  0.00000000000E+00 0. -1.
         22    1    3    3    0    0 -0.13928282121E+02  0.11540365264E+03 -0.15632045127E+03  0.19480267855E+03  0.00000000000E+00 0. -1.
         22    1    3    3    0    0 -0.91654978933E+01 -0.41103466577E+00  0.21436165303E+02  0.23317042780E+02  0.00000000000E+00 0. -1.
</event>
<event>
 7    1  0.6176857E-006  0.6730586E+02  0.7818608E-02  0.1386621E+00
          2   -1    0    0  502    0  0.00000000000E+00  0.00000000000E+00  0.22825746516E+04  0.22825746516E+04  0.00000000000E+00 0. -1.
          1   -1    0    0  501    0 -0.00000000000E+00 -0.00000000000E+00 -0.28273546820E+03  0.28273546820E+03  0.00000000000E+00 0. -1.
         25    2    1    2    0    0  0.58486237717E+02 -0.10940543002E+03  0.44503859838E+03  0.47861569611E+03  0.12499376945E+03 0.  0.
          2    1    1    2  501    0 -0.38996490798E+02  0.54234761584E+02 -0.26127372477E+03  0.26967776125E+03  0.00000000000E+00 0. -1.
          1    1    1    2  502    0 -0.19489746920E+02  0.55170668437E+02  0.18160743098E+04  0.18170166624E+04  0.00000000000E+00 0. -1.
         22    1    3    3    0    0 -0.17215482822E+02 -0.74177840569E+02  0.11316961075E+03  0.13640412633E+03  0.00000000000E+00 0.  1.
         22    1    3    3    0    0  0.75701720540E+02 -0.35227589452E+02  0.33186898762E+03  0.34221156979E+03  0.00000000000E+00 0.  1.
</event>
<event>
 7    1  0.6176857E-006  0.9734360E+02  0.7818608E-02  0.1345660E+00
          2   -1    0    0  502    0  0.00000000000E+00  0.00000000000E+00  0.39448273230E+02  0.39448273230E+02  0.00000000000E+00 0. -1.
          1   -1    0    0  501    0 -0.00000000000E+00 -0.00000000000E+00 -0.91373355647E+03  0.91373355647E+03  0.00000000000E+00 0. -1.
         25    2    1    2    0    0 -0.61590593761E+02  0.89898777519E+01 -0.14368369260E+03  0.20036003203E+03  0.12499967910E+03 0.  0.
          2    1    1    2  501    0  0.83526072095E+02 -0.61494683839E+02 -0.61816469434E+03  0.62680602277E+03  0.00000000000E+00 0. -1.
          1    1    1    2  502    0 -0.21935478333E+02  0.52504806087E+02 -0.11243689630E+03  0.12601577489E+03  0.00000000000E+00 0. -1.
         22    1    3    3    0    0 -0.83073344737E+01 -0.17322778454E+02  0.19086495992E+02  0.27081078056E+02  0.00000000000E+00 0.  1.
         22    1    3    3    0    0 -0.53283259288E+02  0.26312656206E+02 -0.16277018859E+03  0.17327895398E+03  0.00000000000E+00 0.  1.
</event>
<event>
 7    1  0.6176857E-006  0.2501771E+03  0.7818608E-02  0.1324813E+00
          2   -1    0    0  502    0  0.00000000000E+00  0.00000000000E+00  0.46331277866E+03  0.46331277866E+03  0.00000000000E+00 0. -1.
          1   -1    0    0  501    0 -0.00000000000E+00 -0.00000000000E+00 -0.92878672996E+03  0.92878672996E+03  0.00000000000E+00 0. -1.
         25    2    1    2    0    0 -0.14090112447E+03 -0.22932557908E+03 -0.18151274445E+03  0.34787215587E+03  0.12499924934E+03 0.  0.
          2    1    1    2  501    0  0.13726987800E+03  0.20301658908E+03 -0.64097496069E+03  0.68622711625E+03  0.00000000000E+00 0. -1.
          1    1    1    2  502    0  0.36312464672E+01  0.26308989997E+02  0.35701375383E+03  0.35800023650E+03  0.00000000000E+00 0. -1.
         22    1    3    3    0    0  0.66727620953E+01 -0.86144811454E+02 -0.83241085308E+02  0.11997721691E+03  0.00000000000E+00 0.  1.
         22    1    3    3    0    0 -0.14757388656E+03 -0.14318076762E+03 -0.98271659147E+02  0.22789493896E+03  0.00000000000E+00 0.  1.
</event>
<event>
 7    1  0.6176857E-006  0.4163017E+02  0.7818608E-02  0.1507116E+00
          2   -1    0    0  502    0  0.00000000000E+00  0.00000000000E+00  0.10230954398E+04  0.10230954398E+04  0.00000000000E+00 0. -1.
          1   -1    0    0  501    0 -0.00000000000E+00 -0.00000000000E+00 -0.25833965221E+02  0.25833965221E+02  0.00000000000E+00 0. -1.
         25    2    1    2    0    0  0.10742712783E+02  0.13621515315E+01  0.38622342510E+03  0.40609221437E+03  0.12500036457E+03 0.  0.
          2    1    1    2  501    0 -0.31715970494E+02  0.31187015336E+02  0.17125234204E+02  0.47663469833E+02  0.00000000000E+00 0. -1.
          1    1    1    2  502    0  0.20973257711E+02 -0.32549166868E+02  0.59391281531E+03  0.59517372085E+03  0.00000000000E+00 0. -1.
         22    1    3    3    0    0 -0.53126979332E+02  0.56091773924E+01  0.10661745764E+03  0.11925276130E+03  0.00000000000E+00 0.  1.
         22    1    3    3    0    0  0.63869692115E+02 -0.42470258610E+01  0.27960596746E+03  0.28683945307E+03  0.00000000000E+00 0.  1.
</event>
<event>
 7    1  0.6176857E-006  0.1414663E+03  0.7818608E-02  0.1229977E+00
          2   -1    0    0  502    0  0.00000000000E+00  0.00000000000E+00  0.19492636849E+04  0.19492636849E+04  0.00000000000E+00 0. -1.
          1   -1    0    0  501    0 -0.00000000000E+00 -0.00000000000E+00 -0.17351885089E+04  0.17351885089E+04  0.00000000000E+00 0. -1.
         25    2    1    2    0    0 -0.63311868246E+02  0.23776852547E+03 -0.21491295684E+03  0.34979382607E+03  0.12500350944E+03 0.  0.
          2    1    1    2  501    0  0.57613043621E+01 -0.13660641310E+03 -0.14478115717E+04  0.14542533658E+04  0.00000000000E+00 0. -1.
          1    1    1    2  502    0  0.57550563884E+02 -0.10116211237E+03  0.18767997045E+04  0.18804050019E+04  0.00000000000E+00 0. -1.
         22    1    3    3    0    0  0.10686451832E+02 -0.11110052040E+02 -0.19341256185E+02  0.24732927443E+02  0.00000000000E+00 0. -1.
         22    1    3    3    0    0 -0.73998320078E+02  0.24887857751E+03 -0.19557170066E+03  0.32506089862E+03  0.00000000000E+00 0. -1.
</event>
<event>
 7    1  0.6176857E-006  0.1233965E+03  0.7818608E-02  0.1244279E+00
          2   -1    0    0  502    0  0.00000000000E+00  0.00000000000E+00  0.38342473523E+04  0.38342473523E+04  0.00000000000E+00 0. -1.
          1   -1    0    0  501    0 -0.00000000000E+00 -0.00000000000E+00 -0.39508037854E+03  0.39508037854E+03  0.00000000000E+00 0. -1.
         25    2    1    2    0    0  0.31827912273E+02 -0.48753151075E+02  0.20043344853E+04  0.20090719802E+04  0.12499442813E+03 0.  0.
          2    1    1    2  501    0 -0.12162604207E+03 -0.23589132585E+02 -0.38106572205E+03  0.40069991990E+03  0.00000000000E+00 0. -1.
          1    1    1    2  502    0  0.89798129792E+02  0.72342283660E+02  0.18158982105E+04  0.18195558307E+04  0.00000000000E+00 0. -1.
         22    1    3    3    0    0  0.56682605747E+02  0.20981773114E+02  0.68470158955E+03  0.68736410972E+03  0.00000000000E+00 0.  1.
         22    1    3    3    0    0 -0.24854693474E+02 -0.69734924189E+02  0.13196328957E+04  0.13217078705E+04  0.00000000000E+00 0.  1.
</event>
<event>
 7    1  0.6176857E-006  0.3262663E+02  0.7818608E-02  0.1627688E+00
          2   -1    0    0  502    0  0.00000000000E+00  0.00000000000E+00  0.29690579709E+03  0.29690579709E+03  0.00000000000E+00 0. -1.
          1   -1    0    0  501    0 -0.00000000000E+00 -0.00000000000E+00 -0.71469802633E+03  0.71469802633E+03  0.00000000000E+00 0. -1.
         25    2    1    2    0    0  0.82032055260E+01 -0.33210873851E+02 -0.14098648661E+03  0.19150271687E+03  0.12500338571E+03 0.  0.
          2    1    1    2  501    0  0.18324535833E+02  0.14150416762E+02 -0.54722577568E+03  0.54771532065E+03  0.00000000000E+00 0. -1.
          1    1    1    2  502    0 -0.26527741359E+02  0.19060457089E+02  0.27042003305E+03  0.27238578590E+03  0.00000000000E+00 0. -1.
         22    1    3    3    0    0  0.23928356495E+01 -0.74229463103E+02 -0.12817836944E+03  0.14813991106E+03  0.00000000000E+00 0.  1.
         22    1    3    3    0    0  0.58103698765E+01  0.41018589253E+02 -0.12808117166E+02  0.43362805810E+02  0.00000000000E+00 0.  1.
</event>
<event>
 7    1  0.6176857E-006  0.3181301E+03  0.7818608E-02  0.1144667E+00
          2   -1    0    0  502    0  0.00000000000E+00  0.00000000000E+00  0.20750257593E+03  0.20750257593E+03  0.00000000000E+00 0. -1.
          1   -1    0    0  501    0 -0.00000000000E+00 -0.00000000000E+00 -0.46311490569E+04  0.46311490569E+04  0.00000000000E+00 0. -1.
         25    2    1    2    0    0 -0.24055864773E+03  0.36366658377E+02 -0.74394606113E+03  0.79263590420E+03  0.12499975164E+03 0.  0.
          2    1    1    2  501    0  0.31032284372E+03 -0.15025939475E+03 -0.38296897270E+04  0.38451790021E+04  0.00000000000E+00 0. -1.
          1    1    1    2  502    0 -0.69764195988E+02  0.11389273638E+03  0.14998930719E+03  0.20083672651E+03  0.00000000000E+00 0. -1.
         22    1    3    3    0    0 -0.22193649622E+03  0.51839599983E+02 -0.72987814807E+03  0.76463407163E+03  0.00000000000E+00 0.  1.
         22    1    3    3    0    0 -0.18622151510E+02 -0.15472941606E+02 -0.14067913065E+02  0.28001832561E+02  0.00000000000E+00 0.  1.
</event>
<event>
 7    1  0.6176857E-006  0.1884455E+03  0.7818608E-02  0.1262574E+00
          2   -1    0    0  502    0  0.00000000000E+00  0.00000000000E+00  0.13559785459E+03  0.13559785459E+03  0.00000000000E+00 0. -1.
          1   -1    0    0  501    0 -0.00000000000E+00 -0.00000000000E+00 -0.55127870766E+03  0.55127870766E+03  0.00000000000E+00 0. -1.
         25    2    1    2    0    0  0.88485550054E+02  0.17433208072E+03 -0.16582266937E+03  0.28520759441E+03  0.12499938917E+03 0.  0.
          2    1    1    2  501    0 -0.13476063027E+03 -0.13163955769E+03 -0.27544693231E+03  0.33370707685E+03  0.00000000000E+00 0. -1.
          1    1    1    2  502    0  0.46275080213E+02 -0.42692523025E+02  0.25588748621E+02  0.67961890991E+02  0.00000000000E+00 0. -1.
         22    1    3    3    0    0  0.65965868123E+01 -0.19248451322E+02 -0.24868460357E+02  0.32131886910E+02  0.00000000000E+00 0. -1.
         22    1    3    3    0    0  0.81888963242E+02  0.19358053204E+03 -0.14095420902E+03  0.25307570750E+03  0.00000000000E+00 0. -1.
</event>
<event>
 7    1  0.6176857E-006  0.1112500E+03  0.7818608E-02  0.1284703E+00
          2   -1    0    0  502    0  0.00000000000E+00  0.00000000000E+00  0.60186892160E+03  0.60186892160E+03  0.00000000000E+00 0. -1.
          1   -1    0    0  501    0 -0.00000000000E+00 -0.00000000000E+00 -0.19796878581E+04  0.19796878581E+04  0.00000000000E+00 0. -1.
         25    2    1    2    0    0 -0.10199871187E+03  0.14514201019E+03 -0.59607195111E+03  0.63434734430E+03  0.12499936787E+03 0.  0.
          2    1    1    2  501    0  0.84350494179E+01 -0.85797187694E+02 -0.13578322238E+04  0.13605662996E+04  0.00000000000E+00 0. -1.
          1    1    1    2  502    0  0.93563662448E+02 -0.59344822495E+02  0.57608523843E+03  0.58664313584E+03  0.00000000000E+00 0. -1.
         22    1    3    3    0    0  0.18780009649E+02  0.17704006021E+02 -0.19267814497E+03  0.19439904357E+03  0.00000000000E+00 0.  1.
         22    1    3    3    0    0 -0.12077872152E+03  0.12743800417E+03 -0.40339380614E+03  0.43994830073E+03  0.00000000000E+00 0.  1.
</event>
<event>
 7    1  0.7230636E-006  0.7642974E+02  0.7818608E-02  0.1479071E+00
          2   -1    0    0  502    0  0.00000000000E+00  0.00000000000E+00  0.86833675022E+03  0.86833675022E+03  0.00000000000E+00 0. -1.
          1   -1    0    0  501    0 -0.00000000000E+00 -0.00000000000E+00 -0.12312191484E+04  0.12312191484E+04  0.00000000000E+00 0. -1.
         25    2    1    2    0    0  0.51014153769E+02  0.24273295523E+02 -0.56483767106E+03  0.58125536125E+03  0.12499825428E+03 0.  0.
          2    1    1    2  501    0  0.80631934082E+01  0.24318697640E+02 -0.65622144900E+03  0.65672140537E+03  0.00000000000E+00 0. -1.
          1    1    1    2  502    0 -0.59077347178E+02 -0.48591993163E+02  0.85817672187E+03  0.86157913200E+03  0.00000000000E+00 0. -1.
         22    1    3    3    0    0 -0.26021286750E+02  0.31432445204E+02 -0.75336878183E+02  0.85678183863E+02  0.00000000000E+00 0.  1.
         22    1    3    3    0    0  0.77035440519E+02 -0.71591496810E+01 -0.48950079288E+03  0.49557717739E+03  0.00000000000E+00 0.  1.
</event>
<event>
 7    1  0.6176857E-006  0.1268932E+03  0.7818608E-02  0.1341898E+00
          2   -1    0    0  502    0  0.00000000000E+00  0.00000000000E+00  0.96108933152E+03  0.96108933152E+03  0.00000000000E+00 0. -1.
          1   -1    0    0  501    0 -0.00000000000E+00 -0.00000000000E+00 -0.27223492102E+03  0.27223492102E+03  0.00000000000E+00 0. -1.
         25    2    1    2    0    0  0.12540056290E+03 -0.79354661655E+02 -0.10843375644E+03  0.22227328411E+03  0.12500027917E+03 0.  0.
          2    1    1    2  501    0 -0.80539046896E+02  0.83881186360E+02 -0.74495514906E+02  0.13810203924E+03  0.00000000000E+00 0. -1.
          1    1    1    2  502    0 -0.44861516005E+02 -0.45265247043E+01  0.87178368184E+03  0.87294892919E+03  0.00000000000E+00 0. -1.
         22    1    3    3    0    0  0.32806260820E+02 -0.59080731515E+02 -0.10809996199E+03  0.12748484368E+03  0.00000000000E+00 0. -1.
         22    1    3    3    0    0  0.92594302081E+02 -0.20273930140E+02 -0.33379444651E+00  0.94788440435E+02  0.00000000000E+00 0. -1.
</event>
<event>
 7    1  0.6176857E-006  0.6818934E+02  0.7818608E-02  0.1375989E+00
          2   -1    0    0  502    0  0.00000000000E+00  0.00000000000E+00  0.99224399757E+03  0.99224399757E+03  0.00000000000E+00 0. -1.
          1   -1    0    0  501    0 -0.00000000000E+00 -0.00000000000E+00 -0.79010140978E+03  0.79010140978E+03  0.00000000000E+00 0. -1.
         25    2    1    2    0    0  0.23189778078E+01  0.89255889991E+01 -0.11537062192E+03  0.17035373398E+03  0.12499988194E+03 0.  0.
          2    1    1    2  501    0 -0.40558620103E+02  0.48174489780E+02 -0.64447875955E+03  0.64754818712E+03  0.00000000000E+00 0. -1.
          1    1    1    2  502    0  0.38239642295E+02 -0.57100078779E+02  0.96199196925E+03  0.96444348624E+03  0.00000000000E+00 0. -1.
         22    1    3    3    0    0  0.38174179447E+02  0.55002842636E+02 -0.62251579494E+02  0.91421221957E+02  0.00000000000E+00 0. -1.
         22    1    3    3    0    0 -0.35855201639E+02 -0.46077253637E+02 -0.53119042421E+02  0.78932512028E+02  0.00000000000E+00 0. -1.
</event>
<event>
 7    1  0.6176857E-006  0.1035911E+03  0.7818608E-02  0.1378496E+00
          2   -1    0    0  502    0  0.00000000000E+00  0.00000000000E+00  0.55408400147E+03  0.55408400147E+03  0.00000000000E+00 0. -1.
          1   -1    0    0  501    0 -0.00000000000E+00 -0.00000000000E+00 -0.47607163786E+03  0.47607163786E+03  0.00000000000E+00 0. -1.
         25    2    1    2    0    0 -0.92909895313E+02  0.91978243295E+02  0.29903885650E+02  0.18333166334E+03  0.12499604202E+03 0.  0.
          2    1    1    2  501    0  0.40326572123E+02 -0.47958351064E+01 -0.39250512674E+03  0.39460043965E+03  0.00000000000E+00 0. -1.
          1    1    1    2  502    0  0.52583323190E+02 -0.87182408188E+02  0.44061360470E+03  0.45222353635E+03  0.00000000000E+00 0. -1.
         22    1    3    3    0    0 -0.12329947741E+03  0.83222973099E+02  0.29762313592E+02  0.15170570092E+03  0.00000000000E+00 0. -1.
         22    1    3    3    0    0  0.30389582099E+02  0.87552701953E+01  0.14157205738E+00  0.31625962420E+02  0.00000000000E+00 0. -1.
</event>
<event>
 7    1  0.6176857E-006  0.1286082E+03  0.7818608E-02  0.1234068E+00
          2   -1    0    0  502    0  0.00000000000E+00  0.00000000000E+00  0.17811203814E+03  0.17811203814E+03  0.00000000000E+00 0. -1.
          1   -1    0    0  501    0 -0.00000000000E+00 -0.00000000000E+00 -0.27928305689E+04  0.27928305689E+04  0.00000000000E+00 0. -1.
         25    2    1    2    0    0  0.10996846709E+03 -0.98353411450E+02 -0.21093181855E+03  0.28615549595E+03  0.12500511385E+03 0.  0.
          2    1    1    2  501    0  0.20655764300E+02  0.12099559107E+03 -0.25111777568E+04  0.25141758729E+04  0.00000000000E+00 0. -1.
          1    1    1    2  502    0 -0.13062423139E+03 -0.22642179622E+02  0.10739104461E+03  0.17061123816E+03  0.00000000000E+00 0. -1.
         22    1    3    3    0    0  0.61783930533E+02  0.15552416633E+02 -0.40198510367E+02  0.75332940809E+02  0.00000000000E+00 0. -1.
         22    1    3    3    0    0  0.48184536559E+02 -0.11390582808E+03 -0.17073330818E+03  0.21082255514E+03  0.00000000000E+00 0. -1.
</event>
<event>
 7    1  0.6176857E-006  0.8521550E+02  0.7818608E-02  0.1337310E+00
          2   -1    0    0  502    0  0.00000000000E+00  0.00000000000E+00  0.17197737901E+02  0.17197737901E+02  0.00000000000E+00 0. -1.
          1   -1    0    0  501    0 -0.00000000000E+00 -0.00000000000E+00 -0.36600256129E+04  0.36600256129E+04  0.00000000000E+00 0. -1.
         25    2    1    2    0    0 -0.54516776128E+01  0.42573598884E+02 -0.16785396388E+04  0.16837318148E+04  0.12496108664E+03 0.  0.
          2    1    1    2  501    0  0.85241580326E+01 -0.11237176907E+03 -0.18827304210E+04  0.18861001866E+04  0.00000000000E+00 0. -1.
          1    1    1    2  502    0 -0.30724804198E+01  0.69798170185E+02 -0.81557815217E+02  0.10739134937E+03  0.00000000000E+00 0. -1.
         22    1    3    3    0    0 -0.12387048210E+02  0.50985730429E+02 -0.26469757510E+03  0.26984771619E+03  0.00000000000E+00 0.  1.
         22    1    3    3    0    0  0.69353705974E+01 -0.84121315448E+01 -0.14138420637E+04  0.14138840986E+04  0.00000000000E+00 0.  1.
</event>
<event>
 7    1  0.6176857E-006  0.8656791E+02  0.7818608E-02  0.1343719E+00
          2   -1    0    0  502    0  0.00000000000E+00  0.00000000000E+00  0.31711993964E+04  0.31711993964E+04  0.00000000000E+00 0. -1.
          1   -1    0    0  501    0 -0.00000000000E+00 -0.00000000000E+00 -0.11301135974E+03  0.11301135974E+03  0.00000000000E+00 0. -1.
         25    2    1    2    0    0 -0.47676194892E+02 -0.24508001009E+02  0.46868054886E+03  0.48801648605E+03  0.12499988843E+03 0.  0.
          2    1    1    2  501    0  0.83338421906E+02 -0.29910494566E+02 -0.83908948284E+02  0.12198623633E+03  0.00000000000E+00 0. -1.
          1    1    1    2  502    0 -0.35662227014E+02  0.54418495575E+02  0.26734164361E+04  0.26742080338E+04  0.00000000000E+00 0. -1.
         22    1    3    3    0    0 -0.50616088305E+02  0.43856988977E+02  0.20879602263E+03  0.21927426421E+03  0.00000000000E+00 0.  1.
         22    1    3    3    0    0  0.29398934128E+01 -0.68364989987E+02  0.25988452623E+03  0.26874222185E+03  0.00000000000E+00 0.  1.
</event>
<event>
 7    1  0.6176857E-006  0.1134798E+03  0.7818608E-02  0.1363778E+00
          2   -1    0    0  502    0  0.00000000000E+00  0.00000000000E+00  0.21072623261E+04  0.21072623261E+04  0.00000000000E+00 0. -1.
          1   -1    0    0  501    0 -0.00000000000E+00 -0.00000000000E+00 -0.80713248883E+03  0.80713248883E+03  0.00000000000E+00 0. -1.
         25    2    1    2    0    0  0.76621110718E+02  0.13344709559E+03  0.52353376007E+02  0.20505061248E+03  0.12500382302E+03 0.  0.
          2    1    1    2  501    0 -0.25957269395E+02 -0.32848636253E+02 -0.72857938673E+03  0.72978129293E+03  0.00000000000E+00 0. -1.
          1    1    1    2  502    0 -0.50663841323E+02 -0.10059845933E+03  0.19763558480E+04  0.19795629095E+04  0.00000000000E+00 0. -1.
         22    1    3    3    0    0 -0.30477540629E+02  0.63201249165E+02  0.17646232752E+02  0.72351004894E+02  0.00000000000E+00 0.  1.
         22    1    3    3    0    0  0.10709865135E+03  0.70245846420E+02  0.34707143254E+02  0.13269960758E+03  0.00000000000E+00 0.  1.
</event>
<event>
 7    1  0.6176857E-006  0.5622665E+02  0.7818608E-02  0.1445527E+00
          2   -1    0    0  502    0  0.00000000000E+00  0.00000000000E+00  0.11902089906E+04  0.11902089906E+04  0.00000000000E+00 0. -1.
          1   -1    0    0  501    0 -0.00000000000E+00 -0.00000000000E+00 -0.69342307508E+02  0.69342307508E+02  0.00000000000E+00 0. -1.
         25    2    1    2    0    0  0.40135406364E+02 -0.11140711597E+02  0.12439721802E+03  0.18120352029E+03  0.12500032646E+03 0.  0.
          2    1    1    2  501    0  0.65637520423E+01  0.43914014928E+02 -0.27867979709E+02  0.52422779791E+02  0.00000000000E+00 0. -1.
          1    1    1    2  502    0 -0.46699158406E+02 -0.32773303331E+02  0.10243374448E+04  0.10259249980E+04  0.00000000000E+00 0. -1.
         22    1    3    3    0    0  0.43592063871E+02 -0.59475794094E+02  0.10651766932E+03  0.12955173481E+03  0.00000000000E+00 0. -1.
         22    1    3    3    0    0 -0.34566575075E+01  0.48335082497E+02  0.17879548706E+02  0.51651785478E+02  0.00000000000E+00 0. -1.
</event>
<event>
 7    1  0.6176857E-006  0.2026101E+03  0.7818608E-02  0.1271696E+00
          2   -1    0    0  502    0  0.00000000000E+00  0.00000000000E+00  0.27982994548E+04  0.27982994548E+04  0.00000000000E+00 0. -1.
          1   -1    0    0  501    0 -0.00000000000E+00 -0.00000000000E+00 -0.51326778998E+03  0.51326778998E+03  0.00000000000E+00 0. -1.
         25    2    1    2    0    0  0.24311991624E+02  0.16744954279E+03 -0.77705630334E+02  0.22427012194E+03  0.12501400037E+03 0.  0.
          2    1    1    2  501    0  0.48594182558E+02  0.22600563554E+02 -0.35647277478E+03  0.36047887484E+03  0.00000000000E+00 0. -1.
          1    1    1    2  502    0 -0.72906174183E+02 -0.19005010635E+03  0.27192100699E+04  0.27268182480E+04  0.00000000000E+00 0. -1.
         22    1    3    3    0    0  0.62608938308E+02  0.55036013788E+02 -0.19021303031E+01  0.83381413214E+02  0.00000000000E+00 0. -1.
         22    1    3    3    0    0 -0.38296946684E+02  0.11241352901E+03 -0.75803500031E+02  0.14088870872E+03  0.00000000000E+00 0. -1.
</event>
<event>
 7    1  0.6176857E-006  0.1350715E+03  0.7818608E-02  0.1412070E+00
          2   -1    0    0  502    0  0.00000000000E+00  0.00000000000E+00  0.99782600104E+03  0.99782600104E+03  0.00000000000E+00 0. -1.
          1   -1    0    0  501    0 -0.00000000000E+00 -0.00000000000E+00 -0.89157646719E+02  0.89157646719E+02  0.00000000000E+00 0. -1.
         25    2    1    2    0    0 -0.13423017569E+03  0.60371102335E+02  0.45727587198E+03  0.49637415008E+03  0.12499465474E+03 0.  0.
          2    1    1    2  501    0  0.22747696203E+02  0.71013451975E+01 -0.59112662487E+02  0.63735340687E+02  0.00000000000E+00 0. -1.
          1    1    1    2  502    0  0.11148247949E+03 -0.67472447533E+02  0.51050514483E+03  0.52687415699E+03  0.00000000000E+00 0. -1.
         22    1    3    3    0    0  0.67180155382E+01  0.31224070585E+02  0.24386324991E+02  0.40184165578E+02  0.00000000000E+00 0. -1.
         22    1    3    3    0    0 -0.14094819123E+03  0.29147031750E+02  0.43288954699E+03  0.45618998450E+03  0.00000000000E+00 0. -1.
</event>
<event>
 7    1  0.6176857E-006  0.9319488E+02  0.7818608E-02  0.1337865E+00
          2   -1    0    0  502    0  0.00000000000E+00  0.00000000000E+00  0.90052926847E+03  0.90052926847E+03  0.00000000000E+00 0. -1.
          1   -1    0    0  501    0 -0.00000000000E+00 -0.00000000000E+00 -0.63076811550E+03  0.63076811550E+03  0.00000000000E+00 0. -1.
         25    2    1    2    0    0 -0.76369108755E+02 -0.47039071290E+02  0.34528495918E+03  0.37800942866E+03  0.12499804046E+03 0.  0.
          2    1    1    2  501    0  0.43770005079E+02 -0.46109778005E+02 -0.60821673572E+03  0.61153047559E+03  0.00000000000E+00 0. -1.
          1    1    1    2  502    0  0.32599103676E+02  0.93148849294E+02  0.53269292951E+03  0.54175747972E+03  0.00000000000E+00 0. -1.
         22    1    3    3    0    0 -0.32352899431E+02 -0.40997535045E+02  0.31279129611E+02  0.60876037409E+02  0.00000000000E+00 0. -1.
         22    1    3    3    0    0 -0.44016209324E+02 -0.60415362450E+01  0.31400582957E+03  0.31713339125E+03  0.00000000000E+00 0. -1.
</event>
<event>
 7    1  0.6176857E-006  0.9035139E+02  0.7818608E-02  0.1328151E+00
          2   -1    0    0  502    0  0.00000000000E+00  0.00000000000E+00  0.41537485346E+03  0.41537485346E+03  0.00000000000E+00 0. -1.
          1   -1    0    0  501    0 -0.00000000000E+00 -0.00000000000E+00 -0.90492499849E+03  0.90492499849E+03  0.00000000000E+00 0. -1.
         25    2    1    2    0    0  0.14107173380E+02  0.14611906810E+02  0.10779000349E+03  0.16628633178E+03  0.12497975484E+03 0.  0.
          2    1    1    2  501    0 -0.56822990794E+02 -0.71823969290E+02 -0.86865074144E+03  0.87346530867E+03  0.00000000000E+00 0. -1.
          1    1    1    2  502    0  0.42715817413E+02  0.57212062480E+02  0.27131059291E+03  0.28054821150E+03  0.00000000000E+00 0. -1.
         22    1    3    3    0    0  0.19627720721E+01 -0.34680355237E+02 -0.11543133712E+02  0.36603598859E+02  0.00000000000E+00 0. -1.
         22    1    3    3    0    0  0.12144401308E+02  0.49292262047E+02  0.11933313721E+03  0.12968273292E+03  0.00000000000E+00 0. -1.
</event>
<event>
 7    1  0.6176857E-006  0.9440713E+02  0.7818608E-02  0.1422979E+00
          2   -1    0    0  502    0  0.00000000000E+00  0.00000000000E+00  0.67581580766E+03  0.67581580766E+03  0.00000000000E+00 0. -1.
          1   -1    0    0  501    0 -0.00000000000E+00 -0.00000000000E+00 -0.27996097110E+03  0.27996097110E+03  0.00000000000E+00 0. -1.
         25    2    1    2    0    0  0.10617812934E+03  0.14590673768E+02 -0.14629101747E+03  0.22025432664E+03  0.12499689476E+03 0.  0.
          2    1    1    2  501    0 -0.12970383738E+02 -0.28531983382E+02 -0.90563028492E+02  0.95833016542E+02  0.00000000000E+00 0. -1.
          1    1    1    2  502    0 -0.93207745606E+02  0.13941309614E+02  0.63270888252E+03  0.63968943557E+03  0.00000000000E+00 0. -1.
         22    1    3    3    0    0  0.90420031239E+02  0.38897832956E+02 -0.33769024149E+02  0.10406330021E+03  0.00000000000E+00 0. -1.
         22    1    3    3    0    0  0.15758098105E+02 -0.24307159188E+02 -0.11252199332E+03  0.11619102644E+03  0.00000000000E+00 0. -1.
</event>
<event>
 7    1  0.6176857E-006  0.1552214E+03  0.7818608E-02  0.1208263E+00
          2   -1    0    0  502    0  0.00000000000E+00  0.00000000000E+00  0.28714742115E+04  0.28714742115E+04  0.00000000000E+00 0. -1.
          1   -1    0    0  501    0 -0.00000000000E+00 -0.00000000000E+00 -0.84434381371E+03  0.84434381371E+03  0.00000000000E+00 0. -1.
         25    2    1    2    0    0 -0.80182434657E+02  0.22266641849E+03  0.16158770140E+04  0.16378930537E+04  0.12500229696E+03 0.  0.
          2    1    1    2  501    0 -0.18585371219E+02 -0.13197657348E+03 -0.82435636665E+03  0.83506086676E+03  0.00000000000E+00 0. -1.
          1    1    1    2  502    0  0.98767805876E+02 -0.90689845008E+02  0.12356097504E+04  0.12428641047E+04  0.00000000000E+00 0. -1.
         22    1    3    3    0    0 -0.51083329099E+02  0.96725631521E+01  0.27079792939E+03  0.27574369177E+03  0.00000000000E+00 0.  1.
         22    1    3    3    0    0 -0.29099105558E+02  0.21299385534E+03  0.13450790846E+04  0.13621493620E+04  0.00000000000E+00 0.  1.
</event>
<event>
 7    1  0.6176857E-006  0.1031317E+03  0.7818608E-02  0.1294451E+00
          2   -1    0    0  502    0  0.00000000000E+00  0.00000000000E+00  0.28465821335E+03  0.28465821335E+03  0.00000000000E+00 0. -1.
          1   -1    0    0  501    0 -0.00000000000E+00 -0.00000000000E+00 -0.14243626151E+03  0.14243626151E+03  0.00000000000E+00 0. -1.
         25    2    1    2    0    0  0.64781655052E+02  0.54991870837E+02 -0.77983882947E+01  0.15134932163E+03  0.12500013443E+03 0.  0.
          2    1    1    2  501    0  0.22934326576E+02 -0.10923255628E+03  0.26288282650E+02  0.11466825407E+03  0.00000000000E+00 0. -1.
          1    1    1    2  502    0 -0.87715981628E+02  0.54240685447E+02  0.12373205748E+03  0.16107689915E+03  0.00000000000E+00 0. -1.
         22    1    3    3    0    0  0.60909424294E+02  0.86222436260E+02  0.22196589055E+02  0.10787471923E+03  0.00000000000E+00 0.  1.
         22    1    3    3    0    0  0.38722307581E+01 -0.31230565424E+02 -0.29994977349E+02  0.43474602401E+02  0.00000000000E+00 0.  1.
</event>
<event>
 7    1  0.6176857E-006  0.1295018E+03  0.7818608E-02  0.1296761E+00
          2   -1    0    0  502    0  0.00000000000E+00  0.00000000000E+00  0.30776172413E+03  0.30776172413E+03  0.00000000000E+00 0. -1.
          1   -1    0    0  501    0 -0.00000000000E+00 -0.00000000000E+00 -0.27899130965E+04  0.27899130965E+04  0.00000000000E+00 0. -1.
         25    2    1    2    0    0 -0.15641188374E+03  0.75520183305E+02 -0.10313321592E+03  0.23753898709E+03  0.12498133741E+03 0.  0.
          2    1    1    2  501    0  0.65188812660E+02  0.11297372637E+02 -0.26026464035E+04  0.26034871833E+04  0.00000000000E+00 0. -1.
          1    1    1    2  502    0  0.91223071085E+02 -0.86817555942E+02  0.22362824712E+03  0.25664865016E+03  0.00000000000E+00 0. -1.
         22    1    3    3    0    0 -0.23718716309E+02  0.77135151079E+02 -0.30595028359E+02  0.86304488850E+02  0.00000000000E+00 0. -1.
         22    1    3    3    0    0 -0.13269316744E+03 -0.16149677742E+01 -0.72538187559E+02  0.15123449825E+03  0.00000000000E+00 0. -1.
</event>
<event>
 7    1  0.6176857E-006  0.6450623E+02  0.7818608E-02  0.1524502E+00
          2   -1    0    0  502    0  0.00000000000E+00  0.00000000000E+00  0.88415182622E+03  0.88415182622E+03  0.00000000000E+00 0. -1.
          1   -1    0    0  501    0 -0.00000000000E+00 -0.00000000000E+00 -0.14984194372E+04  0.14984194372E+04  0.00000000000E+00 0. -1.
         25    2    1    2    0    0  0.61860518321E+02 -0.60570983087E+02  0.20122726389E+03  0.25221537636E+03  0.12499846646E+03 0.  0.
          2    1    1    2  501    0 -0.47248637753E+02  0.43815352678E+02 -0.14720323813E+04  0.14734420757E+04  0.00000000000E+00 0. -1.
          1    1    1    2  502    0 -0.14611880568E+02  0.16755630408E+02  0.65653750643E+03  0.65691381135E+03  0.00000000000E+00 0. -1.
         22    1    3    3    0    0  0.29320556934E+02  0.27174354954E+02  0.13052005877E+02  0.42053483607E+02  0.00000000000E+00 0.  1.
         22    1    3    3    0    0  0.32539961387E+02 -0.87745338041E+02  0.18817525801E+03  0.21016189275E+03  0.00000000000E+00 0.  1.
</event>
<event>
 7    1  0.6176857E-006  0.4323789E+02  0.7818608E-02  0.1527988E+00
          2   -1    0    0  502    0  0.00000000000E+00  0.00000000000E+00  0.82429974094E+03  0.82429974094E+03  0.00000000000E+00 0. -1.
          1   -1    0    0  501    0 -0.00000000000E+00 -0.00000000000E+00 -0.26130111904E+04  0.26130111904E+04  0.00000000000E+00 0. -1.
         25    2    1    2    0    0 -0.17136637757E+02  0.10645436429E+02 -0.18712770803E+03  0.22593982754E+03  0.12500014754E+03 0.  0.
          2    1    1    2  501    0  0.42464093579E+02  0.95761715595E+01 -0.24059542095E+04  0.24063479717E+04  0.00000000000E+00 0. -1.
          1    1    1    2  502    0 -0.25327455822E+02 -0.20221607989E+02  0.80437046807E+03  0.80502313218E+03  0.00000000000E+00 0. -1.
         22    1    3    3    0    0 -0.44786070588E+02  0.51187958073E+02 -0.14902048343E+03  0.16380813061E+03  0.00000000000E+00 0. -1.
         22    1    3    3    0    0  0.27649432831E+02 -0.40542521644E+02 -0.38107224600E+02  0.62131696934E+02  0.00000000000E+00 0. -1.
</event>
<event>
 7    1  0.6176857E-006  0.3207291E+02  0.7818608E-02  0.1588961E+00
          2   -1    0    0  502    0  0.00000000000E+00  0.00000000000E+00  0.66962304819E+02  0.66962304819E+02  0.00000000000E+00 0. -1.
          1   -1    0    0  501    0 -0.00000000000E+00 -0.00000000000E+00 -0.43323628230E+03  0.43323628230E+03  0.00000000000E+00 0. -1.
         25    2    1    2    0    0 -0.47055335162E+01  0.59192313933E-01 -0.18467346047E+03  0.22304212148E+03  0.12498542075E+03 0.  0.
          2    1    1    2  501    0 -0.18800818164E+02  0.22938478792E+02 -0.22261737997E+03  0.22458437710E+03  0.00000000000E+00 0. -1.
          1    1    1    2  502    0  0.23506351680E+02 -0.22997671106E+02  0.41016862965E+02  0.52572088537E+02  0.00000000000E+00 0. -1.
         22    1    3    3    0    0 -0.63958967625E+02  0.73690286987E+01 -0.81775153020E+02  0.10407798891E+03  0.00000000000E+00 0. -1.
         22    1    3    3    0    0  0.59253434109E+02 -0.73098363847E+01 -0.10289830745E+03  0.11896413257E+03  0.00000000000E+00 0. -1.
</event>
<event>
 7    1  0.6176857E-006  0.5535161E+02  0.7818608E-02  0.1450389E+00
          2   -1    0    0  502    0  0.00000000000E+00  0.00000000000E+00  0.26483435291E+03  0.26483435291E+03  0.00000000000E+00 0. -1.
          1   -1    0    0  501    0 -0.00000000000E+00 -0.00000000000E+00 -0.35478766181E+03  0.35478766181E+03  0.00000000000E+00 0. -1.
         25    2    1    2    0    0 -0.58316586967E+02 -0.46596170991E+02  0.33061873157E+02  0.14929947139E+03  0.12500086894E+03 0.  0.
          2    1    1    2  501    0  0.15281492518E+02  0.53021922575E+02 -0.29131187527E+03  0.29649191719E+03  0.00000000000E+00 0. -1.
          1    1    1    2  502    0  0.43035094450E+02 -0.64257515842E+01  0.16829669321E+03  0.17383062613E+03  0.00000000000E+00 0. -1.
         22    1    3    3    0    0 -0.71397305078E+02 -0.30284872324E+02 -0.29775975813E+02  0.83074408813E+02  0.00000000000E+00 0. -1.
         22    1    3    3    0    0  0.13080718111E+02 -0.16311298667E+02  0.62837848970E+02  0.66225062579E+02  0.00000000000E+00 0. -1.
</event>
<event>
 7    1  0.6176857E-006  0.5547071E+02  0.7818608E-02  0.1533168E+00
          2   -1    0    0  502    0  0.00000000000E+00  0.00000000000E+00  0.99967476463E+03  0.99967476463E+03  0.00000000000E+00 0. -1.
          1   -1    0    0  501    0 -0.00000000000E+00 -0.00000000000E+00 -0.32778930519E+02  0.32778930519E+02  0.00000000000E+00 0. -1.
         25    2    1    2    0    0 -0.27438296445E+02 -0.32010548964E+02  0.60311280860E+03  0.61736365372E+03  0.12496113669E+03 0.  0.
          2    1    1    2  501    0  0.45028595213E+01 -0.23995563886E+02 -0.16857165615E+02  0.29668617472E+02  0.00000000000E+00 0. -1.
          1    1    1    2  502    0  0.22935436923E+02  0.56006112850E+02  0.38064019112E+03  0.38542142395E+03  0.00000000000E+00 0. -1.
         22    1    3    3    0    0 -0.38202321963E+02 -0.75023735489E+02  0.45628246917E+03  0.46398455789E+03  0.00000000000E+00 0.  1.
         22    1    3    3    0    0  0.10764025518E+02  0.43013186525E+02  0.14683033943E+03  0.15337909583E+03  0.00000000000E+00 0.  1.
</event>
<event>
 7    1  0.6176857E-006  0.6834585E+02  0.7818608E-02  0.1495404E+00
          2   -1    0    0  502    0  0.00000000000E+00  0.00000000000E+00  0.26794164318E+03  0.26794164318E+03  0.00000000000E+00 0. -1.
          1   -1    0    0  501    0 -0.00000000000E+00 -0.00000000000E+00 -0.28552748586E+03  0.28552748586E+03  0.00000000000E+00 0. -1.
         25    2    1    2    0    0  0.58673840783E+02 -0.13569356191E+02 -0.12523203077E+03  0.18690693716E+03  0.12499757841E+03 0.  0.
          2    1    1    2  501    0 -0.71399527718E+02 -0.85955933159E+01 -0.11869562090E+03  0.13878194121E+03  0.00000000000E+00 0. -1.
          1    1    1    2  502    0  0.12725686935E+02  0.22164949507E+02  0.22634180899E+03  0.22778025066E+03  0.00000000000E+00 0. -1.
         22    1    3    3    0    0 -0.20298380947E+02  0.35982038113E+02 -0.61070840280E+02  0.73731803643E+02  0.00000000000E+00 0.  1.
         22    1    3    3    0    0  0.78972221730E+02 -0.49551394305E+02 -0.64161190490E+02  0.11317513352E+03  0.00000000000E+00 0.  1.
</event>
<event>
 7    1  0.6176857E-006  0.5097801E+02  0.7818608E-02  0.1519135E+00
          2   -1    0    0  502    0  0.00000000000E+00  0.00000000000E+00  0.11531892025E+03  0.11531892025E+03  0.00000000000E+00 0. -1.
          1   -1    0    0  501    0 -0.00000000000E+00 -0.00000000000E+00 -0.10430159775E+04  0.10430159775E+04  0.00000000000E+00 0. -1.
         25    2    1    2    0    0  0.64220118409E+02  0.23489309132E+02 -0.48729983569E+02  0.15058088549E+03  0.12499608203E+03 0.  0.
          2    1    1    2  501    0 -0.27408746788E+02  0.99441984134E+01 -0.93349822019E+03  0.93395345365E+03  0.00000000000E+00 0. -1.
          1    1    1    2  502    0 -0.36811371621E+02 -0.33433507545E+02  0.54531146532E+02  0.73800558599E+02  0.00000000000E+00 0. -1.
         22    1    3    3    0    0  0.27008599741E+02  0.64063967348E+02 -0.62874673038E+02  0.93738363981E+02  0.00000000000E+00 0. -1.
         22    1    3    3    0    0  0.37211518668E+02 -0.40574658216E+02  0.14144689468E+02  0.56842521505E+02  0.00000000000E+00 0. -1.
</event>
<event>
 7    1  0.6176857E-006  0.5710456E+02  0.7818608E-02  0.1416491E+00
          2   -1    0    0  502    0  0.00000000000E+00  0.00000000000E+00  0.17293221933E+04  0.17293221933E+04  0.00000000000E+00 0. -1.
          1   -1    0    0  501    0 -0.00000000000E+00 -0.00000000000E+00 -0.12748183764E+04  0.12748183764E+04  0.00000000000E+00 0. -1.
         25    2    1    2    0    0 -0.54095078005E+02 -0.24641371057E+02  0.74468552722E+03  0.75744042095E+03  0.12500392874E+03 0.  0.
          2    1    1    2  501    0  0.20550291650E+01  0.54428408629E+02 -0.12669364118E+04  0.12681066779E+04  0.00000000000E+00 0. -1.
          1    1    1    2  502    0  0.52040048840E+02 -0.29787037572E+02  0.97675470150E+03  0.97859347085E+03  0.00000000000E+00 0. -1.
         22    1    3    3    0    0 -0.41556758794E+02 -0.22884841868E+02  0.82756687060E+02  0.95390510230E+02  0.00000000000E+00 0.  1.
         22    1    3    3    0    0 -0.12538319212E+02 -0.17565291892E+01  0.66192884016E+03  0.66204991072E+03  0.00000000000E+00 0.  1.
</event>
<event>
 7    1  0.6176857E-006  0.7597468E+02  0.7818608E-02  0.1404980E+00
          2   -1    0    0  502    0  0.00000000000E+00  0.00000000000E+00  0.20255642938E+03  0.20255642938E+03  0.00000000000E+00 0. -1.
          1   -1    0    0  501    0 -0.00000000000E+00 -0.00000000000E+00 -0.77987133840E+03  0.77987133840E+03  0.00000000000E+00 0. -1.
         25    2    1    2    0    0 -0.18318039471E+02  0.10431919874E+03 -0.57900665535E+02  0.17377065435E+03  0.12500282975E+03 0.  0.
          2    1    1    2  501    0 -0.14386230438E+02 -0.73727407387E+02 -0.65838132193E+03  0.66265274412E+03  0.00000000000E+00 0. -1.
          1    1    1    2  502    0  0.32704269909E+02 -0.30591791354E+02  0.13896707845E+03  0.14600436932E+03  0.00000000000E+00 0. -1.
         22    1    3    3    0    0 -0.46402385053E+02  0.12128171534E+03 -0.54346721362E+02  0.14076932172E+03  0.00000000000E+00 0.  1.
         22    1    3    3    0    0  0.28084345583E+02 -0.16962516596E+02 -0.35539441733E+01  0.33001332629E+02  0.00000000000E+00 0.  1.
</event>
<event>
 7    1  0.6176857E-006  0.7883315E+02  0.7818608E-02  0.1377192E+00
          2   -1    0    0  502    0  0.00000000000E+00  0.00000000000E+00  0.44287439111E+04  0.44287439111E+04  0.00000000000E+00 0. -1.
          1   -1    0    0  501    0 -0.00000000000E+00 -0.00000000000E+00 -0.84347155190E+02  0.84347155190E+02  0.00000000000E+00 0. -1.
         25    2    1    2    0    0  0.14171214528E+02 -0.22693126866E+02  0.13083348477E+03  0.18291832664E+03  0.12500364857E+03 0.  0.
          2    1    1    2  501    0  0.11041968151E+02 -0.52794679410E+02 -0.45378772802E+02  0.70487135391E+02  0.00000000000E+00 0. -1.
          1    1    1    2  502    0 -0.25213182679E+02  0.75487806276E+02  0.42589420439E+04  0.42596856043E+04  0.00000000000E+00 0. -1.
         22    1    3    3    0    0  0.45410981823E+02 -0.16033430424E+02 -0.86153775970E-01  0.48158442497E+02  0.00000000000E+00 0.  1.
         22    1    3    3    0    0 -0.31239767295E+02 -0.66596964421E+01  0.13091963854E+03  0.13475988414E+03  0.00000000000E+00 0.  1.
</event>
<event>
 7    1  0.6176857E-006  0.6573916E+02  0.7818608E-02  0.1437268E+00
          2   -1    0    0  502    0  0.00000000000E+00  0.00000000000E+00  0.25668756330E+04  0.25668756330E+04  0.00000000000E+00 0. -1.
          1   -1    0    0  501    0 -0.00000000000E+00 -0.00000000000E+00 -0.13685093438E+03  0.13685093438E+03  0.00000000000E+00 0. -1.
         25    2    1    2    0    0  0.44361015047E+02 -0.88165171652E+02 -0.14759380817E+01  0.15927478301E+03  0.12500112384E+03 0.  0.
          2    1    1    2  501    0  0.56419491106E+00  0.40385613919E+02 -0.48764922339E+02  0.63319300203E+02  0.00000000000E+00 0. -1.
          1    1    1    2  502    0 -0.44925209958E+02  0.47779557734E+02  0.24802655590E+04  0.24811324841E+04  0.00000000000E+00 0. -1.
         22    1    3    3    0    0  0.85401071734E+02 -0.68358818025E+02  0.15829788325E+02  0.11052987494E+03  0.00000000000E+00 0.  1.
         22    1    3    3    0    0 -0.41040056686E+02 -0.19806353627E+02 -0.17305726407E+02  0.48744908076E+02  0.00000000000E+00 0.  1.
</event>
<event>
 7    1  0.6176857E-006  0.1358394E+03  0.7818608E-02  0.1406383E+00
          2   -1    0    0  502    0  0.00000000000E+00  0.00000000000E+00  0.30306308123E+03  0.30306308123E+03  0.00000000000E+00 0. -1.
          1   -1    0    0  501    0 -0.00000000000E+00 -0.00000000000E+00 -0.10306363008E+04  0.10306363008E+04  0.00000000000E+00 0. -1.
         25    2    1    2    0    0  0.11887964993E+03  0.73105726309E+02 -0.19398123919E+03  0.26968082266E+03  0.12498882577E+03 0.  0.
          2    1    1    2  501    0  0.74881886250E+01 -0.23613178464E+02 -0.78123426273E+03  0.78162691128E+03  0.00000000000E+00 0. -1.
          1    1    1    2  502    0 -0.12636783856E+03 -0.49492547845E+02  0.24764228234E+03  0.28239164810E+03  0.00000000000E+00 0. -1.
         22    1    3    3    0    0  0.30910001886E+02 -0.34606322328E+02 -0.66039828164E+02  0.80711118600E+02  0.00000000000E+00 0.  1.
         22    1    3    3    0    0  0.87969648048E+02  0.10771204864E+03 -0.12794141102E+03  0.18896970406E+03  0.00000000000E+00 0.  1.
</event>
<event>
 7    1  0.6176857E-006  0.8927494E+02  0.7818608E-02  0.1372635E+00
          2   -1    0    0  502    0  0.00000000000E+00  0.00000000000E+00  0.86708536741E+03  0.86708536741E+03  0.00000000000E+00 0. -1.
          1   -1    0    0  501    0 -0.00000000000E+00 -0.00000000000E+00 -0.23355229485E+03  0.23355229485E+03  0.00000000000E+00 0. -1.
         25    2    1    2    0    0  0.61066477577E+02  0.80820408624E+02  0.21898070553E+03  0.27173206926E+03  0.12499885973E+03 0.  0.
          2    1    1    2  501    0 -0.48867809004E+02  0.75401493136E+01 -0.20096503289E+03  0.20695859743E+03  0.00000000000E+00 0. -1.
          1    1    1    2  502    0 -0.12198668573E+02 -0.88360557937E+02  0.61551739991E+03  0.62194699558E+03  0.00000000000E+00 0. -1.
         22    1    3    3    0    0  0.22368578396E+02  0.97777975390E+02  0.20324205438E+03  0.22664557891E+03  0.00000000000E+00 0.  1.
         22    1    3    3    0    0  0.38697899182E+02 -0.16957566766E+02  0.15738651151E+02  0.45086490346E+02  0.00000000000E+00 0.  1.
</event>
<event>
 7    1  0.6176857E-006  0.6822059E+02  0.7818608E-02  0.1456201E+00
          2   -1    0    0  502    0  0.00000000000E+00  0.00000000000E+00  0.17953142609E+03  0.17953142609E+03  0.00000000000E+00 0. -1.
          1   -1    0    0  501    0 -0.00000000000E+00 -0.00000000000E+00 -0.75897944767E+03  0.75897944767E+03  0.00000000000E+00 0. -1.
         25    2    1    2    0    0 -0.96878277246E+02 -0.28750206195E+02 -0.28722905018E+03  0.32915959191E+03  0.12503413422E+03 0.  0.
          2    1    1    2  501    0  0.33204944734E+02  0.64793534683E+01 -0.44293665074E+03  0.44422677423E+03  0.00000000000E+00 0. -1.
          1    1    1    2  502    0  0.63673332512E+02  0.22270852727E+02  0.15071767933E+03  0.16512450762E+03  0.00000000000E+00 0. -1.
         22    1    3    3    0    0 -0.62766577068E+02 -0.74517494314E+02 -0.22226178139E+03  0.24267838722E+03  0.00000000000E+00 0.  1.
         22    1    3    3    0    0 -0.34111700177E+02  0.45767288119E+02 -0.64967268786E+02  0.86481204688E+02  0.00000000000E+00 0.  1.
</event>
<event>
 7    1  0.6176857E-006  0.1616215E+03  0.7818608E-02  0.1228703E+00
          2   -1    0    0  502    0  0.00000000000E+00  0.00000000000E+00  0.11590906349E+04  0.11590906349E+04  0.00000000000E+00 0. -1.
          1   -1    0    0  501    0 -0.00000000000E+00 -0.00000000000E+00 -0.39234425858E+03  0.39234425858E+03  0.00000000000E+00 0. -1.
         25    2    1    2    0    0  0.25548785587E+02  0.47620498942E+02 -0.12729383505E+03  0.18641138897E+03  0.12500013253E+03 0.  0.
          2    1    1    2  501    0  0.77402273695E+02 -0.17221012407E+03 -0.19067342789E+03  0.26833522860E+03  0.00000000000E+00 0. -1.
          1    1    1    2  502    0 -0.10295105928E+03  0.12458962513E+03  0.10847136392E+04  0.10966882759E+04  0.00000000000E+00 0. -1.
         22    1    3    3    0    0  0.75089646943E+02  0.39865395954E+02 -0.68806603304E+02  0.10937117322E+03  0.00000000000E+00 0.  1.
         22    1    3    3    0    0 -0.49540861355E+02  0.77551029878E+01 -0.58487231750E+02  0.77040215758E+02  0.00000000000E+00 0.  1.
</event>
<event>
 7    1  0.6176857E-006  0.1435036E+03  0.7818608E-02  0.1341132E+00
          2   -1    0    0  502    0  0.00000000000E+00  0.00000000000E+00  0.43530007508E+03  0.43530007508E+03  0.00000000000E+00 0. -1.
          1   -1    0    0  501    0 -0.00000000000E+00 -0.00000000000E+00 -0.11722655309E+04  0.11722655309E+04  0.00000000000E+00 0. -1.
         25    2    1    2    0    0 -0.12113490925E+03  0.93371435109E+02  0.87971114813E+02  0.21623029136E+03  0.12499892291E+03 0.  0.
          2    1    1    2  501    0 -0.99963386116E+01 -0.38870501652E+02 -0.10899416102E+04  0.10906803181E+04  0.00000000000E+00 0. -1.
          1    1    1    2  502    0  0.13113124786E+03 -0.54500933456E+02  0.26500503958E+03  0.30065499649E+03  0.00000000000E+00 0. -1.
         22    1    3    3    0    0 -0.13991915282E+03  0.47626868169E+02  0.60935357816E+02  0.15987121607E+03  0.00000000000E+00 0. -1.
         22    1    3    3    0    0  0.18784243568E+02  0.45744566940E+02  0.27035756997E+02  0.56359075288E+02  0.00000000000E+00 0. -1.
</event>
<event>
 7    1  0.6176857E-006  0.1457527E+03  0.7818608E-02  0.1304877E+00
          2   -1    0    0  502    0  0.00000000000E+00  0.00000000000E+00  0.89542908524E+03  0.89542908524E+03  0.00000000000E+00 0. -1.
          1   -1    0    0  501    0 -0.00000000000E+00 -0.00000000000E+00 -0.51897743780E+03  0.51897743780E+03  0.00000000000E+00 0. -1.
         25    2    1    2    0    0 -0.89708164884E+02  0.52150224229E+02  0.26480245508E+02  0.16460406200E+03  0.12500437229E+03 0.  0.
          2    1    1    2  501    0  0.14405411651E+03 -0.47417168702E+02 -0.43616323003E+03  0.46177737017E+03  0.00000000000E+00 0. -1.
          1    1    1    2  502    0 -0.54345951631E+02 -0.47330555273E+01  0.78613463196E+03  0.78802509087E+03  0.00000000000E+00 0. -1.
         22    1    3    3    0    0 -0.51673998218E+02 -0.17141109321E+02  0.57962612054E+02  0.79521595285E+02  0.00000000000E+00 0.  1.
         22    1    3    3    0    0 -0.38034166666E+02  0.69291333550E+02 -0.31482366546E+02  0.85082466716E+02  0.00000000000E+00 0.  1.
</event>
<event>
 7    1  0.6176857E-006  0.5985957E+02  0.7818608E-02  0.1488542E+00
          2   -1    0    0  502    0  0.00000000000E+00  0.00000000000E+00  0.48101199391E+03  0.48101199391E+03  0.00000000000E+00 0. -1.
          1   -1    0    0  501    0 -0.00000000000E+00 -0.00000000000E+00 -0.17809552233E+03  0.17809552233E+03  0.00000000000E+00 0. -1.
         25    2    1    2    0    0 -0.85415777901E+02  0.44364126506E+01  0.58185368723E+02  0.16225616946E+03  0.12500396203E+03 0.  0.
          2    1    1    2  501    0  0.28639605613E+02  0.10795331251E+02 -0.12182538337E+03  0.12561126629E+03  0.00000000000E+00 0. -1.
          1    1    1    2  502    0  0.56776172288E+02 -0.15231743902E+02  0.36655648623E+03  0.37124008049E+03  0.00000000000E+00 0. -1.
         22    1    3    3    0    0 -0.34602125529E+02 -0.51315504531E+02 -0.73546678985E+01  0.62327194998E+02  0.00000000000E+00 0.  1.
         22    1    3    3    0    0 -0.50813652372E+02  0.55751917182E+02  0.65540036621E+02  0.99928974463E+02  0.00000000000E+00 0.  1.
</event>
<event>
 7    1  0.6176857E-006  0.4666078E+02  0.7818608E-02  0.1572571E+00
          2   -1    0    0  502    0  0.00000000000E+00  0.00000000000E+00  0.88093358531E+02  0.88093358531E+02  0.00000000000E+00 0. -1.
          1   -1    0    0  501    0 -0.00000000000E+00 -0.00000000000E+00 -0.19007665410E+03  0.19007665410E+03  0.00000000000E+00 0. -1.
         25    2    1    2    0    0 -0.22045044415E+02 -0.38601007915E+02 -0.13681199363E+03  0.19057426828E+03  0.12500003334E+03 0.  0.
          2    1    1    2  501    0  0.42575034479E+02  0.29259989237E+02  0.75645169394E+01  0.52211133368E+02  0.00000000000E+00 0. -1.
          1    1    1    2  502    0 -0.20529990064E+02  0.93410186782E+01  0.27264181122E+02  0.35384610981E+02  0.00000000000E+00 0. -1.
         22    1    3    3    0    0  0.46082934106E+02 -0.39694383623E+02 -0.87083513902E+02  0.10622061618E+03  0.00000000000E+00 0. -1.
         22    1    3    3    0    0 -0.68127978522E+02  0.10933757077E+01 -0.49728479730E+02  0.84353652109E+02  0.00000000000E+00 0. -1.
</event>
<event>
 7    1  0.6176857E-006  0.1495789E+03  0.7818608E-02  0.1294986E+00
          2   -1    0    0  502    0  0.00000000000E+00  0.00000000000E+00  0.65807732912E+03  0.65807732912E+03  0.00000000000E+00 0. -1.
          1   -1    0    0  501    0 -0.00000000000E+00 -0.00000000000E+00 -0.14288386101E+04  0.14288386101E+04  0.00000000000E+00 0. -1.
         25    2    1    2    0    0  0.28221982040E+02  0.18485561949E+03  0.20905643043E+03  0.30708032570E+03  0.12500261997E+03 0.  0.
          2    1    1    2  501    0  0.16964572882E+02 -0.14812622431E+03 -0.13736520365E+04  0.13817196143E+04  0.00000000000E+00 0. -1.
          1    1    1    2  502    0 -0.45186554922E+02 -0.36729395176E+02  0.39383432510E+03  0.39811599923E+03  0.00000000000E+00 0. -1.
         22    1    3    3    0    0  0.56283226609E+02  0.79145058197E+02  0.38503803044E+02  0.10447145392E+03  0.00000000000E+00 0.  1.
         22    1    3    3    0    0 -0.28061244569E+02  0.10571056129E+03  0.17055262739E+03  0.20260887178E+03  0.00000000000E+00 0.  1.
</event>
<event>
 7    1  0.6176857E-006  0.9452387E+02  0.7818608E-02  0.1476510E+00
          2   -1    0    0  502    0  0.00000000000E+00  0.00000000000E+00  0.77224232280E+02  0.77224232280E+02  0.00000000000E+00 0. -1.
          1   -1    0    0  501    0 -0.00000000000E+00 -0.00000000000E+00 -0.38903137892E+03  0.38903137892E+03  0.00000000000E+00 0. -1.
         25    2    1    2    0    0  0.62448453667E+02  0.59579637870E+02 -0.75339313525E+02  0.16955848270E+03  0.12499809710E+03 0.  0.
          2    1    1    2  501    0 -0.18813348958E+01  0.21011406680E+02 -0.17983078345E+03  0.18106388184E+03  0.00000000000E+00 0. -1.
          1    1    1    2  502    0 -0.60567118771E+02 -0.80591044550E+02 -0.56637049668E+02  0.11563324666E+03  0.00000000000E+00 0. -1.
         22    1    3    3    0    0  0.79248499224E+02 -0.54751641459E+00 -0.71945285007E+02  0.10703620153E+03  0.00000000000E+00 0.  1.
         22    1    3    3    0    0 -0.16800045556E+02  0.60127154285E+02 -0.33940285178E+01  0.62522281169E+02  0.00000000000E+00 0.  1.
</event>
<event>
 7    1  0.6176857E-006  0.4212763E+02  0.7818608E-02  0.1531621E+00
          2   -1    0    0  502    0  0.00000000000E+00  0.00000000000E+00  0.39311538488E+03  0.39311538488E+03  0.00000000000E+00 0. -1.
          1   -1    0    0  501    0 -0.00000000000E+00 -0.00000000000E+00 -0.37228603568E+03  0.37228603568E+03  0.00000000000E+00 0. -1.
         25    2    1    2    0    0 -0.69501255808E+02 -0.18888367078E+02  0.16532674889E+03  0.21941542332E+03  0.12499199624E+03 0.  0.
          2    1    1    2  501    0  0.32115845707E+02  0.48231064144E+01 -0.34247891378E+03  0.34401525589E+03  0.00000000000E+00 0. -1.
          1    1    1    2  502    0  0.37385410101E+02  0.14065260664E+02  0.19798151409E+03  0.20197074136E+03  0.00000000000E+00 0. -1.
         22    1    3    3    0    0 -0.35868094460E+02 -0.19170620218E+02  0.17866310027E+03  0.18323355663E+03  0.00000000000E+00 0. -1.
         22    1    3    3    0    0 -0.33633161348E+02  0.28225314017E+00 -0.13336351377E+02  0.36181866690E+02  0.00000000000E+00 0. -1.
</event>
<event>
 7    1  0.6176857E-006  0.5002958E+02  0.7818608E-02  0.1530113E+00
          2   -1    0    0  502    0  0.00000000000E+00  0.00000000000E+00  0.11988876226E+03  0.11988876226E+03  0.00000000000E+00 0. -1.
          1   -1    0    0  501    0 -0.00000000000E+00 -0.00000000000E+00 -0.83372038978E+03  0.83372038978E+03  0.00000000000E+00 0. -1.
         25    2    1    2    0    0  0.36598904522E+02 -0.49952546108E+02 -0.15737138710E+03  0.21031395810E+03  0.12502588060E+03 0.  0.
          2    1    1    2  501    0 -0.44005093181E+02  0.23344500173E+02 -0.64685748439E+03  0.64877270213E+03  0.00000000000E+00 0. -1.
          1    1    1    2  502    0  0.74061886589E+01  0.26608045935E+02  0.90397243980E+02  0.94522491811E+02  0.00000000000E+00 0. -1.
         22    1    3    3    0    0  0.43987548999E+02  0.26303344771E+02 -0.10695413261E+03  0.11859998691E+03  0.00000000000E+00 0.  1.
         22    1    3    3    0    0 -0.73886444770E+01 -0.76255890879E+02 -0.50417254490E+02  0.91713971190E+02  0.00000000000E+00 0.  1.
</event>
<event>
 7    1  0.6176857E-006  0.5150849E+02  0.7818608E-02  0.1453817E+00
          2   -1    0    0  502    0  0.00000000000E+00  0.00000000000E+00  0.20898705748E+04  0.20898705748E+04  0.00000000000E+00 0. -1.
          1   -1    0    0  501    0 -0.00000000000E+00 -0.00000000000E+00 -0.16456835757E+04  0.16456835757E+04  0.00000000000E+00 0. -1.
         25    2    1    2    0    0  0.74575243020E+02 -0.56490309569E+02  0.84386440597E+03  0.85818677923E+03  0.12499916173E+03 0.  0.
          2    1    1    2  501    0 -0.47542359180E+02  0.19772128691E+02 -0.16376980913E+04  0.16385073241E+04  0.00000000000E+00 0. -1.
          1    1    1    2  502    0 -0.27032883840E+02  0.36718180877E+02  0.12380206843E+04  0.12388600471E+04  0.00000000000E+00 0. -1.
         22    1    3    3    0    0  0.55351503494E+02 -0.88100015050E+02  0.41940033958E+03  0.43211346477E+03  0.00000000000E+00 0.  1.
         22    1    3    3    0    0  0.19223739526E+02  0.31609705481E+02  0.42446406639E+03  0.42607331446E+03  0.00000000000E+00 0.  1.
</event>
<event>
 7    1  0.6176857E-006  0.1669014E+03  0.7818608E-02  0.1352766E+00
          2   -1    0    0  502    0  0.00000000000E+00  0.00000000000E+00  0.69710869850E+03  0.69710869850E+03  0.00000000000E+00 0. -1.
          1   -1    0    0  501    0 -0.00000000000E+00 -0.00000000000E+00 -0.15289644379E+04  0.15289644379E+04  0.00000000000E+00 0. -1.
         25    2    1    2    0    0 -0.14104770551E+03 -0.99120393486E+02 -0.69075716279E+03  0.72283443269E+03  0.12499940602E+03 0.  0.
          2    1    1    2  501    0  0.14981761475E+03  0.69143404037E+02 -0.81352373833E+03  0.83008855000E+03  0.00000000000E+00 0. -1.
          1    1    1    2  502    0 -0.87699092402E+01  0.29976989449E+02  0.67242516177E+03  0.67315015367E+03  0.00000000000E+00 0. -1.
         22    1    3    3    0    0 -0.13875667747E+03 -0.32069700169E+02 -0.52607360093E+03  0.54500946304E+03  0.00000000000E+00 0.  1.
         22    1    3    3    0    0 -0.22910280404E+01 -0.67050693317E+02 -0.16468356186E+03  0.17782496965E+03  0.00000000000E+00 0.  1.
</event>
<event>
 7    1  0.6176857E-006  0.9169073E+02  0.7818608E-02  0.1378931E+00
          2   -1    0    0  502    0  0.00000000000E+00  0.00000000000E+00  0.79141721710E+03  0.79141721710E+03  0.00000000000E+00 0. -1.
          1   -1    0    0  501    0 -0.00000000000E+00 -0.00000000000E+00 -0.53350076994E+03  0.53350076994E+03  0.00000000000E+00 0. -1.
         25    2    1    2    0    0 -0.51055428235E+02 -0.83262139953E+01  0.53881121006E+03  0.55553389104E+03  0.12499760562E+03 0.  0.
          2    1    1    2  501    0  0.90926569302E+02 -0.14045562450E+02 -0.51891732125E+03  0.52701053606E+03  0.00000000000E+00 0. -1.
          1    1    1    2  502    0 -0.39871141067E+02  0.22371776446E+02  0.23802255836E+03  0.24237355994E+03  0.00000000000E+00 0. -1.
         22    1    3    3    0    0 -0.57666409034E+02 -0.33838927444E+02  0.51705134337E+03  0.52135648018E+03  0.00000000000E+00 0.  1.
         22    1    3    3    0    0  0.66109807991E+01  0.25512713448E+02  0.21759866690E+02  0.34177410859E+02  0.00000000000E+00 0.  1.
</event>
<event>
 7    1  0.6176857E-006  0.5970119E+02  0.7818608E-02  0.1467863E+00
          2   -1    0    0  502    0  0.00000000000E+00  0.00000000000E+00  0.13959137315E+04  0.13959137315E+04  0.00000000000E+00 0. -1.
          1   -1    0    0  501    0 -0.00000000000E+00 -0.00000000000E+00 -0.55581967055E+03  0.55581967055E+03  0.00000000000E+00 0. -1.
         25    2    1    2    0    0  0.53661017807E+02  0.70003748048E+02  0.14816142557E+03  0.21297235994E+03  0.12500155399E+03 0.  0.
          2    1    1    2  501    0 -0.21202052061E+02 -0.55560347450E+02 -0.52146422542E+03  0.52484418413E+03  0.00000000000E+00 0. -1.
          1    1    1    2  502    0 -0.32458965746E+02 -0.14443400598E+02  0.12133968608E+04  0.12139168580E+04  0.00000000000E+00 0. -1.
         22    1    3    3    0    0  0.92546481172E+02  0.61225235153E+02  0.92241245494E+02  0.14429770604E+03  0.00000000000E+00 0. -1.
         22    1    3    3    0    0 -0.38885463365E+02  0.87785128946E+01  0.55920180075E+02  0.68674653908E+02  0.00000000000E+00 0. -1.
</event>
<event>
 7    1  0.6176857E-006  0.7876010E+02  0.7818608E-02  0.1337064E+00
          2   -1    0    0  502    0  0.00000000000E+00  0.00000000000E+00  0.48972135845E+04  0.48972135845E+04  0.00000000000E+00 0. -1.
          1   -1    0    0  501    0 -0.00000000000E+00 -0.00000000000E+00 -0.13832338010E+04  0.13832338010E+04  0.00000000000E+00 0. -1.
         25    2    1    2    0    0  0.40048240647E+02  0.56918737016E+02 -0.53473575774E+03  0.55354398646E+03  0.12500004055E+03 0.  0.
          2    1    1    2  501    0  0.36407676689E+02 -0.75830266103E+02 -0.83666756598E+03  0.84088546434E+03  0.00000000000E+00 0. -1.
          1    1    1    2  502    0 -0.76455917336E+02  0.18911529087E+02  0.48853831073E+04  0.48860179347E+04  0.00000000000E+00 0. -1.
         22    1    3    3    0    0 -0.29464877828E+02  0.57740713730E+01 -0.32999260081E+03  0.33135575371E+03  0.00000000000E+00 0. -1.
         22    1    3    3    0    0  0.69513118475E+02  0.51144665643E+02 -0.20474315693E+03  0.22218823275E+03  0.00000000000E+00 0. -1.
</event>
<event>
 7    1  0.6176857E-006  0.1431669E+03  0.7818608E-02  0.1294408E+00
          2   -1    0    0  502    0  0.00000000000E+00  0.00000000000E+00  0.73670878223E+03  0.73670878223E+03  0.00000000000E+00 0. -1.
          1   -1    0    0  501    0 -0.00000000000E+00 -0.00000000000E+00 -0.55616433742E+03  0.55616433742E+03  0.00000000000E+00 0. -1.
         25    2    1    2    0    0 -0.10154090577E+03 -0.33728058142E+01  0.11067132174E+03  0.19543192360E+03  0.12499425564E+03 0.  0.
          2    1    1    2  501    0 -0.48501777391E+02  0.37268771042E+02 -0.50175930367E+03  0.50547381982E+03  0.00000000000E+00 0. -1.
          1    1    1    2  502    0  0.15004268316E+03 -0.33895965227E+02  0.57163242673E+03  0.59196737623E+03  0.00000000000E+00 0. -1.
         22    1    3    3    0    0 -0.63656939258E+02  0.56347601196E+02  0.35228744957E+02  0.92023489107E+02  0.00000000000E+00 0.  1.
         22    1    3    3    0    0 -0.37883966513E+02 -0.59720407010E+02  0.75442576787E+02  0.10340843449E+03  0.00000000000E+00 0.  1.
</event>
<event>
 7    1  0.6176857E-006  0.8951508E+02  0.7818608E-02  0.1371260E+00
          2   -1    0    0  502    0  0.00000000000E+00  0.00000000000E+00  0.16200809738E+04  0.16200809738E+04  0.00000000000E+00 0. -1.
          1   -1    0    0  501    0 -0.00000000000E+00 -0.00000000000E+00 -0.52744860897E+03  0.52744860897E+03  0.00000000000E+00 0. -1.
         25    2    1    2    0    0 -0.69417958065E+02 -0.45579777162E+02 -0.22543705216E+03  0.27081891310E+03  0.12499860087E+03 0.  0.
          2    1    1    2  501    0  0.40477442207E+02  0.86201007221E+02 -0.27080086979E+03  0.28705774341E+03  0.00000000000E+00 0. -1.
          1    1    1    2  502    0  0.28940515858E+02 -0.40621230059E+02  0.15888702868E+04  0.15896529263E+04  0.00000000000E+00 0. -1.
         22    1    3    3    0    0 -0.65976327031E+02 -0.82724326305E+02 -0.19804098084E+03  0.22453601044E+03  0.00000000000E+00 0. -1.
         22    1    3    3    0    0 -0.34416310343E+01  0.37144549143E+02 -0.27396071316E+02  0.46282902662E+02  0.00000000000E+00 0. -1.
</event>
<event>
 7    1  0.6176857E-006  0.6124492E+02  0.7818608E-02  0.1402804E+00
          2   -1    0    0  502    0  0.00000000000E+00  0.00000000000E+00  0.11779396025E+02  0.11779396025E+02  0.00000000000E+00 0. -1.
          1   -1    0    0  501    0 -0.00000000000E+00 -0.00000000000E+00 -0.22946666509E+04  0.22946666509E+04  0.00000000000E+00 0. -1.
         25    2    1    2    0    0 -0.91273724129E+01 -0.95097283293E+02 -0.98929941703E+03  0.10017309495E+04  0.12499902550E+03 0.  0.
          2    1    1    2  501    0  0.35424352554E+02  0.44031362541E+02 -0.11286122558E+04  0.11300262252E+04  0.00000000000E+00 0. -1.
          1    1    1    2  502    0 -0.26296980141E+02  0.51065920751E+02 -0.16497558202E+03  0.17468887225E+03  0.00000000000E+00 0. -1.
         22    1    3    3    0    0 -0.80724904127E+01 -0.75095551746E+02 -0.97294647456E+03  0.97587363390E+03  0.00000000000E+00 0. -1.
         22    1    3    3    0    0 -0.10548820002E+01 -0.20001731547E+02 -0.16352942474E+02  0.25857315569E+02  0.00000000000E+00 0. -1.
</event>
<event>
 7    1  0.6176857E-006  0.1036120E+03  0.7818608E-02  0.1288291E+00
          2   -1    0    0  502    0  0.00000000000E+00  0.00000000000E+00  0.19132557036E+03  0.19132557036E+03  0.00000000000E+00 0. -1.
          1   -1    0    0  501    0 -0.00000000000E+00 -0.00000000000E+00 -0.16611638032E+04  0.16611638032E+04  0.00000000000E+00 0. -1.
         25    2    1    2    0    0  0.15161688115E+03  0.51087153827E+02 -0.10262405280E+03  0.22749555167E+03  0.12499981553E+03 0.  0.
          2    1    1    2  501    0 -0.10021227780E+03  0.22166341539E+02 -0.14785740316E+04  0.14821319152E+04  0.00000000000E+00 0. -1.
          1    1    1    2  502    0 -0.51404603345E+02 -0.73253495366E+02  0.11135985156E+03  0.14286190664E+03  0.00000000000E+00 0. -1.
         22    1    3    3    0    0 -0.16853169932E+02 -0.34501301059E+01 -0.33014257377E+02  0.37227327659E+02  0.00000000000E+00 0.  1.
         22    1    3    3    0    0  0.16847005108E+03  0.54537283933E+02 -0.69609795426E+02  0.19026822401E+03  0.00000000000E+00 0.  1.
</event>
<event>
 7    1  0.6176857E-006  0.1226338E+03  0.7818608E-02  0.1435582E+00
          2   -1    0    0  502    0  0.00000000000E+00  0.00000000000E+00  0.61669810549E+03  0.61669810549E+03  0.00000000000E+00 0. -1.
          1   -1    0    0  501    0 -0.00000000000E+00 -0.00000000000E+00 -0.52298515168E+03  0.52298515168E+03  0.00000000000E+00 0. -1.
         25    2    1    2    0    0 -0.94248591264E+02 -0.48304137485E+02 -0.87890514962E+02  0.18591866571E+03  0.12499968394E+03 0.  0.
          2    1    1    2  501    0 -0.21367694321E+02  0.49214906680E+01 -0.37904444055E+03  0.37967813651E+03  0.00000000000E+00 0. -1.
          1    1    1    2  502    0  0.11561628559E+03  0.43382646817E+02  0.56064790932E+03  0.57408645495E+03  0.00000000000E+00 0. -1.
         22    1    3    3    0    0 -0.64330063799E+02 -0.88026551544E+02 -0.80760806523E+02  0.13568101840E+03  0.00000000000E+00 0. -1.
         22    1    3    3    0    0 -0.29918527466E+02  0.39722414059E+02 -0.71297084395E+01  0.50237647306E+02  0.00000000000E+00 0. -1.
</event>
<event>
 7    1  0.6176857E-006  0.2250223E+03  0.7818608E-02  0.1257121E+00
          2   -1    0    0  502    0  0.00000000000E+00  0.00000000000E+00  0.13177248233E+04  0.13177248233E+04  0.00000000000E+00 0. -1.
          1   -1    0    0  501    0 -0.00000000000E+00 -0.00000000000E+00 -0.62815310126E+03  0.62815310126E+03  0.00000000000E+00 0. -1.
         25    2    1    2    0    0  0.14081433574E+03  0.13508357832E+03 -0.15076041621E+03  0.27645961983E+03  0.12499987206E+03 0.  0.
          2    1    1    2  501    0 -0.15118122158E+03 -0.18973899235E+03 -0.37835927166E+03  0.44945787948E+03  0.00000000000E+00 0. -1.
          1    1    1    2  502    0  0.10366885845E+02  0.54655414025E+02  0.12186914099E+04  0.12199604253E+04  0.00000000000E+00 0. -1.
         22    1    3    3    0    0  0.15532750909E+03  0.13725464733E+03 -0.11329513027E+03  0.23622290286E+03  0.00000000000E+00 0.  1.
         22    1    3    3    0    0 -0.14513173347E+02 -0.21710690042E+01 -0.37465285949E+02  0.40236716969E+02  0.00000000000E+00 0.  1.
</event>
<event>
 7    1  0.6176857E-006  0.1552054E+03  0.7818608E-02  0.1249996E+00
          2   -1    0    0  502    0  0.00000000000E+00  0.00000000000E+00  0.28935357086E+04  0.28935357086E+04  0.00000000000E+00 0. -1.
          1   -1    0    0  501    0 -0.00000000000E+00 -0.00000000000E+00 -0.90081685780E+02  0.90081685780E+02  0.00000000000E+00 0. -1.
         25    2    1    2    0    0  0.75975733176E+02 -0.75812500597E+02  0.41386517746E+03  0.44545443545E+03  0.12500168667E+03 0.  0.
          2    1    1    2  501    0  0.82324664470E+02  0.26768994346E+02 -0.45256990954E+02  0.97683799417E+02  0.00000000000E+00 0. -1.
          1    1    1    2  502    0 -0.15830039765E+03  0.49043506251E+02  0.24348458363E+04  0.24404791595E+04  0.00000000000E+00 0. -1.
         22    1    3    3    0    0  0.10014201130E+03 -0.48149336129E+02  0.20306850662E+03  0.23148131539E+03  0.00000000000E+00 0.  1.
         22    1    3    3    0    0 -0.24166278128E+02 -0.27663164468E+02  0.21079667085E+03  0.21397312006E+03  0.00000000000E+00 0.  1.
</event>
<event>
 7    1  0.6176857E-006  0.1006766E+03  0.7818608E-02  0.1375763E+00
          2   -1    0    0  502    0  0.00000000000E+00  0.00000000000E+00  0.77819785787E+03  0.77819785787E+03  0.00000000000E+00 0. -1.
          1   -1    0    0  501    0 -0.00000000000E+00 -0.00000000000E+00 -0.54529494391E+03  0.54529494391E+03  0.00000000000E+00 0. -1.
         25    2    1    2    0    0  0.38085892949E+02  0.10875364831E+03 -0.78306243754E+02  0.18718404963E+03  0.12501243682E+03 0.  0.
          2    1    1    2  501    0  0.27559610553E+02 -0.32657784782E+02 -0.40793968557E+03  0.41017173245E+03  0.00000000000E+00 0. -1.
          1    1    1    2  502    0 -0.65645503501E+02 -0.76095863531E+02  0.71914884329E+03  0.72613701970E+03  0.00000000000E+00 0. -1.
         22    1    3    3    0    0  0.32269802911E+02  0.97789745216E+02 -0.11148108703E+03  0.15176365577E+03  0.00000000000E+00 0.  1.
         22    1    3    3    0    0  0.58160900375E+01  0.10963903098E+02  0.33174843273E+02  0.35420393852E+02  0.00000000000E+00 0.  1.
</event>
<event>
 7    1  0.6176857E-006  0.4382196E+02  0.7818608E-02  0.1561378E+00
          2   -1    0    0  502    0  0.00000000000E+00  0.00000000000E+00  0.70316392487E+03  0.70316392487E+03  0.00000000000E+00 0. -1.
          1   -1    0    0  501    0 -0.00000000000E+00 -0.00000000000E+00 -0.68641146863E+03  0.68641146863E+03  0.00000000000E+00 0. -1.
         25    2    1    2    0    0 -0.40495095667E+02 -0.45571966463E+02  0.53214200103E+03  0.55001573014E+03  0.12500214894E+03 0.  0.
          2    1    1    2  501    0  0.15118411316E+02  0.41113413027E+02 -0.67573699812E+03  0.67715535124E+03  0.00000000000E+00 0. -1.
          1    1    1    2  502    0  0.25376684351E+02  0.44585534361E+01  0.16034745333E+03  0.16240431212E+03  0.00000000000E+00 0. -1.
         22    1    3    3    0    0 -0.40103008493E+02  0.14473524424E+02  0.42549912418E+03  0.42762979185E+03  0.00000000000E+00 0.  1.
         22    1    3    3    0    0 -0.39208717436E+00 -0.60045490887E+02  0.10664287685E+03  0.12238593829E+03  0.00000000000E+00 0.  1.
</event>
<event>
 7    1  0.6176857E-006  0.5623129E+02  0.7818608E-02  0.1461743E+00
          2   -1    0    0  502    0  0.00000000000E+00  0.00000000000E+00  0.57804171149E+03  0.57804171149E+03  0.00000000000E+00 0. -1.
          1   -1    0    0  501    0 -0.00000000000E+00 -0.00000000000E+00 -0.91012547640E+03  0.91012547640E+03  0.00000000000E+00 0. -1.
         25    2    1    2    0    0 -0.46742955275E+02 -0.82596629605E+02 -0.33531643506E+01  0.15698080661E+03  0.12499849136E+03 0.  0.
          2    1    1    2  501    0  0.30526217548E+02  0.46663796096E+02 -0.82824438821E+03  0.83011934469E+03  0.00000000000E+00 0. -1.
          1    1    1    2  502    0  0.16216737726E+02  0.35932833509E+02  0.49951378765E+03  0.50106703659E+03  0.00000000000E+00 0. -1.
         22    1    3    3    0    0 -0.84370330756E+02 -0.27713799251E+02 -0.12966861318E+02  0.89747127382E+02  0.00000000000E+00 0.  1.
         22    1    3    3    0    0  0.37627375482E+02 -0.54882830354E+02  0.96136969678E+01  0.67233679229E+02  0.00000000000E+00 0.  1.
</event>
<event>
 7    1  0.6176857E-006  0.1448424E+03  0.7818608E-02  0.1285113E+00
          2   -1    0    0  502    0  0.00000000000E+00  0.00000000000E+00  0.33863371087E+04  0.33863371087E+04  0.00000000000E+00 0. -1.
          1   -1    0    0  501    0 -0.00000000000E+00 -0.00000000000E+00 -0.50009705980E+03  0.50009705980E+03  0.00000000000E+00 0. -1.
         25    2    1    2    0    0  0.63849571143E+02  0.53266550320E+02 -0.47085850029E+01  0.15020545678E+03  0.12500166141E+03 0.  0.
          2    1    1    2  501    0  0.30094700963E+02  0.58695180272E+02 -0.41844371072E+03  0.42361061631E+03  0.00000000000E+00 0. -1.
          1    1    1    2  502    0 -0.93944272106E+02 -0.11196173059E+03  0.33093923447E+04  0.33126180954E+04  0.00000000000E+00 0. -1.
         22    1    3    3    0    0  0.15883666164E+02  0.83344400200E+02  0.21933783656E+02  0.87633730727E+02  0.00000000000E+00 0. -1.
         22    1    3    3    0    0  0.47965904979E+02 -0.30077849881E+02 -0.26642368659E+02  0.62571726056E+02  0.00000000000E+00 0. -1.
</event>
<event>
 7    1  0.6176857E-006  0.4305700E+02  0.7818608E-02  0.1525695E+00
          2   -1    0    0  502    0  0.00000000000E+00  0.00000000000E+00  0.17454395058E+04  0.17454395058E+04  0.00000000000E+00 0. -1.
          1   -1    0    0  501    0 -0.00000000000E+00 -0.00000000000E+00 -0.40340774078E+03  0.40340774078E+03  0.00000000000E+00 0. -1.
         25    2    1    2    0    0  0.84599803796E+01 -0.15276449629E+02  0.99428439245E+03  0.10022588575E+04  0.12496568785E+03 0.  0.
          2    1    1    2  501    0 -0.41353079324E+02  0.12120391017E+02 -0.39789122387E+03  0.40021794947E+03  0.00000000000E+00 0. -1.
          1    1    1    2  502    0  0.32893098944E+02  0.31560586121E+01  0.74563859645E+03  0.74637043965E+03  0.00000000000E+00 0. -1.
         22    1    3    3    0    0  0.49279314747E+01 -0.62358892590E+02  0.30440581645E+03  0.31076649930E+03  0.00000000000E+00 0.  1.
         22    1    3    3    0    0  0.35320489049E+01  0.47082442962E+02  0.68987857599E+03  0.69149235818E+03  0.00000000000E+00 0.  1.
</event>
<event>
 7    1  0.6176857E-006  0.4345546E+02  0.7818608E-02  0.1587702E+00
          2   -1    0    0  502    0  0.00000000000E+00  0.00000000000E+00  0.70444379921E+03  0.70444379921E+03  0.00000000000E+00 0. -1.
          1   -1    0    0  501    0 -0.00000000000E+00 -0.00000000000E+00 -0.17294501553E+03  0.17294501553E+03  0.00000000000E+00 0. -1.
         25    2    1    2    0    0 -0.31372906577E+02  0.53346451309E+02  0.92696571464E+01  0.13978970041E+03  0.12500052264E+03 0.  0.
          2    1    1    2  501    0  0.28541155508E+02 -0.31469944674E+02 -0.10329263884E+03  0.11168851424E+03  0.00000000000E+00 0. -1.
          1    1    1    2  502    0  0.28317510698E+01 -0.21876506636E+02  0.62552176537E+03  0.62591060010E+03  0.00000000000E+00 0. -1.
         22    1    3    3    0    0  0.20008896072E+02  0.68669120395E+02 -0.25443729780E+02  0.75915659800E+02  0.00000000000E+00 0.  1.
         22    1    3    3    0    0 -0.51381802649E+02 -0.15322669086E+02  0.34713386926E+02  0.63874040605E+02  0.00000000000E+00 0.  1.
</event>
<event>
 7    1  0.6176857E-006  0.8783851E+02  0.7818608E-02  0.1376593E+00
          2   -1    0    0  502    0  0.00000000000E+00  0.00000000000E+00  0.26353635428E+03  0.26353635428E+03  0.00000000000E+00 0. -1.
          1   -1    0    0  501    0 -0.00000000000E+00 -0.00000000000E+00 -0.89239348089E+03  0.89239348089E+03  0.00000000000E+00 0. -1.
         25    2    1    2    0    0  0.12188531707E+03  0.22019084301E+02 -0.96828550687E+02  0.20085114427E+03  0.12499817333E+03 0.  0.
          2    1    1    2  501    0 -0.45432847053E+02  0.17385871494E+02 -0.73397175260E+03  0.73558204555E+03  0.00000000000E+00 0. -1.
          1    1    1    2  502    0 -0.76452470013E+02 -0.39404955796E+02  0.20194317668E+03  0.21949664535E+03  0.00000000000E+00 0. -1.
         22    1    3    3    0    0 -0.43734875090E+00  0.34475223141E+02  0.12145471793E+02  0.36554681911E+02  0.00000000000E+00 0. -1.
         22    1    3    3    0    0  0.12232266582E+03 -0.12456138840E+02 -0.10897402248E+03  0.16429646236E+03  0.00000000000E+00 0. -1.
</event>
<event>
 7    1  0.6176857E-006  0.6990548E+02  0.7818608E-02  0.1517478E+00
          2   -1    0    0  502    0  0.00000000000E+00  0.00000000000E+00  0.19384351449E+04  0.19384351449E+04  0.00000000000E+00 0. -1.
          1   -1    0    0  501    0 -0.00000000000E+00 -0.00000000000E+00 -0.23450805802E+02  0.23450805802E+02  0.00000000000E+00 0. -1.
         25    2    1    2    0    0 -0.42361511668E+02 -0.48252995126E+02  0.31996352994E+03  0.34946305792E+03  0.12499967662E+03 0.  0.
          2    1    1    2  501    0  0.14138950067E+02 -0.16196828960E+02  0.66646843352E+01  0.22509224657E+02  0.00000000000E+00 0. -1.
          1    1    1    2  502    0  0.28222561600E+02  0.64449824086E+02  0.15883561249E+04  0.15899136682E+04  0.00000000000E+00 0. -1.
         22    1    3    3    0    0 -0.24748876454E+02 -0.78746704037E+02  0.29491381518E+03  0.30624778966E+03  0.00000000000E+00 0. -1.
         22    1    3    3    0    0 -0.17612635214E+02  0.30493708911E+02  0.25049714752E+02  0.43215268268E+02  0.00000000000E+00 0. -1.
</event>
<event>
 7    1  0.6176857E-006  0.3624746E+02  0.7818608E-02  0.1562042E+00
          2   -1    0    0  502    0  0.00000000000E+00  0.00000000000E+00  0.59694419035E+03  0.59694419035E+03  0.00000000000E+00 0. -1.
          1   -1    0    0  501    0 -0.00000000000E+00 -0.00000000000E+00 -0.71826122198E+02  0.71826122198E+02  0.00000000000E+00 0. -1.
         25    2    1    2    0    0 -0.17119609879E+02  0.31848542778E+01  0.22031872907E+03  0.25388903177E+03  0.12496428983E+03 0.  0.
          2    1    1    2  501    0  0.14295516176E+02 -0.34075061512E+02 -0.48080929454E+02  0.60640311484E+02  0.00000000000E+00 0. -1.
          1    1    1    2  502    0  0.28240937035E+01  0.30890207234E+02  0.35288026854E+03  0.35424096930E+03  0.00000000000E+00 0. -1.
         22    1    3    3    0    0 -0.68981211203E+02 -0.13674027543E+02  0.14194023178E+03  0.15840585824E+03  0.00000000000E+00 0. -1.
         22    1    3    3    0    0  0.51861601323E+02  0.16858881821E+02  0.78378497296E+02  0.95483173525E+02  0.00000000000E+00 0. -1.
</event>
<event>
 7    1  0.6176857E-006  0.1511081E+03  0.7818608E-02  0.1293370E+00
          2   -1    0    0  502    0  0.00000000000E+00  0.00000000000E+00  0.20850950218E+03  0.20850950218E+03  0.00000000000E+00 0. -1.
          1   -1    0    0  501    0 -0.00000000000E+00 -0.00000000000E+00 -0.12805395287E+04  0.12805395287E+04  0.00000000000E+00 0. -1.
         25    2    1    2    0    0  0.17352375462E+02  0.19034482138E+03 -0.45289067217E+03  0.50721552802E+03  0.12500149985E+03 0.  0.
          2    1    1    2  501    0 -0.40353889301E+02 -0.13653990840E+03 -0.78922435608E+03  0.80196425556E+03  0.00000000000E+00 0. -1.
          1    1    1    2  502    0  0.23001513839E+02 -0.53804912989E+02  0.17008500174E+03  0.17986924728E+03  0.00000000000E+00 0. -1.
         22    1    3    3    0    0  0.59431400323E+02  0.11210838504E+03 -0.17998792365E+03  0.22021815093E+03  0.00000000000E+00 0.  1.
         22    1    3    3    0    0 -0.42079024861E+02  0.78236436344E+02 -0.27290274853E+03  0.28699737709E+03  0.00000000000E+00 0.  1.
</event>
<event>
 7    1  0.6176857E-006  0.8123664E+02  0.7818608E-02  0.1375995E+00
          2   -1    0    0  502    0  0.00000000000E+00  0.00000000000E+00  0.23169861898E+04  0.23169861898E+04  0.00000000000E+00 0. -1.
          1   -1    0    0  501    0 -0.00000000000E+00 -0.00000000000E+00 -0.10798029060E+04  0.10798029060E+04  0.00000000000E+00 0. -1.
         25    2    1    2    0    0  0.81349271684E+02  0.51846974130E+02  0.46311543967E+03  0.48929196122E+03  0.12499960050E+03 0.  0.
          2    1    1    2  501    0 -0.33386204728E+02 -0.74060837370E+02 -0.10647876065E+04  0.10678821533E+04  0.00000000000E+00 0. -1.
          1    1    1    2  502    0 -0.47963066956E+02  0.22213863240E+02  0.18388554506E+04  0.18396149814E+04  0.00000000000E+00 0. -1.
         22    1    3    3    0    0  0.10489991099E+02 -0.26247355186E+02  0.22199065758E+02  0.35941091915E+02  0.00000000000E+00 0.  1.
         22    1    3    3    0    0  0.70859280585E+02  0.78094329316E+02  0.44091637391E+03  0.45335086930E+03  0.00000000000E+00 0.  1.
</event>
<event>
 7    1  0.6176857E-006  0.5558604E+02  0.7818608E-02  0.1450305E+00
          2   -1    0    0  502    0  0.00000000000E+00  0.00000000000E+00  0.53616317118E+03  0.53616317118E+03  0.00000000000E+00 0. -1.
          1   -1    0    0  501    0 -0.00000000000E+00 -0.00000000000E+00 -0.14652323073E+03  0.14652323073E+03  0.00000000000E+00 0. -1.
         25    2    1    2    0    0 -0.27989871445E+02  0.46803903653E+02  0.12168469853E+03  0.18277633277E+03  0.12500393459E+03 0.  0.
          2    1    1    2  501    0  0.42606566398E+02  0.80244792899E+01 -0.10973072433E+03  0.11798535346E+03  0.00000000000E+00 0. -1.
          1    1    1    2  502    0 -0.14616694953E+02 -0.54828382943E+02  0.37768596625E+03  0.38192471568E+03  0.00000000000E+00 0. -1.
         22    1    3    3    0    0 -0.62339647758E+02  0.24062973483E+02  0.15099837485E+02  0.68507397174E+02  0.00000000000E+00 0.  1.
         22    1    3    3    0    0  0.34349776313E+02  0.22740930169E+02  0.10658486105E+03  0.11426893560E+03  0.00000000000E+00 0.  1.
</event>
<event>
 7    1  0.6176857E-006  0.4182978E+02  0.7818608E-02  0.1517727E+00
          2   -1    0    0  502    0  0.00000000000E+00  0.00000000000E+00  0.18969912870E+04  0.18969912870E+04  0.00000000000E+00 0. -1.
          1   -1    0    0  501    0 -0.00000000000E+00 -0.00000000000E+00 -0.27674898805E+03  0.27674898805E+03  0.00000000000E+00 0. -1.
         25    2    1    2    0    0  0.84973831569E+01  0.33354096979E+02  0.12444082436E+03  0.17970199347E+03  0.12499034516E+03 0.  0.
          2    1    1    2  501    0  0.27347025892E+02 -0.31989937715E+02 -0.24715506675E+03  0.25071267012E+03  0.00000000000E+00 0. -1.
          1    1    1    2  502    0 -0.35844409049E+02 -0.13641592635E+01  0.17429565413E+04  0.17433256115E+04  0.00000000000E+00 0. -1.
         22    1    3    3    0    0  0.82027144199E+01  0.64594787351E+02  0.16277825232E+02  0.67117350000E+02  0.00000000000E+00 0.  1.
         22    1    3    3    0    0  0.29466873695E+00 -0.31240690372E+02  0.10816299913E+03  0.11258464347E+03  0.00000000000E+00 0.  1.
</event>
<event>
 7    1  0.9759564E-006  0.7428250E+02  0.7818608E-02  0.1383753E+00
          2   -1    0    0  502    0  0.00000000000E+00  0.00000000000E+00  0.25343894933E+04  0.25343894933E+04  0.00000000000E+00 0. -1.
          1   -1    0    0  501    0 -0.00000000000E+00 -0.00000000000E+00 -0.90447436285E+03  0.90447436285E+03  0.00000000000E+00 0. -1.
         25    2    1    2    0    0  0.17815536360E+00  0.22518852937E+02 -0.71109758497E+02  0.14554360935E+03  0.12497685382E+03 0.  0.
          2    1    1    2  501    0 -0.27109744102E+02  0.47003685512E+02 -0.79466578597E+03  0.79651616184E+03  0.00000000000E+00 0. -1.
          1    1    1    2  502    0  0.26931588739E+02 -0.69522538449E+02  0.24956906749E+04  0.24968040850E+04  0.00000000000E+00 0. -1.
         22    1    3    3    0    0 -0.34942559422E+02  0.32185397132E+02 -0.92007318845E+02  0.10354819636E+03  0.00000000000E+00 0. -1.
         22    1    3    3    0    0  0.35120714786E+02 -0.96665441946E+01  0.20897560348E+02  0.41995412990E+02  0.00000000000E+00 0. -1.
</event>
<event>
 7    1  0.6176857E-006  0.6880185E+02  0.7818608E-02  0.1440508E+00
          2   -1    0    0  502    0  0.00000000000E+00  0.00000000000E+00  0.16727492709E+04  0.16727492709E+04  0.00000000000E+00 0. -1.
          1   -1    0    0  501    0 -0.00000000000E+00 -0.00000000000E+00 -0.10635601534E+03  0.10635601534E+03  0.00000000000E+00 0. -1.
         25    2    1    2    0    0 -0.49374532500E+02 -0.32261809515E+02  0.18080750199E+03  0.22758275054E+03  0.12499554695E+03 0.  0.
          2    1    1    2  501    0 -0.20095161934E+02  0.31858980454E+02 -0.77826339680E+02  0.86462415631E+02  0.00000000000E+00 0. -1.
          1    1    1    2  502    0  0.69469694434E+02  0.40282906019E+00  0.14634120932E+04  0.14650601200E+04  0.00000000000E+00 0. -1.
         22    1    3    3    0    0 -0.10094800425E+02 -0.12449557946E+01 -0.19027541062E+02  0.21575500676E+02  0.00000000000E+00 0. -1.
         22    1    3    3    0    0 -0.39279732075E+02 -0.31016853720E+02  0.19983504305E+03  0.20600724987E+03  0.00000000000E+00 0. -1.
</event>
<event>
 7    1  0.6176857E-006  0.6868573E+02  0.7818608E-02  0.1430074E+00
          2   -1    0    0  502    0  0.00000000000E+00  0.00000000000E+00  0.27906548216E+03  0.27906548216E+03  0.00000000000E+00 0. -1.
          1   -1    0    0  501    0 -0.00000000000E+00 -0.00000000000E+00 -0.22669811483E+03  0.22669811483E+03  0.00000000000E+00 0. -1.
         25    2    1    2    0    0 -0.90186828553E+02  0.57214167467E+02 -0.66738984164E+02  0.17744312897E+03  0.12499938803E+03 0.  0.
          2    1    1    2  501    0  0.37896477185E+02 -0.15147818643E+02 -0.95292175207E+02  0.10366387051E+03  0.00000000000E+00 0. -1.
          1    1    1    2  502    0  0.52290351369E+02 -0.42066348824E+02  0.21439852671E+03  0.22465659751E+03  0.00000000000E+00 0. -1.
         22    1    3    3    0    0 -0.10280035169E+02  0.80002651692E+02 -0.40823515908E+02  0.90402781218E+02  0.00000000000E+00 0. -1.
         22    1    3    3    0    0 -0.79906793384E+02 -0.22788484224E+02 -0.25915468256E+02  0.87040347754E+02  0.00000000000E+00 0. -1.
</event>
<event>
 7    1  0.6176857E-006  0.7922480E+02  0.7818608E-02  0.1378571E+00
          2   -1    0    0  502    0  0.00000000000E+00  0.00000000000E+00  0.16289129429E+04  0.16289129429E+04  0.00000000000E+00 0. -1.
          1   -1    0    0  501    0 -0.00000000000E+00 -0.00000000000E+00 -0.16998520662E+03  0.16998520662E+03  0.00000000000E+00 0. -1.
         25    2    1    2    0    0  0.12935923590E+03  0.92296783397E+01  0.88585516849E+02  0.20073433691E+03  0.12501152485E+03 0.  0.
          2    1    1    2  501    0 -0.51192279451E+02 -0.13986125252E+02 -0.10663582661E+03  0.11911112749E+03  0.00000000000E+00 0. -1.
          1    1    1    2  502    0 -0.78166956446E+02  0.47564469127E+01  0.14769780461E+04  0.14790526851E+04  0.00000000000E+00 0. -1.
         22    1    3    3    0    0  0.14416312233E+03  0.11124174691E+02  0.10489038958E+03  0.17863019601E+03  0.00000000000E+00 0. -1.
         22    1    3    3    0    0 -0.14803886432E+02 -0.18944963518E+01 -0.16304872731E+02  0.22104140894E+02  0.00000000000E+00 0. -1.
</event>
<event>
 7    1  0.6176857E-006  0.7452203E+02  0.7818608E-02  0.1392039E+00
          2   -1    0    0  502    0  0.00000000000E+00  0.00000000000E+00  0.62189829877E+03  0.62189829877E+03  0.00000000000E+00 0. -1.
          1   -1    0    0  501    0 -0.00000000000E+00 -0.00000000000E+00 -0.17653819299E+04  0.17653819299E+04  0.00000000000E+00 0. -1.
         25    2    1    2    0    0  0.72618677608E+02  0.10124868415E+02  0.86727917380E+02  0.16888653568E+03  0.12499977993E+03 0.  0.
          2    1    1    2  501    0 -0.63268535255E+02  0.39595891889E+02 -0.17221971153E+04  0.17238136924E+04  0.00000000000E+00 0. -1.
          1    1    1    2  502    0 -0.93501423529E+01 -0.49720760304E+02  0.49198556673E+03  0.49458000064E+03  0.00000000000E+00 0. -1.
         22    1    3    3    0    0 -0.31235491460E+02 -0.19428926370E+02  0.25479590448E+02  0.44747610395E+02  0.00000000000E+00 0. -1.
         22    1    3    3    0    0  0.10385416907E+03  0.29553794786E+02  0.61248326932E+02  0.12413892529E+03  0.00000000000E+00 0. -1.
</event>
<event>
 7    1  0.6176857E-006  0.8112376E+02  0.7818608E-02  0.1390467E+00
          2   -1    0    0  502    0  0.00000000000E+00  0.00000000000E+00  0.30848269001E+03  0.30848269001E+03  0.00000000000E+00 0. -1.
          1   -1    0    0  501    0 -0.00000000000E+00 -0.00000000000E+00 -0.72667946191E+03  0.72667946191E+03  0.00000000000E+00 0. -1.
         25    2    1    2    0    0 -0.11063985608E+03  0.34933722368E+02  0.22680098019E+02  0.17204706588E+03  0.12499705324E+03 0.  0.
          2    1    1    2  501    0  0.65162782920E+02 -0.47056155849E+02 -0.64685432401E+03  0.65182895499E+03  0.00000000000E+00 0. -1.
          1    1    1    2  502    0  0.45477073164E+02  0.12122433480E+02  0.20597745409E+03  0.21128613104E+03  0.00000000000E+00 0. -1.
         22    1    3    3    0    0 -0.34849676451E+01 -0.29179361698E+02  0.35996382276E+02  0.46468480560E+02  0.00000000000E+00 0. -1.
         22    1    3    3    0    0 -0.10715488844E+03  0.64113084066E+02 -0.13316284257E+02  0.12557858532E+03  0.00000000000E+00 0. -1.
</event>
<event>
 7    1  0.6176857E-006  0.1141115E+03  0.7818608E-02  0.1279429E+00
          2   -1    0    0  502    0  0.00000000000E+00  0.00000000000E+00  0.76348220428E+02  0.76348220428E+02  0.00000000000E+00 0. -1.
          1   -1    0    0  501    0 -0.00000000000E+00 -0.00000000000E+00 -0.35803799744E+04  0.35803799744E+04  0.00000000000E+00 0. -1.
         25    2    1    2    0    0  0.45484917381E+02  0.24694642919E+02 -0.35272060125E+03  0.37777691506E+03  0.12499948765E+03 0.  0.
          2    1    1    2  501    0 -0.43027947068E+02 -0.11302029872E+03 -0.31828386391E+04  0.31851352867E+04  0.00000000000E+00 0. -1.
          1    1    1    2  502    0 -0.24569703123E+01  0.88325655799E+02  0.31527486289E+02  0.93815993131E+02  0.00000000000E+00 0. -1.
         22    1    3    3    0    0  0.14153726201E+01 -0.39148463739E+02 -0.22467589165E+03  0.22806547696E+03  0.00000000000E+00 0. -1.
         22    1    3    3    0    0  0.44069544761E+02  0.63843106658E+02 -0.12804470960E+03  0.14971143810E+03  0.00000000000E+00 0. -1.
</event>
<event>
 7    1  0.8062580E-006  0.1727252E+03  0.7818608E-02  0.1264228E+00
          2   -1    0    0  502    0  0.00000000000E+00  0.00000000000E+00  0.12129143035E+04  0.12129143035E+04  0.00000000000E+00 0. -1.
          1   -1    0    0  501    0 -0.00000000000E+00 -0.00000000000E+00 -0.15271708492E+04  0.15271708492E+04  0.00000000000E+00 0. -1.
         25    2    1    2    0    0 -0.11214017567E+03 -0.40869385294E+01 -0.21022424463E+03  0.26910378911E+03  0.12502197494E+03 0.  0.
          2    1    1    2  501    0 -0.57827132200E+02 -0.34990589751E+02 -0.12801853530E+04  0.12819683525E+04  0.00000000000E+00 0. -1.
          1    1    1    2  502    0  0.16996730787E+03  0.39077528280E+02  0.11761530520E+04  0.11890130111E+04  0.00000000000E+00 0. -1.
         22    1    3    3    0    0 -0.33823220577E+02 -0.33261662452E+02 -0.16973203548E+03  0.17623652376E+03  0.00000000000E+00 0.  1.
         22    1    3    3    0    0 -0.78316955095E+02  0.29174723923E+02 -0.40492209145E+02  0.92867265346E+02  0.00000000000E+00 0.  1.
</event>
<event>
 7    1  0.6176857E-006  0.1145019E+03  0.7818608E-02  0.1353025E+00
          2   -1    0    0  502    0  0.00000000000E+00  0.00000000000E+00  0.13633256286E+04  0.13633256286E+04  0.00000000000E+00 0. -1.
          1   -1    0    0  501    0 -0.00000000000E+00 -0.00000000000E+00 -0.16949025729E+04  0.16949025729E+04  0.00000000000E+00 0. -1.
         25    2    1    2    0    0 -0.14863746683E+03  0.57743514160E+02  0.23690777138E+03  0.31173078281E+03  0.12499351520E+03 0.  0.
          2    1    1    2  501    0  0.10751080246E+03 -0.38451155862E+02 -0.16550495275E+04  0.16589834244E+04  0.00000000000E+00 0. -1.
          1    1    1    2  502    0  0.41126664370E+02 -0.19292358298E+02  0.10865648118E+04  0.10875139943E+04  0.00000000000E+00 0. -1.
         22    1    3    3    0    0 -0.16348952332E+03  0.49402825916E+02  0.23985037477E+03  0.29444467345E+03  0.00000000000E+00 0. -1.
         22    1    3    3    0    0  0.14852056487E+02  0.83406882437E+01 -0.29426033952E+01  0.17286109366E+02  0.00000000000E+00 0. -1.
</event>
<event>
 7    1  0.6176857E-006  0.9051431E+02  0.7818608E-02  0.1313297E+00
          2   -1    0    0  502    0  0.00000000000E+00  0.00000000000E+00  0.10240177063E+04  0.10240177063E+04  0.00000000000E+00 0. -1.
          1   -1    0    0  501    0 -0.00000000000E+00 -0.00000000000E+00 -0.61460156863E+03  0.61460156863E+03  0.00000000000E+00 0. -1.
         25    2    1    2    0    0 -0.44572776299E+02  0.55188773340E+02  0.43916240523E+03  0.46208333144E+03  0.12499941572E+03 0.  0.
          2    1    1    2  501    0 -0.63231864093E+02 -0.51217600204E+02 -0.59527450379E+03  0.60081049098E+03  0.00000000000E+00 0. -1.
          1    1    1    2  502    0  0.10780464039E+03 -0.39711731356E+01  0.56552823621E+03  0.57572545250E+03  0.00000000000E+00 0. -1.
         22    1    3    3    0    0  0.41928176001E+02  0.10614901467E+02  0.18349417910E+03  0.18852257647E+03  0.00000000000E+00 0.  1.
         22    1    3    3    0    0 -0.86500952300E+02  0.44573871873E+02  0.25566822614E+03  0.27356075497E+03  0.00000000000E+00 0.  1.
</event>
<event>
 7    1  0.6176857E-006  0.1368171E+03  0.7818608E-02  0.1277164E+00
          2   -1    0    0  502    0  0.00000000000E+00  0.00000000000E+00  0.55268428009E+03  0.55268428009E+03  0.00000000000E+00 0. -1.
          1   -1    0    0  501    0 -0.00000000000E+00 -0.00000000000E+00 -0.98832447624E+03  0.98832447624E+03  0.00000000000E+00 0. -1.
         25    2    1    2    0    0  0.64632518319E+02  0.11647470485E+02 -0.47875288206E+03  0.49914105210E+03  0.12499776728E+03 0.  0.
          2    1    1    2  501    0  0.73400920140E+02 -0.16829801610E+02 -0.48764742360E+03  0.49342775261E+03  0.00000000000E+00 0. -1.
          1    1    1    2  502    0 -0.13803343846E+03  0.51823311255E+01  0.53076010951E+03  0.54843995162E+03  0.00000000000E+00 0. -1.
         22    1    3    3    0    0  0.48653798810E+01  0.32502941430E+02 -0.38267983081E+03  0.38408848724E+03  0.00000000000E+00 0.  1.
         22    1    3    3    0    0  0.59767138438E+02 -0.20855470945E+02 -0.96073051251E+02  0.11505256486E+03  0.00000000000E+00 0.  1.
</event>
<event>
 7    1  0.6176857E-006  0.1225616E+03  0.7818608E-02  0.1373357E+00
          2   -1    0    0  502    0  0.00000000000E+00  0.00000000000E+00  0.38988138126E+03  0.38988138126E+03  0.00000000000E+00 0. -1.
          1   -1    0    0  501    0 -0.00000000000E+00 -0.00000000000E+00 -0.67908608227E+03  0.67908608227E+03  0.00000000000E+00 0. -1.
         25    2    1    2    0    0  0.41143917516E+02  0.80646515765E+02  0.10253118655E+02  0.15468093815E+03  0.12499753490E+03 0.  0.
          2    1    1    2  501    0 -0.66414582402E+02 -0.10600923111E+03 -0.59934948849E+03  0.61226519025E+03  0.00000000000E+00 0. -1.
          1    1    1    2  502    0  0.25270664885E+02  0.25362715346E+02  0.29989166884E+03  0.30202133513E+03  0.00000000000E+00 0. -1.
         22    1    3    3    0    0 -0.13370230924E+02 -0.93176863005E+00 -0.41599812505E+02  0.43705556491E+02  0.00000000000E+00 0.  1.
         22    1    3    3    0    0  0.54514148440E+02  0.81578284395E+02  0.51852931159E+02  0.11097538166E+03  0.00000000000E+00 0.  1.
</event>
<event>
 7    1  0.6176857E-006  0.5245185E+02  0.7818608E-02  0.1437794E+00
          2   -1    0    0  502    0  0.00000000000E+00  0.00000000000E+00  0.33964709664E+03  0.33964709664E+03  0.00000000000E+00 0. -1.
          1   -1    0    0  501    0 -0.00000000000E+00 -0.00000000000E+00 -0.28708395557E+03  0.28708395557E+03  0.00000000000E+00 0. -1.
         25    2    1    2    0    0 -0.92963357762E+02  0.40173561560E+02 -0.21960576750E+02  0.16236800882E+03  0.12500000969E+03 0.  0.
          2    1    1    2  501    0  0.44578357861E+02 -0.23561574630E+02 -0.18915886345E+03  0.19576376940E+03  0.00000000000E+00 0. -1.
          1    1    1    2  502    0  0.48384999901E+02 -0.16611986931E+02  0.26368258127E+03  0.26859927399E+03  0.00000000000E+00 0. -1.
         22    1    3    3    0    0 -0.36911232393E+02  0.63826993215E+02 -0.56061632819E+02  0.92624137319E+02  0.00000000000E+00 0. -1.
         22    1    3    3    0    0 -0.56052125369E+02 -0.23653431655E+02  0.34101056069E+02  0.69743871505E+02  0.00000000000E+00 0. -1.
</event>
<event>
 7    1  0.6176857E-006  0.1759799E+03  0.7818608E-02  0.1295069E+00
          2   -1    0    0  502    0  0.00000000000E+00  0.00000000000E+00  0.37739362149E+03  0.37739362149E+03  0.00000000000E+00 0. -1.
          1   -1    0    0  501    0 -0.00000000000E+00 -0.00000000000E+00 -0.45898451885E+03  0.45898451885E+03  0.00000000000E+00 0. -1.
         25    2    1    2    0    0 -0.11067720553E+03  0.18035743264E+03  0.88265584189E+02  0.26114019704E+03  0.12500056729E+03 0.  0.
          2    1    1    2  501    0  0.11178821108E+03 -0.13091276182E+03 -0.34913184819E+03  0.38926572256E+03  0.00000000000E+00 0. -1.
          1    1    1    2  502    0 -0.11110055530E+01 -0.49444670827E+02  0.17927536664E+03  0.18597222075E+03  0.00000000000E+00 0. -1.
         22    1    3    3    0    0 -0.78090268969E+02  0.17321740626E+03  0.11166745919E+03  0.22039052017E+03  0.00000000000E+00 0.  1.
         22    1    3    3    0    0 -0.32586936560E+02  0.71400263828E+01 -0.23401874999E+02  0.40749676865E+02  0.00000000000E+00 0.  1.
</event>
<event>
 7    1  0.6176857E-006  0.5322832E+02  0.7818608E-02  0.1463920E+00
          2   -1    0    0  502    0  0.00000000000E+00  0.00000000000E+00  0.15298353618E+04  0.15298353618E+04  0.00000000000E+00 0. -1.
          1   -1    0    0  501    0 -0.00000000000E+00 -0.00000000000E+00 -0.62476764093E+03  0.62476764093E+03  0.00000000000E+00 0. -1.
         25    2    1    2    0    0  0.11005106849E+02  0.18255898267E+02  0.31903785767E+03  0.34331527233E+03  0.12500332551E+03 0.  0.
          2    1    1    2  501    0  0.12428057327E+02 -0.51894395359E+02 -0.61111540363E+03  0.61344072365E+03  0.00000000000E+00 0. -1.
          1    1    1    2  502    0 -0.23433164176E+02  0.33638497092E+02  0.11971452668E+04  0.11978470067E+04  0.00000000000E+00 0. -1.
         22    1    3    3    0    0 -0.14014570379E+02 -0.30267391270E+02  0.26290386702E+03  0.26501125722E+03  0.00000000000E+00 0.  1.
         22    1    3    3    0    0  0.25019677227E+02  0.48523289537E+02  0.56133990651E+02  0.78304015110E+02  0.00000000000E+00 0.  1.
</event>
<event>
 7    1  0.6176857E-006  0.3100973E+03  0.7818608E-02  0.1134236E+00
          2   -1    0    0  502    0  0.00000000000E+00  0.00000000000E+00  0.14010071725E+04  0.14010071725E+04  0.00000000000E+00 0. -1.
          1   -1    0    0  501    0 -0.00000000000E+00 -0.00000000000E+00 -0.36556235302E+03  0.36556235302E+03  0.00000000000E+00 0. -1.
         25    2    1    2    0    0  0.27320828958E+03 -0.31085697666E+03  0.15006209921E+03  0.45762215076E+03  0.12499827923E+03 0.  0.
          2    1    1    2  501    0 -0.13143509194E+03  0.24719489489E+03 -0.11052099027E+03  0.30099067883E+03  0.00000000000E+00 0. -1.
          1    1    1    2  502    0 -0.14177319764E+03  0.63662081777E+02  0.99590371055E+03  0.10079566960E+04  0.00000000000E+00 0. -1.
         22    1    3    3    0    0  0.24073014948E+03 -0.20540433969E+03  0.78290283573E+02  0.32599281608E+03  0.00000000000E+00 0.  1.
         22    1    3    3    0    0  0.32478140100E+02 -0.10545263697E+03  0.71771815632E+02  0.13162933468E+03  0.00000000000E+00 0.  1.
</event>
<event>
 7    1  0.6176857E-006  0.2155515E+03  0.7818608E-02  0.1173731E+00
          2   -1    0    0  502    0  0.00000000000E+00  0.00000000000E+00  0.45961377100E+03  0.45961377100E+03  0.00000000000E+00 0. -1.
          1   -1    0    0  501    0 -0.00000000000E+00 -0.00000000000E+00 -0.15706173088E+04  0.15706173088E+04  0.00000000000E+00 0. -1.
         25    2    1    2    0    0  0.74854595766E+02 -0.30592659695E+03 -0.46793420187E+03  0.57773445744E+03  0.12498156985E+03 0.  0.
          2    1    1    2  501    0  0.46118902234E+02  0.13268485812E+03 -0.10150328732E+04  0.10247067670E+04  0.00000000000E+00 0. -1.
          1    1    1    2  502    0 -0.12097349800E+03  0.17324173883E+03  0.37196353726E+03  0.42778985535E+03  0.00000000000E+00 0. -1.
         22    1    3    3    0    0  0.10777650675E+03 -0.19215496197E+03 -0.31055854048E+03  0.38077015624E+03  0.00000000000E+00 0.  1.
         22    1    3    3    0    0 -0.32921910985E+02 -0.11377163498E+03 -0.15737566139E+03  0.19696430119E+03  0.00000000000E+00 0.  1.
</event>
<event>
 7    1  0.6176857E-006  0.6250973E+02  0.7818608E-02  0.1418870E+00
          2   -1    0    0  502    0  0.00000000000E+00  0.00000000000E+00  0.27669846253E+03  0.27669846253E+03  0.00000000000E+00 0. -1.
          1   -1    0    0  501    0 -0.00000000000E+00 -0.00000000000E+00 -0.34750849923E+03  0.34750849923E+03  0.00000000000E+00 0. -1.
         25    2    1    2    0    0 -0.21437616191E+02 -0.27990641791E+02  0.11068523351E+03  0.17064591164E+03  0.12500303527E+03 0.  0.
          2    1    1    2  501    0  0.17959769338E+02 -0.45431308120E+02 -0.30551452960E+03  0.30939567687E+03  0.00000000000E+00 0. -1.
          1    1    1    2  502    0  0.34778468534E+01  0.73421949910E+02  0.12401925938E+03  0.14416537325E+03  0.00000000000E+00 0. -1.
         22    1    3    3    0    0  0.12794261950E+01 -0.19695538387E+02 -0.25547336985E+02  0.32283394970E+02  0.00000000000E+00 0. -1.
         22    1    3    3    0    0 -0.22717042386E+02 -0.82951034038E+01  0.13623257050E+03  0.13836251667E+03  0.00000000000E+00 0. -1.
</event>
<event>
 7    1  0.6176857E-006  0.1680388E+03  0.7818608E-02  0.1357792E+00
          2   -1    0    0  502    0  0.00000000000E+00  0.00000000000E+00  0.20325259592E+04  0.20325259592E+04  0.00000000000E+00 0. -1.
          1   -1    0    0  501    0 -0.00000000000E+00 -0.00000000000E+00 -0.19056636833E+03  0.19056636833E+03  0.00000000000E+00 0. -1.
         25    2    1    2    0    0  0.18088601743E+03  0.33914696673E+02  0.12497983337E+04  0.12694450352E+04  0.12499945843E+03 0.  0.
          2    1    1    2  501    0 -0.26992690443E+02 -0.12461147784E+02 -0.17164289352E+03  0.17419864649E+03  0.00000000000E+00 0. -1.
          1    1    1    2  502    0 -0.15389332698E+03 -0.21453548889E+02  0.76380415063E+03  0.77944864576E+03  0.00000000000E+00 0. -1.
         22    1    3    3    0    0  0.25456930376E+02  0.41537676707E+02  0.56928333100E+03  0.57136410882E+03  0.00000000000E+00 0.  1.
         22    1    3    3    0    0  0.15542908705E+03 -0.76229800345E+01  0.68051500271E+03  0.69808092643E+03  0.00000000000E+00 0.  1.
</event>
<event>
 7    1  0.6176857E-006  0.7140932E+02  0.7818608E-02  0.1447850E+00
          2   -1    0    0  502    0  0.00000000000E+00  0.00000000000E+00  0.66043760300E+03  0.66043760300E+03  0.00000000000E+00 0. -1.
          1   -1    0    0  501    0 -0.00000000000E+00 -0.00000000000E+00 -0.13051423507E+03  0.13051423507E+03  0.00000000000E+00 0. -1.
         25    2    1    2    0    0 -0.17618106118E+02 -0.47679025288E+02 -0.51348669505E+02  0.14437665943E+03  0.12499698722E+03 0.  0.
          2    1    1    2  501    0 -0.34296895040E+02 -0.21659224364E+01 -0.20831174923E+02  0.40185894018E+02  0.00000000000E+00 0. -1.
          1    1    1    2  502    0  0.51915001158E+02  0.49844947724E+02  0.60210321236E+03  0.60638928461E+03  0.00000000000E+00 0. -1.
         22    1    3    3    0    0 -0.17432863296E+02 -0.64808599448E+02  0.20768890530E+02  0.70252445502E+02  0.00000000000E+00 0. -1.
         22    1    3    3    0    0 -0.18524282268E+00  0.17129574161E+02 -0.72117560035E+02  0.74124213933E+02  0.00000000000E+00 0. -1.
</event>
<event>
 7    1  0.6176857E-006  0.1931012E+03  0.7818608E-02  0.1345145E+00
          2   -1    0    0  502    0  0.00000000000E+00  0.00000000000E+00  0.20824017455E+03  0.20824017455E+03  0.00000000000E+00 0. -1.
          1   -1    0    0  501    0 -0.00000000000E+00 -0.00000000000E+00 -0.68447568870E+03  0.68447568870E+03  0.00000000000E+00 0. -1.
         25    2    1    2    0    0 -0.11929744656E+03  0.11842248866E+03  0.20609114215E+02  0.21048481999E+03  0.12499342896E+03 0.  0.
          2    1    1    2  501    0  0.13675258751E+03 -0.14134545052E+03 -0.57033607216E+03  0.60329349556E+03  0.00000000000E+00 0. -1.
          1    1    1    2  502    0 -0.17455140951E+02  0.22922961857E+02  0.73491443796E+02  0.78937547701E+02  0.00000000000E+00 0. -1.
         22    1    3    3    0    0 -0.14586460184E+03  0.10064124227E+03  0.21428452816E+02  0.17850579908E+03  0.00000000000E+00 0. -1.
         22    1    3    3    0    0  0.26567155278E+02  0.17781246392E+02 -0.81933860081E+00  0.31979020913E+02  0.00000000000E+00 0. -1.
</event>
<event>
 7    1  0.6176857E-006  0.7243741E+02  0.7818608E-02  0.1389939E+00
          2   -1    0    0  502    0  0.00000000000E+00  0.00000000000E+00  0.11480746459E+03  0.11480746459E+03  0.00000000000E+00 0. -1.
          1   -1    0    0  501    0 -0.00000000000E+00 -0.00000000000E+00 -0.71997948732E+03  0.71997948732E+03  0.00000000000E+00 0. -1.
         25    2    1    2    0    0  0.40930790120E+02  0.45920169511E+01 -0.10847916732E+03  0.17056550056E+03  0.12501377540E+03 0.  0.
          2    1    1    2  501    0  0.24089280474E+02 -0.47134004372E+02 -0.56091992752E+03  0.56341199214E+03  0.00000000000E+00 0. -1.
          1    1    1    2  502    0 -0.65020070594E+02  0.42541987421E+02  0.64227072115E+02  0.10080945921E+03  0.00000000000E+00 0. -1.
         22    1    3    3    0    0 -0.18207870331E+02  0.31025886129E+02  0.83946996890E+01  0.36940535120E+02  0.00000000000E+00 0.  1.
         22    1    3    3    0    0  0.59138660452E+02 -0.26433869178E+02 -0.11687386701E+03  0.13362496544E+03  0.00000000000E+00 0.  1.
</event>
<event>
 7    1  0.6176857E-006  0.2178632E+03  0.7818608E-02  0.1184880E+00
          2   -1    0    0  502    0  0.00000000000E+00  0.00000000000E+00  0.52085267250E+03  0.52085267250E+03  0.00000000000E+00 0. -1.
          1   -1    0    0  501    0 -0.00000000000E+00 -0.00000000000E+00 -0.62232787119E+03  0.62232787119E+03  0.00000000000E+00 0. -1.
         25    2    1    2    0    0 -0.71128814825E+02 -0.17704616635E+03 -0.24076735886E+03  0.33165921681E+03  0.12499704670E+03 0.  0.
          2    1    1    2  501    0  0.19370707734E+03  0.17504309940E+03 -0.27516494617E+03  0.37931288676E+03  0.00000000000E+00 0. -1.
          1    1    1    2  502    0 -0.12257826252E+03  0.20030669505E+01  0.41445710634E+03  0.43220844013E+03  0.00000000000E+00 0. -1.
         22    1    3    3    0    0  0.82892477660E+01 -0.11948219943E+03 -0.18022748597E+03  0.21639467255E+03  0.00000000000E+00 0. -1.
         22    1    3    3    0    0 -0.79418062591E+02 -0.57563966927E+02 -0.60539872894E+02  0.11526454426E+03  0.00000000000E+00 0. -1.
</event>
<event>
 7    1  0.6176857E-006  0.1300838E+03  0.7818608E-02  0.1338504E+00
          2   -1    0    0  502    0  0.00000000000E+00  0.00000000000E+00  0.26214182217E+03  0.26214182217E+03  0.00000000000E+00 0. -1.
          1   -1    0    0  501    0 -0.00000000000E+00 -0.00000000000E+00 -0.41367788130E+03  0.41367788130E+03  0.00000000000E+00 0. -1.
         25    2    1    2    0    0  0.77511303461E+02 -0.12165832053E+03 -0.28561102631E+02  0.19300139149E+03  0.12500020566E+03 0.  0.
          2    1    1    2  501    0 -0.99258224504E+02  0.81925036201E+02 -0.28599676269E+03  0.31362087775E+03  0.00000000000E+00 0. -1.
          1    1    1    2  502    0  0.21746921044E+02  0.39733284329E+02  0.16302180619E+03  0.16919743424E+03  0.00000000000E+00 0. -1.
         22    1    3    3    0    0  0.30608446154E+02 -0.13066018021E+03 -0.46439839297E+02  0.14200569828E+03  0.00000000000E+00 0.  1.
         22    1    3    3    0    0  0.46902857307E+02  0.90018596833E+01  0.17878736666E+02  0.50995693211E+02  0.00000000000E+00 0.  1.
</event>
<event>
 7    1  0.6176857E-006  0.1669178E+03  0.7818608E-02  0.1292821E+00
          2   -1    0    0  502    0  0.00000000000E+00  0.00000000000E+00  0.15650221430E+04  0.15650221430E+04  0.00000000000E+00 0. -1.
          1   -1    0    0  501    0 -0.00000000000E+00 -0.00000000000E+00 -0.34317691069E+03  0.34317691069E+03  0.00000000000E+00 0. -1.
         25    2    1    2    0    0  0.95496812719E+02 -0.78810663014E+02  0.60316159712E+02  0.18599541374E+03  0.12500197184E+03 0.  0.
          2    1    1    2  501    0  0.53008349597E+02 -0.50099850210E+01 -0.27271166385E+03  0.27786082249E+03  0.00000000000E+00 0. -1.
          1    1    1    2  502    0 -0.14850516232E+03  0.83820648035E+02  0.14342407365E+04  0.14443428175E+04  0.00000000000E+00 0. -1.
         22    1    3    3    0    0  0.58620788493E+02 -0.18715281726E+00 -0.25480472152E+02  0.63919373674E+02  0.00000000000E+00 0.  1.
         22    1    3    3    0    0  0.36876024226E+02 -0.78623510196E+02  0.85796631864E+02  0.12207604006E+03  0.00000000000E+00 0.  1.
</event>
<event>
 7    1  0.6176857E-006  0.7625942E+02  0.7818608E-02  0.1410292E+00
          2   -1    0    0  502    0  0.00000000000E+00  0.00000000000E+00  0.38756259935E+03  0.38756259935E+03  0.00000000000E+00 0. -1.
          1   -1    0    0  501    0 -0.00000000000E+00 -0.00000000000E+00 -0.79477247648E+02  0.79477247648E+02  0.00000000000E+00 0. -1.
         25    2    1    2    0    0  0.46121525036E+02 -0.84753487670E+01  0.14182554003E+03  0.19477770216E+03  0.12499937137E+03 0.  0.
          2    1    1    2  501    0  0.32589620059E+02 -0.27740414117E+02 -0.33612085791E+02  0.54418620180E+02  0.00000000000E+00 0. -1.
          1    1    1    2  502    0 -0.78711145096E+02  0.36215762884E+02  0.19987189746E+03  0.21784352466E+03  0.00000000000E+00 0. -1.
         22    1    3    3    0    0  0.85998423568E+01 -0.53724597745E+02  0.17329177634E+02  0.57101576938E+02  0.00000000000E+00 0. -1.
         22    1    3    3    0    0  0.37521682679E+02  0.45249248978E+02  0.12449636240E+03  0.13767612522E+03  0.00000000000E+00 0. -1.
</event>
<event>
 7    1  0.6176857E-006  0.1165670E+03  0.7818608E-02  0.1273607E+00
          2   -1    0    0  502    0  0.00000000000E+00  0.00000000000E+00  0.12727508728E+04  0.12727508728E+04  0.00000000000E+00 0. -1.
          1   -1    0    0  501    0 -0.00000000000E+00 -0.00000000000E+00 -0.22137692196E+03  0.22137692196E+03  0.00000000000E+00 0. -1.
         25    2    1    2    0    0 -0.12418092443E+03 -0.78419217357E+01 -0.80139408805E+02  0.19372650573E+03  0.12500094580E+03 0.  0.
          2    1    1    2  501    0  0.45770216174E+02 -0.79176085932E+02 -0.55926189775E+02  0.10719843271E+03  0.00000000000E+00 0. -1.
          1    1    1    2  502    0  0.78410708253E+02  0.87018007667E+02  0.11874395494E+04  0.11932028563E+04  0.00000000000E+00 0. -1.
         22    1    3    3    0    0  0.18214770181E+02 -0.44331138767E+01 -0.42424000832E+02  0.46381313026E+02  0.00000000000E+00 0. -1.
         22    1    3    3    0    0 -0.14239569461E+03 -0.34088078589E+01 -0.37715407973E+02  0.14734519270E+03  0.00000000000E+00 0. -1.
</event>
<event>
 7    1  0.6176857E-006  0.8781155E+02  0.7818608E-02  0.1334594E+00
          2   -1    0    0  502    0  0.00000000000E+00  0.00000000000E+00  0.53492615462E+03  0.53492615462E+03  0.00000000000E+00 0. -1.
          1   -1    0    0  501    0 -0.00000000000E+00 -0.00000000000E+00 -0.11461099397E+03  0.11461099397E+03  0.00000000000E+00 0. -1.
         25    2    1    2    0    0 -0.48636427773E+02 -0.56529774754E+02  0.74527319200E+02  0.16353193659E+03  0.12500902142E+03 0.  0.
          2    1    1    2  501    0 -0.78461999451E+01  0.96896883714E+02 -0.31649343943E+02  0.10223624553E+03  0.00000000000E+00 0. -1.
          1    1    1    2  502    0  0.56482627718E+02 -0.40367108960E+02  0.37743718539E+03  0.38376896648E+03  0.00000000000E+00 0. -1.
         22    1    3    3    0    0 -0.35519902681E+02 -0.95318979390E+02  0.37772594076E+02  0.10850871017E+03  0.00000000000E+00 0. -1.
         22    1    3    3    0    0 -0.13116525092E+02  0.38789204636E+02  0.36754725124E+02  0.55023226421E+02  0.00000000000E+00 0. -1.
</event>
<event>
 7    1  0.6176857E-006  0.4217869E+03  0.7818608E-02  0.1216851E+00
          2   -1    0    0  502    0  0.00000000000E+00  0.00000000000E+00  0.10915824259E+04  0.10915824259E+04  0.00000000000E+00 0. -1.
          1   -1    0    0  501    0 -0.00000000000E+00 -0.00000000000E+00 -0.11586345657E+04  0.11586345657E+04  0.00000000000E+00 0. -1.
         25    2    1    2    0    0  0.71172460886E+02  0.41185831884E+03 -0.55244223489E+02  0.43973822766E+03  0.12499996258E+03 0.  0.
          2    1    1    2  501    0 -0.27647838764E+02 -0.42233833600E+03 -0.86137125140E+03  0.95973668565E+03  0.00000000000E+00 0. -1.
          1    1    1    2  502    0 -0.43524622123E+02  0.10480017159E+02  0.84956333505E+03  0.85074207828E+03  0.00000000000E+00 0. -1.
         22    1    3    3    0    0  0.57749235759E+02  0.95429442741E+02  0.22115241530E+02  0.11371383680E+03  0.00000000000E+00 0.  1.
         22    1    3    3    0    0  0.13423225128E+02  0.31642887610E+03 -0.77359465018E+02  0.32602439085E+03  0.00000000000E+00 0.  1.
</event>
<event>
 7    1  0.6176857E-006  0.9939712E+02  0.7818608E-02  0.1435446E+00
          2   -1    0    0  502    0  0.00000000000E+00  0.00000000000E+00  0.99978023565E+03  0.99978023565E+03  0.00000000000E+00 0. -1.
          1   -1    0    0  501    0 -0.00000000000E+00 -0.00000000000E+00 -0.29465707516E+03  0.29465707516E+03  0.00000000000E+00 0. -1.
         25    2    1    2    0    0  0.83899787894E+02 -0.27225617767E+02  0.22208831360E+03  0.26968366574E+03  0.12500260739E+03 0.  0.
          2    1    1    2  501    0 -0.99785003803E+02  0.52930999181E+01 -0.26138871080E+03  0.27983767084E+03  0.00000000000E+00 0. -1.
          1    1    1    2  502    0  0.15885215908E+02  0.21932517848E+02  0.74442355768E+03  0.74491597422E+03  0.00000000000E+00 0. -1.
         22    1    3    3    0    0  0.14591850272E+02 -0.15399951040E+02  0.19206334157E+03  0.19323148750E+03  0.00000000000E+00 0. -1.
         22    1    3    3    0    0  0.69307937622E+02 -0.11825666726E+02  0.30024972028E+02  0.76452178231E+02  0.00000000000E+00 0. -1.
</event>
<event>
 7    1  0.6176857E-006  0.7220863E+02  0.7818608E-02  0.1430733E+00
          2   -1    0    0  502    0  0.00000000000E+00  0.00000000000E+00  0.40705935109E+03  0.40705935109E+03  0.00000000000E+00 0. -1.
          1   -1    0    0  501    0 -0.00000000000E+00 -0.00000000000E+00 -0.36548383929E+04  0.36548383929E+04  0.00000000000E+00 0. -1.
         25    2    1    2    0    0  0.76131133190E+02  0.79819901063E+02 -0.30374397281E+04  0.30420115674E+04  0.12500843285E+03 0.  0.
          2    1    1    2  501    0 -0.30031112869E+02 -0.24294367238E+02 -0.61128147563E+03  0.61250071549E+03  0.00000000000E+00 0. -1.
          1    1    1    2  502    0 -0.46100020321E+02 -0.55525533825E+02  0.40094216188E+03  0.40738546115E+03  0.00000000000E+00 0. -1.
         22    1    3    3    0    0  0.47809990507E+02  0.20142195015E+02 -0.35620016287E+03  0.35995841321E+03  0.00000000000E+00 0.  1.
         22    1    3    3    0    0  0.28321142683E+02  0.59677706048E+02 -0.26812395652E+04  0.26820531542E+04  0.00000000000E+00 0.  1.
</event>
<event>
 7    1  0.6176857E-006  0.1124016E+03  0.7818608E-02  0.1314414E+00
          2   -1    0    0  502    0  0.00000000000E+00  0.00000000000E+00  0.44141748311E+03  0.44141748311E+03  0.00000000000E+00 0. -1.
          1   -1    0    0  501    0 -0.00000000000E+00 -0.00000000000E+00 -0.27087090478E+03  0.27087090478E+03  0.00000000000E+00 0. -1.
         25    2    1    2    0    0 -0.12064498750E+03 -0.64043096633E+02 -0.51219110176E+02  0.19210682283E+03  0.12499961158E+03 0.  0.
          2    1    1    2  501    0  0.89023448833E+01  0.64256850327E+02 -0.13313859198E+03  0.14810158417E+03  0.00000000000E+00 0. -1.
          1    1    1    2  502    0  0.11174264262E+03 -0.21375369314E+00  0.35490428048E+03  0.37207998089E+03  0.00000000000E+00 0. -1.
         22    1    3    3    0    0  0.15925318353E+02 -0.32898845044E+02 -0.35837075916E+02  0.51188336368E+02  0.00000000000E+00 0.  1.
         22    1    3    3    0    0 -0.13657030586E+03 -0.31144251590E+02 -0.15382034260E+02  0.14091848646E+03  0.00000000000E+00 0.  1.
</event>
<event>
 7    1  0.6176857E-006  0.1209422E+03  0.7818608E-02  0.1336130E+00
          2   -1    0    0  502    0  0.00000000000E+00  0.00000000000E+00  0.55049842108E+03  0.55049842108E+03  0.00000000000E+00 0. -1.
          1   -1    0    0  501    0 -0.00000000000E+00 -0.00000000000E+00 -0.99261653617E+03  0.99261653617E+03  0.00000000000E+00 0. -1.
         25    2    1    2    0    0 -0.52613195355E+02  0.67763604030E+02 -0.11135047609E+03  0.18810677971E+03  0.12500071076E+03 0.  0.
          2    1    1    2  501    0  0.45721899308E+02 -0.11701939578E+03 -0.83698089950E+03  0.84635752327E+03  0.00000000000E+00 0. -1.
          1    1    1    2  502    0  0.68912960470E+01  0.49255791751E+02  0.50621326051E+03  0.50865065427E+03  0.00000000000E+00 0. -1.
         22    1    3    3    0    0  0.16777794813E+02 -0.15421848522E+02 -0.67494981413E+02  0.71238334670E+02  0.00000000000E+00 0. -1.
         22    1    3    3    0    0 -0.69390990169E+02  0.83185452551E+02 -0.43855494677E+02  0.11686844504E+03  0.00000000000E+00 0. -1.
</event>
<event>
 7    1  0.6176857E-006  0.1386262E+03  0.7818608E-02  0.1388566E+00
          2   -1    0    0  502    0  0.00000000000E+00  0.00000000000E+00  0.25237361348E+04  0.25237361348E+04  0.00000000000E+00 0. -1.
          1   -1    0    0  501    0 -0.00000000000E+00 -0.00000000000E+00 -0.22050140622E+02  0.22050140622E+02  0.00000000000E+00 0. -1.
         25    2    1    2    0    0 -0.50442271684E+01  0.13051734526E+03  0.85414835279E+03  0.87307244186E+03  0.12500343398E+03 0.  0.
          2    1    1    2  501    0 -0.20594499756E+02 -0.14168801585E+03  0.39982347915E+03  0.42468628626E+03  0.00000000000E+00 0. -1.
          1    1    1    2  502    0  0.25638726925E+02  0.11170670590E+02  0.12477141623E+04  0.12480275473E+04  0.00000000000E+00 0. -1.
         22    1    3    3    0    0 -0.56229499169E+02  0.97627910454E+02  0.66210641078E+03  0.67162330563E+03  0.00000000000E+00 0.  1.
         22    1    3    3    0    0  0.51185272001E+02  0.32889434808E+02  0.19204194202E+03  0.20144913622E+03  0.00000000000E+00 0.  1.
</event>
<event>
 7    1  0.6176857E-006  0.7932706E+02  0.7818608E-02  0.1497092E+00
          2   -1    0    0  502    0  0.00000000000E+00  0.00000000000E+00  0.20633208346E+04  0.20633208346E+04  0.00000000000E+00 0. -1.
          1   -1    0    0  501    0 -0.00000000000E+00 -0.00000000000E+00 -0.89462738640E+03  0.89462738640E+03  0.00000000000E+00 0. -1.
         25    2    1    2    0    0 -0.27606558601E+02 -0.60850541424E+02  0.15168588861E+03  0.20760182943E+03  0.12500000124E+03 0.  0.
          2    1    1    2  501    0  0.12885862265E+02 -0.17540644042E+02 -0.86568822908E+03  0.86596179454E+03  0.00000000000E+00 0. -1.
          1    1    1    2  502    0  0.14720696336E+02  0.78391185466E+02  0.18826957886E+04  0.18843845970E+04  0.00000000000E+00 0. -1.
         22    1    3    3    0    0  0.77990743437E+01 -0.54880163177E+02  0.16119405253E+03  0.17045873530E+03  0.00000000000E+00 0. -1.
         22    1    3    3    0    0 -0.35405632945E+02 -0.59703782467E+01 -0.95081639106E+01  0.37143094131E+02  0.00000000000E+00 0. -1.
</event>
<event>
 7    1  0.6176857E-006  0.1111814E+03  0.7818608E-02  0.1261935E+00
          2   -1    0    0  502    0  0.00000000000E+00  0.00000000000E+00  0.16922661651E+03  0.16922661651E+03  0.00000000000E+00 0. -1.
          1   -1    0    0  501    0 -0.00000000000E+00 -0.00000000000E+00 -0.15337941052E+04  0.15337941052E+04  0.00000000000E+00 0. -1.
         25    2    1    2    0    0 -0.91060899695E+02 -0.26172471482E+02 -0.31041885964E+03  0.34779664026E+03  0.12500219534E+03 0.  0.
          2    1    1    2  501    0  0.17312970354E+02  0.10982516136E+03 -0.11810575216E+04  0.11862791300E+04  0.00000000000E+00 0. -1.
          1    1    1    2  502    0  0.73747929341E+02 -0.83652689883E+02  0.12690889254E+03  0.16894495143E+03  0.00000000000E+00 0. -1.
         22    1    3    3    0    0 -0.99985353830E+02  0.25186814027E+02 -0.22867132309E+03  0.25084262115E+03  0.00000000000E+00 0.  1.
         22    1    3    3    0    0  0.89244541350E+01 -0.51359285510E+02 -0.81747536545E+02  0.96954019106E+02  0.00000000000E+00 0.  1.
</event>
<event>
 7    1  0.6176857E-006  0.2898299E+02  0.7818608E-02  0.1622516E+00
          2   -1    0    0  502    0  0.00000000000E+00  0.00000000000E+00  0.53530245392E+02  0.53530245392E+02  0.00000000000E+00 0. -1.
          1   -1    0    0  501    0 -0.00000000000E+00 -0.00000000000E+00 -0.18272743919E+03  0.18272743919E+03  0.00000000000E+00 0. -1.
         25    2    1    2    0    0  0.10373306030E+01  0.82947549857E+00 -0.84502016282E+02  0.15088900337E+03  0.12500054599E+03 0.  0.
          2    1    1    2  501    0 -0.27732720896E+02 -0.12115297617E+02 -0.47423883734E+02  0.56257523880E+02  0.00000000000E+00 0. -1.
          1    1    1    2  502    0  0.26695390293E+02  0.11285822118E+02  0.27287062151E+01  0.29111157335E+02  0.00000000000E+00 0. -1.
         22    1    3    3    0    0 -0.29311043051E+02  0.49982639137E+02 -0.70857067159E+02  0.91532100523E+02  0.00000000000E+00 0. -1.
         22    1    3    3    0    0  0.30348373654E+02 -0.49153163638E+02 -0.13644949123E+02  0.59356902848E+02  0.00000000000E+00 0. -1.
</event>
<event>
 7    1  0.6176857E-006  0.3085044E+02  0.7818608E-02  0.1657017E+00
          2   -1    0    0  502    0  0.00000000000E+00  0.00000000000E+00  0.14189313033E+03  0.14189313033E+03  0.00000000000E+00 0. -1.
          1   -1    0    0  501    0 -0.00000000000E+00 -0.00000000000E+00 -0.44454495954E+03  0.44454495954E+03  0.00000000000E+00 0. -1.
         25    2    1    2    0    0 -0.13244166366E+02  0.39082729291E+02 -0.23092237266E+03  0.26580909941E+03  0.12500586971E+03 0.  0.
          2    1    1    2  501    0  0.18765906257E+02 -0.87718130224E+01 -0.19371163018E+03  0.19481606609E+03  0.00000000000E+00 0. -1.
          1    1    1    2  502    0 -0.55217398908E+01 -0.30310916269E+02  0.12198217363E+03  0.12581292438E+03  0.00000000000E+00 0. -1.
         22    1    3    3    0    0 -0.63495682629E+02  0.41939067424E+02 -0.10085078632E+03  0.12633870425E+03  0.00000000000E+00 0. -1.
         22    1    3    3    0    0  0.50251516263E+02 -0.28563381332E+01 -0.13007158634E+03  0.13947039516E+03  0.00000000000E+00 0. -1.
</event>
<event>
 7    1  0.6176857E-006  0.6460474E+02  0.7818608E-02  0.1443730E+00
          2   -1    0    0  502    0  0.00000000000E+00  0.00000000000E+00  0.44214741473E+02  0.44214741473E+02  0.00000000000E+00 0. -1.
          1   -1    0    0  501    0 -0.00000000000E+00 -0.00000000000E+00 -0.17223851073E+04  0.17223851073E+04  0.00000000000E+00 0. -1.
         25    2    1    2    0    0 -0.40999882235E+02  0.21137641379E+02 -0.54212525063E+03  0.55825845192E+03  0.12499968616E+03 0.  0.
          2    1    1    2  501    0 -0.24403367374E+02 -0.30629818486E+02 -0.11413672918E+04  0.11420389682E+04  0.00000000000E+00 0. -1.
          1    1    1    2  502    0  0.65403249609E+02  0.94921771064E+01  0.53221765676E+01  0.66302428681E+02  0.00000000000E+00 0. -1.
         22    1    3    3    0    0 -0.15880466554E+02  0.73079034153E+02 -0.27613959657E+03  0.28608706934E+03  0.00000000000E+00 0. -1.
         22    1    3    3    0    0 -0.25119415681E+02 -0.51941392774E+02 -0.26598565406E+03  0.27217138258E+03  0.00000000000E+00 0. -1.
</event>
<event>
 7    1  0.6176857E-006  0.5948002E+02  0.7818608E-02  0.1404096E+00
          2   -1    0    0  502    0  0.00000000000E+00  0.00000000000E+00  0.17172888230E+02  0.17172888230E+02  0.00000000000E+00 0. -1.
          1   -1    0    0  501    0 -0.00000000000E+00 -0.00000000000E+00 -0.22073167874E+04  0.22073167874E+04  0.00000000000E+00 0. -1.
         25    2    1    2    0    0 -0.58999215269E+02 -0.10116897918E+02 -0.38741626475E+03  0.41146077780E+03  0.12500140179E+03 0.  0.
          2    1    1    2  501    0  0.78534986316E+01  0.57062088699E+02 -0.15462165158E+04  0.15472890076E+04  0.00000000000E+00 0. -1.
          1    1    1    2  502    0  0.51145716638E+02 -0.46945190781E+02 -0.25651111865E+03  0.26573989023E+03  0.00000000000E+00 0. -1.
         22    1    3    3    0    0 -0.69070909734E+02  0.42680673203E+02 -0.18506928625E+03  0.20209668762E+03  0.00000000000E+00 0.  1.
         22    1    3    3    0    0  0.10071694464E+02 -0.52797571121E+02 -0.20234697851E+03  0.20936409018E+03  0.00000000000E+00 0.  1.
</event>
<event>
 7    1  0.6176857E-006  0.4057739E+02  0.7818608E-02  0.1519897E+00
          2   -1    0    0  502    0  0.00000000000E+00  0.00000000000E+00  0.63290678579E+02  0.63290678579E+02  0.00000000000E+00 0. -1.
          1   -1    0    0  501    0 -0.00000000000E+00 -0.00000000000E+00 -0.11502175077E+04  0.11502175077E+04  0.00000000000E+00 0. -1.
         25    2    1    2    0    0 -0.22625715757E+02  0.60891306833E+02 -0.49553415159E+03  0.51516901017E+03  0.12500135754E+03 0.  0.
          2    1    1    2  501    0  0.30406420034E+02 -0.25287616571E+02 -0.63797223447E+03  0.63919682875E+03  0.00000000000E+00 0. -1.
          1    1    1    2  502    0 -0.77807042773E+01 -0.35603690262E+02  0.46579556972E+02  0.59142347324E+02  0.00000000000E+00 0. -1.
         22    1    3    3    0    0  0.39949186211E+02  0.34956082943E+02 -0.35740050983E+03  0.36132117242E+03  0.00000000000E+00 0. -1.
         22    1    3    3    0    0 -0.62574901967E+02  0.25935223891E+02 -0.13813364176E+03  0.15384783775E+03  0.00000000000E+00 0. -1.
</event>
<event>
 7    1  0.6176857E-006  0.3328470E+02  0.7818608E-02  0.1607359E+00
          2   -1    0    0  502    0  0.00000000000E+00  0.00000000000E+00  0.19850638829E+02  0.19850638829E+02  0.00000000000E+00 0. -1.
          1   -1    0    0  501    0 -0.00000000000E+00 -0.00000000000E+00 -0.64193169704E+03  0.64193169704E+03  0.00000000000E+00 0. -1.
         25    2    1    2    0    0 -0.46737608716E+01  0.34824436876E+02 -0.27213725355E+03  0.30152579287E+03  0.12499813419E+03 0.  0.
          2    1    1    2  501    0  0.26283872953E+02 -0.21141657085E+02 -0.31579250185E+03  0.31758891018E+03  0.00000000000E+00 0. -1.
          1    1    1    2  502    0 -0.21610112081E+02 -0.13682779791E+02 -0.34151302803E+02  0.42667632816E+02  0.00000000000E+00 0. -1.
         22    1    3    3    0    0  0.65385345870E+01  0.73513288908E+02 -0.97387369080E+02  0.12219351757E+03  0.00000000000E+00 0. -1.
         22    1    3    3    0    0 -0.11212295459E+02 -0.38688852032E+02 -0.17474988447E+03  0.17933227530E+03  0.00000000000E+00 0. -1.
</event>
<event>
 7    1  0.6176857E-006  0.6721651E+02  0.7818608E-02  0.1470299E+00
          2   -1    0    0  502    0  0.00000000000E+00  0.00000000000E+00  0.13710559203E+04  0.13710559203E+04  0.00000000000E+00 0. -1.
          1   -1    0    0  501    0 -0.00000000000E+00 -0.00000000000E+00 -0.29405428672E+03  0.29405428672E+03  0.00000000000E+00 0. -1.
         25    2    1    2    0    0 -0.51913967880E+02 -0.52402215174E+02  0.10016785629E+02  0.14548548029E+03  0.12499854704E+03 0.  0.
          2    1    1    2  501    0  0.29062349483E+02 -0.10813302636E+02 -0.22437952404E+03  0.22651207138E+03  0.00000000000E+00 0. -1.
          1    1    1    2  502    0  0.22851618397E+02  0.63215517810E+02  0.12913643720E+04  0.12931126554E+04  0.00000000000E+00 0. -1.
         22    1    3    3    0    0 -0.15576621193E+02 -0.75356492607E+02 -0.33855711483E+02  0.84068075426E+02  0.00000000000E+00 0. -1.
         22    1    3    3    0    0 -0.36337346687E+02  0.22954277433E+02  0.43872497112E+02  0.61417404859E+02  0.00000000000E+00 0. -1.
</event>
<event>
 7    1  0.6343882E-006  0.6261572E+02  0.7818608E-02  0.1387841E+00
          2   -1    0    0  502    0  0.00000000000E+00  0.00000000000E+00  0.10819149359E+04  0.10819149359E+04  0.00000000000E+00 0. -1.
          1   -1    0    0  501    0 -0.00000000000E+00 -0.00000000000E+00 -0.86677767918E+03  0.86677767918E+03  0.00000000000E+00 0. -1.
         25    2    1    2    0    0 -0.23872064602E+02 -0.34541407757E+02 -0.34038189613E+02  0.13618988163E+03  0.12500440467E+03 0.  0.
          2    1    1    2  501    0  0.60381343528E+02 -0.16577765557E+02 -0.77944995720E+03  0.78196097392E+03  0.00000000000E+00 0. -1.
          1    1    1    2  502    0 -0.36509278926E+02  0.51119173314E+02  0.10286254036E+04  0.10305417595E+04  0.00000000000E+00 0. -1.
         22    1    3    3    0    0  0.27807215859E+02 -0.50498487200E+02  0.18741414150E+02  0.60618306374E+02  0.00000000000E+00 0. -1.
         22    1    3    3    0    0 -0.51679280460E+02  0.15957079443E+02 -0.52779603764E+02  0.75571575256E+02  0.00000000000E+00 0. -1.
</event>
<event>
 7    1  0.6176857E-006  0.3089129E+02  0.7818608E-02  0.1624575E+00
          2   -1    0    0  502    0  0.00000000000E+00  0.00000000000E+00  0.29402013779E+03  0.29402013779E+03  0.00000000000E+00 0. -1.
          1   -1    0    0  501    0 -0.00000000000E+00 -0.00000000000E+00 -0.34599890815E+03  0.34599890815E+03  0.00000000000E+00 0. -1.
         25    2    1    2    0    0  0.50516545599E+02  0.14938764286E+02 -0.24616912957E+03  0.28106608202E+03  0.12499525611E+03 0.  0.
          2    1    1    2  501    0 -0.27278342776E+02 -0.59954713108E+01 -0.79432439290E+02  0.84199560999E+02  0.00000000000E+00 0. -1.
          1    1    1    2  502    0 -0.23238202823E+02 -0.89432929752E+01  0.27362279850E+03  0.27475340293E+03  0.00000000000E+00 0. -1.
         22    1    3    3    0    0 -0.17366813696E+02  0.12139436418E+02  0.42354334366E+01  0.21608124188E+02  0.00000000000E+00 0. -1.
         22    1    3    3    0    0  0.67883359295E+02  0.27993278676E+01 -0.25040456301E+03  0.25945795783E+03  0.00000000000E+00 0. -1.
</event>
<event>
 7    1  0.6176857E-006  0.2263484E+03  0.7818608E-02  0.1222751E+00
          2   -1    0    0  502    0  0.00000000000E+00  0.00000000000E+00  0.10564463980E+04  0.10564463980E+04  0.00000000000E+00 0. -1.
          1   -1    0    0  501    0 -0.00000000000E+00 -0.00000000000E+00 -0.21414599533E+03  0.21414599533E+03  0.00000000000E+00 0. -1.
         25    2    1    2    0    0 -0.96633496156E+02 -0.27250450634E+03  0.24580143244E+03  0.39954978371E+03  0.12499978769E+03 0.  0.
          2    1    1    2  501    0  0.42535337496E+02  0.65871213158E+02 -0.10879919373E+03  0.13411016448E+03  0.00000000000E+00 0. -1.
          1    1    1    2  502    0  0.54098158661E+02  0.20663329318E+03  0.70529816399E+03  0.73693244518E+03  0.00000000000E+00 0. -1.
         22    1    3    3    0    0  0.22635937754E+02 -0.14417613148E+02  0.57436837830E+01  0.27445275555E+02  0.00000000000E+00 0.  1.
         22    1    3    3    0    0 -0.11926943391E+03 -0.25808689319E+03  0.24005774866E+03  0.37210450816E+03  0.00000000000E+00 0.  1.
</event>
<event>
 7    1  0.6176857E-006  0.3356455E+02  0.7818608E-02  0.1590136E+00
          2   -1    0    0  502    0  0.00000000000E+00  0.00000000000E+00  0.76207196210E+03  0.76207196210E+03  0.00000000000E+00 0. -1.
          1   -1    0    0  501    0 -0.00000000000E+00 -0.00000000000E+00 -0.41645861563E+02  0.41645861563E+02  0.00000000000E+00 0. -1.
         25    2    1    2    0    0 -0.29980227146E+02 -0.97079696581E+01  0.18766743511E+03  0.22767626385E+03  0.12499742487E+03 0.  0.
          2    1    1    2  501    0  0.14809677816E+01  0.28099356865E+02 -0.11738720313E+02  0.30488763117E+02  0.00000000000E+00 0. -1.
          1    1    1    2  502    0  0.28499259365E+02 -0.18391387207E+02  0.54449738574E+03  0.54555279670E+03  0.00000000000E+00 0. -1.
         22    1    3    3    0    0 -0.10137792224E+02  0.42991508145E+02  0.15793928389E+03  0.16399957927E+03  0.00000000000E+00 0. -1.
         22    1    3    3    0    0 -0.19842434922E+02 -0.52699477803E+02  0.29728151218E+02  0.63676684581E+02  0.00000000000E+00 0. -1.
</event>
<event>
 7    1  0.6176857E-006  0.9221034E+02  0.7818608E-02  0.1484414E+00
          2   -1    0    0  502    0  0.00000000000E+00  0.00000000000E+00  0.43374388871E+02  0.43374388871E+02  0.00000000000E+00 0. -1.
          1   -1    0    0  501    0 -0.00000000000E+00 -0.00000000000E+00 -0.42420094180E+03  0.42420094180E+03  0.00000000000E+00 0. -1.
         25    2    1    2    0    0  0.72919779401E+02 -0.42786382301E+02 -0.20699770168E+03  0.25616303802E+03  0.12499393907E+03 0.  0.
          2    1    1    2  501    0  0.18416454788E+02  0.88932538983E+01 -0.48777047759E+02  0.52890983730E+02  0.00000000000E+00 0. -1.
          1    1    1    2  502    0 -0.91336234189E+02  0.33893128403E+02 -0.12505180349E+03  0.15852130893E+03  0.00000000000E+00 0. -1.
         22    1    3    3    0    0 -0.20731896686E+02  0.22435903692E+02 -0.18219003559E+02  0.35568432709E+02  0.00000000000E+00 0.  1.
         22    1    3    3    0    0  0.93651676087E+02 -0.65222285994E+02 -0.18877869813E+03  0.22059460531E+03  0.00000000000E+00 0.  1.
</event>
<event>
 7    1  0.6176857E-006  0.5046698E+02  0.7818608E-02  0.1457541E+00
          2   -1    0    0  502    0  0.00000000000E+00  0.00000000000E+00  0.10630246832E+04  0.10630246832E+04  0.00000000000E+00 0. -1.
          1   -1    0    0  501    0 -0.00000000000E+00 -0.00000000000E+00 -0.38208350845E+02  0.38208350845E+02  0.00000000000E+00 0. -1.
         25    2    1    2    0    0  0.42538934939E+00  0.33172305423E+02  0.55529635365E+03  0.57015378512E+03  0.12498286086E+03 0.  0.
          2    1    1    2  501    0 -0.45067582568E+02 -0.25554632489E+02 -0.71174552980E+01  0.52295166221E+02  0.00000000000E+00 0. -1.
          1    1    1    2  502    0  0.44642193219E+02 -0.76176729338E+01  0.47663743405E+03  0.47878408275E+03  0.00000000000E+00 0. -1.
         22    1    3    3    0    0  0.23520339530E+02 -0.43011109137E+02  0.24072848692E+03  0.24566922130E+03  0.00000000000E+00 0. -1.
         22    1    3    3    0    0 -0.23094950181E+02  0.76183414560E+02  0.31456786673E+03  0.32448456382E+03  0.00000000000E+00 0. -1.
</event>
<event>
 7    1  0.6176857E-006  0.4258001E+02  0.7818608E-02  0.1557937E+00
          2   -1    0    0  502    0  0.00000000000E+00  0.00000000000E+00  0.30963805974E+03  0.30963805974E+03  0.00000000000E+00 0. -1.
          1   -1    0    0  501    0 -0.00000000000E+00 -0.00000000000E+00 -0.48268080568E+03  0.48268080568E+03  0.00000000000E+00 0. -1.
         25    2    1    2    0    0  0.23465227905E+02 -0.34387518029E+02 -0.13997347430E+03  0.19222617223E+03  0.12500083787E+03 0.  0.
          2    1    1    2  501    0  0.17069018011E+02  0.21051358476E+02 -0.31438903038E+03  0.31555502451E+03  0.00000000000E+00 0. -1.
          1    1    1    2  502    0 -0.40534245916E+02  0.13336159553E+02  0.28131975874E+03  0.28453766868E+03  0.00000000000E+00 0. -1.
         22    1    3    3    0    0  0.56609401303E+01  0.44751274792E+02 -0.25165239454E+02  0.51652803558E+02  0.00000000000E+00 0. -1.
         22    1    3    3    0    0  0.17804287774E+02 -0.79138792821E+02 -0.11480823484E+03  0.14057336867E+03  0.00000000000E+00 0. -1.
</event>
<event>
 7    1  0.6176857E-006  0.1771574E+03  0.7818608E-02  0.1225241E+00
          2   -1    0    0  502    0  0.00000000000E+00  0.00000000000E+00  0.33495004508E+03  0.33495004508E+03  0.00000000000E+00 0. -1.
          1   -1    0    0  501    0 -0.00000000000E+00 -0.00000000000E+00 -0.27831554202E+03  0.27831554202E+03  0.00000000000E+00 0. -1.
         25    2    1    2    0    0 -0.11032863055E+03 -0.33317019175E+01  0.13293978894E+03  0.21326270611E+03  0.12499794950E+03 0.  0.
          2    1    1    2  501    0  0.18671681244E+03 -0.57443445070E+02 -0.17421077005E+03  0.26174856223E+03  0.00000000000E+00 0. -1.
          1    1    1    2  502    0 -0.76388181884E+02  0.60775146988E+02  0.97905484180E+02  0.13825431876E+03  0.00000000000E+00 0. -1.
         22    1    3    3    0    0  0.19736588658E+02 -0.12006339934E+02 -0.48265524766E+01  0.23600439387E+02  0.00000000000E+00 0.  1.
         22    1    3    3    0    0 -0.13006521921E+03  0.86746380166E+01  0.13776634141E+03  0.18966226672E+03  0.00000000000E+00 0.  1.
</event>
<event>
 7    1  0.6176857E-006  0.3480545E+02  0.7818608E-02  0.1561402E+00
          2   -1    0    0  502    0  0.00000000000E+00  0.00000000000E+00  0.33095204448E+04  0.33095204448E+04  0.00000000000E+00 0. -1.
          1   -1    0    0  501    0 -0.00000000000E+00 -0.00000000000E+00 -0.82151208272E+02  0.82151208272E+02  0.00000000000E+00 0. -1.
         25    2    1    2    0    0  0.43597726988E+02  0.50969557138E+02  0.26246086971E+04  0.26284394826E+04  0.12499857203E+03 0.  0.
          2    1    1    2  501    0 -0.21017297087E+02 -0.27685218991E+02 -0.76065811150E+02  0.83631368238E+02  0.00000000000E+00 0. -1.
          1    1    1    2  502    0 -0.22580429901E+02 -0.23284338147E+02  0.67882635056E+03  0.67960080226E+03  0.00000000000E+00 0. -1.
         22    1    3    3    0    0 -0.54113534287E+01  0.69285473398E+02  0.78026397304E+03  0.78335281144E+03  0.00000000000E+00 0.  1.
         22    1    3    3    0    0  0.49009080416E+02 -0.18315916261E+02  0.18443447241E+04  0.18450866711E+04  0.00000000000E+00 0.  1.
</event>
<event>
 7    1  0.6176857E-006  0.1005487E+03  0.7818608E-02  0.1318200E+00
          2   -1    0    0  502    0  0.00000000000E+00  0.00000000000E+00  0.10267279444E+04  0.10267279444E+04  0.00000000000E+00 0. -1.
          1   -1    0    0  501    0 -0.00000000000E+00 -0.00000000000E+00 -0.23546543450E+04  0.23546543450E+04  0.00000000000E+00 0. -1.
         25    2    1    2    0    0 -0.13331416826E+03  0.62157108915E+02 -0.15948871414E+02  0.19367984139E+03  0.12498536240E+03 0.  0.
          2    1    1    2  501    0  0.33618285280E+02 -0.61504070462E+02 -0.22466423174E+04  0.22477354475E+04  0.00000000000E+00 0. -1.
          1    1    1    2  502    0  0.99695882977E+02 -0.65303845210E+00  0.93466478821E+03  0.93996700041E+03  0.00000000000E+00 0. -1.
         22    1    3    3    0    0 -0.12072540274E+03  0.23153143113E+02  0.35455306139E+02  0.12793658443E+03  0.00000000000E+00 0. -1.
         22    1    3    3    0    0 -0.12588765522E+02  0.39003965801E+02 -0.51404177553E+02  0.65743256958E+02  0.00000000000E+00 0. -1.
</event>
<event>
 7    1  0.6176857E-006  0.8822845E+02  0.7818608E-02  0.1376175E+00
          2   -1    0    0  502    0  0.00000000000E+00  0.00000000000E+00  0.61650372044E+03  0.61650372044E+03  0.00000000000E+00 0. -1.
          1   -1    0    0  501    0 -0.00000000000E+00 -0.00000000000E+00 -0.11670862569E+03  0.11670862569E+03  0.00000000000E+00 0. -1.
         25    2    1    2    0    0  0.43325680984E+02  0.34687092485E+02  0.46106670447E+02  0.14432943721E+03  0.12499940947E+03 0.  0.
          2    1    1    2  501    0 -0.90096249935E+02 -0.47884319528E+02 -0.27161082423E+02  0.10558393205E+03  0.00000000000E+00 0. -1.
          1    1    1    2  502    0  0.46770568951E+02  0.13197227044E+02  0.48084950673E+03  0.48329897687E+03  0.00000000000E+00 0. -1.
         22    1    3    3    0    0 -0.12528588122E+02  0.16927258379E+02  0.75768887633E+02  0.78641095680E+02  0.00000000000E+00 0. -1.
         22    1    3    3    0    0  0.55854269106E+02  0.17759834106E+02 -0.29662217186E+02  0.65688341532E+02  0.00000000000E+00 0. -1.
</event>
<event>
 7    1  0.6176857E-006  0.1611821E+03  0.7818608E-02  0.1258282E+00
          2   -1    0    0  502    0  0.00000000000E+00  0.00000000000E+00  0.94858399561E+03  0.94858399561E+03  0.00000000000E+00 0. -1.
          1   -1    0    0  501    0 -0.00000000000E+00 -0.00000000000E+00 -0.46811115133E+03  0.46811115133E+03  0.00000000000E+00 0. -1.
         25    2    1    2    0    0  0.20044695186E+03 -0.10165917674E+03  0.19141584615E+03  0.32056972861E+03  0.12494541215E+03 0.  0.
          2    1    1    2  501    0 -0.15181766373E+03  0.42243542417E+02 -0.38588951642E+03  0.41682590944E+03  0.00000000000E+00 0. -1.
          1    1    1    2  502    0 -0.48629288135E+02  0.59415634323E+02  0.67494651456E+03  0.67929950889E+03  0.00000000000E+00 0. -1.
         22    1    3    3    0    0  0.43267372787E+02  0.22619380437E+02  0.72990788071E+02  0.87814332898E+02  0.00000000000E+00 0.  1.
         22    1    3    3    0    0  0.15717957908E+03 -0.12427855718E+03  0.11842505808E+03  0.23275539571E+03  0.00000000000E+00 0.  1.
</event>
<event>
 7    1  0.6176857E-006  0.5682394E+03  0.7818608E-02  0.1101248E+00
          2   -1    0    0  502    0  0.00000000000E+00  0.00000000000E+00  0.12415672114E+04  0.12415672114E+04  0.00000000000E+00 0. -1.
          1   -1    0    0  501    0 -0.00000000000E+00 -0.00000000000E+00 -0.90225634208E+03  0.90225634208E+03  0.00000000000E+00 0. -1.
         25    2    1    2    0    0  0.19040209363E+03  0.51427867369E+03 -0.28155121149E+02  0.56316425536E+03  0.12500302478E+03 0.  0.
          2    1    1    2  501    0 -0.11456949562E+03  0.57842919949E+02 -0.51249784381E+03  0.52832377631E+03  0.00000000000E+00 0. -1.
          1    1    1    2  502    0 -0.75832598017E+02 -0.57212159363E+03  0.87996383425E+03  0.10523355218E+04  0.00000000000E+00 0. -1.
         22    1    3    3    0    0 -0.18153144161E+02  0.30984181558E+02  0.16452639092E+01  0.35948060352E+02  0.00000000000E+00 0.  1.
         22    1    3    3    0    0  0.20855523780E+03  0.48329449213E+03 -0.29800385058E+02  0.52721619501E+03  0.00000000000E+00 0.  1.
</event>
<event>
 7    1  0.6176857E-006  0.1184652E+03  0.7818608E-02  0.1324586E+00
          2   -1    0    0  502    0  0.00000000000E+00  0.00000000000E+00  0.44282631119E+03  0.44282631119E+03  0.00000000000E+00 0. -1.
          1   -1    0    0  501    0 -0.00000000000E+00 -0.00000000000E+00 -0.15617550420E+04  0.15617550420E+04  0.00000000000E+00 0. -1.
         25    2    1    2    0    0 -0.32488017516E+02 -0.12763152231E+03  0.59624183284E+02  0.19111458201E+03  0.12499785380E+03 0.  0.
          2    1    1    2  501    0 -0.42649685434E+02  0.36597763871E+02 -0.14844875130E+04  0.14855509309E+04  0.00000000000E+00 0. -1.
          1    1    1    2  502    0  0.75137702950E+02  0.91033758440E+02  0.30593459886E+03  0.32791584036E+03  0.00000000000E+00 0. -1.
         22    1    3    3    0    0  0.28980615810E+02 -0.53262464008E+02 -0.22234117773E+02  0.64584225304E+02  0.00000000000E+00 0. -1.
         22    1    3    3    0    0 -0.61468633326E+02 -0.74369058303E+02  0.81858301057E+02  0.12653035670E+03  0.00000000000E+00 0. -1.
</event>
<event>
 7    1  0.6176857E-006  0.4318456E+03  0.7818608E-02  0.1202549E+00
          2   -1    0    0  502    0  0.00000000000E+00  0.00000000000E+00  0.16289489607E+04  0.16289489607E+04  0.00000000000E+00 0. -1.
          1   -1    0    0  501    0 -0.00000000000E+00 -0.00000000000E+00 -0.32245639073E+04  0.32245639073E+04  0.00000000000E+00 0. -1.
         25    2    1    2    0    0  0.37754283877E+03 -0.81740290581E+02 -0.13691051838E+03  0.42847331736E+03  0.12499929375E+03 0.  0.
          2    1    1    2  501    0  0.48565343523E+02 -0.15383705754E+02 -0.29094493431E+04  0.29098953127E+04  0.00000000000E+00 0. -1.
          1    1    1    2  502    0 -0.42610818229E+03  0.97123996335E+02  0.14507449149E+04  0.15151442379E+04  0.00000000000E+00 0. -1.
         22    1    3    3    0    0  0.28572510539E+03 -0.28888507319E+02 -0.50127021328E+02  0.29152375541E+03  0.00000000000E+00 0.  1.
         22    1    3    3    0    0  0.91817733383E+02 -0.52851783262E+02 -0.86783497047E+02  0.13694956195E+03  0.00000000000E+00 0.  1.
</event>
<event>
 7    1  0.6176857E-006  0.5351299E+02  0.7818608E-02  0.1478848E+00
          2   -1    0    0  502    0  0.00000000000E+00  0.00000000000E+00  0.14472019340E+04  0.14472019340E+04  0.00000000000E+00 0. -1.
          1   -1    0    0  501    0 -0.00000000000E+00 -0.00000000000E+00 -0.36349674139E+02  0.36349674139E+02  0.00000000000E+00 0. -1.
         25    2    1    2    0    0 -0.86520059002E+02  0.91540869632E+01  0.84776745157E+03  0.86133771247E+03  0.12499394011E+03 0.  0.
          2    1    1    2  501    0  0.52439400220E+02  0.43274796900E+01 -0.50854028094E+01  0.52862832857E+02  0.00000000000E+00 0. -1.
          1    1    1    2  502    0  0.34080658782E+02 -0.13481566653E+02  0.56817021108E+03  0.56935106280E+03  0.00000000000E+00 0. -1.
         22    1    3    3    0    0 -0.10767244073E+03  0.38851171658E+02  0.68847179985E+03  0.69792276594E+03  0.00000000000E+00 0. -1.
         22    1    3    3    0    0  0.21152381725E+02 -0.29697084695E+02  0.15929565172E+03  0.16341494653E+03  0.00000000000E+00 0. -1.
</event>
<event>
 7    1  0.6176857E-006  0.5054862E+02  0.7818608E-02  0.1554601E+00
          2   -1    0    0  502    0  0.00000000000E+00  0.00000000000E+00  0.90234842939E+03  0.90234842939E+03  0.00000000000E+00 0. -1.
          1   -1    0    0  501    0 -0.00000000000E+00 -0.00000000000E+00 -0.36687963305E+03  0.36687963305E+03  0.00000000000E+00 0. -1.
         25    2    1    2    0    0 -0.18484237305E+02  0.52606365837E+02  0.32697822637E+03  0.35446951169E+03  0.12499910977E+03 0.  0.
          2    1    1    2  501    0  0.35165584444E+02 -0.36310815778E+02 -0.35108102192E+03  0.35470125123E+03  0.00000000000E+00 0. -1.
          1    1    1    2  502    0 -0.16681347139E+02 -0.16295550059E+02  0.55957159189E+03  0.56005729952E+03  0.00000000000E+00 0. -1.
         22    1    3    3    0    0 -0.52163865018E+02  0.56993665449E+02  0.10753074768E+03  0.13240924595E+03  0.00000000000E+00 0.  1.
         22    1    3    3    0    0  0.33679627713E+02 -0.43872996114E+01  0.21944747869E+03  0.22206026574E+03  0.00000000000E+00 0.  1.
</event>
<event>
 7    1  0.6176857E-006  0.7821159E+02  0.7818608E-02  0.1507754E+00
          2   -1    0    0  502    0  0.00000000000E+00  0.00000000000E+00  0.13814359189E+04  0.13814359189E+04  0.00000000000E+00 0. -1.
          1   -1    0    0  501    0 -0.00000000000E+00 -0.00000000000E+00 -0.56845451562E+03  0.56845451562E+03  0.00000000000E+00 0. -1.
         25    2    1    2    0    0 -0.28364631805E+02 -0.60738487404E+02 -0.84838789535E+02  0.16528034783E+03  0.12500502782E+03 0.  0.
          2    1    1    2  501    0  0.12809343730E+02 -0.16032286544E+02 -0.44201300623E+03  0.44248910854E+03  0.00000000000E+00 0. -1.
          1    1    1    2  502    0  0.15555288075E+02  0.76770773948E+02  0.13398331991E+04  0.13421209782E+04  0.00000000000E+00 0. -1.
         22    1    3    3    0    0 -0.18562624942E+02  0.62402279586E+01 -0.94851179747E+02  0.96851730956E+02  0.00000000000E+00 0.  1.
         22    1    3    3    0    0 -0.98020068629E+01 -0.66978715362E+02  0.10012390212E+02  0.68428616878E+02  0.00000000000E+00 0.  1.
</event>
<event>
 7    1  0.6176857E-006  0.6434180E+02  0.7818608E-02  0.1396139E+00
          2   -1    0    0  502    0  0.00000000000E+00  0.00000000000E+00  0.25127551030E+04  0.25127551030E+04  0.00000000000E+00 0. -1.
          1   -1    0    0  501    0 -0.00000000000E+00 -0.00000000000E+00 -0.93404305040E+02  0.93404305040E+02  0.00000000000E+00 0. -1.
         25    2    1    2    0    0  0.13597399186E+02  0.15075761970E+02  0.72525518529E+02  0.14594111440E+03  0.12500676050E+03 0.  0.
          2    1    1    2  501    0  0.50493949244E+02 -0.25813147607E+02 -0.41962660819E+02  0.70546597385E+02  0.00000000000E+00 0. -1.
          1    1    1    2  502    0 -0.64091348430E+02  0.10737385637E+02  0.23887879402E+04  0.23896716962E+04  0.00000000000E+00 0. -1.
         22    1    3    3    0    0  0.28079862037E+02 -0.51041565304E+02  0.41240383108E+02  0.71375690817E+02  0.00000000000E+00 0.  1.
         22    1    3    3    0    0 -0.14482462851E+02  0.66117327274E+02  0.31285135421E+02  0.74565423585E+02  0.00000000000E+00 0.  1.
</event>
<event>
 7    1  0.6176857E-006  0.3091206E+02  0.7818608E-02  0.1620995E+00
          2   -1    0    0  502    0  0.00000000000E+00  0.00000000000E+00  0.11469101892E+03  0.11469101892E+03  0.00000000000E+00 0. -1.
          1   -1    0    0  501    0 -0.00000000000E+00 -0.00000000000E+00 -0.37188300895E+03  0.37188300895E+03  0.00000000000E+00 0. -1.
         25    2    1    2    0    0  0.43508934084E+02  0.19081736600E+02 -0.23491165864E+03  0.27029362458E+03  0.12497206131E+03 0.  0.
          2    1    1    2  501    0 -0.29579952814E+02  0.21692679028E+01 -0.11571335327E+03  0.11945400561E+03  0.00000000000E+00 0. -1.
          1    1    1    2  502    0 -0.13928981270E+02 -0.21251004503E+02  0.93433021873E+02  0.96826397681E+02  0.00000000000E+00 0. -1.
         22    1    3    3    0    0  0.83543762155E+02  0.22563821612E+02 -0.11564260670E+03  0.14443648682E+03  0.00000000000E+00 0.  1.
         22    1    3    3    0    0 -0.40034828071E+02 -0.34820850116E+01 -0.11926905194E+03  0.12585713776E+03  0.00000000000E+00 0.  1.
</event>
<event>
 7    1  0.6176857E-006  0.5725898E+02  0.7818608E-02  0.1434714E+00
          2   -1    0    0  502    0  0.00000000000E+00  0.00000000000E+00  0.32452936213E+03  0.32452936213E+03  0.00000000000E+00 0. -1.
          1   -1    0    0  501    0 -0.00000000000E+00 -0.00000000000E+00 -0.56979251268E+03  0.56979251268E+03  0.00000000000E+00 0. -1.
         25    2    1    2    0    0  0.40016360098E+02  0.25438605497E+00 -0.67752009145E+01  0.13143579539E+03  0.12501236409E+03 0.  0.
          2    1    1    2  501    0 -0.43804510343E+01 -0.47066570070E+02 -0.49624943167E+03  0.49849568584E+03  0.00000000000E+00 0. -1.
          1    1    1    2  502    0 -0.35635909064E+02  0.46812184015E+02  0.25776148204E+03  0.26439039357E+03  0.00000000000E+00 0. -1.
         22    1    3    3    0    0  0.26829175187E+02 -0.61320661331E+02  0.59312362512E+01  0.67195295302E+02  0.00000000000E+00 0. -1.
         22    1    3    3    0    0  0.13187184910E+02  0.61575047386E+02 -0.12706437166E+02  0.64240500091E+02  0.00000000000E+00 0. -1.
</event>
<event>
 7    1  0.6176857E-006  0.1808431E+03  0.7818608E-02  0.1312098E+00
          2   -1    0    0  502    0  0.00000000000E+00  0.00000000000E+00  0.21245841169E+04  0.21245841169E+04  0.00000000000E+00 0. -1.
          1   -1    0    0  501    0 -0.00000000000E+00 -0.00000000000E+00 -0.12832693750E+03  0.12832693750E+03  0.00000000000E+00 0. -1.
         25    2    1    2    0    0 -0.15655308463E+03  0.42449322561E+02  0.13372239816E+03  0.24457624069E+03  0.12500017780E+03 0.  0.
          2    1    1    2  501    0 -0.25707657920E+02 -0.32159553446E+02 -0.62402454127E+02  0.74760864325E+02  0.00000000000E+00 0. -1.
          1    1    1    2  502    0  0.18226074255E+03 -0.10289769116E+02  0.19249372354E+04  0.19335739494E+04  0.00000000000E+00 0. -1.
         22    1    3    3    0    0 -0.16066790825E+02  0.44710898012E+02  0.82163059499E+02  0.94910349882E+02  0.00000000000E+00 0. -1.
         22    1    3    3    0    0 -0.14048629380E+03 -0.22615754506E+01  0.51559338663E+02  0.14966589081E+03  0.00000000000E+00 0. -1.
</event>
<event>
 7    1  0.6176857E-006  0.4669568E+02  0.7818608E-02  0.1529542E+00
          2   -1    0    0  502    0  0.00000000000E+00  0.00000000000E+00  0.57422175335E+03  0.57422175335E+03  0.00000000000E+00 0. -1.
          1   -1    0    0  501    0 -0.00000000000E+00 -0.00000000000E+00 -0.15479260804E+04  0.15479260804E+04  0.00000000000E+00 0. -1.
         25    2    1    2    0    0  0.13278061197E+02  0.11178832293E+02  0.26707459871E+03  0.29538971393E+03  0.12499987447E+03 0.  0.
          2    1    1    2  501    0 -0.30690397613E+02 -0.35243184624E+02 -0.15326586209E+04  0.15333709371E+04  0.00000000000E+00 0. -1.
          1    1    1    2  502    0  0.17412336416E+02  0.24064352330E+02  0.29187969517E+03  0.29338718268E+03  0.00000000000E+00 0. -1.
         22    1    3    3    0    0  0.44694906793E+01  0.68150881066E+02  0.13546898847E+03  0.15171145565E+03  0.00000000000E+00 0. -1.
         22    1    3    3    0    0  0.88085705182E+01 -0.56972048773E+02  0.13160561024E+03  0.14367825828E+03  0.00000000000E+00 0. -1.
</event>
<event>
 7    1  0.6176857E-006  0.6548709E+02  0.7818608E-02  0.1397575E+00
          2   -1    0    0  502    0  0.00000000000E+00  0.00000000000E+00  0.41512905445E+04  0.41512905445E+04  0.00000000000E+00 0. -1.
          1   -1    0    0  501    0 -0.00000000000E+00 -0.00000000000E+00 -0.23881623910E+02  0.23881623910E+02  0.00000000000E+00 0. -1.
         25    2    1    2    0    0  0.47628944231E+02 -0.43357045419E+02  0.26943689998E+04  0.26980362173E+04  0.12500709224E+03 0.  0.
          2    1    1    2  501    0 -0.65341581046E+02 -0.88024920882E+01  0.29020031769E+02  0.72035882201E+02  0.00000000000E+00 0. -1.
          1    1    1    2  502    0  0.17712636815E+02  0.52159537507E+02  0.14040198891E+04  0.14051000689E+04  0.00000000000E+00 0. -1.
         22    1    3    3    0    0  0.43737403507E+02 -0.35401555950E+02  0.26831635356E+04  0.26837534889E+04  0.00000000000E+00 0.  1.
         22    1    3    3    0    0  0.38915407247E+01 -0.79554894683E+01  0.11205464233E+02  0.14282728400E+02  0.00000000000E+00 0.  1.
</event>
<event>
 7    1  0.6176857E-006  0.5264644E+02  0.7818608E-02  0.1465218E+00
          2   -1    0    0  502    0  0.00000000000E+00  0.00000000000E+00  0.81119157699E+03  0.81119157699E+03  0.00000000000E+00 0. -1.
          1   -1    0    0  501    0 -0.00000000000E+00 -0.00000000000E+00 -0.54372824814E+03  0.54372824814E+03  0.00000000000E+00 0. -1.
         25    2    1    2    0    0  0.87513976784E+01 -0.61570342871E+02  0.65263220333E+02  0.15411926593E+03  0.12500386442E+03 0.  0.
          2    1    1    2  501    0  0.28518668222E+02  0.44334655386E+02 -0.49730506425E+03  0.50009119472E+03  0.00000000000E+00 0. -1.
          1    1    1    2  502    0 -0.37270065900E+02  0.17235687485E+02  0.69950517277E+03  0.70070936448E+03  0.00000000000E+00 0. -1.
         22    1    3    3    0    0 -0.20107554819E+01 -0.96074861578E+02  0.68228405565E+02  0.11785388195E+03  0.00000000000E+00 0.  1.
         22    1    3    3    0    0  0.10762153160E+02  0.34504518707E+02 -0.29651852313E+01  0.36265383982E+02  0.00000000000E+00 0.  1.
</event>
<event>
 7    1  0.6176857E-006  0.9404131E+02  0.7818608E-02  0.1380214E+00
          2   -1    0    0  502    0  0.00000000000E+00  0.00000000000E+00  0.62380168470E+02  0.62380168470E+02  0.00000000000E+00 0. -1.
          1   -1    0    0  501    0 -0.00000000000E+00 -0.00000000000E+00 -0.13371962099E+04  0.13371962099E+04  0.00000000000E+00 0. -1.
         25    2    1    2    0    0  0.11792238476E+03  0.96761863194E+01 -0.14492204750E+03  0.22500022195E+03  0.12499353030E+03 0.  0.
          2    1    1    2  501    0 -0.38946886290E+02  0.20711982658E+02 -0.10699890339E+04  0.10708979311E+04  0.00000000000E+00 0. -1.
          1    1    1    2  502    0 -0.78975498473E+02 -0.30388168977E+02 -0.59904960085E+02  0.10367822537E+03  0.00000000000E+00 0. -1.
         22    1    3    3    0    0  0.81796168123E+02  0.56540622017E+02 -0.13055263711E+03  0.16410803184E+03  0.00000000000E+00 0. -1.
         22    1    3    3    0    0  0.36126216640E+02 -0.46864435698E+02 -0.14369410391E+02  0.60892190115E+02  0.00000000000E+00 0. -1.
</event>
<event>
 7    1  0.6176857E-006  0.1177727E+03  0.7818608E-02  0.1329517E+00
          2   -1    0    0  502    0  0.00000000000E+00  0.00000000000E+00  0.49274070307E+03  0.49274070307E+03  0.00000000000E+00 0. -1.
          1   -1    0    0  501    0 -0.00000000000E+00 -0.00000000000E+00 -0.98635791923E+03  0.98635791923E+03  0.00000000000E+00 0. -1.
         25    2    1    2    0    0 -0.49798155184E+02  0.12213418140E+03 -0.36456404692E+03  0.40734449549E+03  0.12500391663E+03 0.  0.
          2    1    1    2  501    0  0.53933209530E+02 -0.44869901092E+01 -0.59179948787E+03  0.59426892735E+03  0.00000000000E+00 0. -1.
          1    1    1    2  502    0 -0.41350543460E+01 -0.11764719129E+03  0.46274631863E+03  0.47748519945E+03  0.00000000000E+00 0. -1.
         22    1    3    3    0    0  0.95470235548E+01 -0.21762522698E+01 -0.16249718315E+03  0.16279194165E+03  0.00000000000E+00 0.  1.
         22    1    3    3    0    0 -0.59345178738E+02  0.12431043367E+03 -0.20206686377E+03  0.24455255384E+03  0.00000000000E+00 0.  1.
</event>
<event>
 7    1  0.6176857E-006  0.1048336E+03  0.7818608E-02  0.1277593E+00
          2   -1    0    0  502    0  0.00000000000E+00  0.00000000000E+00  0.65447669458E+03  0.65447669458E+03  0.00000000000E+00 0. -1.
          1   -1    0    0  501    0 -0.00000000000E+00 -0.00000000000E+00 -0.14345083250E+03  0.14345083250E+03  0.00000000000E+00 0. -1.
         25    2    1    2    0    0 -0.85839229646E+02  0.84776588680E+01  0.98451939500E+02  0.18098821566E+03  0.12499482297E+03 0.  0.
          2    1    1    2  501    0  0.58786418149E+02  0.92805297653E+02 -0.65234043453E+02  0.12776598396E+03  0.00000000000E+00 0. -1.
          1    1    1    2  502    0  0.27052811497E+02 -0.10128295652E+03  0.47780796603E+03  0.48917332746E+03  0.00000000000E+00 0. -1.
         22    1    3    3    0    0 -0.40177446732E+02  0.60880932704E+02  0.18905696126E+02  0.75353437471E+02  0.00000000000E+00 0. -1.
         22    1    3    3    0    0 -0.45661782914E+02 -0.52403273835E+02  0.79546243374E+02  0.10563477819E+03  0.00000000000E+00 0. -1.
</event>
<event>
 7    1  0.6176857E-006  0.7210870E+02  0.7818608E-02  0.1434694E+00
          2   -1    0    0  502    0  0.00000000000E+00  0.00000000000E+00  0.11845398530E+04  0.11845398530E+04  0.00000000000E+00 0. -1.
          1   -1    0    0  501    0 -0.00000000000E+00 -0.00000000000E+00 -0.15663162118E+02  0.15663162118E+02  0.00000000000E+00 0. -1.
         25    2    1    2    0    0  0.44659776939E+02  0.14421746785E+02  0.66946384279E+03  0.68264795029E+03  0.12499561900E+03 0.  0.
          2    1    1    2  501    0 -0.66220894362E+02 -0.45153808327E+02  0.19490219892E+03  0.21073903388E+03  0.00000000000E+00 0. -1.
          1    1    1    2  502    0  0.21561117422E+02  0.30732061542E+02  0.30451064921E+03  0.30681603099E+03  0.00000000000E+00 0. -1.
         22    1    3    3    0    0 -0.31974841050E+02  0.34490061476E+02  0.36621125514E+03  0.36921895698E+03  0.00000000000E+00 0.  1.
         22    1    3    3    0    0  0.76634617990E+02 -0.20068314691E+02  0.30325258765E+03  0.31342899331E+03  0.00000000000E+00 0.  1.
</event>
<event>
 7    1  0.6176857E-006  0.1094013E+03  0.7818608E-02  0.1263109E+00
          2   -1    0    0  502    0  0.00000000000E+00  0.00000000000E+00  0.41207510622E+04  0.41207510622E+04  0.00000000000E+00 0. -1.
          1   -1    0    0  501    0 -0.00000000000E+00 -0.00000000000E+00 -0.24378835744E+03  0.24378835744E+03  0.00000000000E+00 0. -1.
         25    2    1    2    0    0 -0.32822329397E+02 -0.18270883676E+02  0.62646332201E+03  0.63991542029E+03  0.12499728316E+03 0.  0.
          2    1    1    2  501    0  0.77864443303E+02 -0.79760899748E+02 -0.22307562412E+03  0.24937402979E+03  0.00000000000E+00 0. -1.
          1    1    1    2  502    0 -0.45042113906E+02  0.98031783424E+02  0.34735750069E+04  0.34752499696E+04  0.00000000000E+00 0. -1.
         22    1    3    3    0    0  0.28760751460E+02  0.44345216377E+01  0.38300687688E+02  0.48101855308E+02  0.00000000000E+00 0. -1.
         22    1    3    3    0    0 -0.61583080857E+02 -0.22705405314E+02  0.58816263433E+03  0.59181356498E+03  0.00000000000E+00 0. -1.
</event>
<event>
 7    1  0.6176857E-006  0.6400291E+02  0.7818608E-02  0.1402770E+00
          2   -1    0    0  502    0  0.00000000000E+00  0.00000000000E+00  0.13110265624E+04  0.13110265624E+04  0.00000000000E+00 0. -1.
          1   -1    0    0  501    0 -0.00000000000E+00 -0.00000000000E+00 -0.99462017880E+02  0.99462017880E+02  0.00000000000E+00 0. -1.
         25    2    1    2    0    0 -0.45417849856E+02 -0.25942367204E+02  0.10020822219E+04  0.10111999535E+04  0.12498311537E+03 0.  0.
          2    1    1    2  501    0  0.58663172374E+02 -0.26502503278E+02 -0.81197679382E+02  0.10361859683E+03  0.00000000000E+00 0. -1.
          1    1    1    2  502    0 -0.13245322518E+02  0.52444870482E+02  0.29068000200E+03  0.29567002989E+03  0.00000000000E+00 0. -1.
         22    1    3    3    0    0 -0.54524872760E+02 -0.25673448370E+02  0.19577485862E+03  0.20484111640E+03  0.00000000000E+00 0.  1.
         22    1    3    3    0    0  0.91070229038E+01 -0.26891883383E+00  0.80630736326E+03  0.80635883714E+03  0.00000000000E+00 0.  1.
</event>
<event>
 7    1  0.6176857E-006  0.1137366E+03  0.7818608E-02  0.1370512E+00
          2   -1    0    0  502    0  0.00000000000E+00  0.00000000000E+00  0.23265768291E+04  0.23265768291E+04  0.00000000000E+00 0. -1.
          1   -1    0    0  501    0 -0.00000000000E+00 -0.00000000000E+00 -0.17214214443E+03  0.17214214443E+03  0.00000000000E+00 0. -1.
         25    2    1    2    0    0 -0.63461448297E+01  0.74514836365E+02 -0.90619645067E+02  0.17155063564E+03  0.12499986449E+03 0.  0.
          2    1    1    2  501    0 -0.71245083532E+01  0.38850001596E+02 -0.29782964652E+02  0.49468234522E+02  0.00000000000E+00 0. -1.
          1    1    1    2  502    0  0.13470653183E+02 -0.11336483796E+03  0.22748372944E+04  0.22777001034E+04  0.00000000000E+00 0. -1.
         22    1    3    3    0    0  0.39565689816E+02  0.15046734800E+02 -0.86508005084E+02  0.96309308909E+02  0.00000000000E+00 0.  1.
         22    1    3    3    0    0 -0.45911834646E+02  0.59468101564E+02 -0.41116399828E+01  0.75241326727E+02  0.00000000000E+00 0.  1.
</event>
<event>
 7    1  0.6176857E-006  0.6953763E+02  0.7818608E-02  0.1379097E+00
          2   -1    0    0  502    0  0.00000000000E+00  0.00000000000E+00  0.25696876109E+03  0.25696876109E+03  0.00000000000E+00 0. -1.
          1   -1    0    0  501    0 -0.00000000000E+00 -0.00000000000E+00 -0.44343073769E+03  0.44343073769E+03  0.00000000000E+00 0. -1.
         25    2    1    2    0    0 -0.35436969975E+02  0.12020797645E+03 -0.83023078414E+02  0.19550903900E+03  0.12500086535E+03 0.  0.
          2    1    1    2  501    0  0.11500310246E+02 -0.64969063116E+02 -0.29593454396E+03  0.30320041326E+03  0.00000000000E+00 0. -1.
          1    1    1    2  502    0  0.23936659730E+02 -0.55238913335E+02  0.19249564576E+03  0.20169004652E+03  0.00000000000E+00 0. -1.
         22    1    3    3    0    0  0.32676848770E+02  0.72849433189E+02 -0.24777733439E+01  0.79880884586E+02  0.00000000000E+00 0. -1.
         22    1    3    3    0    0 -0.68113818745E+02  0.47358543262E+02 -0.80545305070E+02  0.11562815441E+03  0.00000000000E+00 0. -1.
</event>
<event>
 7    1  0.7763598E-006  0.5639772E+02  0.7818608E-02  0.1418178E+00
          2   -1    0    0  502    0  0.00000000000E+00  0.00000000000E+00  0.15106564529E+04  0.15106564529E+04  0.00000000000E+00 0. -1.
          1   -1    0    0  501    0 -0.00000000000E+00 -0.00000000000E+00 -0.59045621053E+03  0.59045621053E+03  0.00000000000E+00 0. -1.
         25    2    1    2    0    0 -0.54726053854E+02 -0.12130231910E+02 -0.60897732855E+01  0.13712299932E+03  0.12499419230E+03 0.  0.
          2    1    1    2  501    0  0.14905415954E+02  0.52355863944E+02 -0.51686568734E+03  0.51972439491E+03  0.00000000000E+00 0. -1.
          1    1    1    2  502    0  0.39820637900E+02 -0.40225632034E+02  0.14431557030E+04  0.14442652692E+04  0.00000000000E+00 0. -1.
         22    1    3    3    0    0 -0.56418294880E+02 -0.56449415530E+02  0.24220352526E+02  0.83403752837E+02  0.00000000000E+00 0.  1.
         22    1    3    3    0    0  0.16922410259E+01  0.44319183620E+02 -0.30310125812E+02  0.53719246487E+02  0.00000000000E+00 0.  1.
</event>
<event>
 7    1  0.6176857E-006  0.8204851E+02  0.7818608E-02  0.1437367E+00
          2   -1    0    0  502    0  0.00000000000E+00  0.00000000000E+00  0.66233182155E+03  0.66233182155E+03  0.00000000000E+00 0. -1.
          1   -1    0    0  501    0 -0.00000000000E+00 -0.00000000000E+00 -0.43873427662E+03  0.43873427662E+03  0.00000000000E+00 0. -1.
         25    2    1    2    0    0 -0.92580996959E+02 -0.32733546163E+02 -0.23496441671E+03  0.28368239567E+03  0.12499879380E+03 0.  0.
          2    1    1    2  501    0  0.77334796209E+02  0.42163187119E+01 -0.17061772723E+03  0.18737357576E+03  0.00000000000E+00 0. -1.
          1    1    1    2  502    0  0.15246200750E+02  0.28517227451E+02  0.62917968887E+03  0.63001012674E+03  0.00000000000E+00 0. -1.
         22    1    3    3    0    0  0.17669051174E+02 -0.44567088989E+02 -0.65692015098E+02  0.81325651783E+02  0.00000000000E+00 0. -1.
         22    1    3    3    0    0 -0.11025004813E+03  0.11833542826E+02 -0.16927240161E+03  0.20235674388E+03  0.00000000000E+00 0. -1.
</event>
<event>
 7    1  0.6176857E-006  0.6633492E+02  0.7818608E-02  0.1411094E+00
          2   -1    0    0  502    0  0.00000000000E+00  0.00000000000E+00  0.66758121672E+02  0.66758121672E+02  0.00000000000E+00 0. -1.
          1   -1    0    0  501    0 -0.00000000000E+00 -0.00000000000E+00 -0.12901910152E+04  0.12901910152E+04  0.00000000000E+00 0. -1.
         25    2    1    2    0    0 -0.31684004744E+02  0.21534256488E+02 -0.80409042701E+03  0.81464953557E+03  0.12499940256E+03 0.  0.
          2    1    1    2  501    0 -0.34220345875E+02 -0.34922303640E+02 -0.46074119342E+03  0.46332822780E+03  0.00000000000E+00 0. -1.
          1    1    1    2  502    0  0.65904350619E+02  0.13388047152E+02  0.41398726928E+02  0.78971373473E+02  0.00000000000E+00 0. -1.
         22    1    3    3    0    0 -0.25982907784E+01  0.71656672169E+02 -0.39193427605E+03  0.39843933858E+03  0.00000000000E+00 0. -1.
         22    1    3    3    0    0 -0.29085713965E+02 -0.50122415681E+02 -0.41215615096E+03  0.41621019700E+03  0.00000000000E+00 0. -1.
</event>
<event>
 7    1  0.6176857E-006  0.6611773E+02  0.7818608E-02  0.1420347E+00
          2   -1    0    0  502    0  0.00000000000E+00  0.00000000000E+00  0.89270438175E+03  0.89270438175E+03  0.00000000000E+00 0. -1.
          1   -1    0    0  501    0 -0.00000000000E+00 -0.00000000000E+00 -0.32962847472E+02  0.32962847472E+02  0.00000000000E+00 0. -1.
         25    2    1    2    0    0 -0.57693942118E+02 -0.50624513189E+02  0.37497087094E+03  0.40264491255E+03  0.12501335631E+03 0.  0.
          2    1    1    2  501    0  0.14315521879E+02  0.64892243768E+02  0.43564781294E+02  0.79459597514E+02  0.00000000000E+00 0. -1.
          1    1    1    2  502    0  0.43378420239E+02 -0.14267730579E+02  0.44120588204E+03  0.44356271915E+03  0.00000000000E+00 0. -1.
         22    1    3    3    0    0 -0.19498223141E+02  0.37932562689E+02  0.18181301802E+03  0.18674858377E+03  0.00000000000E+00 0. -1.
         22    1    3    3    0    0 -0.38195718977E+02 -0.88557075878E+02  0.19315785292E+03  0.21589632878E+03  0.00000000000E+00 0. -1.
</event>
<event>
 7    1  0.6176857E-006  0.6038344E+02  0.7818608E-02  0.1521966E+00
          2   -1    0    0  502    0  0.00000000000E+00  0.00000000000E+00  0.40134136279E+03  0.40134136279E+03  0.00000000000E+00 0. -1.
          1   -1    0    0  501    0 -0.00000000000E+00 -0.00000000000E+00 -0.43026381282E+03  0.43026381282E+03  0.00000000000E+00 0. -1.
         25    2    1    2    0    0 -0.38552175004E+02 -0.40105057787E+01  0.98670278324E+01  0.13124140946E+03  0.12499837985E+03 0.  0.
          2    1    1    2  501    0 -0.20567933824E+02 -0.12664246348E+02 -0.36632375115E+03  0.36711920910E+03  0.00000000000E+00 0. -1.
          1    1    1    2  502    0  0.59120108828E+02  0.16674752127E+02  0.32753427329E+03  0.33324455705E+03  0.00000000000E+00 0. -1.
         22    1    3    3    0    0 -0.37194536582E+02 -0.62044659182E+02  0.11055496462E+02  0.73179213487E+02  0.00000000000E+00 0. -1.
         22    1    3    3    0    0 -0.13576384223E+01  0.58034153403E+02 -0.11884686299E+01  0.58062195971E+02  0.00000000000E+00 0. -1.
</event>
<event>
 7    1  0.6176857E-006  0.6572387E+02  0.7818608E-02  0.1448242E+00
          2   -1    0    0  502    0  0.00000000000E+00  0.00000000000E+00  0.13347801414E+04  0.13347801414E+04  0.00000000000E+00 0. -1.
          1   -1    0    0  501    0 -0.00000000000E+00 -0.00000000000E+00 -0.13043569070E+03  0.13043569070E+03  0.00000000000E+00 0. -1.
         25    2    1    2    0    0  0.41917927145E+02 -0.90260815055E+01  0.72612142455E+02  0.15078534896E+03  0.12500046187E+03 0.  0.
          2    1    1    2  501    0 -0.52479504946E+02  0.44726856710E+02 -0.78009645947E+02  0.10411577696E+03  0.00000000000E+00 0. -1.
          1    1    1    2  502    0  0.10561577801E+02 -0.35700775204E+02  0.12097419542E+04  0.12103147062E+04  0.00000000000E+00 0. -1.
         22    1    3    3    0    0 -0.14190366187E+02  0.42183863950E+02  0.58525159841E+02  0.73525772384E+02  0.00000000000E+00 0. -1.
         22    1    3    3    0    0  0.56108293332E+02 -0.51209945455E+02  0.14086982614E+02  0.77259576580E+02  0.00000000000E+00 0. -1.
</event>
<event>
 7    1  0.6176857E-006  0.7502466E+02  0.7818608E-02  0.1399797E+00
          2   -1    0    0  502    0  0.00000000000E+00  0.00000000000E+00  0.50860401311E+03  0.50860401311E+03  0.00000000000E+00 0. -1.
          1   -1    0    0  501    0 -0.00000000000E+00 -0.00000000000E+00 -0.94770985454E+03  0.94770985454E+03  0.00000000000E+00 0. -1.
         25    2    1    2    0    0  0.37222709039E+01 -0.41953713347E+02 -0.53922772512E+03  0.55512530022E+03  0.12499436005E+03 0.  0.
          2    1    1    2  501    0 -0.41062502736E+02 -0.23359954600E+02 -0.39629606337E+03  0.39910197501E+03  0.00000000000E+00 0. -1.
          1    1    1    2  502    0  0.37340231832E+02  0.65313667947E+02  0.49641794706E+03  0.50208659243E+03  0.00000000000E+00 0. -1.
         22    1    3    3    0    0  0.25240899871E+02  0.36933055605E+02 -0.12158827396E+03  0.12955640465E+03  0.00000000000E+00 0.  1.
         22    1    3    3    0    0 -0.21518628967E+02 -0.78886768951E+02 -0.41763945116E+03  0.42556889557E+03  0.00000000000E+00 0.  1.
</event>
<event>
 7    1  0.6176857E-006  0.8554783E+02  0.7818608E-02  0.1326862E+00
          2   -1    0    0  502    0  0.00000000000E+00  0.00000000000E+00  0.95725954789E+03  0.95725954789E+03  0.00000000000E+00 0. -1.
          1   -1    0    0  501    0 -0.00000000000E+00 -0.00000000000E+00 -0.56835560042E+03  0.56835560042E+03  0.00000000000E+00 0. -1.
         25    2    1    2    0    0 -0.46573900743E+02  0.10215306927E+02  0.26926901743E+03  0.30067896053E+03  0.12501421053E+03 0.  0.
          2    1    1    2  501    0  0.23698855981E+02 -0.82975240146E+02 -0.54709459105E+03  0.55385830120E+03  0.00000000000E+00 0. -1.
          1    1    1    2  502    0  0.22875044762E+02  0.72759933220E+02  0.66672952109E+03  0.67107788658E+03  0.00000000000E+00 0. -1.
         22    1    3    3    0    0 -0.63504815204E+02 -0.29866391988E+02  0.79755330225E+02  0.10623453122E+03  0.00000000000E+00 0. -1.
         22    1    3    3    0    0  0.16930914462E+02  0.40081698915E+02  0.18951368720E+03  0.19444442931E+03  0.00000000000E+00 0. -1.
</event>
<event>
 7    1  0.6176857E-006  0.7354245E+02  0.7818608E-02  0.1428113E+00
          2   -1    0    0  502    0  0.00000000000E+00  0.00000000000E+00  0.30088729371E+03  0.30088729371E+03  0.00000000000E+00 0. -1.
          1   -1    0    0  501    0 -0.00000000000E+00 -0.00000000000E+00 -0.15261244613E+04  0.15261244613E+04  0.00000000000E+00 0. -1.
         25    2    1    2    0    0 -0.10249051659E+03  0.28052870005E+02 -0.31876241330E+03  0.35850586670E+03  0.12500284324E+03 0.  0.
          2    1    1    2  501    0  0.38116689365E+02  0.66247284596E+01 -0.11824121480E+04  0.11830449090E+04  0.00000000000E+00 0. -1.
          1    1    1    2  502    0  0.64373827229E+02 -0.34677598465E+02  0.27593739369E+03  0.28546097930E+03  0.00000000000E+00 0. -1.
         22    1    3    3    0    0 -0.34631662967E+02 -0.47803493339E+02 -0.15297698500E+03  0.16397098522E+03  0.00000000000E+00 0. -1.
         22    1    3    3    0    0 -0.67858853626E+02  0.75856363344E+02 -0.16578542831E+03  0.19453488148E+03  0.00000000000E+00 0. -1.
</event>
<event>
 7    1  0.6176857E-006  0.9304099E+02  0.7818608E-02  0.1370787E+00
          2   -1    0    0  502    0  0.00000000000E+00  0.00000000000E+00  0.57570404970E+03  0.57570404970E+03  0.00000000000E+00 0. -1.
          1   -1    0    0  501    0 -0.00000000000E+00 -0.00000000000E+00 -0.21904972233E+04  0.21904972233E+04  0.00000000000E+00 0. -1.
         25    2    1    2    0    0  0.13548944136E+03 -0.97646652328E+01 -0.20465110533E+03  0.27560820098E+03  0.12500027252E+03 0.  0.
          2    1    1    2  501    0 -0.43711946433E+02  0.20248062340E+02 -0.19461184957E+04  0.19467146472E+04  0.00000000000E+00 0. -1.
          1    1    1    2  502    0 -0.91777494928E+02 -0.10483397107E+02  0.53597642745E+03  0.54387842481E+03  0.00000000000E+00 0. -1.
         22    1    3    3    0    0  0.43519601074E+02 -0.84273451477E+01  0.69602033623E+01  0.44871151698E+02  0.00000000000E+00 0.  1.
         22    1    3    3    0    0  0.91969840287E+02 -0.13373200851E+01 -0.21161130869E+03  0.23073704929E+03  0.00000000000E+00 0.  1.
</event>
<event>
 7    1  0.6176857E-006  0.5934511E+02  0.7818608E-02  0.1416609E+00
          2   -1    0    0  502    0  0.00000000000E+00  0.00000000000E+00  0.23376633087E+04  0.23376633087E+04  0.00000000000E+00 0. -1.
          1   -1    0    0  501    0 -0.00000000000E+00 -0.00000000000E+00 -0.10840973825E+03  0.10840973825E+03  0.00000000000E+00 0. -1.
         25    2    1    2    0    0 -0.54442682338E+02  0.81998336057E+02  0.24801380405E+02  0.16102056422E+03  0.12499912342E+03 0.  0.
          2    1    1    2  501    0  0.32797839455E+01 -0.52260289411E+02 -0.22730391329E+02  0.57083846419E+02  0.00000000000E+00 0. -1.
          1    1    1    2  502    0  0.51162898393E+02 -0.29738046646E+02  0.22271825814E+04  0.22279686364E+04  0.00000000000E+00 0. -1.
         22    1    3    3    0    0 -0.60526597944E+02  0.61172707616E+02  0.69969929002E+02  0.11091149706E+03  0.00000000000E+00 0. -1.
         22    1    3    3    0    0  0.60839156058E+01  0.20825628441E+02 -0.45168548597E+02  0.50109067158E+02  0.00000000000E+00 0. -1.
</event>
<event>
 7    1  0.6176857E-006  0.7757020E+02  0.7818608E-02  0.1471652E+00
          2   -1    0    0  502    0  0.00000000000E+00  0.00000000000E+00  0.28258498213E+04  0.28258498213E+04  0.00000000000E+00 0. -1.
          1   -1    0    0  501    0 -0.00000000000E+00 -0.00000000000E+00 -0.17830763035E+03  0.17830763035E+03  0.00000000000E+00 0. -1.
         25    2    1    2    0    0 -0.55647410123E+02  0.35451767008E+02  0.17024699040E+03  0.22127415860E+03  0.12499901395E+03 0.  0.
          2    1    1    2  501    0 -0.20143140467E+02 -0.17389677543E+02 -0.15105371512E+03  0.15337982867E+03  0.00000000000E+00 0. -1.
          1    1    1    2  502    0  0.75790550590E+02 -0.18062089464E+02  0.26283489156E+04  0.26295034643E+04  0.00000000000E+00 0. -1.
         22    1    3    3    0    0 -0.93954031207E+02  0.24649031357E+02  0.14363828784E+03  0.17339807513E+03  0.00000000000E+00 0.  1.
         22    1    3    3    0    0  0.38306621085E+02  0.10802735651E+02  0.26608702560E+02  0.47876083470E+02  0.00000000000E+00 0.  1.
</event>
<event>
 7    1  0.6176857E-006  0.2702473E+03  0.7818608E-02  0.1263969E+00
          2   -1    0    0  502    0  0.00000000000E+00  0.00000000000E+00  0.27699000697E+04  0.27699000697E+04  0.00000000000E+00 0. -1.
          1   -1    0    0  501    0 -0.00000000000E+00 -0.00000000000E+00 -0.20971875336E+03  0.20971875336E+03  0.00000000000E+00 0. -1.
         25    2    1    2    0    0 -0.22998492121E+03  0.68705669342E+01  0.88223305512E+02  0.27631287433E+03  0.12500073683E+03 0.  0.
          2    1    1    2  501    0 -0.43291666417E+02 -0.11947365397E+01 -0.10411978100E+03  0.11276756879E+03  0.00000000000E+00 0. -1.
          1    1    1    2  502    0  0.27327658763E+03 -0.56758303945E+01  0.25760777919E+04  0.25905383800E+04  0.00000000000E+00 0. -1.
         22    1    3    3    0    0 -0.17990073797E+03  0.52739770461E+02  0.36614422325E+02  0.19101406972E+03  0.00000000000E+00 0. -1.
         22    1    3    3    0    0 -0.50084183246E+02 -0.45869203527E+02  0.51608883188E+02  0.85298804607E+02  0.00000000000E+00 0. -1.
</event>
<event>
 7    1  0.6176857E-006  0.6281968E+02  0.7818608E-02  0.1422679E+00
          2   -1    0    0  502    0  0.00000000000E+00  0.00000000000E+00  0.13679272587E+03  0.13679272587E+03  0.00000000000E+00 0. -1.
          1   -1    0    0  501    0 -0.00000000000E+00 -0.00000000000E+00 -0.11793563996E+04  0.11793563996E+04  0.00000000000E+00 0. -1.
         25    2    1    2    0    0 -0.56497327917E+02 -0.31612435235E+02 -0.14558042781E+03  0.20251133358E+03  0.12500354054E+03 0.  0.
          2    1    1    2  501    0  0.37237183525E+02 -0.29019366137E+02 -0.99536242411E+03  0.99648135296E+03  0.00000000000E+00 0. -1.
          1    1    1    2  502    0  0.19260144392E+02  0.60631801372E+02  0.98379178151E+02  0.11715643897E+03  0.00000000000E+00 0. -1.
         22    1    3    3    0    0  0.26343349814E+02  0.19116300553E+02 -0.77017544992E+02  0.83612841494E+02  0.00000000000E+00 0.  1.
         22    1    3    3    0    0 -0.82840677731E+02 -0.50728735787E+02 -0.68562882815E+02  0.11889849209E+03  0.00000000000E+00 0.  1.
</event>
<event>
 7    1  0.6176857E-006  0.3328572E+02  0.7818608E-02  0.1566486E+00
          2   -1    0    0  502    0  0.00000000000E+00  0.00000000000E+00  0.13641656017E+04  0.13641656017E+04  0.00000000000E+00 0. -1.
          1   -1    0    0  501    0 -0.00000000000E+00 -0.00000000000E+00 -0.92183424817E+02  0.92183424817E+02  0.00000000000E+00 0. -1.
         25    2    1    2    0    0 -0.16860243596E+01 -0.39526626437E+01  0.13508635738E+03  0.18409617565E+03  0.12499844686E+03 0.  0.
          2    1    1    2  501    0 -0.28510634263E+02  0.17956266254E+02 -0.63239754448E+02  0.71655776505E+02  0.00000000000E+00 0. -1.
          1    1    1    2  502    0  0.30196658623E+02 -0.14003603611E+02  0.12001355739E+04  0.12005970744E+04  0.00000000000E+00 0. -1.
         22    1    3    3    0    0  0.80639553291E+01  0.34975404589E+02 -0.68977508418E+01  0.36549764272E+02  0.00000000000E+00 0.  1.
         22    1    3    3    0    0 -0.97499796887E+01 -0.38928067232E+02  0.14198410822E+03  0.14754641138E+03  0.00000000000E+00 0.  1.
</event>
<event>
 7    1  0.6176857E-006  0.1116719E+03  0.7818608E-02  0.1449715E+00
          2   -1    0    0  502    0  0.00000000000E+00  0.00000000000E+00  0.11914069196E+04  0.11914069196E+04  0.00000000000E+00 0. -1.
          1   -1    0    0  501    0 -0.00000000000E+00 -0.00000000000E+00 -0.11631715990E+03  0.11631715990E+03  0.00000000000E+00 0. -1.
         25    2    1    2    0    0 -0.93920623782E+02 -0.15225337858E+02  0.39450571901E+03  0.42463261164E+03  0.12500079221E+03 0.  0.
          2    1    1    2  501    0 -0.20243485715E+02 -0.77458697524E+01 -0.95698751762E+02  0.98122618702E+02  0.00000000000E+00 0. -1.
          1    1    1    2  502    0  0.11416410950E+03  0.22971207611E+02  0.77628279251E+03  0.78496884920E+03  0.00000000000E+00 0. -1.
         22    1    3    3    0    0 -0.19113818755E+02  0.52656655204E+02  0.13518760977E+03  0.14633438161E+03  0.00000000000E+00 0.  1.
         22    1    3    3    0    0 -0.74806805027E+02 -0.67881993062E+02  0.25931810924E+03  0.27829823003E+03  0.00000000000E+00 0.  1.
</event>
<event>
 7    1  0.6176857E-006  0.1262239E+03  0.7818608E-02  0.1273801E+00
          2   -1    0    0  502    0  0.00000000000E+00  0.00000000000E+00  0.46955478210E+03  0.46955478210E+03  0.00000000000E+00 0. -1.
          1   -1    0    0  501    0 -0.00000000000E+00 -0.00000000000E+00 -0.19322286391E+03  0.19322286391E+03  0.00000000000E+00 0. -1.
         25    2    1    2    0    0  0.57470461503E+02 -0.87283543780E+01  0.10738553927E+03  0.17474242289E+03  0.12499688875E+03 0.  0.
          2    1    1    2  501    0 -0.14175096441E+03  0.10520462306E+02 -0.12063585592E+03  0.18643236246E+03  0.00000000000E+00 0. -1.
          1    1    1    2  502    0  0.84280502903E+02 -0.17921079282E+01  0.28958223485E+03  0.30160286066E+03  0.00000000000E+00 0. -1.
         22    1    3    3    0    0  0.85024167383E+02 -0.39255599532E+02  0.90675145429E+02  0.13035372312E+03  0.00000000000E+00 0.  1.
         22    1    3    3    0    0 -0.27553705880E+02  0.30527245154E+02  0.16710393845E+02  0.44388699765E+02  0.00000000000E+00 0.  1.
</event>
<event>
 7    1  0.6176857E-006  0.8152044E+02  0.7818608E-02  0.1358215E+00
          2   -1    0    0  502    0  0.00000000000E+00  0.00000000000E+00  0.16563401184E+03  0.16563401184E+03  0.00000000000E+00 0. -1.
          1   -1    0    0  501    0 -0.00000000000E+00 -0.00000000000E+00 -0.23405320507E+04  0.23405320507E+04  0.00000000000E+00 0. -1.
         25    2    1    2    0    0  0.11343828867E+03  0.77678373699E+02 -0.17678378201E+04  0.17775764134E+04  0.12500068815E+03 0.  0.
          2    1    1    2  501    0 -0.58350323133E+02 -0.18004979448E+02 -0.55578823318E+03  0.55913281037E+03  0.00000000000E+00 0. -1.
          1    1    1    2  502    0 -0.55087965535E+02 -0.59673394251E+02  0.14872801445E+03  0.16945683879E+03  0.00000000000E+00 0. -1.
         22    1    3    3    0    0  0.44615050818E+02  0.58488853328E+01 -0.12167584419E+04  0.12175901684E+04  0.00000000000E+00 0. -1.
         22    1    3    3    0    0  0.68823237850E+02  0.71829488366E+02 -0.55107937822E+03  0.55998624498E+03  0.00000000000E+00 0. -1.
</event>
<event>
 7    1  0.6176857E-006  0.1395241E+03  0.7818608E-02  0.1259592E+00
          2   -1    0    0  502    0  0.00000000000E+00  0.00000000000E+00  0.88557186242E+03  0.88557186242E+03  0.00000000000E+00 0. -1.
          1   -1    0    0  501    0 -0.00000000000E+00 -0.00000000000E+00 -0.25780109095E+04  0.25780109095E+04  0.00000000000E+00 0. -1.
         25    2    1    2    0    0 -0.56510427226E+02  0.16872490085E+03 -0.31083882630E+03  0.37935136399E+03  0.12500064349E+03 0.  0.
          2    1    1    2  501    0 -0.46013267846E+02 -0.74496311673E+02 -0.22263552898E+04  0.22280764793E+04  0.00000000000E+00 0. -1.
          1    1    1    2  502    0  0.10252369507E+03 -0.94228589181E+02  0.84475506904E+03  0.85615492859E+03  0.00000000000E+00 0. -1.
         22    1    3    3    0    0  0.55327467330E+01 -0.15401619288E+02 -0.51816079271E+01  0.17165961197E+02  0.00000000000E+00 0. -1.
         22    1    3    3    0    0 -0.62043173959E+02  0.18412652014E+03 -0.30565721838E+03  0.36218540280E+03  0.00000000000E+00 0. -1.
</event>
<event>
 7    1  0.6176857E-006  0.1364355E+03  0.7818608E-02  0.1331715E+00
          2   -1    0    0  502    0  0.00000000000E+00  0.00000000000E+00  0.91266393121E+03  0.91266393121E+03  0.00000000000E+00 0. -1.
          1   -1    0    0  501    0 -0.00000000000E+00 -0.00000000000E+00 -0.50333692731E+03  0.50333692731E+03  0.00000000000E+00 0. -1.
         25    2    1    2    0    0  0.21834860593E+02  0.17914577155E+03  0.69197589781E+03  0.72596500380E+03  0.12499829994E+03 0.  0.
          2    1    1    2  501    0 -0.74342772033E+01 -0.13564464153E+03 -0.47409916159E+03  0.49317821553E+03  0.00000000000E+00 0. -1.
          1    1    1    2  502    0 -0.14400583389E+02 -0.43501130022E+02  0.19145026768E+03  0.19685763919E+03  0.00000000000E+00 0. -1.
         22    1    3    3    0    0  0.66630645000E+02  0.13813963886E+03  0.56113350567E+03  0.58171557815E+03  0.00000000000E+00 0.  1.
         22    1    3    3    0    0 -0.44795784407E+02  0.41006132697E+02  0.13084239214E+03  0.14424942565E+03  0.00000000000E+00 0.  1.
</event>
<event>
 7    1  0.6176857E-006  0.6226081E+02  0.7818608E-02  0.1427154E+00
          2   -1    0    0  502    0  0.00000000000E+00  0.00000000000E+00  0.18658721820E+04  0.18658721820E+04  0.00000000000E+00 0. -1.
          1   -1    0    0  501    0 -0.00000000000E+00 -0.00000000000E+00 -0.89382865419E+03  0.89382865419E+03  0.00000000000E+00 0. -1.
         25    2    1    2    0    0  0.56529567191E+02  0.44926017467E+01  0.13826347823E+03  0.19482837154E+03  0.12500211802E+03 0.  0.
          2    1    1    2  501    0 -0.88134167258E+01 -0.45181512252E+02 -0.86435500895E+03  0.86557993672E+03  0.00000000000E+00 0. -1.
          1    1    1    2  502    0 -0.47716150465E+02  0.40688910505E+02  0.16981350585E+04  0.16992925279E+04  0.00000000000E+00 0. -1.
         22    1    3    3    0    0  0.61473409034E+02 -0.50897040420E+02  0.96823363142E+02  0.12547610287E+03  0.00000000000E+00 0. -1.
         22    1    3    3    0    0 -0.49438418431E+01  0.55389642166E+02  0.41440115085E+02  0.69352268670E+02  0.00000000000E+00 0. -1.
</event>
<event>
 7    1  0.6176857E-006  0.8079552E+02  0.7818608E-02  0.1389598E+00
          2   -1    0    0  502    0  0.00000000000E+00  0.00000000000E+00  0.21889770012E+02  0.21889770012E+02  0.00000000000E+00 0. -1.
          1   -1    0    0  501    0 -0.00000000000E+00 -0.00000000000E+00 -0.36723090131E+04  0.36723090131E+04  0.00000000000E+00 0. -1.
         25    2    1    2    0    0 -0.51276595828E+02 -0.25120327079E+02 -0.31058017034E+03  0.33962628470E+03  0.12500260373E+03 0.  0.
          2    1    1    2  501    0  0.81106492020E+02 -0.11956978821E+02 -0.32640674680E+04  0.32650968849E+04  0.00000000000E+00 0. -1.
          1    1    1    2  502    0 -0.29829896192E+02  0.37077305899E+02 -0.75771604743E+02  0.89475613465E+02  0.00000000000E+00 0. -1.
         22    1    3    3    0    0  0.57075263968E+01 -0.12665388543E+01  0.10843984646E+02  0.12319577153E+02  0.00000000000E+00 0. -1.
         22    1    3    3    0    0 -0.56984122225E+02 -0.23853788224E+02 -0.32142415499E+03  0.32730670755E+03  0.00000000000E+00 0. -1.
</event>
<event>
 7    1  0.6176857E-006  0.8169362E+02  0.7818608E-02  0.1342091E+00
          2   -1    0    0  502    0  0.00000000000E+00  0.00000000000E+00  0.20750241763E+03  0.20750241763E+03  0.00000000000E+00 0. -1.
          1   -1    0    0  501    0 -0.00000000000E+00 -0.00000000000E+00 -0.17645370326E+04  0.17645370326E+04  0.00000000000E+00 0. -1.
         25    2    1    2    0    0 -0.65268652533E+02 -0.78961201797E+02 -0.46139779119E+03  0.48888423792E+03  0.12500003192E+03 0.  0.
          2    1    1    2  501    0  0.81338912424E+02  0.10913187679E+02 -0.12817328627E+04  0.12843575233E+04  0.00000000000E+00 0. -1.
          1    1    1    2  502    0 -0.16070259891E+02  0.68048014118E+02  0.18609603889E+03  0.19879768904E+03  0.00000000000E+00 0. -1.
         22    1    3    3    0    0 -0.36165440925E+02 -0.11054068994E+03 -0.37101243753E+03  0.38881539585E+03  0.00000000000E+00 0.  1.
         22    1    3    3    0    0 -0.29103211608E+02  0.31579488138E+02 -0.90385353662E+02  0.10006884207E+03  0.00000000000E+00 0.  1.
</event>
<event>
 7    1  0.6176857E-006  0.9065458E+02  0.7818608E-02  0.1340963E+00
          2   -1    0    0  502    0  0.00000000000E+00  0.00000000000E+00  0.37383512824E+03  0.37383512824E+03  0.00000000000E+00 0. -1.
          1   -1    0    0  501    0 -0.00000000000E+00 -0.00000000000E+00 -0.71155982136E+03  0.71155982136E+03  0.00000000000E+00 0. -1.
         25    2    1    2    0    0  0.35479344426E+02  0.12819234914E+03  0.14005824722E+03  0.23006732107E+03  0.12499038903E+03 0.  0.
          2    1    1    2  501    0  0.14609821794E+02 -0.88958458392E+02 -0.65803202425E+03  0.66417858980E+03  0.00000000000E+00 0. -1.
          1    1    1    2  502    0 -0.50089166219E+02 -0.39233890748E+02  0.18024908392E+03  0.19114903873E+03  0.00000000000E+00 0. -1.
         22    1    3    3    0    0 -0.80798805488E+01  0.13762338190E+03  0.10898007397E+03  0.17573313927E+03  0.00000000000E+00 0.  1.
         22    1    3    3    0    0  0.43559224975E+02 -0.94310327555E+01  0.31078173250E+02  0.54334181799E+02  0.00000000000E+00 0.  1.
</event>
<event>
 7    1  0.6176857E-006  0.4255780E+02  0.7818608E-02  0.1577280E+00
          2   -1    0    0  502    0  0.00000000000E+00  0.00000000000E+00  0.34296648792E+03  0.34296648792E+03  0.00000000000E+00 0. -1.
          1   -1    0    0  501    0 -0.00000000000E+00 -0.00000000000E+00 -0.25409924328E+04  0.25409924328E+04  0.00000000000E+00 0. -1.
         25    2    1    2    0    0 -0.39270028655E+02  0.15071336442E+02 -0.77402057725E+03  0.78517633350E+03  0.12499896139E+03 0.  0.
          2    1    1    2  501    0 -0.23749908066E+01 -0.23898710311E+02 -0.17599688875E+04  0.17601327432E+04  0.00000000000E+00 0. -1.
          1    1    1    2  502    0  0.41645019461E+02  0.88273738691E+01  0.33596351984E+03  0.33864984399E+03  0.00000000000E+00 0. -1.
         22    1    3    3    0    0  0.38897806437E+02 -0.17363085453E+02 -0.36606368170E+03  0.36853376391E+03  0.00000000000E+00 0.  1.
         22    1    3    3    0    0 -0.78167835092E+02  0.32434421894E+02 -0.40795689556E+03  0.41664256959E+03  0.00000000000E+00 0.  1.
</event>
<event>
 7    1  0.6176857E-006  0.9572155E+02  0.7818608E-02  0.1352686E+00
          2   -1    0    0  502    0  0.00000000000E+00  0.00000000000E+00  0.32353759758E+03  0.32353759758E+03  0.00000000000E+00 0. -1.
          1   -1    0    0  501    0 -0.00000000000E+00 -0.00000000000E+00 -0.35476892671E+04  0.35476892671E+04  0.00000000000E+00 0. -1.
         25    2    1    2    0    0 -0.39229956060E+02  0.23333084051E+02 -0.13641752922E+03  0.19057238073E+03  0.12499867100E+03 0.  0.
          2    1    1    2  501    0  0.66978095191E+02 -0.70235746291E+02 -0.33809876824E+04  0.33823803502E+04  0.00000000000E+00 0. -1.
          1    1    1    2  502    0 -0.27748139131E+02  0.46902662240E+02  0.29325354204E+03  0.29827413376E+03  0.00000000000E+00 0. -1.
         22    1    3    3    0    0 -0.39087254775E+01 -0.32630858046E+02 -0.11711194096E+03  0.12163575851E+03  0.00000000000E+00 0.  1.
         22    1    3    3    0    0 -0.35321230582E+02  0.55963942097E+02 -0.19305588262E+02  0.68936622219E+02  0.00000000000E+00 0.  1.
</event>
<event>
 7    1  0.6176857E-006  0.1121920E+03  0.7818608E-02  0.1352461E+00
          2   -1    0    0  502    0  0.00000000000E+00  0.00000000000E+00  0.78492423633E+03  0.78492423633E+03  0.00000000000E+00 0. -1.
          1   -1    0    0  501    0 -0.00000000000E+00 -0.00000000000E+00 -0.23280507030E+04  0.23280507030E+04  0.00000000000E+00 0. -1.
         25    2    1    2    0    0 -0.96538409771E+02  0.29519188150E+02 -0.19078976617E+02  0.16180555894E+03  0.12500393804E+03 0.  0.
          2    1    1    2  501    0 -0.15725561809E+02 -0.43850420971E+02 -0.22328763983E+04  0.22333622999E+04  0.00000000000E+00 0. -1.
          1    1    1    2  502    0  0.11226397158E+03  0.14331232821E+02  0.70882890826E+03  0.71780708044E+03  0.00000000000E+00 0. -1.
         22    1    3    3    0    0 -0.12254465010E+03  0.44181562403E+02 -0.10230143724E+02  0.13066697197E+03  0.00000000000E+00 0.  1.
         22    1    3    3    0    0  0.26006240328E+02 -0.14662374253E+02 -0.88488328931E+01  0.31138586967E+02  0.00000000000E+00 0.  1.
</event>
<event>
 7    1  0.6176857E-006  0.5862657E+02  0.7818608E-02  0.1403916E+00
          2   -1    0    0  502    0  0.00000000000E+00  0.00000000000E+00  0.74333816256E+03  0.74333816256E+03  0.00000000000E+00 0. -1.
          1   -1    0    0  501    0 -0.00000000000E+00 -0.00000000000E+00 -0.45658041622E+03  0.45658041622E+03  0.00000000000E+00 0. -1.
         25    2    1    2    0    0 -0.35229313882E+01  0.42059825767E+02 -0.42126188984E+03  0.44143802801E+03  0.12499805100E+03 0.  0.
          2    1    1    2  501    0 -0.52779957490E+02 -0.25278876407E+02  0.11690756033E+02  0.59677627983E+02  0.00000000000E+00 0. -1.
          1    1    1    2  502    0  0.56302888878E+02 -0.16780949360E+02  0.69632888015E+03  0.69880292278E+03  0.00000000000E+00 0. -1.
         22    1    3    3    0    0  0.51766766376E+02  0.43102338464E+02 -0.30947076442E+03  0.31671716675E+03  0.00000000000E+00 0.  1.
         22    1    3    3    0    0 -0.55289697764E+02 -0.10425126967E+01 -0.11179112542E+03  0.12472086126E+03  0.00000000000E+00 0.  1.
</event>
<event>
 7    1  0.6176857E-006  0.5280975E+02  0.7818608E-02  0.1478763E+00
          2   -1    0    0  502    0  0.00000000000E+00  0.00000000000E+00  0.65162439823E+03  0.65162439823E+03  0.00000000000E+00 0. -1.
          1   -1    0    0  501    0 -0.00000000000E+00 -0.00000000000E+00 -0.34935742789E+03  0.34935742789E+03  0.00000000000E+00 0. -1.
         25    2    1    2    0    0  0.10814411542E+02 -0.14981276332E+02  0.15437893858E+03  0.19949813721E+03  0.12500103974E+03 0.  0.
          2    1    1    2  501    0  0.13950976949E+02 -0.34442421157E+02 -0.32412308635E+03  0.32624635666E+03  0.00000000000E+00 0. -1.
          1    1    1    2  502    0 -0.24765388491E+02  0.49423697489E+02  0.47201111811E+03  0.47523733225E+03  0.00000000000E+00 0. -1.
         22    1    3    3    0    0  0.11087893093E+02  0.48458664029E+02  0.25542517394E+02  0.55889209044E+02  0.00000000000E+00 0. -1.
         22    1    3    3    0    0 -0.27348155146E+00 -0.63439940361E+02  0.12883642119E+03  0.14360892817E+03  0.00000000000E+00 0. -1.
</event>
<event>
 7    1  0.6176857E-006  0.1345102E+03  0.7818608E-02  0.1261199E+00
          2   -1    0    0  502    0  0.00000000000E+00  0.00000000000E+00  0.16499570297E+04  0.16499570297E+04  0.00000000000E+00 0. -1.
          1   -1    0    0  501    0 -0.00000000000E+00 -0.00000000000E+00 -0.33054333186E+04  0.33054333186E+04  0.00000000000E+00 0. -1.
         25    2    1    2    0    0 -0.12997112372E+03  0.14986936656E+03  0.89918491953E+02  0.25112453407E+03  0.12499950553E+03 0.  0.
          2    1    1    2  501    0  0.12361323245E+02 -0.88543404702E+02 -0.32212359400E+04  0.32224763332E+04  0.00000000000E+00 0. -1.
          1    1    1    2  502    0  0.11760980047E+03 -0.61325961862E+02  0.14758411592E+04  0.14817894810E+04  0.00000000000E+00 0. -1.
         22    1    3    3    0    0  0.91805336108E+01  0.59550341056E+02  0.55030614446E+02  0.81602045585E+02  0.00000000000E+00 0. -1.
         22    1    3    3    0    0 -0.13915165733E+03  0.90319025507E+02  0.34887877507E+02  0.16952248849E+03  0.00000000000E+00 0. -1.
</event>
<event>
 7    1  0.6176857E-006  0.1678863E+03  0.7818608E-02  0.1190192E+00
          2   -1    0    0  502    0  0.00000000000E+00  0.00000000000E+00  0.14492082523E+04  0.14492082523E+04  0.00000000000E+00 0. -1.
          1   -1    0    0  501    0 -0.00000000000E+00 -0.00000000000E+00 -0.16296366853E+03  0.16296366853E+03  0.00000000000E+00 0. -1.
         25    2    1    2    0    0 -0.18135107196E+02  0.10158942272E+03  0.45307975136E+03  0.48120262650E+03  0.12500165492E+03 0.  0.
          2    1    1    2  501    0  0.16548588752E+03 -0.73609032545E+02 -0.85398479611E+02  0.20024177626E+03  0.00000000000E+00 0. -1.
          1    1    1    2  502    0 -0.14735078032E+03 -0.27980390175E+02  0.91856331202E+03  0.93072751806E+03  0.00000000000E+00 0. -1.
         22    1    3    3    0    0 -0.25383279250E+02 -0.10325324150E+02  0.20233107342E+02  0.34063203270E+02  0.00000000000E+00 0.  1.
         22    1    3    3    0    0  0.72481720543E+01  0.11191474687E+03  0.43284664402E+03  0.44713942323E+03  0.00000000000E+00 0.  1.
</event>
<event>
 7    1  0.6176857E-006  0.5333565E+02  0.7818608E-02  0.1496115E+00
          2   -1    0    0  502    0  0.00000000000E+00  0.00000000000E+00  0.89847179300E+03  0.89847179300E+03  0.00000000000E+00 0. -1.
          1   -1    0    0  501    0 -0.00000000000E+00 -0.00000000000E+00 -0.88394928506E+03  0.88394928506E+03  0.00000000000E+00 0. -1.
         25    2    1    2    0    0  0.78204883041E+02 -0.23379938726E+02 -0.45744864975E+03  0.48119265099E+03  0.12499789974E+03 0.  0.
          2    1    1    2  501    0 -0.49025073149E+02  0.88649260916E+01 -0.41283099736E+03  0.41582625830E+03  0.00000000000E+00 0. -1.
          1    1    1    2  502    0 -0.29179809892E+02  0.14515012634E+02  0.88480215505E+03  0.88540216878E+03  0.00000000000E+00 0. -1.
         22    1    3    3    0    0  0.81751400141E+02 -0.66698139400E+02 -0.33784592646E+03  0.35393756971E+03  0.00000000000E+00 0.  1.
         22    1    3    3    0    0 -0.35465171006E+01  0.43318200674E+02 -0.11960272329E+03  0.12725508128E+03  0.00000000000E+00 0.  1.
</event>
<event>
 7    1  0.6176857E-006  0.6348609E+02  0.7818608E-02  0.1536957E+00
          2   -1    0    0  502    0  0.00000000000E+00  0.00000000000E+00  0.86641715189E+03  0.86641715189E+03  0.00000000000E+00 0. -1.
          1   -1    0    0  501    0 -0.00000000000E+00 -0.00000000000E+00 -0.22237033837E+03  0.22237033837E+03  0.00000000000E+00 0. -1.
         25    2    1    2    0    0 -0.57834443248E+02  0.18006187920E+02  0.15484208214E+02  0.13976051509E+03  0.12499678094E+03 0.  0.
          2    1    1    2  501    0 -0.57481180288E+01 -0.19999246316E+02 -0.15826745913E+03  0.15962956911E+03  0.00000000000E+00 0. -1.
          1    1    1    2  502    0  0.63582561277E+02  0.19930583955E+01  0.78683006443E+03  0.78939740605E+03  0.00000000000E+00 0. -1.
         22    1    3    3    0    0 -0.23124169227E+02  0.14196523706E+02 -0.54872627993E+02  0.61214980116E+02  0.00000000000E+00 0. -1.
         22    1    3    3    0    0 -0.34710274021E+02  0.38096642138E+01  0.70356836207E+02  0.78545534979E+02  0.00000000000E+00 0. -1.
</event>
<event>
 7    1  0.6176857E-006  0.2340881E+03  0.7818608E-02  0.1320305E+00
          2   -1    0    0  502    0  0.00000000000E+00  0.00000000000E+00  0.10611048595E+04  0.10611048595E+04  0.00000000000E+00 0. -1.
          1   -1    0    0  501    0 -0.00000000000E+00 -0.00000000000E+00 -0.23670149419E+03  0.23670149419E+03  0.00000000000E+00 0. -1.
         25    2    1    2    0    0  0.20577794910E+03  0.14088164135E+03  0.24414845604E+03  0.37070434230E+03  0.12498415745E+03 0.  0.
          2    1    1    2  501    0 -0.28882863565E+02  0.62223097673E+01 -0.15443272983E+03  0.15723360006E+03  0.00000000000E+00 0. -1.
          1    1    1    2  502    0 -0.17689508553E+03 -0.14710395112E+03  0.73468763913E+03  0.76986841136E+03  0.00000000000E+00 0. -1.
         22    1    3    3    0    0  0.17954713979E+03  0.87491283808E+02  0.23829908860E+03  0.31093143259E+03  0.00000000000E+00 0.  1.
         22    1    3    3    0    0  0.26230809313E+02  0.53390357541E+02  0.58493674365E+01  0.59772909708E+02  0.00000000000E+00 0.  1.
</event>
<event>
 7    1  0.6176857E-006  0.1291712E+03  0.7818608E-02  0.1324192E+00
          2   -1    0    0  502    0  0.00000000000E+00  0.00000000000E+00  0.12555314609E+04  0.12555314609E+04  0.00000000000E+00 0. -1.
          1   -1    0    0  501    0 -0.00000000000E+00 -0.00000000000E+00 -0.20042072472E+03  0.20042072472E+03  0.00000000000E+00 0. -1.
         25    2    1    2    0    0 -0.15232354023E+03  0.20689677587E+02 -0.16142922538E+02  0.19878772754E+03  0.12500177200E+03 0.  0.
          2    1    1    2  501    0  0.11895113078E+03  0.18825552933E+02 -0.53102464788E+02  0.13161931744E+03  0.00000000000E+00 0. -1.
          1    1    1    2  502    0  0.33372409459E+02 -0.39515230520E+02  0.11243561235E+04  0.11255451406E+04  0.00000000000E+00 0. -1.
         22    1    3    3    0    0 -0.36416864080E+02  0.54303952541E+02  0.26840482794E+02  0.70678983918E+02  0.00000000000E+00 0.  1.
         22    1    3    3    0    0 -0.11590667615E+03 -0.33614274955E+02 -0.42983405332E+02  0.12810874362E+03  0.00000000000E+00 0.  1.
</event>
<event>
 7    1  0.6176857E-006  0.6660011E+02  0.7818608E-02  0.1415678E+00
          2   -1    0    0  502    0  0.00000000000E+00  0.00000000000E+00  0.18992457842E+03  0.18992457842E+03  0.00000000000E+00 0. -1.
          1   -1    0    0  501    0 -0.00000000000E+00 -0.00000000000E+00 -0.57776015535E+03  0.57776015535E+03  0.00000000000E+00 0. -1.
         25    2    1    2    0    0  0.21859788368E+02 -0.13146247145E+02 -0.22438341671E+02  0.12953424973E+03  0.12499987406E+03 0.  0.
          2    1    1    2  501    0  0.45522950244E+02 -0.11673870217E+02 -0.49112112316E+03  0.49336454661E+03  0.00000000000E+00 0. -1.
          1    1    1    2  502    0 -0.67382738613E+02  0.24820117362E+02  0.12572388790E+03  0.14478593743E+03  0.00000000000E+00 0. -1.
         22    1    3    3    0    0  0.67030275082E+02  0.12579322864E+02  0.89887103907E+01  0.68790217733E+02  0.00000000000E+00 0. -1.
         22    1    3    3    0    0 -0.45170486713E+02 -0.25725570009E+02 -0.31427052062E+02  0.60744031999E+02  0.00000000000E+00 0. -1.
</event>
<event>
 7    1  0.6176857E-006  0.7345069E+02  0.7818608E-02  0.1356569E+00
          2   -1    0    0  502    0  0.00000000000E+00  0.00000000000E+00  0.22801734672E+04  0.22801734672E+04  0.00000000000E+00 0. -1.
          1   -1    0    0  501    0 -0.00000000000E+00 -0.00000000000E+00 -0.11870669199E+04  0.11870669199E+04  0.00000000000E+00 0. -1.
         25    2    1    2    0    0 -0.22127577072E+02  0.30266452049E+02  0.56537031883E+03  0.58023606823E+03  0.12499843868E+03 0.  0.
          2    1    1    2  501    0  0.67155096600E+02  0.29752257636E+02 -0.11776650019E+04  0.11799533298E+04  0.00000000000E+00 0. -1.
          1    1    1    2  502    0 -0.45027519528E+02 -0.60018709685E+02  0.17054012303E+04  0.17070509891E+04  0.00000000000E+00 0. -1.
         22    1    3    3    0    0 -0.38436240942E+02  0.29025404203E+02  0.56132476314E+03  0.56338735202E+03  0.00000000000E+00 0. -1.
         22    1    3    3    0    0  0.16308663870E+02  0.12410478461E+01  0.40455556939E+01  0.16848716207E+02  0.00000000000E+00 0. -1.
</event>
<event>
 7    1  0.6176857E-006  0.6583037E+02  0.7818608E-02  0.1403579E+00
          2   -1    0    0  502    0  0.00000000000E+00  0.00000000000E+00  0.29312701598E+04  0.29312701598E+04  0.00000000000E+00 0. -1.
          1   -1    0    0  501    0 -0.00000000000E+00 -0.00000000000E+00 -0.70985820234E+03  0.70985820234E+03  0.00000000000E+00 0. -1.
         25    2    1    2    0    0  0.14674140289E+02 -0.34916079320E+02  0.63915209539E+03  0.65236093505E+03  0.12499970224E+03 0.  0.
          2    1    1    2  501    0 -0.63728138561E+02  0.16906338776E+02 -0.70140888019E+03  0.70450089932E+03  0.00000000000E+00 0. -1.
          1    1    1    2  502    0  0.49053998273E+02  0.18009740544E+02  0.22836687422E+04  0.22842665277E+04  0.00000000000E+00 0. -1.
         22    1    3    3    0    0  0.66283486607E+02 -0.18155401914E+01  0.26216477634E+03  0.27042035192E+03  0.00000000000E+00 0.  1.
         22    1    3    3    0    0 -0.51609346319E+02 -0.33100539128E+02  0.37698731905E+03  0.38194058313E+03  0.00000000000E+00 0.  1.
</event>
<event>
 7    1  0.6176857E-006  0.8206839E+02  0.7818608E-02  0.1366029E+00
          2   -1    0    0  502    0  0.00000000000E+00  0.00000000000E+00  0.13755704527E+03  0.13755704527E+03  0.00000000000E+00 0. -1.
          1   -1    0    0  501    0 -0.00000000000E+00 -0.00000000000E+00 -0.57772495574E+03  0.57772495574E+03  0.00000000000E+00 0. -1.
         25    2    1    2    0    0 -0.72106934538E+02  0.82858846176E+02 -0.93723569669E+02  0.19099802411E+03  0.12502455481E+03 0.  0.
          2    1    1    2  501    0  0.76569279227E+02 -0.26220104750E+02 -0.42203358631E+03  0.42972397697E+03  0.00000000000E+00 0. -1.
          1    1    1    2  502    0 -0.44623446896E+01 -0.56638741426E+02  0.75589245509E+02  0.94559999931E+02  0.00000000000E+00 0. -1.
         22    1    3    3    0    0 -0.96196066679E+02  0.46706928041E+02 -0.10083268518E+03  0.14697772203E+03  0.00000000000E+00 0.  1.
         22    1    3    3    0    0  0.24089132141E+02  0.36151918135E+02  0.71091155121E+01  0.44020302083E+02  0.00000000000E+00 0.  1.
</event>
<event>
 7    1  0.6176857E-006  0.6221277E+02  0.7818608E-02  0.1500814E+00
          2   -1    0    0  502    0  0.00000000000E+00  0.00000000000E+00  0.17884428514E+04  0.17884428514E+04  0.00000000000E+00 0. -1.
          1   -1    0    0  501    0 -0.00000000000E+00 -0.00000000000E+00 -0.79243681055E+02  0.79243681055E+02  0.00000000000E+00 0. -1.
         25    2    1    2    0    0 -0.66569423016E+01 -0.82399867566E+02  0.24537381165E+03  0.28751951738E+03  0.12500044950E+03 0.  0.
          2    1    1    2  501    0 -0.91077863581E+01  0.60417613651E+02 -0.41971478877E+02  0.74127220714E+02  0.00000000000E+00 0. -1.
          1    1    1    2  502    0  0.15764728660E+02  0.21982253915E+02  0.15057968376E+04  0.15060397944E+04  0.00000000000E+00 0. -1.
         22    1    3    3    0    0 -0.18954064200E+02 -0.39822453064E+02  0.65120810391E+01  0.44581291112E+02  0.00000000000E+00 0.  1.
         22    1    3    3    0    0  0.12297121898E+02 -0.42577414502E+02  0.23886173061E+03  0.24293822627E+03  0.00000000000E+00 0.  1.
</event>
<event>
 7    1  0.6176857E-006  0.1204644E+03  0.7818608E-02  0.1260798E+00
          2   -1    0    0  502    0  0.00000000000E+00  0.00000000000E+00  0.36447293440E+04  0.36447293440E+04  0.00000000000E+00 0. -1.
          1   -1    0    0  501    0 -0.00000000000E+00 -0.00000000000E+00 -0.96041466211E+02  0.96041466211E+02  0.00000000000E+00 0. -1.
         25    2    1    2    0    0  0.85918981818E+02  0.97715429949E+02  0.55342728682E+03  0.58209238857E+03  0.12497763936E+03 0.  0.
          2    1    1    2  501    0  0.36887728351E+02 -0.93183876413E+02 -0.49265074198E+02  0.11167357280E+03  0.00000000000E+00 0. -1.
          1    1    1    2  502    0 -0.12280671017E+03 -0.45315535358E+01  0.30445256651E+04  0.30470048488E+04  0.00000000000E+00 0. -1.
         22    1    3    3    0    0  0.83923350816E+02  0.12538306550E+03  0.43373439141E+03  0.45922713793E+03  0.00000000000E+00 0. -1.
         22    1    3    3    0    0  0.19956310019E+01 -0.27667635547E+02  0.11969289542E+03  0.12286525063E+03  0.00000000000E+00 0. -1.
</event>
<event>
 7    1  0.6176857E-006  0.1342718E+03  0.7818608E-02  0.1374803E+00
          2   -1    0    0  502    0  0.00000000000E+00  0.00000000000E+00  0.16789996052E+04  0.16789996052E+04  0.00000000000E+00 0. -1.
          1   -1    0    0  501    0 -0.00000000000E+00 -0.00000000000E+00 -0.75143149167E+03  0.75143149167E+03  0.00000000000E+00 0. -1.
         25    2    1    2    0    0  0.30369167944E+02  0.11415235817E+03 -0.12943640938E+03  0.21524895879E+03  0.12500113180E+03 0.  0.
          2    1    1    2  501    0 -0.80697373630E+01 -0.13751137043E+03 -0.57073484791E+03  0.58712244403E+03  0.00000000000E+00 0. -1.
          1    1    1    2  502    0 -0.22299430581E+02  0.23359012255E+02  0.16277393709E+04  0.16280596941E+04  0.00000000000E+00 0. -1.
         22    1    3    3    0    0 -0.27628854535E+02 -0.15001816834E+01  0.56051451032E+01  0.28231574516E+02  0.00000000000E+00 0. -1.
         22    1    3    3    0    0  0.57998022479E+02  0.11565253986E+03 -0.13504155448E+03  0.18701738428E+03  0.00000000000E+00 0. -1.
</event>
<event>
 7    1  0.6176857E-006  0.1411233E+03  0.7818608E-02  0.1400639E+00
          2   -1    0    0  502    0  0.00000000000E+00  0.00000000000E+00  0.39452361139E+03  0.39452361139E+03  0.00000000000E+00 0. -1.
          1   -1    0    0  501    0 -0.00000000000E+00 -0.00000000000E+00 -0.13455114853E+03  0.13455114853E+03  0.00000000000E+00 0. -1.
         25    2    1    2    0    0  0.10800635655E+03  0.56944051574E+02  0.50947573349E+02  0.18201460396E+03  0.12500265102E+03 0.  0.
          2    1    1    2  501    0  0.20131057592E+02  0.14736053312E+02 -0.46263501110E+02  0.52561604637E+02  0.00000000000E+00 0. -1.
          1    1    1    2  502    0 -0.12813741414E+03 -0.71680104886E+02  0.25528839063E+03  0.29449855132E+03  0.00000000000E+00 0. -1.
         22    1    3    3    0    0  0.63447716097E+02  0.76322564295E+02 -0.14707595104E+02  0.10033473901E+03  0.00000000000E+00 0. -1.
         22    1    3    3    0    0  0.44558640453E+02 -0.19378512721E+02  0.65655168453E+02  0.81679864954E+02  0.00000000000E+00 0. -1.
</event>
<event>
 7    1  0.6176857E-006  0.1042643E+03  0.7818608E-02  0.1418029E+00
          2   -1    0    0  502    0  0.00000000000E+00  0.00000000000E+00  0.53597425211E+03  0.53597425211E+03  0.00000000000E+00 0. -1.
          1   -1    0    0  501    0 -0.00000000000E+00 -0.00000000000E+00 -0.54238801585E+03  0.54238801585E+03  0.00000000000E+00 0. -1.
         25    2    1    2    0    0  0.58941961991E+02 -0.97483741662E+02  0.15668214427E+03  0.23054602671E+03  0.12499976531E+03 0.  0.
          2    1    1    2  501    0  0.14626367822E+02  0.25594419406E+02 -0.49728366404E+03  0.49815664952E+03  0.00000000000E+00 0. -1.
          1    1    1    2  502    0 -0.73568329813E+02  0.71889322255E+02  0.33418775603E+03  0.34965959172E+03  0.00000000000E+00 0. -1.
         22    1    3    3    0    0 -0.66184652653E+01  0.27175239461E+02  0.31297620364E+02  0.41974263099E+02  0.00000000000E+00 0.  1.
         22    1    3    3    0    0  0.65560427256E+02 -0.12465898112E+03  0.12538452391E+03  0.18857176361E+03  0.00000000000E+00 0.  1.
</event>
<event>
 7    1  0.6176857E-006  0.8833021E+02  0.7818608E-02  0.1371073E+00
          2   -1    0    0  502    0  0.00000000000E+00  0.00000000000E+00  0.47720813180E+02  0.47720813180E+02  0.00000000000E+00 0. -1.
          1   -1    0    0  501    0 -0.00000000000E+00 -0.00000000000E+00 -0.10539785194E+04  0.10539785194E+04  0.00000000000E+00 0. -1.
         25    2    1    2    0    0  0.45311901036E+02 -0.11436156097E+03 -0.41989435399E+03  0.45504838671E+03  0.12500412288E+03 0.  0.
          2    1    1    2  501    0  0.88183878922E+01  0.49849489137E+02 -0.55419566007E+03  0.55650297858E+03  0.00000000000E+00 0. -1.
          1    1    1    2  502    0 -0.54130288928E+02  0.64512071829E+02 -0.32167692203E+02  0.90147967325E+02  0.00000000000E+00 0. -1.
         22    1    3    3    0    0  0.25707872838E+02 -0.11663861188E+03 -0.19076429059E+03  0.22506993373E+03  0.00000000000E+00 0.  1.
         22    1    3    3    0    0  0.19604028198E+02  0.22770509086E+01 -0.22913006340E+03  0.22997845298E+03  0.00000000000E+00 0.  1.
</event>
<event>
 7    1  0.6176857E-006  0.1149586E+03  0.7818608E-02  0.1344792E+00
          2   -1    0    0  502    0  0.00000000000E+00  0.00000000000E+00  0.17868668620E+04  0.17868668620E+04  0.00000000000E+00 0. -1.
          1   -1    0    0  501    0 -0.00000000000E+00 -0.00000000000E+00 -0.23216528837E+04  0.23216528837E+04  0.00000000000E+00 0. -1.
         25    2    1    2    0    0  0.66806582283E+02  0.10580556204E+03  0.56359276499E+03  0.59069315816E+03  0.12499466369E+03 0.  0.
          2    1    1    2  501    0 -0.18859995185E+02 -0.11339993355E+03 -0.23061834092E+04  0.23090468079E+04  0.00000000000E+00 0. -1.
          1    1    1    2  502    0 -0.47946587098E+02  0.75943715046E+01  0.12078046225E+04  0.12087797797E+04  0.00000000000E+00 0. -1.
         22    1    3    3    0    0 -0.81283624296E+01  0.80880117558E+02  0.41007632026E+03  0.41805532185E+03  0.00000000000E+00 0.  1.
         22    1    3    3    0    0  0.74934944713E+02  0.24925444484E+02  0.15351644473E+03  0.17263783631E+03  0.00000000000E+00 0.  1.
</event>
<event>
 7    1  0.6176857E-006  0.6915447E+02  0.7818608E-02  0.1450571E+00
          2   -1    0    0  502    0  0.00000000000E+00  0.00000000000E+00  0.72404141682E+03  0.72404141682E+03  0.00000000000E+00 0. -1.
          1   -1    0    0  501    0 -0.00000000000E+00 -0.00000000000E+00 -0.14338544212E+04  0.14338544212E+04  0.00000000000E+00 0. -1.
         25    2    1    2    0    0  0.30156038519E+02 -0.68752132126E+02  0.23320974153E+03  0.27504189949E+03  0.12500008240E+03 0.  0.
          2    1    1    2  501    0  0.23883471134E+02  0.25284053870E+02 -0.14101639120E+04  0.14105927698E+04  0.00000000000E+00 0. -1.
          1    1    1    2  502    0 -0.54039509653E+02  0.43468078256E+02  0.46714116608E+03  0.47226116872E+03  0.00000000000E+00 0. -1.
         22    1    3    3    0    0  0.48696853834E+02 -0.56414064393E+02  0.24036246162E+03  0.25165063717E+03  0.00000000000E+00 0.  1.
         22    1    3    3    0    0 -0.18540815315E+02 -0.12338067733E+02 -0.71527200902E+01  0.23391262314E+02  0.00000000000E+00 0.  1.
</event>
<event>
 7    1  0.6176857E-006  0.5497852E+02  0.7818608E-02  0.1475230E+00
          2   -1    0    0  502    0  0.00000000000E+00  0.00000000000E+00  0.23249711882E+03  0.23249711882E+03  0.00000000000E+00 0. -1.
          1   -1    0    0  501    0 -0.00000000000E+00 -0.00000000000E+00 -0.10889785872E+03  0.10889785872E+03  0.00000000000E+00 0. -1.
         25    2    1    2    0    0  0.29800930207E+01 -0.33475700300E+02  0.20010656817E+02  0.13097695631E+03  0.12500013294E+03 0.  0.
          2    1    1    2  501    0 -0.35833073594E+02  0.49608786694E+02 -0.32640863485E+02  0.69357529148E+02  0.00000000000E+00 0. -1.
          1    1    1    2  502    0  0.32852980574E+02 -0.16133086394E+02  0.13622946677E+03  0.14106049208E+03  0.00000000000E+00 0. -1.
         22    1    3    3    0    0 -0.59916084919E+02 -0.20769987237E+02  0.21005963632E+02  0.66802545685E+02  0.00000000000E+00 0. -1.
         22    1    3    3    0    0  0.62896177940E+02 -0.12705713063E+02 -0.99530681518E+00  0.64174410628E+02  0.00000000000E+00 0. -1.
</event>
<event>
 7    1  0.6176857E-006  0.1103549E+03  0.7818608E-02  0.1328851E+00
          2   -1    0    0  502    0  0.00000000000E+00  0.00000000000E+00  0.43092344025E+03  0.43092344025E+03  0.00000000000E+00 0. -1.
          1   -1    0    0  501    0 -0.00000000000E+00 -0.00000000000E+00 -0.11625124377E+04  0.11625124377E+04  0.00000000000E+00 0. -1.
         25    2    1    2    0    0 -0.22777313253E+02 -0.15724140874E+03 -0.43519023347E+03  0.47985321514E+03  0.12499960863E+03 0.  0.
          2    1    1    2  501    0  0.32661562099E+02  0.48047042414E+02 -0.69640408457E+03  0.69882325729E+03  0.00000000000E+00 0. -1.
          1    1    1    2  502    0 -0.98842488456E+01  0.10919436633E+03  0.40000532056E+03  0.41475940555E+03  0.00000000000E+00 0. -1.
         22    1    3    3    0    0  0.39241568169E+02 -0.12476206946E+03 -0.25604722332E+03  0.28751635644E+03  0.00000000000E+00 0. -1.
         22    1    3    3    0    0 -0.62018881422E+02 -0.32479339276E+02 -0.17914301015E+03  0.19233685871E+03  0.00000000000E+00 0. -1.
</event>
<event>
 7    1  0.6176857E-006  0.7698168E+02  0.7818608E-02  0.1423615E+00
          2   -1    0    0  502    0  0.00000000000E+00  0.00000000000E+00  0.37861207940E+03  0.37861207940E+03  0.00000000000E+00 0. -1.
          1   -1    0    0  501    0 -0.00000000000E+00 -0.00000000000E+00 -0.31078353828E+03  0.31078353828E+03  0.00000000000E+00 0. -1.
         25    2    1    2    0    0 -0.43063916924E+02  0.12560976737E+02 -0.20903441802E+03  0.24765644321E+03  0.12500418739E+03 0.  0.
          2    1    1    2  501    0 -0.34455985754E+02 -0.16607570136E+02 -0.73512358048E+02  0.82867925797E+02  0.00000000000E+00 0. -1.
          1    1    1    2  502    0  0.77519902678E+02  0.40465933989E+01  0.35037531719E+03  0.35887124868E+03  0.00000000000E+00 0. -1.
         22    1    3    3    0    0 -0.53418006131E+02  0.34786584738E+02 -0.36637810106E+02  0.73524954853E+02  0.00000000000E+00 0. -1.
         22    1    3    3    0    0  0.10354089207E+02 -0.22225608002E+02 -0.17239660792E+03  0.17413148835E+03  0.00000000000E+00 0. -1.
</event>
<event>
 7    1  0.6176857E-006  0.1060767E+03  0.7818608E-02  0.1340240E+00
          2   -1    0    0  502    0  0.00000000000E+00  0.00000000000E+00  0.60148754309E+03  0.60148754309E+03  0.00000000000E+00 0. -1.
          1   -1    0    0  501    0 -0.00000000000E+00 -0.00000000000E+00 -0.88368525157E+02  0.88368525157E+02  0.00000000000E+00 0. -1.
         25    2    1    2    0    0  0.38888245992E+02 -0.13406150485E+03  0.13235626479E+03  0.22941141120E+03  0.12500652783E+03 0.  0.
          2    1    1    2  501    0 -0.44537698185E+02  0.31785180701E+02 -0.10742517912E+02  0.55761151018E+02  0.00000000000E+00 0. -1.
          1    1    1    2  502    0  0.56494521921E+01  0.10227632415E+03  0.39150527105E+03  0.40468350603E+03  0.00000000000E+00 0. -1.
         22    1    3    3    0    0 -0.41599111518E+02 -0.28382848923E+02  0.59337038456E+02  0.77826450033E+02  0.00000000000E+00 0.  1.
         22    1    3    3    0    0  0.80487357510E+02 -0.10567865592E+03  0.73019226337E+02  0.15158496117E+03  0.00000000000E+00 0.  1.
</event>
<event>
 7    1  0.6176857E-006  0.6648053E+02  0.7818608E-02  0.1413260E+00
          2   -1    0    0  502    0  0.00000000000E+00  0.00000000000E+00  0.40980236627E+03  0.40980236627E+03  0.00000000000E+00 0. -1.
          1   -1    0    0  501    0 -0.00000000000E+00 -0.00000000000E+00 -0.41774946780E+02  0.41774946780E+02  0.00000000000E+00 0. -1.
         25    2    1    2    0    0 -0.24292776940E+02  0.66499354580E+02  0.20090151179E+03  0.24697746187E+03  0.12499658421E+03 0.  0.
          2    1    1    2  501    0  0.47963704254E+02 -0.85597884359E+00  0.61318639847E+02  0.77853870927E+02  0.00000000000E+00 0. -1.
          1    1    1    2  502    0 -0.23670927314E+02 -0.65643375736E+02  0.10580726786E+03  0.12674598025E+03  0.00000000000E+00 0. -1.
         22    1    3    3    0    0 -0.57110494009E+02  0.57168559897E+02  0.19663718051E+03  0.21259358769E+03  0.00000000000E+00 0. -1.
         22    1    3    3    0    0  0.32817717069E+02  0.93307946828E+01  0.42643312783E+01  0.34383874190E+02  0.00000000000E+00 0. -1.
</event>
<event>
 7    1  0.6176857E-006  0.7121820E+02  0.7818608E-02  0.1390588E+00
          2   -1    0    0  502    0  0.00000000000E+00  0.00000000000E+00  0.48258929171E+02  0.48258929171E+02  0.00000000000E+00 0. -1.
          1   -1    0    0  501    0 -0.00000000000E+00 -0.00000000000E+00 -0.55960229797E+04  0.55960229797E+04  0.00000000000E+00 0. -1.
         25    2    1    2    0    0  0.32461971961E+02  0.11690264523E+03 -0.17396115633E+04  0.17483115793E+04  0.12499991534E+03 0.  0.
          2    1    1    2  501    0 -0.17700134057E+02 -0.65417851427E+02 -0.38353172956E+04  0.38359159986E+04  0.00000000000E+00 0. -1.
          1    1    1    2  502    0 -0.14761837903E+02 -0.51484793808E+02  0.27164808464E+02  0.60054330990E+02  0.00000000000E+00 0. -1.
         22    1    3    3    0    0  0.71225177563E+02  0.11453737552E+03 -0.12936017335E+04  0.13006141939E+04  0.00000000000E+00 0.  1.
         22    1    3    3    0    0 -0.38763205602E+02  0.23652697150E+01 -0.44600982980E+03  0.44769738540E+03  0.00000000000E+00 0.  1.
</event>
<event>
 7    1  0.6176857E-006  0.4527068E+02  0.7818608E-02  0.1545651E+00
          2   -1    0    0  502    0  0.00000000000E+00  0.00000000000E+00  0.13521779611E+04  0.13521779611E+04  0.00000000000E+00 0. -1.
          1   -1    0    0  501    0 -0.00000000000E+00 -0.00000000000E+00 -0.55315405634E+03  0.55315405634E+03  0.00000000000E+00 0. -1.
         25    2    1    2    0    0  0.82823953155E+01  0.19312861097E+02 -0.24916879053E+03  0.27955464437E+03  0.12499651331E+03 0.  0.
          2    1    1    2  501    0 -0.21654063863E+02 -0.43433431010E+02 -0.28660991678E+03  0.29068987909E+03  0.00000000000E+00 0. -1.
          1    1    1    2  502    0  0.13371668548E+02  0.24120569913E+02  0.13348026120E+04  0.13350874939E+04  0.00000000000E+00 0. -1.
         22    1    3    3    0    0 -0.14141970666E+02 -0.32287070205E+02 -0.14295790262E+02  0.38037085271E+02  0.00000000000E+00 0. -1.
         22    1    3    3    0    0  0.22424365981E+02  0.51599931302E+02 -0.23487300027E+03  0.24151755910E+03  0.00000000000E+00 0. -1.
</event>
<event>
 7    1  0.6176857E-006  0.2839783E+02  0.7818608E-02  0.1621880E+00
          2   -1    0    0  502    0  0.00000000000E+00  0.00000000000E+00  0.15485137118E+04  0.15485137118E+04  0.00000000000E+00 0. -1.
          1   -1    0    0  501    0 -0.00000000000E+00 -0.00000000000E+00 -0.83222162137E+03  0.83222162137E+03  0.00000000000E+00 0. -1.
         25    2    1    2    0    0  0.73819662392E+01  0.24346671133E+02 -0.23670635735E+03  0.26889380231E+03  0.12500689377E+03 0.  0.
          2    1    1    2  501    0 -0.28069315525E+02 -0.62041241391E+01 -0.57894136709E+03  0.57965462489E+03  0.00000000000E+00 0. -1.
          1    1    1    2  502    0  0.20687349286E+02 -0.18142546994E+02  0.15319398149E+04  0.15321869060E+04  0.00000000000E+00 0. -1.
         22    1    3    3    0    0 -0.15705266140E+02  0.56747491481E+02 -0.47791424185E+02  0.75835040710E+02  0.00000000000E+00 0. -1.
         22    1    3    3    0    0  0.23087232379E+02 -0.32400820348E+02 -0.18891493317E+03  0.19305876160E+03  0.00000000000E+00 0. -1.
</event>
<event>
 7    1  0.6176857E-006  0.6821200E+02  0.7818608E-02  0.1424123E+00
          2   -1    0    0  502    0  0.00000000000E+00  0.00000000000E+00  0.26395604053E+04  0.26395604053E+04  0.00000000000E+00 0. -1.
          1   -1    0    0  501    0 -0.00000000000E+00 -0.00000000000E+00 -0.65027393488E+03  0.65027393488E+03  0.00000000000E+00 0. -1.
         25    2    1    2    0    0  0.17737166506E+02  0.38203085541E+02  0.67080241555E+03  0.68364748804E+03  0.12499569745E+03 0.  0.
          2    1    1    2  501    0  0.14402596264E+02 -0.66768860444E+02 -0.64180339487E+03  0.64542785280E+03  0.00000000000E+00 0. -1.
          1    1    1    2  502    0 -0.32139762769E+02  0.28565774903E+02  0.19602874497E+04  0.19607589993E+04  0.00000000000E+00 0. -1.
         22    1    3    3    0    0  0.33486362012E+01  0.49021733875E+02  0.66161405403E+03  0.66343613125E+03  0.00000000000E+00 0. -1.
         22    1    3    3    0    0  0.14388530304E+02 -0.10818648333E+02  0.91883615210E+01  0.20211356796E+02  0.00000000000E+00 0. -1.
</event>
<event>
 7    1  0.6176857E-006  0.5110740E+02  0.7818608E-02  0.1465971E+00
          2   -1    0    0  502    0  0.00000000000E+00  0.00000000000E+00  0.47513480156E+03  0.47513480156E+03  0.00000000000E+00 0. -1.
          1   -1    0    0  501    0 -0.00000000000E+00 -0.00000000000E+00 -0.49545153819E+03  0.49545153819E+03  0.00000000000E+00 0. -1.
         25    2    1    2    0    0 -0.35615697447E+02 -0.66147328212E+02 -0.69031170882E+02  0.16134964722E+03  0.12499783667E+03 0.  0.
          2    1    1    2  501    0  0.44065262009E+02  0.24934401255E+02 -0.37753564179E+03  0.38091551886E+03  0.00000000000E+00 0. -1.
          1    1    1    2  502    0 -0.84495645613E+01  0.41212926957E+02  0.42625007605E+03  0.42832117368E+03  0.00000000000E+00 0. -1.
         22    1    3    3    0    0  0.35567772635E+02 -0.59682237903E+02 -0.54758710825E+02  0.88462152261E+02  0.00000000000E+00 0.  1.
         22    1    3    3    0    0 -0.71183470083E+02 -0.64650903086E+01 -0.14272460057E+02  0.72887494962E+02  0.00000000000E+00 0.  1.
</event>
<event>
 7    1  0.6176857E-006  0.1443923E+03  0.7818608E-02  0.1244139E+00
          2   -1    0    0  502    0  0.00000000000E+00  0.00000000000E+00  0.27301974651E+04  0.27301974651E+04  0.00000000000E+00 0. -1.
          1   -1    0    0  501    0 -0.00000000000E+00 -0.00000000000E+00 -0.47871418579E+02  0.47871418579E+02  0.00000000000E+00 0. -1.
         25    2    1    2    0    0 -0.46425859685E+02  0.53574728982E+02  0.26834167463E+03  0.30439800120E+03  0.12500110703E+03 0.  0.
          2    1    1    2  501    0  0.10165719398E+02  0.98160258699E+02  0.62057943824E+02  0.11657601224E+03  0.00000000000E+00 0. -1.
          1    1    1    2  502    0  0.36260140287E+02 -0.15173498768E+03  0.23519264281E+04  0.23570948702E+04  0.00000000000E+00 0. -1.
         22    1    3    3    0    0 -0.52124096813E+02  0.81968106199E+02  0.25428588157E+03  0.27220764403E+03  0.00000000000E+00 0.  1.
         22    1    3    3    0    0  0.56982371279E+01 -0.28393377217E+02  0.14055793060E+02  0.32190357170E+02  0.00000000000E+00 0.  1.
</event>
<event>
 7    1  0.6176857E-006  0.1564151E+03  0.7818608E-02  0.1384877E+00
          2   -1    0    0  502    0  0.00000000000E+00  0.00000000000E+00  0.15340017689E+03  0.15340017689E+03  0.00000000000E+00 0. -1.
          1   -1    0    0  501    0 -0.00000000000E+00 -0.00000000000E+00 -0.83635042001E+03  0.83635042001E+03  0.00000000000E+00 0. -1.
         25    2    1    2    0    0 -0.15526102141E+03 -0.77029881436E+02 -0.40347908844E+03  0.45657403194E+03  0.12499953772E+03 0.  0.
          2    1    1    2  501    0  0.13301673383E+03  0.64490270120E+02 -0.39139288134E+03  0.41837881636E+03  0.00000000000E+00 0. -1.
          1    1    1    2  502    0  0.22244287587E+02  0.12539611316E+02  0.11192172666E+03  0.11479774859E+03  0.00000000000E+00 0. -1.
         22    1    3    3    0    0 -0.74111540035E+02 -0.78338460892E+02 -0.32971058383E+03  0.34689840575E+03  0.00000000000E+00 0.  1.
         22    1    3    3    0    0 -0.81149481379E+02  0.13085794562E+01 -0.73768504607E+02  0.10967562619E+03  0.00000000000E+00 0.  1.
</event>
<event>
 7    1  0.6176857E-006  0.1114871E+03  0.7818608E-02  0.1291340E+00
          2   -1    0    0  502    0  0.00000000000E+00  0.00000000000E+00  0.79801136901E+03  0.79801136901E+03  0.00000000000E+00 0. -1.
          1   -1    0    0  501    0 -0.00000000000E+00 -0.00000000000E+00 -0.53080662940E+02  0.53080662940E+02  0.00000000000E+00 0. -1.
         25    2    1    2    0    0  0.14108591053E+02 -0.49494194306E+02  0.37792614715E+03  0.40137415344E+03  0.12499724294E+03 0.  0.
          2    1    1    2  501    0  0.10580622444E+03 -0.35134126786E+02  0.13365851102E+03  0.17405160604E+03  0.00000000000E+00 0. -1.
          1    1    1    2  502    0 -0.11991481550E+03  0.84628321092E+02  0.23334604791E+03  0.27566627247E+03  0.00000000000E+00 0. -1.
         22    1    3    3    0    0 -0.54095237235E+02 -0.81686758449E+01  0.17451129500E+03  0.18288579507E+03  0.00000000000E+00 0.  1.
         22    1    3    3    0    0  0.68203828288E+02 -0.41325518461E+02  0.20341485215E+03  0.21848835837E+03  0.00000000000E+00 0.  1.
</event>
<event>
 7    1  0.6176857E-006  0.8990158E+02  0.7818608E-02  0.1475138E+00
          2   -1    0    0  502    0  0.00000000000E+00  0.00000000000E+00  0.41827274906E+03  0.41827274906E+03  0.00000000000E+00 0. -1.
          1   -1    0    0  501    0 -0.00000000000E+00 -0.00000000000E+00 -0.17018556580E+04  0.17018556580E+04  0.00000000000E+00 0. -1.
         25    2    1    2    0    0  0.55042583634E+02 -0.83945297560E+02  0.17844966933E+01  0.16032615723E+03  0.12499917307E+03 0.  0.
          2    1    1    2  501    0 -0.32647422816E+02  0.83626870159E+02 -0.16209695281E+04  0.16234535776E+04  0.00000000000E+00 0. -1.
          1    1    1    2  502    0 -0.22395160818E+02  0.31842740058E+00  0.33560212253E+03  0.33634867217E+03  0.00000000000E+00 0. -1.
         22    1    3    3    0    0  0.77848373477E+02 -0.10196538103E+03 -0.10618076451E+02  0.12872471297E+03  0.00000000000E+00 0. -1.
         22    1    3    3    0    0 -0.22805789844E+02  0.18020083470E+02  0.12402573144E+02  0.31601444259E+02  0.00000000000E+00 0. -1.
</event>
<event>
 7    1  0.6176857E-006  0.1393170E+03  0.7818608E-02  0.1270216E+00
          2   -1    0    0  502    0  0.00000000000E+00  0.00000000000E+00  0.21232262308E+04  0.21232262308E+04  0.00000000000E+00 0. -1.
          1   -1    0    0  501    0 -0.00000000000E+00 -0.00000000000E+00 -0.35529161954E+03  0.35529161954E+03  0.00000000000E+00 0. -1.
         25    2    1    2    0    0  0.15015808750E+03  0.12104906546E+03  0.42880158321E+03  0.48651486082E+03  0.12500233816E+03 0.  0.
          2    1    1    2  501    0 -0.13061151310E+03 -0.44441364221E+02 -0.31086855637E+03  0.34010830855E+03  0.00000000000E+00 0. -1.
          1    1    1    2  502    0 -0.19546574403E+02 -0.76607701235E+02  0.16500015845E+04  0.16518946810E+04  0.00000000000E+00 0. -1.
         22    1    3    3    0    0  0.63439297470E+02  0.93306079031E+02  0.12062349702E+03  0.16516838947E+03  0.00000000000E+00 0. -1.
         22    1    3    3    0    0  0.86718790031E+02  0.27742986426E+02  0.30817808619E+03  0.32134647135E+03  0.00000000000E+00 0. -1.
</event>
<event>
 7    1  0.6176857E-006  0.5177716E+02  0.7818608E-02  0.1463493E+00
          2   -1    0    0  502    0  0.00000000000E+00  0.00000000000E+00  0.10274508460E+04  0.10274508460E+04  0.00000000000E+00 0. -1.
          1   -1    0    0  501    0 -0.00000000000E+00 -0.00000000000E+00 -0.30817394099E+02  0.30817394099E+02  0.00000000000E+00 0. -1.
         25    2    1    2    0    0 -0.98402770677E+01  0.62938549556E+01  0.13937468816E+03  0.18757735620E+03  0.12499406865E+03 0.  0.
          2    1    1    2  501    0 -0.41525872533E+02  0.79233262869E+01  0.71036144981E+02  0.82663843866E+02  0.00000000000E+00 0. -1.
          1    1    1    2  502    0  0.51366149601E+02 -0.14217181242E+02  0.78622261878E+03  0.78802704005E+03  0.00000000000E+00 0. -1.
         22    1    3    3    0    0 -0.87331172741E+00  0.65444156615E+02  0.66745854664E+02  0.93481064517E+02  0.00000000000E+00 0. -1.
         22    1    3    3    0    0 -0.89669653403E+01 -0.59150301659E+02  0.72628833492E+02  0.94096291681E+02  0.00000000000E+00 0. -1.
</event>
<event>
 7    1  0.6176857E-006  0.1916847E+03  0.7818608E-02  0.1199495E+00
          2   -1    0    0  502    0  0.00000000000E+00  0.00000000000E+00  0.19560422243E+04  0.19560422243E+04  0.00000000000E+00 0. -1.
          1   -1    0    0  501    0 -0.00000000000E+00 -0.00000000000E+00 -0.12081432062E+03  0.12081432062E+03  0.00000000000E+00 0. -1.
         25    2    1    2    0    0 -0.25821538019E+03  0.88546796504E+02  0.73535779240E+03  0.79428815941E+03  0.12500751819E+03 0.  0.
          2    1    1    2  501    0  0.82839290875E+02 -0.84921073705E+02 -0.43096897900E+02  0.12621917240E+03  0.00000000000E+00 0. -1.
          1    1    1    2  502    0  0.17537608932E+03 -0.36257227983E+01  0.11429670092E+04  0.11563492131E+04  0.00000000000E+00 0. -1.
         22    1    3    3    0    0 -0.17099183752E+03 -0.16971489826E+00  0.35369212627E+03  0.39285666278E+03  0.00000000000E+00 0. -1.
         22    1    3    3    0    0 -0.87223542673E+02  0.88716511402E+02  0.38166566613E+03  0.40143149664E+03  0.00000000000E+00 0. -1.
</event>
<event>
 7    1  0.6176857E-006  0.5500484E+02  0.7818608E-02  0.1510323E+00
          2   -1    0    0  502    0  0.00000000000E+00  0.00000000000E+00  0.92737538935E+03  0.92737538935E+03  0.00000000000E+00 0. -1.
          1   -1    0    0  501    0 -0.00000000000E+00 -0.00000000000E+00 -0.68153580644E+02  0.68153580644E+02  0.00000000000E+00 0. -1.
         25    2    1    2    0    0  0.50501093186E+02  0.63009851080E+02  0.39121365534E+03  0.41856184887E+03  0.12500118185E+03 0.  0.
          2    1    1    2  501    0 -0.26569672165E+02 -0.47213503166E+02 -0.40506307304E+02  0.67644831964E+02  0.00000000000E+00 0. -1.
          1    1    1    2  502    0 -0.23931421021E+02 -0.15796347914E+02  0.50851446067E+03  0.50932228916E+03  0.00000000000E+00 0. -1.
         22    1    3    3    0    0  0.48605882390E+02  0.83716675287E+02  0.16429951741E+03  0.19069699773E+03  0.00000000000E+00 0.  1.
         22    1    3    3    0    0  0.18952107964E+01 -0.20706824207E+02  0.22691413793E+03  0.22786485114E+03  0.00000000000E+00 0.  1.
</event>
<event>
 7    1  0.6176857E-006  0.9769938E+02  0.7818608E-02  0.1431417E+00
          2   -1    0    0  502    0  0.00000000000E+00  0.00000000000E+00  0.59528172881E+02  0.59528172881E+02  0.00000000000E+00 0. -1.
          1   -1    0    0  501    0 -0.00000000000E+00 -0.00000000000E+00 -0.14774199183E+04  0.14774199183E+04  0.00000000000E+00 0. -1.
         25    2    1    2    0    0  0.18275172284E+01 -0.72927141007E+02 -0.53055436597E+03  0.54994292458E+03  0.12501030891E+03 0.  0.
          2    1    1    2  501    0 -0.93025085500E+01 -0.26835000928E+02 -0.88650506450E+03  0.88695991077E+03  0.00000000000E+00 0. -1.
          1    1    1    2  502    0  0.74749913216E+01  0.99762141934E+02 -0.83231492029E+00  0.10004525579E+03  0.00000000000E+00 0. -1.
         22    1    3    3    0    0 -0.47327075244E+02  0.95438240362E+01 -0.19853517761E+03  0.20432120149E+03  0.00000000000E+00 0.  1.
         22    1    3    3    0    0  0.49154592473E+02 -0.82470965043E+02 -0.33201918836E+03  0.34562172309E+03  0.00000000000E+00 0.  1.
</event>
<event>
 7    1  0.6176857E-006  0.1957617E+03  0.7818608E-02  0.1293453E+00
          2   -1    0    0  502    0  0.00000000000E+00  0.00000000000E+00  0.16587023568E+04  0.16587023568E+04  0.00000000000E+00 0. -1.
          1   -1    0    0  501    0 -0.00000000000E+00 -0.00000000000E+00 -0.15070947689E+04  0.15070947689E+04  0.00000000000E+00 0. -1.
         25    2    1    2    0    0 -0.15377975371E+03 -0.11153810724E+03 -0.46746521453E+03  0.51984357432E+03  0.12499861180E+03 0.  0.
          2    1    1    2  501    0  0.25969267141E+02 -0.36912820842E+02 -0.10070567373E+04  0.10080675728E+04  0.00000000000E+00 0. -1.
          1    1    1    2  502    0  0.12781048656E+03  0.14845092809E+03  0.16261295398E+04  0.16378859786E+04  0.00000000000E+00 0. -1.
         22    1    3    3    0    0 -0.15096451101E+03 -0.12222894258E+03 -0.33747103254E+03  0.38938014304E+03  0.00000000000E+00 0. -1.
         22    1    3    3    0    0 -0.28152426972E+01  0.10690835334E+02 -0.12999418199E+03  0.13046343128E+03  0.00000000000E+00 0. -1.
</event>
<event>
 7    1  0.6176857E-006  0.1246708E+03  0.7818608E-02  0.1241064E+00
          2   -1    0    0  502    0  0.00000000000E+00  0.00000000000E+00  0.22720803123E+04  0.22720803123E+04  0.00000000000E+00 0. -1.
          1   -1    0    0  501    0 -0.00000000000E+00 -0.00000000000E+00 -0.39984830828E+02  0.39984830828E+02  0.00000000000E+00 0. -1.
         25    2    1    2    0    0  0.11514730542E+03 -0.14879461250E+03  0.11092090773E+04  0.11319758415E+04  0.12500316026E+03 0.  0.
          2    1    1    2  501    0 -0.63961178404E+00  0.12069518750E+03  0.11966465438E+03  0.16996283975E+03  0.00000000000E+00 0. -1.
          1    1    1    2  502    0 -0.11450769364E+03  0.28099425002E+02  0.10032217498E+04  0.10101264619E+04  0.00000000000E+00 0. -1.
         22    1    3    3    0    0  0.12493563985E+03 -0.15343815581E+03  0.11002977242E+04  0.11179477911E+04  0.00000000000E+00 0.  1.
         22    1    3    3    0    0 -0.97883344293E+01  0.46435433032E+01  0.89113530622E+01  0.14028050424E+02  0.00000000000E+00 0.  1.
</event>
<event>
 7    1  0.6176857E-006  0.1429623E+03  0.7818608E-02  0.1326958E+00
          2   -1    0    0  502    0  0.00000000000E+00  0.00000000000E+00  0.24898016577E+04  0.24898016577E+04  0.00000000000E+00 0. -1.
          1   -1    0    0  501    0 -0.00000000000E+00 -0.00000000000E+00 -0.18227298191E+03  0.18227298191E+03  0.00000000000E+00 0. -1.
         25    2    1    2    0    0 -0.22157688359E+02 -0.15915632181E+03  0.87582785341E+03  0.89917857797E+03  0.12500395335E+03 0.  0.
          2    1    1    2  501    0 -0.19755595817E+02  0.14118985777E+03 -0.14042437529E+03  0.20010963164E+03  0.00000000000E+00 0. -1.
          1    1    1    2  502    0  0.41913284177E+02  0.17966464047E+02  0.15721251976E+04  0.15727864300E+04  0.00000000000E+00 0. -1.
         22    1    3    3    0    0  0.44107249581E+02 -0.46105252081E+02  0.17648896141E+03  0.18766858350E+03  0.00000000000E+00 0. -1.
         22    1    3    3    0    0 -0.66264937940E+02 -0.11305106973E+03  0.69933889200E+03  0.71150999447E+03  0.00000000000E+00 0. -1.
</event>
<event>
 7    1  0.6176857E-006  0.2104018E+03  0.7818608E-02  0.1318458E+00
          2   -1    0    0  502    0  0.00000000000E+00  0.00000000000E+00  0.80968753331E+03  0.80968753331E+03  0.00000000000E+00 0. -1.
          1   -1    0    0  501    0 -0.00000000000E+00 -0.00000000000E+00 -0.17256889754E+04  0.17256889754E+04  0.00000000000E+00 0. -1.
         25    2    1    2    0    0  0.44728355793E+02 -0.22561453503E+03 -0.15120345930E+03  0.30231106735E+03  0.12500780419E+03 0.  0.
          2    1    1    2  501    0 -0.64275461247E+02  0.19850828702E+03 -0.14912844080E+04  0.15058107652E+04  0.00000000000E+00 0. -1.
          1    1    1    2  502    0  0.19547105454E+02  0.27106248012E+02  0.72648642522E+03  0.72725467619E+03  0.00000000000E+00 0. -1.
         22    1    3    3    0    0  0.36127390535E+02 -0.53575947219E+02  0.11186373468E+02  0.65579763789E+02  0.00000000000E+00 0. -1.
         22    1    3    3    0    0  0.86009652584E+01 -0.17203858782E+03 -0.16238983277E+03  0.23673130357E+03  0.00000000000E+00 0. -1.
</event>
<event>
 7    1  0.6176857E-006  0.7728544E+02  0.7818608E-02  0.1373298E+00
          2   -1    0    0  502    0  0.00000000000E+00  0.00000000000E+00  0.70216213453E+02  0.70216213453E+02  0.00000000000E+00 0. -1.
          1   -1    0    0  501    0 -0.00000000000E+00 -0.00000000000E+00 -0.50785708804E+03  0.50785708804E+03  0.00000000000E+00 0. -1.
         25    2    1    2    0    0  0.85473720808E+01 -0.40245758933E+02 -0.26099008111E+03  0.29228686792E+03  0.12499204791E+03 0.  0.
          2    1    1    2  501    0 -0.45729301585E+02 -0.33700169123E+02 -0.19320208360E+03  0.20138002764E+03  0.00000000000E+00 0. -1.
          1    1    1    2  502    0  0.37181929504E+02  0.73945928056E+02  0.16551290126E+02  0.84406405933E+02  0.00000000000E+00 0. -1.
         22    1    3    3    0    0 -0.71599769747E+01 -0.19891306991E+02  0.76028153320E+01  0.22466245015E+02  0.00000000000E+00 0. -1.
         22    1    3    3    0    0  0.15707349056E+02 -0.20354451941E+02 -0.26859289644E+03  0.26982062291E+03  0.00000000000E+00 0. -1.
</event>
<event>
 7    1  0.6176857E-006  0.4544642E+02  0.7818608E-02  0.1521913E+00
          2   -1    0    0  502    0  0.00000000000E+00  0.00000000000E+00  0.45220405394E+03  0.45220405394E+03  0.00000000000E+00 0. -1.
          1   -1    0    0  501    0 -0.00000000000E+00 -0.00000000000E+00 -0.37922463670E+02  0.37922463670E+02  0.00000000000E+00 0. -1.
         25    2    1    2    0    0  0.94275343528E+01 -0.15017001127E+02  0.35813220169E+03  0.37973864166E+03  0.12501349267E+03 0.  0.
          2    1    1    2  501    0 -0.63812598613E+01  0.46976608870E+02  0.20165371239E+01  0.47450908109E+02  0.00000000000E+00 0. -1.
          1    1    1    2  502    0 -0.30462744915E+01 -0.31959607743E+02  0.54132851454E+02  0.62936967848E+02  0.00000000000E+00 0. -1.
         22    1    3    3    0    0 -0.30866345474E+02  0.29923001987E+02  0.50862142222E+02  0.66596357575E+02  0.00000000000E+00 0.  1.
         22    1    3    3    0    0  0.40293879827E+02 -0.44940003114E+02  0.30727005947E+03  0.31314228408E+03  0.00000000000E+00 0.  1.
</event>
<event>
 7    1  0.6176857E-006  0.7226384E+02  0.7818608E-02  0.1425894E+00
          2   -1    0    0  502    0  0.00000000000E+00  0.00000000000E+00  0.71055553316E+03  0.71055553316E+03  0.00000000000E+00 0. -1.
          1   -1    0    0  501    0 -0.00000000000E+00 -0.00000000000E+00 -0.60635228404E+03  0.60635228404E+03  0.00000000000E+00 0. -1.
         25    2    1    2    0    0  0.71522342057E+01 -0.74189296086E+02 -0.77777360655E+02  0.16496886237E+03  0.12494079243E+03 0.  0.
          2    1    1    2  501    0 -0.38982245514E+02  0.91578375271E+01 -0.48218180905E+03  0.48384168736E+03  0.00000000000E+00 0. -1.
          1    1    1    2  502    0  0.31830011308E+02  0.65031458559E+02  0.66416241883E+03  0.66809726747E+03  0.00000000000E+00 0. -1.
         22    1    3    3    0    0 -0.23649076025E+02  0.17710749065E+02 -0.59365099551E+02  0.66311118781E+02  0.00000000000E+00 0.  1.
         22    1    3    3    0    0  0.30801310231E+02 -0.91900045151E+02 -0.18412261104E+02  0.98657743587E+02  0.00000000000E+00 0.  1.
</event>
<event>
 7    1  0.6176857E-006  0.7807089E+02  0.7818608E-02  0.1454772E+00
          2   -1    0    0  502    0  0.00000000000E+00  0.00000000000E+00  0.81660132084E+02  0.81660132084E+02  0.00000000000E+00 0. -1.
          1   -1    0    0  501    0 -0.00000000000E+00 -0.00000000000E+00 -0.89319888844E+03  0.89319888844E+03  0.00000000000E+00 0. -1.
         25    2    1    2    0    0  0.48332008475E+01  0.51921725309E+02 -0.26459560635E+02  0.13799935154E+03  0.12499794913E+03 0.  0.
          2    1    1    2  501    0 -0.23096489506E+02 -0.75561693151E+02 -0.79970471129E+03  0.80359855809E+03  0.00000000000E+00 0. -1.
          1    1    1    2  502    0  0.18263288659E+02  0.23639967841E+02  0.14625515572E+02  0.33261110895E+02  0.00000000000E+00 0. -1.
         22    1    3    3    0    0 -0.56584315031E+02  0.29070146137E+02  0.77348477018E+01  0.64083429785E+02  0.00000000000E+00 0. -1.
         22    1    3    3    0    0  0.61417515879E+02  0.22851579172E+02 -0.34194408337E+02  0.73915921755E+02  0.00000000000E+00 0. -1.
</event>
<event>
 7    1  0.6176857E-006  0.3763781E+02  0.7818608E-02  0.1557298E+00
          2   -1    0    0  502    0  0.00000000000E+00  0.00000000000E+00  0.15718217416E+04  0.15718217416E+04  0.00000000000E+00 0. -1.
          1   -1    0    0  501    0 -0.00000000000E+00 -0.00000000000E+00 -0.57502871787E+02  0.57502871787E+02  0.00000000000E+00 0. -1.
         25    2    1    2    0    0  0.34264711671E+02 -0.44460332210E+02  0.27835886352E+03  0.31025871987E+03  0.12500409893E+03 0.  0.
          2    1    1    2  501    0 -0.29916982655E+02  0.72604998542E+01 -0.35537102499E+02  0.47017298555E+02  0.00000000000E+00 0. -1.
          1    1    1    2  502    0 -0.43477290163E+01  0.37199832356E+02  0.12714971088E+04  0.12720485950E+04  0.00000000000E+00 0. -1.
         22    1    3    3    0    0 -0.22532399462E+02 -0.67772205522E+02  0.11097639893E+03  0.13197174692E+03  0.00000000000E+00 0. -1.
         22    1    3    3    0    0  0.56797111133E+02  0.23311873312E+02  0.16738246459E+03  0.17828697295E+03  0.00000000000E+00 0. -1.
</event>
<event>
 7    1  0.6176857E-006  0.1166730E+03  0.7818608E-02  0.1263063E+00
          2   -1    0    0  502    0  0.00000000000E+00  0.00000000000E+00  0.23251437797E+04  0.23251437797E+04  0.00000000000E+00 0. -1.
          1   -1    0    0  501    0 -0.00000000000E+00 -0.00000000000E+00 -0.39098024518E+03  0.39098024518E+03  0.00000000000E+00 0. -1.
         25    2    1    2    0    0  0.11840520002E+03  0.13438377582E+03  0.11208062713E+02  0.21869969953E+03  0.12500058924E+03 0.  0.
          2    1    1    2  501    0 -0.99243770821E+02 -0.19833373065E+02 -0.27673972144E+03  0.29466516957E+03  0.00000000000E+00 0. -1.
          1    1    1    2  502    0 -0.19161429200E+02 -0.11455040276E+03  0.21996951933E+04  0.22027591558E+04  0.00000000000E+00 0. -1.
         22    1    3    3    0    0  0.11854381114E+03  0.45641366425E+02 -0.10123422960E+02  0.12742940470E+03  0.00000000000E+00 0. -1.
         22    1    3    3    0    0 -0.13861112078E+00  0.88742409397E+02  0.21331485673E+02  0.91270294837E+02  0.00000000000E+00 0. -1.
</event>
<event>
 7    1  0.6176857E-006  0.1579803E+03  0.7818608E-02  0.1333820E+00
          2   -1    0    0  502    0  0.00000000000E+00  0.00000000000E+00  0.13680363008E+04  0.13680363008E+04  0.00000000000E+00 0. -1.
          1   -1    0    0  501    0 -0.00000000000E+00 -0.00000000000E+00 -0.17725262770E+03  0.17725262770E+03  0.00000000000E+00 0. -1.
         25    2    1    2    0    0  0.17651399225E+03 -0.59181644590E+02  0.72129783933E+03  0.75534910463E+03  0.12498816072E+03 0.  0.
          2    1    1    2  501    0 -0.15420131398E+03  0.27377229741E+02 -0.12116577307E+03  0.19801187465E+03  0.00000000000E+00 0. -1.
          1    1    1    2  502    0 -0.22312678273E+02  0.31804414850E+02  0.59065160687E+03  0.59192794926E+03  0.00000000000E+00 0. -1.
         22    1    3    3    0    0  0.16088154906E+03 -0.92874592179E+02  0.62900385297E+03  0.65586157819E+03  0.00000000000E+00 0.  1.
         22    1    3    3    0    0  0.15632443187E+02  0.33692947589E+02  0.92293986360E+02  0.99487526432E+02  0.00000000000E+00 0.  1.
</event>
<event>
 7    1  0.6176857E-006  0.9097733E+02  0.7818608E-02  0.1330420E+00
          2   -1    0    0  502    0  0.00000000000E+00  0.00000000000E+00  0.40655916781E+04  0.40655916781E+04  0.00000000000E+00 0. -1.
          1   -1    0    0  501    0 -0.00000000000E+00 -0.00000000000E+00 -0.33978354080E+03  0.33978354080E+03  0.00000000000E+00 0. -1.
         25    2    1    2    0    0  0.40726743836E+02  0.88139225042E+01 -0.14454149645E+03  0.19558748866E+03  0.12500347447E+03 0.  0.
          2    1    1    2  501    0  0.64338406353E+01  0.69206329956E+02 -0.16206612661E+03  0.17634154305E+03  0.00000000000E+00 0. -1.
          1    1    1    2  502    0 -0.47160584472E+02 -0.78020252460E+02  0.40324157604E+04  0.40334461872E+04  0.00000000000E+00 0. -1.
         22    1    3    3    0    0  0.17679608125E+02 -0.40427891283E+02 -0.33053993021E+01  0.44248261001E+02  0.00000000000E+00 0.  1.
         22    1    3    3    0    0  0.23047135711E+02  0.49241813788E+02 -0.14123609715E+03  0.15133922766E+03  0.00000000000E+00 0.  1.
</event>
<event>
 7    1  0.6176857E-006  0.9817387E+02  0.7818608E-02  0.1413413E+00
          2   -1    0    0  502    0  0.00000000000E+00  0.00000000000E+00  0.14839918059E+04  0.14839918059E+04  0.00000000000E+00 0. -1.
          1   -1    0    0  501    0 -0.00000000000E+00 -0.00000000000E+00 -0.80651878785E+02  0.80651878785E+02  0.00000000000E+00 0. -1.
         25    2    1    2    0    0  0.10056240288E+03  0.60149175812E+02  0.12499951984E+03  0.21209096961E+03  0.12500791658E+03 0.  0.
          2    1    1    2  501    0 -0.86979097110E+02 -0.30682851433E+02  0.20742076061E+02  0.94535889615E+02  0.00000000000E+00 0. -1.
          1    1    1    2  502    0 -0.13583305769E+02 -0.29466324378E+02  0.12575983312E+04  0.12580168254E+04  0.00000000000E+00 0. -1.
         22    1    3    3    0    0 -0.29724867261E+02  0.11425030245E+02  0.17847989834E+02  0.36505476177E+02  0.00000000000E+00 0.  1.
         22    1    3    3    0    0  0.13028727014E+03  0.48724145566E+02  0.10715153001E+03  0.17558549343E+03  0.00000000000E+00 0.  1.
</event>
<event>
 7    1  0.6176857E-006  0.6089034E+02  0.7818608E-02  0.1501049E+00
          2   -1    0    0  502    0  0.00000000000E+00  0.00000000000E+00  0.95282449366E+03  0.95282449366E+03  0.00000000000E+00 0. -1.
          1   -1    0    0  501    0 -0.00000000000E+00 -0.00000000000E+00 -0.35068744036E+03  0.35068744036E+03  0.00000000000E+00 0. -1.
         25    2    1    2    0    0 -0.35978701580E+02  0.62331112463E+02  0.31770803027E+03  0.34891629113E+03  0.12499820467E+03 0.  0.
          2    1    1    2  501    0  0.84635450557E+01 -0.60249948930E+02 -0.33201035581E+03  0.33753898190E+03  0.00000000000E+00 0. -1.
          1    1    1    2  502    0  0.27515156524E+02 -0.20811635332E+01  0.61643937884E+03  0.61705666099E+03  0.00000000000E+00 0. -1.
         22    1    3    3    0    0 -0.24489084939E+02  0.55852322412E+02  0.44756316698E+02  0.75646051346E+02  0.00000000000E+00 0.  1.
         22    1    3    3    0    0 -0.11489616641E+02  0.64787900511E+01  0.27295171357E+03  0.27327023978E+03  0.00000000000E+00 0.  1.
</event>
<event>
 7    1  0.6176857E-006  0.6556030E+02  0.7818608E-02  0.1408819E+00
          2   -1    0    0  502    0  0.00000000000E+00  0.00000000000E+00  0.80494596050E+03  0.80494596050E+03  0.00000000000E+00 0. -1.
          1   -1    0    0  501    0 -0.00000000000E+00 -0.00000000000E+00 -0.81332482328E+03  0.81332482328E+03  0.00000000000E+00 0. -1.
         25    2    1    2    0    0  0.63243230299E+02  0.53628124243E+01  0.11458114071E+03  0.18105900154E+03  0.12500023318E+03 0.  0.
          2    1    1    2  501    0 -0.20729842296E+02  0.45892499529E+02 -0.77758227369E+03  0.77921116537E+03  0.00000000000E+00 0. -1.
          1    1    1    2  502    0 -0.42513388003E+02 -0.51255311953E+02  0.65462227020E+03  0.65800061687E+03  0.00000000000E+00 0. -1.
         22    1    3    3    0    0  0.84363996756E+02 -0.32589761693E+02  0.50320043286E+02  0.10349629593E+03  0.00000000000E+00 0.  1.
         22    1    3    3    0    0 -0.21120766458E+02  0.37952574117E+02  0.64261097424E+02  0.77562705600E+02  0.00000000000E+00 0.  1.
</event>
<event>
 7    1  0.6176857E-006  0.1758805E+03  0.7818608E-02  0.1310609E+00
          2   -1    0    0  502    0  0.00000000000E+00  0.00000000000E+00  0.33517254920E+03  0.33517254920E+03  0.00000000000E+00 0. -1.
          1   -1    0    0  501    0 -0.00000000000E+00 -0.00000000000E+00 -0.56882550524E+03  0.56882550524E+03  0.00000000000E+00 0. -1.
         25    2    1    2    0    0  0.12709172853E+03  0.96817612809E+02 -0.18558748639E+03  0.27494289299E+03  0.12499968675E+03 0.  0.
          2    1    1    2  501    0  0.35596199643E+02 -0.23958454935E+02 -0.30959440090E+03  0.31255365949E+03  0.00000000000E+00 0. -1.
          1    1    1    2  502    0 -0.16268792817E+03 -0.72859157874E+02  0.26152893126E+03  0.31650150196E+03  0.00000000000E+00 0. -1.
         22    1    3    3    0    0  0.14665605369E+03  0.80751120288E+02 -0.18515686244E+03  0.24962332668E+03  0.00000000000E+00 0. -1.
         22    1    3    3    0    0 -0.19564325163E+02  0.16066492521E+02 -0.43062395007E+00  0.25319566308E+02  0.00000000000E+00 0. -1.
</event>
<event>
 7    1  0.6176857E-006  0.8550500E+02  0.7818608E-02  0.1347491E+00
          2   -1    0    0  502    0  0.00000000000E+00  0.00000000000E+00  0.88606764498E+03  0.88606764498E+03  0.00000000000E+00 0. -1.
          1   -1    0    0  501    0 -0.00000000000E+00 -0.00000000000E+00 -0.15691616106E+04  0.15691616106E+04  0.00000000000E+00 0. -1.
         25    2    1    2    0    0  0.83507501478E+02  0.11208731831E+03  0.41005536296E+03  0.45089503526E+03  0.12499544951E+03 0.  0.
          2    1    1    2  501    0 -0.31274267116E+02 -0.55576764515E+02 -0.15448297361E+04  0.15461454557E+04  0.00000000000E+00 0. -1.
          1    1    1    2  502    0 -0.52233234362E+02 -0.56510553795E+02  0.45168040755E+03  0.45818876463E+03  0.00000000000E+00 0. -1.
         22    1    3    3    0    0  0.72824814383E+02  0.19791450868E+02  0.89113830652E+02  0.11677512548E+03  0.00000000000E+00 0.  1.
         22    1    3    3    0    0  0.10682687095E+02  0.92295867442E+02  0.32094153231E+03  0.33411990978E+03  0.00000000000E+00 0.  1.
</event>
<event>
 7    1  0.6176857E-006  0.1356070E+03  0.7818608E-02  0.1257388E+00
          2   -1    0    0  502    0  0.00000000000E+00  0.00000000000E+00  0.74572381711E+03  0.74572381711E+03  0.00000000000E+00 0. -1.
          1   -1    0    0  501    0 -0.00000000000E+00 -0.00000000000E+00 -0.10484744782E+04  0.10484744782E+04  0.00000000000E+00 0. -1.
         25    2    1    2    0    0  0.67266717185E+02  0.21283629380E+03 -0.18137945276E+02  0.25647179480E+03  0.12499878908E+03 0.  0.
          2    1    1    2  501    0 -0.25215760977E+02 -0.88547464640E+02 -0.90193108255E+03  0.90661798227E+03  0.00000000000E+00 0. -1.
          1    1    1    2  502    0 -0.42050956208E+02 -0.12428882916E+03  0.61731836670E+03  0.63110851828E+03  0.00000000000E+00 0. -1.
         22    1    3    3    0    0  0.63835475989E+01  0.18201883045E+02  0.40003565329E+02  0.44411073680E+02  0.00000000000E+00 0. -1.
         22    1    3    3    0    0  0.60883169586E+02  0.19463441075E+03 -0.58141510606E+02  0.21206072112E+03  0.00000000000E+00 0. -1.
</event>
<event>
 7    1  0.6176857E-006  0.2578506E+03  0.7818608E-02  0.1237272E+00
          2   -1    0    0  502    0  0.00000000000E+00  0.00000000000E+00  0.65224861465E+03  0.65224861465E+03  0.00000000000E+00 0. -1.
          1   -1    0    0  501    0 -0.00000000000E+00 -0.00000000000E+00 -0.17932094735E+04  0.17932094735E+04  0.00000000000E+00 0. -1.
         25    2    1    2    0    0  0.42361235708E+02 -0.25885956291E+03  0.14403866424E+03  0.32430465509E+03  0.12499449956E+03 0.  0.
          2    1    1    2  501    0  0.55675717053E+02  0.20263507897E+02 -0.16627096332E+04  0.16637649232E+04  0.00000000000E+00 0. -1.
          1    1    1    2  502    0 -0.98036952761E+02  0.23859605501E+03  0.37771011019E+03  0.45738850981E+03  0.00000000000E+00 0. -1.
         22    1    3    3    0    0  0.57394891477E+02 -0.45833773229E+02  0.59875811105E+02  0.94762973210E+02  0.00000000000E+00 0.  1.
         22    1    3    3    0    0 -0.15033655769E+02 -0.21302578968E+03  0.84162853137E+02  0.22954168188E+03  0.00000000000E+00 0.  1.
</event>
<event>
 7    1  0.6176857E-006  0.4713321E+02  0.7818608E-02  0.1541394E+00
          2   -1    0    0  502    0  0.00000000000E+00  0.00000000000E+00  0.14989825443E+04  0.14989825443E+04  0.00000000000E+00 0. -1.
          1   -1    0    0  501    0 -0.00000000000E+00 -0.00000000000E+00 -0.10821824811E+02  0.10821824811E+02  0.00000000000E+00 0. -1.
         25    2    1    2    0    0 -0.82302744280E+01 -0.23704501160E+02  0.73623159489E+03  0.74718872571E+03  0.12499755885E+03 0.  0.
          2    1    1    2  501    0  0.36840773535E+01 -0.26979548008E+02  0.37325278564E+02  0.46202217010E+02  0.00000000000E+00 0. -1.
          1    1    1    2  502    0  0.45461970745E+01  0.50684049168E+02  0.71460384604E+03  0.71641342640E+03  0.00000000000E+00 0. -1.
         22    1    3    3    0    0 -0.14324909990E+02  0.23342357644E+02  0.35419866359E+02  0.44773157577E+02  0.00000000000E+00 0. -1.
         22    1    3    3    0    0  0.60946355617E+01 -0.47046858804E+02  0.70081172853E+03  0.70241556813E+03  0.00000000000E+00 0. -1.
</event>
<event>
 7    1  0.6176857E-006  0.2502917E+03  0.7818608E-02  0.1165211E+00
          2   -1    0    0  502    0  0.00000000000E+00  0.00000000000E+00  0.19002160821E+04  0.19002160821E+04  0.00000000000E+00 0. -1.
          1   -1    0    0  501    0 -0.00000000000E+00 -0.00000000000E+00 -0.13779768880E+03  0.13779768880E+03  0.00000000000E+00 0. -1.
         25    2    1    2    0    0 -0.11078584787E+03 -0.10567578176E+03  0.63032317314E+02  0.20745733004E+03  0.12499838328E+03 0.  0.
          2    1    1    2  501    0 -0.53959579848E+01 -0.13325906209E+03  0.25584740310E+02  0.13580012124E+03  0.00000000000E+00 0. -1.
          1    1    1    2  502    0  0.11618180586E+03  0.23893484385E+03  0.16738013357E+04  0.16947563197E+04  0.00000000000E+00 0. -1.
         22    1    3    3    0    0 -0.37767257425E+01  0.86660222292E+01 -0.25754655480E+02  0.27434756743E+02  0.00000000000E+00 0.  1.
         22    1    3    3    0    0 -0.10700912213E+03 -0.11434180399E+03  0.88786972794E+02  0.18002257330E+03  0.00000000000E+00 0.  1.
</event>
<event>
 7    1  0.6176857E-006  0.1083853E+03  0.7818608E-02  0.1329419E+00
          2   -1    0    0  502    0  0.00000000000E+00  0.00000000000E+00  0.42039193858E+04  0.42039193858E+04  0.00000000000E+00 0. -1.
          1   -1    0    0  501    0 -0.00000000000E+00 -0.00000000000E+00 -0.27547708583E+03  0.27547708583E+03  0.00000000000E+00 0. -1.
         25    2    1    2    0    0  0.60437140613E+02  0.67341826075E+02  0.11077825983E+03  0.18996049420E+03  0.12500238798E+03 0.  0.
          2    1    1    2  501    0 -0.10667018642E+03 -0.30917572582E+02 -0.22258728922E+03  0.24875595729E+03  0.00000000000E+00 0. -1.
          1    1    1    2  502    0  0.46233045810E+02 -0.36424253494E+02  0.40402513294E+04  0.40406800202E+04  0.00000000000E+00 0. -1.
         22    1    3    3    0    0  0.96379691902E+01 -0.34408363162E+02  0.78770426187E+01  0.36590623198E+02  0.00000000000E+00 0. -1.
         22    1    3    3    0    0  0.50799171423E+02  0.10175018924E+03  0.10290121721E+03  0.15336987100E+03  0.00000000000E+00 0. -1.
</event>
<event>
 7    1  0.6176857E-006  0.5884485E+02  0.7818608E-02  0.1531337E+00
          2   -1    0    0  502    0  0.00000000000E+00  0.00000000000E+00  0.80204685409E+03  0.80204685409E+03  0.00000000000E+00 0. -1.
          1   -1    0    0  501    0 -0.00000000000E+00 -0.00000000000E+00 -0.15126184542E+03  0.15126184542E+03  0.00000000000E+00 0. -1.
         25    2    1    2    0    0  0.21504403293E+02  0.31306421074E+02  0.48682328752E+01  0.13073965546E+03  0.12500650566E+03 0.  0.
          2    1    1    2  501    0  0.21090410998E+02  0.98881399858E+01 -0.85571190267E+02  0.88684887958E+02  0.00000000000E+00 0. -1.
          1    1    1    2  502    0 -0.42594814291E+02 -0.41194561060E+02  0.73148796606E+03  0.73388415609E+03  0.00000000000E+00 0. -1.
         22    1    3    3    0    0  0.38038536052E+02 -0.38232412694E+02  0.20281338133E+02  0.57619270057E+02  0.00000000000E+00 0. -1.
         22    1    3    3    0    0 -0.16534132759E+02  0.69538833768E+02 -0.15413105258E+02  0.73120385404E+02  0.00000000000E+00 0. -1.
</event>
<event>
 7    1  0.6176857E-006  0.2314950E+02  0.7818608E-02  0.1698431E+00
          2   -1    0    0  502    0  0.00000000000E+00  0.00000000000E+00  0.13506865848E+03  0.13506865848E+03  0.00000000000E+00 0. -1.
          1   -1    0    0  501    0 -0.00000000000E+00 -0.00000000000E+00 -0.31705793190E+04  0.31705793190E+04  0.00000000000E+00 0. -1.
         25    2    1    2    0    0  0.21930309061E+02 -0.20389190209E+01 -0.15469518135E+04  0.15521505689E+04  0.12500551841E+03 0.  0.
          2    1    1    2  501    0 -0.14343026834E+02 -0.18634882691E+02 -0.16200269517E+04  0.16201976131E+04  0.00000000000E+00 0. -1.
          1    1    1    2  502    0 -0.75872822268E+01  0.20673801712E+02  0.13146810466E+03  0.13329979547E+03  0.00000000000E+00 0. -1.
         22    1    3    3    0    0  0.11182375191E+02  0.56668127740E+02 -0.46827529494E+03  0.47182419827E+03  0.00000000000E+00 0. -1.
         22    1    3    3    0    0  0.10747933870E+02 -0.58707046761E+02 -0.10786765186E+04  0.10803263707E+04  0.00000000000E+00 0. -1.
</event>
<event>
 7    1  0.6591377E-006  0.1148067E+03  0.7818608E-02  0.1376812E+00
          2   -1    0    0  502    0  0.00000000000E+00  0.00000000000E+00  0.15415050210E+04  0.15415050210E+04  0.00000000000E+00 0. -1.
          1   -1    0    0  501    0 -0.00000000000E+00 -0.00000000000E+00 -0.98776510536E+03  0.98776510536E+03  0.00000000000E+00 0. -1.
         25    2    1    2    0    0  0.68100900136E+02  0.40618108460E+02 -0.59846444717E+03  0.61650013868E+03  0.12500065253E+03 0.  0.
          2    1    1    2  501    0  0.36472699215E+02  0.70713993157E+01 -0.37721398030E+03  0.37903911330E+03  0.00000000000E+00 0. -1.
          1    1    1    2  502    0 -0.10457359935E+03 -0.47689507776E+02  0.15294183431E+04  0.15337308744E+04  0.00000000000E+00 0. -1.
         22    1    3    3    0    0  0.20301909687E+02  0.15291192594E+02 -0.52317789700E+03  0.52379490263E+03  0.00000000000E+00 0. -1.
         22    1    3    3    0    0  0.47798990449E+02  0.25326915867E+02 -0.75286550167E+02  0.92705236051E+02  0.00000000000E+00 0. -1.
</event>
<event>
 7    1  0.6176857E-006  0.2381058E+03  0.7818608E-02  0.1271298E+00
          2   -1    0    0  502    0  0.00000000000E+00  0.00000000000E+00  0.85430536156E+03  0.85430536156E+03  0.00000000000E+00 0. -1.
          1   -1    0    0  501    0 -0.00000000000E+00 -0.00000000000E+00 -0.13291420048E+04  0.13291420048E+04  0.00000000000E+00 0. -1.
         25    2    1    2    0    0  0.87982017065E+02  0.26576272431E+03 -0.82859851512E+02  0.31758646467E+03  0.12499898635E+03 0.  0.
          2    1    1    2  501    0 -0.12580421911E+02 -0.44016611110E+02 -0.11098254545E+04  0.11107692238E+04  0.00000000000E+00 0. -1.
          1    1    1    2  502    0 -0.75401595154E+02 -0.22174611320E+03  0.71784866281E+03  0.75509167786E+03  0.00000000000E+00 0. -1.
         22    1    3    3    0    0  0.52089339376E+02  0.17592833074E+03  0.96531320106E+01  0.18373148829E+03  0.00000000000E+00 0. -1.
         22    1    3    3    0    0  0.35892677689E+02  0.89834393573E+02 -0.92512983522E+02  0.13385497638E+03  0.00000000000E+00 0. -1.
</event>
<event>
 7    1  0.6176857E-006  0.2327794E+03  0.7818608E-02  0.1248916E+00
          2   -1    0    0  502    0  0.00000000000E+00  0.00000000000E+00  0.33183668725E+03  0.33183668725E+03  0.00000000000E+00 0. -1.
          1   -1    0    0  501    0 -0.00000000000E+00 -0.00000000000E+00 -0.70750675819E+03  0.70750675819E+03  0.00000000000E+00 0. -1.
         25    2    1    2    0    0  0.22324343947E+03  0.10086236360E+03 -0.79678737775E+02  0.28632587317E+03  0.12499181869E+03 0.  0.
          2    1    1    2  501    0 -0.41519116477E+02  0.40992666405E+02 -0.46406527217E+03  0.46771873233E+03  0.00000000000E+00 0. -1.
          1    1    1    2  502    0 -0.18172432299E+03 -0.14185503000E+03  0.16807393901E+03  0.28529883995E+03  0.00000000000E+00 0. -1.
         22    1    3    3    0    0  0.15763622936E+03  0.10346482795E+03 -0.74373823656E+01  0.18870470605E+03  0.00000000000E+00 0.  1.
         22    1    3    3    0    0  0.65607210110E+02 -0.26024643523E+01 -0.72241355409E+02  0.97621167123E+02  0.00000000000E+00 0.  1.
</event>
<event>
 7    1  0.6176857E-006  0.7677917E+02  0.7818608E-02  0.1375613E+00
          2   -1    0    0  502    0  0.00000000000E+00  0.00000000000E+00  0.32326361246E+03  0.32326361246E+03  0.00000000000E+00 0. -1.
          1   -1    0    0  501    0 -0.00000000000E+00 -0.00000000000E+00 -0.13636760965E+04  0.13636760965E+04  0.00000000000E+00 0. -1.
         25    2    1    2    0    0  0.53653204047E+02 -0.11279764243E+03 -0.25807646908E+03  0.31277819656E+03  0.12499904765E+03 0.  0.
          2    1    1    2  501    0 -0.41513814224E+02  0.37736111386E+02 -0.10726190067E+04  0.10740851663E+04  0.00000000000E+00 0. -1.
          1    1    1    2  502    0 -0.12139389823E+02  0.75061531044E+02  0.29028299172E+03  0.30007634613E+03  0.00000000000E+00 0. -1.
         22    1    3    3    0    0  0.64109397022E+02 -0.13339643906E+03 -0.18969992294E+03  0.24060483267E+03  0.00000000000E+00 0.  1.
         22    1    3    3    0    0 -0.10456192975E+02  0.20598796632E+02 -0.68376546132E+02  0.72173363889E+02  0.00000000000E+00 0.  1.
</event>
<event>
 7    1  0.6176857E-006  0.4050944E+02  0.7818608E-02  0.1531357E+00
          2   -1    0    0  502    0  0.00000000000E+00  0.00000000000E+00  0.88809750129E+01  0.88809750129E+01  0.00000000000E+00 0. -1.
          1   -1    0    0  501    0 -0.00000000000E+00 -0.00000000000E+00 -0.23243227988E+04  0.23243227988E+04  0.00000000000E+00 0. -1.
         25    2    1    2    0    0 -0.12951323546E+02  0.70530551187E+01 -0.12341892533E+04  0.12405911410E+04  0.12500313508E+03 0.  0.
          2    1    1    2  501    0  0.19871304297E+02 -0.40169716717E+02 -0.10313472626E+04  0.10323205175E+04  0.00000000000E+00 0. -1.
          1    1    1    2  502    0 -0.69199807516E+01  0.33116661599E+02 -0.49905307899E+02  0.60292115285E+02  0.00000000000E+00 0. -1.
         22    1    3    3    0    0 -0.11412317523E+02  0.46246495543E+02 -0.10934860136E+04  0.10945230200E+04  0.00000000000E+00 0.  1.
         22    1    3    3    0    0 -0.15390060222E+01 -0.39193440425E+02 -0.14070323966E+03  0.14606812096E+03  0.00000000000E+00 0.  1.
</event>
<event>
 7    1  0.8559246E-006  0.7210071E+02  0.7818608E-02  0.1435050E+00
          2   -1    0    0  502    0  0.00000000000E+00  0.00000000000E+00  0.17905623208E+04  0.17905623208E+04  0.00000000000E+00 0. -1.
          1   -1    0    0  501    0 -0.00000000000E+00 -0.00000000000E+00 -0.56484442474E+03  0.56484442474E+03  0.00000000000E+00 0. -1.
         25    2    1    2    0    0 -0.11956349484E+02  0.90397808137E+02 -0.16594113544E+03  0.22688430197E+03  0.12500123216E+03 0.  0.
          2    1    1    2  501    0  0.31056221918E+02 -0.20919405171E+02 -0.36674052299E+03  0.36864715059E+03  0.00000000000E+00 0. -1.
          1    1    1    2  502    0 -0.19099872434E+02 -0.69478402966E+02  0.17583995545E+04  0.17598752930E+04  0.00000000000E+00 0. -1.
         22    1    3    3    0    0  0.52443474637E+01  0.11447858104E+03 -0.91074256267E+02  0.14638090331E+03  0.00000000000E+00 0.  1.
         22    1    3    3    0    0 -0.17200696948E+02 -0.24080772908E+02 -0.74866879177E+02  0.80503398668E+02  0.00000000000E+00 0.  1.
</event>
<event>
 7    1  0.6176857E-006  0.3000338E+03  0.7818608E-02  0.1238413E+00
          2   -1    0    0  502    0  0.00000000000E+00  0.00000000000E+00  0.12694970410E+04  0.12694970410E+04  0.00000000000E+00 0. -1.
          1   -1    0    0  501    0 -0.00000000000E+00 -0.00000000000E+00 -0.24923636298E+04  0.24923636298E+04  0.00000000000E+00 0. -1.
         25    2    1    2    0    0  0.43703167969E+02  0.25006379360E+03 -0.21836486945E+02  0.28380219381E+03  0.12499994116E+03 0.  0.
          2    1    1    2  501    0 -0.43410197757E+02 -0.30039255652E+03 -0.23291370413E+04  0.23488293872E+04  0.00000000000E+00 0. -1.
          1    1    1    2  502    0 -0.29297021112E+00  0.50328762921E+02  0.11281069395E+04  0.11292290898E+04  0.00000000000E+00 0. -1.
         22    1    3    3    0    0  0.56602058463E+02  0.14489565535E+03 -0.66038160226E+02  0.16899580636E+03  0.00000000000E+00 0.  1.
         22    1    3    3    0    0 -0.12898890494E+02  0.10516813825E+03  0.44201673280E+02  0.11480638745E+03  0.00000000000E+00 0.  1.
</event>
<event>
 7    1  0.6176857E-006  0.6964458E+02  0.7818608E-02  0.1414115E+00
          2   -1    0    0  502    0  0.00000000000E+00  0.00000000000E+00  0.80991315666E+03  0.80991315666E+03  0.00000000000E+00 0. -1.
          1   -1    0    0  501    0 -0.00000000000E+00 -0.00000000000E+00 -0.77218423896E+03  0.77218423896E+03  0.00000000000E+00 0. -1.
         25    2    1    2    0    0  0.35714952774E+02 -0.10878282019E+03  0.79131631944E+02  0.18707082874E+03  0.12499767987E+03 0.  0.
          2    1    1    2  501    0 -0.23510085034E+02  0.64961418411E+02 -0.71578532699E+03  0.71911149644E+03  0.00000000000E+00 0. -1.
          1    1    1    2  502    0 -0.12204867740E+02  0.43821401776E+02  0.67438261275E+03  0.67591507043E+03  0.00000000000E+00 0. -1.
         22    1    3    3    0    0  0.34908284776E+02  0.17972413983E+02  0.33930920330E+01  0.39409504995E+02  0.00000000000E+00 0. -1.
         22    1    3    3    0    0  0.80666799728E+00 -0.12675523417E+03  0.75738539911E+02  0.14766132375E+03  0.00000000000E+00 0. -1.
</event>
<event>
 7    1  0.6176857E-006  0.1253792E+03  0.7818608E-02  0.1279160E+00
          2   -1    0    0  502    0  0.00000000000E+00  0.00000000000E+00  0.11106240031E+04  0.11106240031E+04  0.00000000000E+00 0. -1.
          1   -1    0    0  501    0 -0.00000000000E+00 -0.00000000000E+00 -0.84816637250E+03  0.84816637250E+03  0.00000000000E+00 0. -1.
         25    2    1    2    0    0 -0.97070949358E+02 -0.23671529893E+01  0.50360948664E+03  0.52789698318E+03  0.12499734874E+03 0.  0.
          2    1    1    2  501    0 -0.39262390603E+02 -0.70419154123E+02 -0.82398403020E+03  0.82791912323E+03  0.00000000000E+00 0. -1.
          1    1    1    2  502    0  0.13633333996E+03  0.72786307113E+02  0.58283217420E+03  0.60297426925E+03  0.00000000000E+00 0. -1.
         22    1    3    3    0    0 -0.10434351630E+03  0.23226836900E+02  0.23735149938E+03  0.26031286869E+03  0.00000000000E+00 0.  1.
         22    1    3    3    0    0  0.72725669422E+01 -0.25593989889E+02  0.26625798726E+03  0.26758411449E+03  0.00000000000E+00 0.  1.
</event>
<event>
 7    1  0.6176857E-006  0.1734478E+03  0.7818608E-02  0.1211836E+00
          2   -1    0    0  502    0  0.00000000000E+00  0.00000000000E+00  0.14948117550E+04  0.14948117550E+04  0.00000000000E+00 0. -1.
          1   -1    0    0  501    0 -0.00000000000E+00 -0.00000000000E+00 -0.91231111119E+03  0.91231111119E+03  0.00000000000E+00 0. -1.
         25    2    1    2    0    0 -0.11588579682E+03 -0.46217655443E+02  0.50980413468E+03  0.53952864398E+03  0.12500124945E+03 0.  0.
          2    1    1    2  501    0 -0.10390442186E+03  0.48837311786E+02 -0.88122681843E+03  0.88867424708E+03  0.00000000000E+00 0. -1.
          1    1    1    2  502    0  0.21979021868E+03 -0.26196563436E+01  0.95392332752E+03  0.97891997509E+03  0.00000000000E+00 0. -1.
         22    1    3    3    0    0 -0.12803040066E+03 -0.58781387416E+02  0.50005093200E+03  0.51951705419E+03  0.00000000000E+00 0. -1.
         22    1    3    3    0    0  0.12144603844E+02  0.12563731973E+02  0.97532026805E+01  0.20011589796E+02  0.00000000000E+00 0. -1.
</event>
<event>
 7    1  0.6176857E-006  0.9906476E+02  0.7818608E-02  0.1311619E+00
          2   -1    0    0  502    0  0.00000000000E+00  0.00000000000E+00  0.14313709762E+04  0.14313709762E+04  0.00000000000E+00 0. -1.
          1   -1    0    0  501    0 -0.00000000000E+00 -0.00000000000E+00 -0.16869518941E+04  0.16869518941E+04  0.00000000000E+00 0. -1.
         25    2    1    2    0    0 -0.26447845946E+02 -0.88053894010E+02  0.63541202020E+02  0.16767730818E+03  0.12500087407E+03 0.  0.
          2    1    1    2  501    0 -0.49023815682E+02  0.86614503983E+02 -0.16322842406E+04  0.16353156420E+04  0.00000000000E+00 0. -1.
          1    1    1    2  502    0  0.75471661628E+02  0.14393900270E+01  0.13131621207E+04  0.13153299201E+04  0.00000000000E+00 0. -1.
         22    1    3    3    0    0 -0.34814467133E+02 -0.10015764989E+03  0.37498954860E+01  0.10610213791E+03  0.00000000000E+00 0.  1.
         22    1    3    3    0    0  0.83666211870E+01  0.12103755877E+02  0.59791306534E+02  0.61575170267E+02  0.00000000000E+00 0.  1.
</event>
<event>
 7    1  0.6176857E-006  0.7197338E+02  0.7818608E-02  0.1356675E+00
          2   -1    0    0  502    0  0.00000000000E+00  0.00000000000E+00  0.25214798294E+04  0.25214798294E+04  0.00000000000E+00 0. -1.
          1   -1    0    0  501    0 -0.00000000000E+00 -0.00000000000E+00 -0.14110299465E+04  0.14110299465E+04  0.00000000000E+00 0. -1.
         25    2    1    2    0    0 -0.27302316867E+02  0.36020697578E+02  0.48429316866E+03  0.50220302950E+03  0.12500040987E+03 0.  0.
          2    1    1    2  501    0 -0.47150107651E+02 -0.51832493558E+02 -0.14004847522E+04  0.14022365282E+04  0.00000000000E+00 0. -1.
          1    1    1    2  502    0  0.74452424518E+02  0.15811795980E+02  0.20266414664E+04  0.20280702182E+04  0.00000000000E+00 0. -1.
         22    1    3    3    0    0 -0.45870844820E+02  0.34662839987E+02  0.85843967021E+02  0.10331908611E+03  0.00000000000E+00 0. -1.
         22    1    3    3    0    0  0.18568527953E+02  0.13578575909E+01  0.39844920164E+03  0.39888394339E+03  0.00000000000E+00 0. -1.
</event>
<event>
 7    1  0.6176857E-006  0.8598011E+02  0.7818608E-02  0.1337088E+00
          2   -1    0    0  502    0  0.00000000000E+00  0.00000000000E+00  0.22695966485E+03  0.22695966485E+03  0.00000000000E+00 0. -1.
          1   -1    0    0  501    0 -0.00000000000E+00 -0.00000000000E+00 -0.20410894725E+03  0.20410894725E+03  0.00000000000E+00 0. -1.
         25    2    1    2    0    0  0.10497830511E+02 -0.94090216112E+02  0.34242097920E+02  0.16050073091E+03  0.12499916056E+03 0.  0.
          2    1    1    2  501    0 -0.68372044896E+02  0.55829191045E+02 -0.11555660330E+03  0.14541307940E+03  0.00000000000E+00 0. -1.
          1    1    1    2  502    0  0.57874214385E+02  0.38261025066E+02  0.10416522299E+03  0.12515480178E+03  0.00000000000E+00 0. -1.
         22    1    3    3    0    0  0.10309290297E+02  0.30126575605E+02  0.13404636251E+02  0.34548173572E+02  0.00000000000E+00 0. -1.
         22    1    3    3    0    0  0.18854021349E+00 -0.12421679172E+03  0.20837461669E+02  0.12595255734E+03  0.00000000000E+00 0. -1.
</event>
<event>
 7    1  0.6176857E-006  0.8068786E+02  0.7818608E-02  0.1440455E+00
          2   -1    0    0  502    0  0.00000000000E+00  0.00000000000E+00  0.18453655354E+04  0.18453655354E+04  0.00000000000E+00 0. -1.
          1   -1    0    0  501    0 -0.00000000000E+00 -0.00000000000E+00 -0.75856927227E+03  0.75856927227E+03  0.00000000000E+00 0. -1.
         25    2    1    2    0    0 -0.11377088272E+02 -0.65848116546E+02 -0.46766214010E+03  0.48866964149E+03  0.12499891453E+03 0.  0.
          2    1    1    2  501    0 -0.82696126107E+01  0.91272775052E+02 -0.27276995190E+03  0.28775432684E+03  0.00000000000E+00 0. -1.
          1    1    1    2  502    0  0.19646700883E+02 -0.25424658506E+02  0.18272283552E+04  0.18275108394E+04  0.00000000000E+00 0. -1.
         22    1    3    3    0    0  0.36142432225E+02  0.20657158422E+02 -0.10912478909E+03  0.11679560435E+03  0.00000000000E+00 0. -1.
         22    1    3    3    0    0 -0.47519520497E+02 -0.86505274968E+02 -0.35853735101E+03  0.37187403714E+03  0.00000000000E+00 0. -1.
</event>
<event>
 7    1  0.6176857E-006  0.1112535E+03  0.7818608E-02  0.1334901E+00
          2   -1    0    0  502    0  0.00000000000E+00  0.00000000000E+00  0.11256428582E+04  0.11256428582E+04  0.00000000000E+00 0. -1.
          1   -1    0    0  501    0 -0.00000000000E+00 -0.00000000000E+00 -0.53510196619E+03  0.53510196619E+03  0.00000000000E+00 0. -1.
         25    2    1    2    0    0 -0.14528741194E+03  0.70643548245E+00  0.37743147044E+03  0.42330601116E+03  0.12499813231E+03 0.  0.
          2    1    1    2  501    0  0.10448388583E+03 -0.37061201727E+02 -0.50511518637E+03  0.51713805369E+03  0.00000000000E+00 0. -1.
          1    1    1    2  502    0  0.40803526106E+02  0.36354766245E+02  0.71822460792E+03  0.72030075953E+03  0.00000000000E+00 0. -1.
         22    1    3    3    0    0 -0.14952224795E+03 -0.25506937464E+02  0.24434850252E+03  0.28759989078E+03  0.00000000000E+00 0.  1.
         22    1    3    3    0    0  0.42348360138E+01  0.26213372947E+02  0.13308296792E+03  0.13570612038E+03  0.00000000000E+00 0.  1.
</event>
<event>
 7    1  0.6176857E-006  0.1171655E+03  0.7818608E-02  0.1417143E+00
          2   -1    0    0  502    0  0.00000000000E+00  0.00000000000E+00  0.33899048365E+03  0.33899048365E+03  0.00000000000E+00 0. -1.
          1   -1    0    0  501    0 -0.00000000000E+00 -0.00000000000E+00 -0.43445237234E+03  0.43445237234E+03  0.00000000000E+00 0. -1.
         25    2    1    2    0    0 -0.20039341950E+02 -0.12566031136E+03 -0.79340871226E+02  0.19522324533E+03  0.12500021038E+03 0.  0.
          2    1    1    2  501    0 -0.43468464423E+01  0.11551314786E+03 -0.28525813221E+03  0.30778951313E+03  0.00000000000E+00 0. -1.
          1    1    1    2  502    0  0.24386188393E+02  0.10147163495E+02  0.26913711475E+03  0.27043009752E+03  0.00000000000E+00 0. -1.
         22    1    3    3    0    0  0.15438805464E+00  0.69984752427E+01 -0.59106122935E+02  0.59519209167E+02  0.00000000000E+00 0.  1.
         22    1    3    3    0    0 -0.20193730005E+02 -0.13265878660E+03 -0.20234748291E+02  0.13570403617E+03  0.00000000000E+00 0.  1.
</event>
<event>
 7    1  0.6176857E-006  0.1226350E+03  0.7818608E-02  0.1249004E+00
          2   -1    0    0  502    0  0.00000000000E+00  0.00000000000E+00  0.21860459035E+03  0.21860459035E+03  0.00000000000E+00 0. -1.
          1   -1    0    0  501    0 -0.00000000000E+00 -0.00000000000E+00 -0.50519530947E+03  0.50519530947E+03  0.00000000000E+00 0. -1.
         25    2    1    2    0    0  0.18109126985E+03  0.59903350568E+01 -0.20192178218E+03  0.29870179912E+03  0.12498170487E+03 0.  0.
          2    1    1    2  501    0 -0.86860429396E+02  0.68548227456E+02 -0.21870012761E+03  0.24509863218E+03  0.00000000000E+00 0. -1.
          1    1    1    2  502    0 -0.94230840456E+02 -0.74538562513E+02  0.13403119067E+03  0.17999946852E+03  0.00000000000E+00 0. -1.
         22    1    3    3    0    0  0.16684641297E+03  0.32714740737E+02 -0.20712786016E+03  0.26797374916E+03  0.00000000000E+00 0. -1.
         22    1    3    3    0    0  0.14244856886E+02 -0.26724405680E+02  0.52060779883E+01  0.30728049965E+02  0.00000000000E+00 0. -1.
</event>
<event>
 7    1  0.6176857E-006  0.6709772E+02  0.7818608E-02  0.1417352E+00
          2   -1    0    0  502    0  0.00000000000E+00  0.00000000000E+00  0.21716112373E+03  0.21716112373E+03  0.00000000000E+00 0. -1.
          1   -1    0    0  501    0 -0.00000000000E+00 -0.00000000000E+00 -0.56691792742E+03  0.56691792742E+03  0.00000000000E+00 0. -1.
         25    2    1    2    0    0 -0.72395484069E+01  0.44153799375E+02  0.14970592586E+03  0.20009629267E+03  0.12499877216E+03 0.  0.
          2    1    1    2  501    0  0.53214262052E+02 -0.41557150874E+02 -0.52634792402E+03  0.53066080654E+03  0.00000000000E+00 0. -1.
          1    1    1    2  502    0 -0.45974713645E+02 -0.25966485016E+01  0.26885194462E+02  0.53321951947E+02  0.00000000000E+00 0. -1.
         22    1    3    3    0    0 -0.25283609046E+02  0.56864605762E+02  0.16289950446E+03  0.17438203126E+03  0.00000000000E+00 0.  1.
         22    1    3    3    0    0  0.18044060639E+02 -0.12710806386E+02 -0.13193578596E+02  0.25714261403E+02  0.00000000000E+00 0.  1.
</event>
<event>
 7    1  0.6176857E-006  0.4704104E+02  0.7818608E-02  0.1496028E+00
          2   -1    0    0  502    0  0.00000000000E+00  0.00000000000E+00  0.20516902053E+03  0.20516902053E+03  0.00000000000E+00 0. -1.
          1   -1    0    0  501    0 -0.00000000000E+00 -0.00000000000E+00 -0.19718697234E+03  0.19718697234E+03  0.00000000000E+00 0. -1.
         25    2    1    2    0    0 -0.61151626318E+02 -0.53001078116E+02 -0.29498290016E+02  0.15181273964E+03  0.12501329177E+03 0.  0.
          2    1    1    2  501    0  0.30504342428E+02  0.32317634226E+02 -0.99333514183E+02  0.10882137395E+03  0.00000000000E+00 0. -1.
          1    1    1    2  502    0  0.30647283891E+02  0.20683443890E+02  0.13681385239E+03  0.14172187928E+03  0.00000000000E+00 0. -1.
         22    1    3    3    0    0 -0.38990727175E+02 -0.12018795757E+02 -0.75827989880E+02  0.86108143089E+02  0.00000000000E+00 0.  1.
         22    1    3    3    0    0 -0.22160899144E+02 -0.40982282359E+02  0.46329699864E+02  0.65704596549E+02  0.00000000000E+00 0.  1.
</event>
<event>
 7    1  0.6176857E-006  0.7351145E+02  0.7818608E-02  0.1427533E+00
          2   -1    0    0  502    0  0.00000000000E+00  0.00000000000E+00  0.22573310939E+04  0.22573310939E+04  0.00000000000E+00 0. -1.
          1   -1    0    0  501    0 -0.00000000000E+00 -0.00000000000E+00 -0.42322015201E+03  0.42322015201E+03  0.00000000000E+00 0. -1.
         25    2    1    2    0    0 -0.27946424810E+02  0.94104282455E+02 -0.97094428759E+02  0.18624725266E+03  0.12499636951E+03 0.  0.
          2    1    1    2  501    0 -0.16129463601E+02 -0.35371740424E+02 -0.27959484442E+03  0.28228460221E+03  0.00000000000E+00 0. -1.
          1    1    1    2  502    0  0.44075888411E+02 -0.58732542031E+02  0.22108002151E+04  0.22120193910E+04  0.00000000000E+00 0. -1.
         22    1    3    3    0    0  0.11697146182E+02  0.48143525885E+02 -0.11310063856E+03  0.12347621939E+03  0.00000000000E+00 0. -1.
         22    1    3    3    0    0 -0.39643570992E+02  0.45960756570E+02  0.16006209796E+02  0.62771033268E+02  0.00000000000E+00 0. -1.
</event>
<event>
 7    1  0.6176857E-006  0.6661311E+02  0.7818608E-02  0.1436525E+00
          2   -1    0    0  502    0  0.00000000000E+00  0.00000000000E+00  0.16372832155E+04  0.16372832155E+04  0.00000000000E+00 0. -1.
          1   -1    0    0  501    0 -0.00000000000E+00 -0.00000000000E+00 -0.39812770949E+03  0.39812770949E+03  0.00000000000E+00 0. -1.
         25    2    1    2    0    0 -0.22086442549E+02  0.91369645319E+02  0.25557907721E+03  0.29964645210E+03  0.12502443170E+03 0.  0.
          2    1    1    2  501    0 -0.87859795406E+01 -0.65806098296E+02 -0.37286579644E+03  0.37873016537E+03  0.00000000000E+00 0. -1.
          1    1    1    2  502    0  0.30872422089E+02 -0.25563547024E+02  0.13564422252E+04  0.13570343075E+04  0.00000000000E+00 0. -1.
         22    1    3    3    0    0  0.44177050968E+02  0.75914373934E+02  0.15630300719E+03  0.17929092018E+03  0.00000000000E+00 0. -1.
         22    1    3    3    0    0 -0.66263493517E+02  0.15455271386E+02  0.99276070020E+02  0.12035553193E+03  0.00000000000E+00 0. -1.
</event>
<event>
 7    1  0.6176857E-006  0.5425420E+02  0.7818608E-02  0.1522356E+00
          2   -1    0    0  502    0  0.00000000000E+00  0.00000000000E+00  0.34881617132E+03  0.34881617132E+03  0.00000000000E+00 0. -1.
          1   -1    0    0  501    0 -0.00000000000E+00 -0.00000000000E+00 -0.71856205797E+03  0.71856205797E+03  0.00000000000E+00 0. -1.
         25    2    1    2    0    0 -0.11109143431E+02  0.80038697618E+02  0.74025599435E+02  0.16623672705E+03  0.12500101545E+03 0.  0.
          2    1    1    2  501    0  0.65578593858E+01 -0.53614710215E+02 -0.67058085890E+03  0.67275272649E+03  0.00000000000E+00 0. -1.
          1    1    1    2  502    0  0.45512840448E+01 -0.26423987403E+02  0.22680937282E+03  0.22838877576E+03  0.00000000000E+00 0. -1.
         22    1    3    3    0    0  0.26488896769E+02  0.97587203537E+02  0.29407479271E+02  0.10530775747E+03  0.00000000000E+00 0. -1.
         22    1    3    3    0    0 -0.37598040200E+02 -0.17548505919E+02  0.44618120164E+02  0.60928969578E+02  0.00000000000E+00 0. -1.
</event>
<event>
 7    1  0.8071142E-006  0.1204349E+03  0.7818608E-02  0.1351398E+00
          2   -1    0    0  502    0  0.00000000000E+00  0.00000000000E+00  0.19129379080E+04  0.19129379080E+04  0.00000000000E+00 0. -1.
          1   -1    0    0  501    0 -0.00000000000E+00 -0.00000000000E+00 -0.92782582519E+03  0.92782582519E+03  0.00000000000E+00 0. -1.
         25    2    1    2    0    0  0.70108851594E+02 -0.34729525512E+02 -0.11806262765E+03  0.18890269621E+03  0.12499621424E+03 0.  0.
          2    1    1    2  501    0  0.43038690629E+02 -0.80807686512E+01 -0.77177311386E+03  0.77301446752E+03  0.00000000000E+00 0. -1.
          1    1    1    2  502    0 -0.11314754222E+03  0.42810294163E+02  0.18749478244E+04  0.18788465695E+04  0.00000000000E+00 0. -1.
         22    1    3    3    0    0 -0.32363705898E+02  0.91811933464E+01 -0.14135250341E+02  0.36489848903E+02  0.00000000000E+00 0. -1.
         22    1    3    3    0    0  0.10247255749E+03 -0.43910718859E+02 -0.10392737731E+03  0.15241284731E+03  0.00000000000E+00 0. -1.
</event>
<event>
 7    1  0.6176857E-006  0.1859641E+03  0.7818608E-02  0.1205065E+00
          2   -1    0    0  502    0  0.00000000000E+00  0.00000000000E+00  0.21030716141E+04  0.21030716141E+04  0.00000000000E+00 0. -1.
          1   -1    0    0  501    0 -0.00000000000E+00 -0.00000000000E+00 -0.19002074829E+03  0.19002074829E+03  0.00000000000E+00 0. -1.
         25    2    1    2    0    0  0.26987429923E+03  0.60264254171E+02  0.60513787483E+03  0.67696373823E+03  0.12499655038E+03 0.  0.
          2    1    1    2  501    0 -0.15754707195E+03 -0.85522585111E+02 -0.98817136702E+02  0.20469494119E+03  0.00000000000E+00 0. -1.
          1    1    1    2  502    0 -0.11232722728E+03  0.25258330940E+02  0.14067301276E+04  0.14114336829E+04  0.00000000000E+00 0. -1.
         22    1    3    3    0    0  0.74936369653E+02 -0.18756911647E+02  0.27387397012E+03  0.28455971736E+03  0.00000000000E+00 0. -1.
         22    1    3    3    0    0  0.19493792958E+03  0.79021165818E+02  0.33126390471E+03  0.39240402087E+03  0.00000000000E+00 0. -1.
</event>
<event>
 7    1  0.6176857E-006  0.5169299E+02  0.7818608E-02  0.1508229E+00
          2   -1    0    0  502    0  0.00000000000E+00  0.00000000000E+00  0.58733961080E+03  0.58733961080E+03  0.00000000000E+00 0. -1.
          1   -1    0    0  501    0 -0.00000000000E+00 -0.00000000000E+00 -0.14894178079E+04  0.14894178079E+04  0.00000000000E+00 0. -1.
         25    2    1    2    0    0  0.22285530032E+01  0.70876350373E+02  0.50711672292E+03  0.52708744476E+03  0.12500152108E+03 0.  0.
          2    1    1    2  501    0  0.35101931878E+01 -0.30748662103E+02 -0.14734077887E+04  0.14737327822E+04  0.00000000000E+00 0. -1.
          1    1    1    2  502    0 -0.57387461911E+01 -0.40127688270E+02  0.64212868690E+02  0.75937191672E+02  0.00000000000E+00 0. -1.
         22    1    3    3    0    0 -0.58562199695E+02  0.40093734438E+02  0.32454069047E+03  0.33221032275E+03  0.00000000000E+00 0. -1.
         22    1    3    3    0    0  0.60790752698E+02  0.30782615936E+02  0.18257603245E+03  0.19487712201E+03  0.00000000000E+00 0. -1.
</event>
<event>
 7    1  0.6176857E-006  0.1359379E+03  0.7818608E-02  0.1273078E+00
          2   -1    0    0  502    0  0.00000000000E+00  0.00000000000E+00  0.19668962800E+04  0.19668962800E+04  0.00000000000E+00 0. -1.
          1   -1    0    0  501    0 -0.00000000000E+00 -0.00000000000E+00 -0.38943918886E+02  0.38943918886E+02  0.00000000000E+00 0. -1.
         25    2    1    2    0    0 -0.51802411674E+02  0.10527446242E+03  0.52365575532E+03  0.55100540834E+03  0.12500163061E+03 0.  0.
          2    1    1    2  501    0  0.68258666439E+02  0.39416949182E+02  0.51349001032E+02  0.94072638604E+02  0.00000000000E+00 0. -1.
          1    1    1    2  502    0 -0.16456254765E+02 -0.14469141160E+03  0.13529476048E+04  0.13607621519E+04  0.00000000000E+00 0. -1.
         22    1    3    3    0    0 -0.58886673167E+02 -0.27801318555E+00  0.26671455095E+03  0.27313800405E+03  0.00000000000E+00 0.  1.
         22    1    3    3    0    0  0.70842614929E+01  0.10555247560E+03  0.25694120436E+03  0.27786740429E+03  0.00000000000E+00 0.  1.
</event>
<event>
 7    1  0.6176857E-006  0.5047969E+02  0.7818608E-02  0.1470885E+00
          2   -1    0    0  502    0  0.00000000000E+00  0.00000000000E+00  0.14254764036E+03  0.14254764036E+03  0.00000000000E+00 0. -1.
          1   -1    0    0  501    0 -0.00000000000E+00 -0.00000000000E+00 -0.91782615895E+03  0.91782615895E+03  0.00000000000E+00 0. -1.
         25    2    1    2    0    0  0.45587757338E+02 -0.23130190705E+02 -0.56366896475E+03  0.57962109021E+03  0.12499862822E+03 0.  0.
          2    1    1    2  501    0 -0.15689829455E+02  0.51356381525E+02 -0.34088874151E+03  0.34509242640E+03  0.00000000000E+00 0. -1.
          1    1    1    2  502    0 -0.29897927882E+02 -0.28226190820E+02  0.12927918766E+03  0.13566028270E+03  0.00000000000E+00 0. -1.
         22    1    3    3    0    0 -0.11027630888E+02  0.33352251121E+02 -0.59083479471E+02  0.68737463179E+02  0.00000000000E+00 0.  1.
         22    1    3    3    0    0  0.56615388226E+02 -0.56482441826E+02 -0.50458548527E+03  0.51088362703E+03  0.00000000000E+00 0.  1.
</event>
<event>
 7    1  0.6176857E-006  0.3997604E+02  0.7818608E-02  0.1524254E+00
          2   -1    0    0  502    0  0.00000000000E+00  0.00000000000E+00  0.22018561312E+04  0.22018561312E+04  0.00000000000E+00 0. -1.
          1   -1    0    0  501    0 -0.00000000000E+00 -0.00000000000E+00 -0.64254262445E+03  0.64254262445E+03  0.00000000000E+00 0. -1.
         25    2    1    2    0    0 -0.72949620102E+02  0.11697498186E+02  0.10455166367E+04  0.10555514948E+04  0.12500176832E+03 0.  0.
          2    1    1    2  501    0  0.39886286275E+02  0.23740406229E+01 -0.63661832148E+03  0.63787102077E+03  0.00000000000E+00 0. -1.
          1    1    1    2  502    0  0.33063333827E+02 -0.14071538808E+02  0.11504151916E+04  0.11509762401E+04  0.00000000000E+00 0. -1.
         22    1    3    3    0    0 -0.33605841220E+02 -0.56044101777E+02  0.55227528016E+03  0.55612793400E+03  0.00000000000E+00 0.  1.
         22    1    3    3    0    0 -0.39343778882E+02  0.67741599963E+02  0.49324135652E+03  0.49942356080E+03  0.00000000000E+00 0.  1.
</event>
<event>
 7    1  0.6176857E-006  0.1144808E+03  0.7818608E-02  0.1296656E+00
          2   -1    0    0  502    0  0.00000000000E+00  0.00000000000E+00  0.41810975022E+03  0.41810975022E+03  0.00000000000E+00 0. -1.
          1   -1    0    0  501    0 -0.00000000000E+00 -0.00000000000E+00 -0.12160439961E+03  0.12160439961E+03  0.00000000000E+00 0. -1.
         25    2    1    2    0    0  0.75728097984E+02  0.35194480798E+02  0.28367778775E+02  0.15297740069E+03  0.12499583171E+03 0.  0.
          2    1    1    2  501    0 -0.12339527902E+03 -0.92986879930E+02  0.60383878133E+02  0.16588902152E+03  0.00000000000E+00 0. -1.
          1    1    1    2  502    0  0.47667181038E+02  0.57792399132E+02  0.20775369370E+03  0.22084772761E+03  0.00000000000E+00 0. -1.
         22    1    3    3    0    0  0.63174129291E+02  0.76170400599E+02  0.42714047751E+02  0.10778399888E+03  0.00000000000E+00 0.  1.
         22    1    3    3    0    0  0.12553968693E+02 -0.40975919802E+02 -0.14346268976E+02  0.45193401809E+02  0.00000000000E+00 0.  1.
</event>
<event>
 7    1  0.6176857E-006  0.1497727E+03  0.7818608E-02  0.1355139E+00
          2   -1    0    0  502    0  0.00000000000E+00  0.00000000000E+00  0.35781307089E+03  0.35781307089E+03  0.00000000000E+00 0. -1.
          1   -1    0    0  501    0 -0.00000000000E+00 -0.00000000000E+00 -0.55882080855E+03  0.55882080855E+03  0.00000000000E+00 0. -1.
         25    2    1    2    0    0 -0.28917955608E+02 -0.12165241835E+03  0.18934924877E+03  0.25906412670E+03  0.12500209872E+03 0.  0.
          2    1    1    2  501    0  0.58004659183E+02  0.13947389998E+03 -0.51065540374E+03  0.53252835665E+03  0.00000000000E+00 0. -1.
          1    1    1    2  502    0 -0.29086703574E+02 -0.17821481631E+02  0.12029841731E+03  0.12504139610E+03  0.00000000000E+00 0. -1.
         22    1    3    3    0    0 -0.64803538128E+02 -0.21321485233E+02  0.93497600704E+02  0.11574068267E+03  0.00000000000E+00 0.  1.
         22    1    3    3    0    0  0.35885582519E+02 -0.10033093311E+03  0.95851648066E+02  0.14332344403E+03  0.00000000000E+00 0.  1.
</event>
<event>
 7    1  0.6176857E-006  0.1073659E+03  0.7818608E-02  0.1294259E+00
          2   -1    0    0  502    0  0.00000000000E+00  0.00000000000E+00  0.57081029871E+03  0.57081029871E+03  0.00000000000E+00 0. -1.
          1   -1    0    0  501    0 -0.00000000000E+00 -0.00000000000E+00 -0.24539405913E+03  0.24539405913E+03  0.00000000000E+00 0. -1.
         25    2    1    2    0    0 -0.39353769232E+02 -0.54757466312E+02  0.47973989215E+02  0.14992116749E+03  0.12501101371E+03 0.  0.
          2    1    1    2  501    0  0.11511978174E+03  0.24251919389E+02 -0.17260435087E+03  0.20888509206E+03  0.00000000000E+00 0. -1.
          1    1    1    2  502    0 -0.75766012510E+02  0.30505546924E+02  0.45004660124E+03  0.45739809830E+03  0.00000000000E+00 0. -1.
         22    1    3    3    0    0 -0.71592074577E+02 -0.75123132404E+02  0.37933632037E+02  0.11048923298E+03  0.00000000000E+00 0.  1.
         22    1    3    3    0    0  0.32238305346E+02  0.20365666091E+02  0.10040357178E+02  0.39431934509E+02  0.00000000000E+00 0.  1.
</event>
<event>
 7    1  0.6176857E-006  0.5227279E+02  0.7818608E-02  0.1468149E+00
          2   -1    0    0  502    0  0.00000000000E+00  0.00000000000E+00  0.14313069024E+03  0.14313069024E+03  0.00000000000E+00 0. -1.
          1   -1    0    0  501    0 -0.00000000000E+00 -0.00000000000E+00 -0.24858819247E+04  0.24858819247E+04  0.00000000000E+00 0. -1.
         25    2    1    2    0    0  0.40470136653E+02 -0.20526876882E+02 -0.10462368728E+04  0.10546544420E+04  0.12500085418E+03 0.  0.
          2    1    1    2  501    0 -0.51557228022E+02 -0.18418587748E+02 -0.14319512903E+04  0.14329975192E+04  0.00000000000E+00 0. -1.
          1    1    1    2  502    0  0.11087091369E+02  0.38945464630E+02  0.13543692857E+03  0.14136065376E+03  0.00000000000E+00 0. -1.
         22    1    3    3    0    0  0.60853539799E+02 -0.54330397228E+02 -0.88096482439E+03  0.88473383974E+03  0.00000000000E+00 0. -1.
         22    1    3    3    0    0 -0.20383403147E+02  0.33803520347E+02 -0.16527204838E+03  0.16992060230E+03  0.00000000000E+00 0. -1.
</event>
<event>
 7    1  0.6176857E-006  0.5529505E+02  0.7818608E-02  0.1500664E+00
          2   -1    0    0  502    0  0.00000000000E+00  0.00000000000E+00  0.74292968597E+03  0.74292968597E+03  0.00000000000E+00 0. -1.
          1   -1    0    0  501    0 -0.00000000000E+00 -0.00000000000E+00 -0.34839277919E+03  0.34839277919E+03  0.00000000000E+00 0. -1.
         25    2    1    2    0    0  0.83123684131E+02  0.18909114442E+02  0.15334038718E+03  0.21542060961E+03  0.12500265290E+03 0.  0.
          2    1    1    2  501    0 -0.52999160189E+02 -0.14358027213E+02 -0.31455714538E+03  0.31931373543E+03  0.00000000000E+00 0. -1.
          1    1    1    2  502    0 -0.30124523942E+02 -0.45510872290E+01  0.55575366497E+03  0.55658812013E+03  0.00000000000E+00 0. -1.
         22    1    3    3    0    0 -0.27388395249E+02 -0.26838838591E+01  0.70346934387E+02  0.75538193019E+02  0.00000000000E+00 0. -1.
         22    1    3    3    0    0  0.11051207938E+03  0.21592998301E+02  0.82993452789E+02  0.13988241659E+03  0.00000000000E+00 0. -1.
</event>
<event>
 7    1  0.6176857E-006  0.6750569E+02  0.7818608E-02  0.1410560E+00
          2   -1    0    0  502    0  0.00000000000E+00  0.00000000000E+00  0.94913093832E+02  0.94913093832E+02  0.00000000000E+00 0. -1.
          1   -1    0    0  501    0 -0.00000000000E+00 -0.00000000000E+00 -0.24776428592E+03  0.24776428592E+03  0.00000000000E+00 0. -1.
         25    2    1    2    0    0  0.31212805521E+02  0.24000018164E+02 -0.29531881577E+02  0.13434414099E+03  0.12500390429E+03 0.  0.
          2    1    1    2  501    0 -0.68280610935E+02 -0.54881270195E+02 -0.13832583426E+02  0.88687857185E+02  0.00000000000E+00 0. -1.
          1    1    1    2  502    0  0.37067805414E+02  0.30881252031E+02 -0.10948672709E+03  0.11964538158E+03  0.00000000000E+00 0. -1.
         22    1    3    3    0    0  0.83175512750E+00  0.67803651426E+02 -0.41780343629E+02  0.79646871106E+02  0.00000000000E+00 0. -1.
         22    1    3    3    0    0  0.30381050394E+02 -0.43803633262E+02  0.12248462052E+02  0.54697269882E+02  0.00000000000E+00 0. -1.
</event>
<event>
 7    1  0.6176857E-006  0.6965581E+02  0.7818608E-02  0.1367341E+00
          2   -1    0    0  502    0  0.00000000000E+00  0.00000000000E+00  0.85974383710E+03  0.85974383710E+03  0.00000000000E+00 0. -1.
          1   -1    0    0  501    0 -0.00000000000E+00 -0.00000000000E+00 -0.50798106544E+02  0.50798106544E+02  0.00000000000E+00 0. -1.
         25    2    1    2    0    0 -0.78304029758E+02 -0.89211671435E+02  0.50426467907E+03  0.53291545268E+03  0.12500307896E+03 0.  0.
          2    1    1    2  501    0  0.62375752128E+02  0.24944427421E+02  0.13907751435E+01  0.67192954752E+02  0.00000000000E+00 0. -1.
          1    1    1    2  502    0  0.15928277630E+02  0.64267244015E+02  0.30329027634E+03  0.31043353621E+03  0.00000000000E+00 0. -1.
         22    1    3    3    0    0 -0.56816995574E+01 -0.34584150098E+02  0.20319514477E+02  0.40512070009E+02  0.00000000000E+00 0.  1.
         22    1    3    3    0    0 -0.72622330200E+02 -0.54627521337E+02  0.48394516459E+03  0.49240338267E+03  0.00000000000E+00 0.  1.
</event>
<event>
 7    1  0.6176857E-006  0.1049778E+03  0.7818608E-02  0.1312710E+00
          2   -1    0    0  502    0  0.00000000000E+00  0.00000000000E+00  0.47642989539E+03  0.47642989539E+03  0.00000000000E+00 0. -1.
          1   -1    0    0  501    0 -0.00000000000E+00 -0.00000000000E+00 -0.27631299593E+03  0.27631299593E+03  0.00000000000E+00 0. -1.
         25    2    1    2    0    0 -0.24122592417E+02 -0.31715429420E+02  0.16532855205E+03  0.21106025140E+03  0.12500052669E+03 0.  0.
          2    1    1    2  501    0  0.81877835514E+02  0.72205974217E+02 -0.23697684094E+03  0.26091321508E+03  0.00000000000E+00 0. -1.
          1    1    1    2  502    0 -0.57755243097E+02 -0.40490544796E+02  0.27176518836E+03  0.28076942484E+03  0.00000000000E+00 0. -1.
         22    1    3    3    0    0 -0.91347117195E+00 -0.44941706209E+02  0.14035318799E+01  0.44972895041E+02  0.00000000000E+00 0. -1.
         22    1    3    3    0    0 -0.23209121245E+02  0.13226276789E+02  0.16392502017E+03  0.16608735636E+03  0.00000000000E+00 0. -1.
</event>
<event>
 7    1  0.6176857E-006  0.4242442E+02  0.7818608E-02  0.1506271E+00
          2   -1    0    0  502    0  0.00000000000E+00  0.00000000000E+00  0.25480073016E+04  0.25480073016E+04  0.00000000000E+00 0. -1.
          1   -1    0    0  501    0 -0.00000000000E+00 -0.00000000000E+00 -0.13759275208E+03  0.13759275208E+03  0.00000000000E+00 0. -1.
         25    2    1    2    0    0  0.13498056195E+01  0.67996462312E+01  0.20213215920E+03  0.23776166516E+03  0.12500056988E+03 0.  0.
          2    1    1    2  501    0 -0.24918168744E+02  0.28974206150E+02 -0.11652745194E+03  0.12263387302E+03  0.00000000000E+00 0. -1.
          1    1    1    2  502    0  0.23568363125E+02 -0.35773852381E+02  0.23248098423E+04  0.23252045155E+04  0.00000000000E+00 0. -1.
         22    1    3    3    0    0 -0.55923220153E+02  0.17082163668E+01  0.15020013173E+03  0.16028226391E+03  0.00000000000E+00 0.  1.
         22    1    3    3    0    0  0.57273025772E+02  0.50914298644E+01  0.51932027479E+02  0.77479401245E+02  0.00000000000E+00 0.  1.
</event>
<event>
 7    1  0.6176857E-006  0.8222749E+02  0.7818608E-02  0.1386533E+00
          2   -1    0    0  502    0  0.00000000000E+00  0.00000000000E+00  0.66109201477E+03  0.66109201477E+03  0.00000000000E+00 0. -1.
          1   -1    0    0  501    0 -0.00000000000E+00 -0.00000000000E+00 -0.35594405600E+03  0.35594405600E+03  0.00000000000E+00 0. -1.
         25    2    1    2    0    0 -0.51334543502E+02 -0.10943666939E+03 -0.17153518942E+03  0.24425487964E+03  0.12499802020E+03 0.  0.
          2    1    1    2  501    0  0.38400147121E+02  0.28679463296E+02 -0.14140441999E+03  0.14930603774E+03  0.00000000000E+00 0. -1.
          1    1    1    2  502    0  0.12934396382E+02  0.80757206098E+02  0.61808756818E+03  0.62347515338E+03  0.00000000000E+00 0. -1.
         22    1    3    3    0    0  0.41091874078E+02 -0.36086035256E+02 -0.68109036632E+02  0.87347495251E+02  0.00000000000E+00 0.  1.
         22    1    3    3    0    0 -0.92426417581E+02 -0.73350634137E+02 -0.10342615279E+03  0.15690738439E+03  0.00000000000E+00 0.  1.
</event>
<event>
 7    1  0.6176857E-006  0.8743235E+02  0.7818608E-02  0.1491348E+00
          2   -1    0    0  502    0  0.00000000000E+00  0.00000000000E+00  0.86589249517E+03  0.86589249517E+03  0.00000000000E+00 0. -1.
          1   -1    0    0  501    0 -0.00000000000E+00 -0.00000000000E+00 -0.10536798057E+03  0.10536798057E+03  0.00000000000E+00 0. -1.
         25    2    1    2    0    0  0.56378693682E+02 -0.61412376562E+02  0.46429504974E+03  0.48800052769E+03  0.12499833884E+03 0.  0.
          2    1    1    2  501    0 -0.72746804723E+02  0.48989090248E+02 -0.72602604261E+02  0.11385590326E+03  0.00000000000E+00 0. -1.
          1    1    1    2  502    0  0.16368111041E+02  0.12423286313E+02  0.36883206911E+03  0.36940404479E+03  0.00000000000E+00 0. -1.
         22    1    3    3    0    0  0.12856790449E+02  0.33371338558E+02  0.21202953876E+03  0.21502434421E+03  0.00000000000E+00 0.  1.
         22    1    3    3    0    0  0.43521903233E+02 -0.94783715120E+02  0.25226551099E+03  0.27297618348E+03  0.00000000000E+00 0.  1.
</event>
<event>
 7    1  0.6176857E-006  0.8023479E+02  0.7818608E-02  0.1440605E+00
          2   -1    0    0  502    0  0.00000000000E+00  0.00000000000E+00  0.19567717686E+04  0.19567717686E+04  0.00000000000E+00 0. -1.
          1   -1    0    0  501    0 -0.00000000000E+00 -0.00000000000E+00 -0.98969786538E+02  0.98969786538E+02  0.00000000000E+00 0. -1.
         25    2    1    2    0    0  0.41269360554E+02 -0.32339812245E+02  0.38901847491E+03  0.41195661701E+03  0.12499542751E+03 0.  0.
          2    1    1    2  501    0  0.15176343599E+02 -0.28485674422E+02 -0.83377829568E+02  0.89407032809E+02  0.00000000000E+00 0. -1.
          1    1    1    2  502    0 -0.56445704153E+02  0.60825486666E+02  0.15521613367E+04  0.15543779053E+04  0.00000000000E+00 0. -1.
         22    1    3    3    0    0  0.47614734331E+02 -0.51389842075E+02  0.38519841861E+03  0.39151743320E+03  0.00000000000E+00 0. -1.
         22    1    3    3    0    0 -0.63453737765E+01  0.19050029830E+02  0.38200562991E+01  0.20439183815E+02  0.00000000000E+00 0. -1.
</event>
<event>
 7    1  0.6176857E-006  0.2064269E+03  0.7818608E-02  0.1265667E+00
          2   -1    0    0  502    0  0.00000000000E+00  0.00000000000E+00  0.41192018751E+04  0.41192018751E+04  0.00000000000E+00 0. -1.
          1   -1    0    0  501    0 -0.00000000000E+00 -0.00000000000E+00 -0.78187642740E+03  0.78187642740E+03  0.00000000000E+00 0. -1.
         25    2    1    2    0    0  0.15215955816E+03  0.37970229341E+02  0.80927028567E+02  0.21625988847E+03  0.12499954381E+03 0.  0.
          2    1    1    2  501    0 -0.20226595776E+03 -0.62450347812E+02 -0.69832338270E+03  0.72970344005E+03  0.00000000000E+00 0. -1.
          1    1    1    2  502    0  0.50106399600E+02  0.24480118471E+02  0.39547218018E+04  0.39551149740E+04  0.00000000000E+00 0. -1.
         22    1    3    3    0    0  0.16344782488E+02  0.40680402255E+02  0.66504139329E+02  0.79654551597E+02  0.00000000000E+00 0. -1.
         22    1    3    3    0    0  0.13581477567E+03 -0.27101729141E+01  0.14422889237E+02  0.13660533687E+03  0.00000000000E+00 0. -1.
</event>
<event>
 7    1  0.6176857E-006  0.5123157E+02  0.7818608E-02  0.1495430E+00
          2   -1    0    0  502    0  0.00000000000E+00  0.00000000000E+00  0.56284933246E+03  0.56284933246E+03  0.00000000000E+00 0. -1.
          1   -1    0    0  501    0 -0.00000000000E+00 -0.00000000000E+00 -0.20352042787E+03  0.20352042787E+03  0.00000000000E+00 0. -1.
         25    2    1    2    0    0  0.65759587009E+02  0.46556918870E+02  0.28278879211E+03  0.31950982921E+03  0.12500064017E+03 0.  0.
          2    1    1    2  501    0 -0.23000344415E+02 -0.25162046045E+02 -0.18137473694E+03  0.18455064238E+03  0.00000000000E+00 0. -1.
          1    1    1    2  502    0 -0.42759242594E+02 -0.21394872825E+02  0.25791484942E+03  0.26230928874E+03  0.00000000000E+00 0. -1.
         22    1    3    3    0    0  0.22487961686E+02  0.61426020338E+02  0.26055155307E+03  0.26863725766E+03  0.00000000000E+00 0.  1.
         22    1    3    3    0    0  0.43271625323E+02 -0.14869101468E+02  0.22237239045E+02  0.50872571557E+02  0.00000000000E+00 0.  1.
</event>
<event>
 7    1  0.6176857E-006  0.8170537E+02  0.7818608E-02  0.1357299E+00
          2   -1    0    0  502    0  0.00000000000E+00  0.00000000000E+00  0.28740168559E+03  0.28740168559E+03  0.00000000000E+00 0. -1.
          1   -1    0    0  501    0 -0.00000000000E+00 -0.00000000000E+00 -0.20628602680E+04  0.20628602680E+04  0.00000000000E+00 0. -1.
         25    2    1    2    0    0  0.46301980979E+01 -0.98043795387E+02 -0.25852619612E+03  0.30346177339E+03  0.12497691498E+03 0.  0.
          2    1    1    2  501    0  0.47960630437E+02  0.66356776366E+02 -0.17773538258E+04  0.17792386197E+04  0.00000000000E+00 0. -1.
          1    1    1    2  502    0 -0.52590828535E+02  0.31687019021E+02  0.26042143957E+03  0.26756156041E+03  0.00000000000E+00 0. -1.
         22    1    3    3    0    0  0.95176485295E+01 -0.12646188995E+03 -0.23139577847E+03  0.26386966771E+03  0.00000000000E+00 0. -1.
         22    1    3    3    0    0 -0.48874504316E+01  0.28418094560E+02 -0.27130417650E+02  0.39592105678E+02  0.00000000000E+00 0. -1.
</event>
<event>
 7    1  0.7601914E-006  0.9679807E+02  0.7818608E-02  0.1287686E+00
          2   -1    0    0  502    0  0.00000000000E+00  0.00000000000E+00  0.11056173756E+04  0.11056173756E+04  0.00000000000E+00 0. -1.
          1   -1    0    0  501    0 -0.00000000000E+00 -0.00000000000E+00 -0.19816509826E+04  0.19816509826E+04  0.00000000000E+00 0. -1.
         25    2    1    2    0    0  0.73378837039E+01 -0.17519228112E+02 -0.29692158449E+03  0.32271888563E+03  0.12499713562E+03 0.  0.
          2    1    1    2  501    0  0.85649184817E+02  0.45100808144E+02 -0.16682727555E+04  0.16710786494E+04  0.00000000000E+00 0. -1.
          1    1    1    2  502    0 -0.92987068521E+02 -0.27581580032E+02  0.10891607331E+04  0.10934708231E+04  0.00000000000E+00 0. -1.
         22    1    3    3    0    0  0.50163422203E+02  0.32951593931E+02 -0.15077636824E+03  0.16228274612E+03  0.00000000000E+00 0.  1.
         22    1    3    3    0    0 -0.42825538499E+02 -0.50470822043E+02 -0.14614521625E+03  0.16043613950E+03  0.00000000000E+00 0.  1.
</event>
<event>
 7    1  0.6176857E-006  0.8771753E+02  0.7818608E-02  0.1350656E+00
          2   -1    0    0  502    0  0.00000000000E+00  0.00000000000E+00  0.49014005217E+03  0.49014005217E+03  0.00000000000E+00 0. -1.
          1   -1    0    0  501    0 -0.00000000000E+00 -0.00000000000E+00 -0.11092739943E+03  0.11092739943E+03  0.00000000000E+00 0. -1.
         25    2    1    2    0    0 -0.12593693213E+03  0.94493163178E+01  0.16166987426E+02  0.17842316779E+03  0.12499621941E+03 0.  0.
          2    1    1    2  501    0  0.45543537039E+02 -0.39832803831E+02  0.12585691824E+02  0.61800207652E+02  0.00000000000E+00 0. -1.
          1    1    1    2  502    0  0.80393395094E+02  0.30383487514E+02  0.35045997349E+03  0.36084407617E+03  0.00000000000E+00 0. -1.
         22    1    3    3    0    0 -0.26590609432E+02  0.52108412685E+02  0.35730699020E+02  0.68549471442E+02  0.00000000000E+00 0. -1.
         22    1    3    3    0    0 -0.99346322701E+02 -0.42659096368E+02 -0.19563711594E+02  0.10987369634E+03  0.00000000000E+00 0. -1.
</event>
<event>
 7    1  0.6176857E-006  0.7718316E+02  0.7818608E-02  0.1399081E+00
          2   -1    0    0  502    0  0.00000000000E+00  0.00000000000E+00  0.43001729784E+03  0.43001729784E+03  0.00000000000E+00 0. -1.
          1   -1    0    0  501    0 -0.00000000000E+00 -0.00000000000E+00 -0.51878330873E+03  0.51878330873E+03  0.00000000000E+00 0. -1.
         25    2    1    2    0    0  0.26926729975E+02 -0.26905101661E+02 -0.34000141701E+01  0.13071129679E+03  0.12499979892E+03 0.  0.
          2    1    1    2  501    0 -0.31834772192E+02  0.72825662540E+02 -0.44675075314E+03  0.45376565017E+03  0.00000000000E+00 0. -1.
          1    1    1    2  502    0  0.49080422163E+01 -0.45920560879E+02  0.36138475641E+03  0.36432365962E+03  0.00000000000E+00 0. -1.
         22    1    3    3    0    0  0.10387861325E+01 -0.51796087783E+02 -0.49918595263E+02  0.71942893599E+02  0.00000000000E+00 0. -1.
         22    1    3    3    0    0  0.25887943843E+02  0.24890986122E+02  0.46518581093E+02  0.58768403190E+02  0.00000000000E+00 0. -1.
</event>
<event>
 7    1  0.6176857E-006  0.1050411E+03  0.7818608E-02  0.1294863E+00
          2   -1    0    0  502    0  0.00000000000E+00  0.00000000000E+00  0.49335302211E+03  0.49335302211E+03  0.00000000000E+00 0. -1.
          1   -1    0    0  501    0 -0.00000000000E+00 -0.00000000000E+00 -0.57764703611E+03  0.57764703611E+03  0.00000000000E+00 0. -1.
         25    2    1    2    0    0 -0.16410792135E+03  0.67312913637E+02 -0.19651750245E+03  0.29275684743E+03  0.12500001902E+03 0.  0.
          2    1    1    2  501    0  0.89945123302E+02 -0.30008018617E+02 -0.32224970657E+03  0.33590992807E+03  0.00000000000E+00 0. -1.
          1    1    1    2  502    0  0.74162798052E+02 -0.37304895020E+02  0.43447319502E+03  0.44233328272E+03  0.00000000000E+00 0. -1.
         22    1    3    3    0    0 -0.39457419126E+02  0.82399896415E+02 -0.86611044504E+02  0.12588925245E+03  0.00000000000E+00 0. -1.
         22    1    3    3    0    0 -0.12465050223E+03 -0.15086982778E+02 -0.10990645794E+03  0.16686759497E+03  0.00000000000E+00 0. -1.
</event>
<event>
 7    1  0.6176857E-006  0.1236016E+03  0.7818608E-02  0.1386056E+00
          2   -1    0    0  502    0  0.00000000000E+00  0.00000000000E+00  0.24909577699E+03  0.24909577699E+03  0.00000000000E+00 0. -1.
          1   -1    0    0  501    0 -0.00000000000E+00 -0.00000000000E+00 -0.22378356099E+03  0.22378356099E+03  0.00000000000E+00 0. -1.
         25    2    1    2    0    0 -0.16989866572E+02 -0.11212131576E+03  0.98851892839E+02  0.19559560567E+03  0.12500439682E+03 0.  0.
          2    1    1    2  501    0  0.23254405222E+02 -0.21993759290E+02 -0.12833868382E+03  0.13226984000E+03  0.00000000000E+00 0. -1.
          1    1    1    2  502    0 -0.62645386496E+01  0.13411507505E+03  0.54799006978E+02  0.14501389232E+03  0.00000000000E+00 0. -1.
         22    1    3    3    0    0  0.26948199802E+02  0.17338196030E+02  0.17560747454E+02  0.36540366244E+02  0.00000000000E+00 0.  1.
         22    1    3    3    0    0 -0.43938066374E+02 -0.12945951179E+03  0.81291145386E+02  0.15905523942E+03  0.00000000000E+00 0.  1.
</event>
<event>
 7    1  0.6176857E-006  0.6318956E+02  0.7818608E-02  0.1437790E+00
          2   -1    0    0  502    0  0.00000000000E+00  0.00000000000E+00  0.27835556943E+04  0.27835556943E+04  0.00000000000E+00 0. -1.
          1   -1    0    0  501    0 -0.00000000000E+00 -0.00000000000E+00 -0.35168366882E+02  0.35168366882E+02  0.00000000000E+00 0. -1.
         25    2    1    2    0    0 -0.33063570130E+02 -0.85318245619E+02  0.18406566822E+04  0.18471638274E+04  0.12499912293E+03 0.  0.
          2    1    1    2  501    0  0.43947599677E+02  0.44903073549E+02 -0.34621594273E-01  0.62830555705E+02  0.00000000000E+00 0. -1.
          1    1    1    2  502    0 -0.10884029546E+02  0.40415172070E+02  0.90776526675E+03  0.90872967804E+03  0.00000000000E+00 0. -1.
         22    1    3    3    0    0 -0.10886587063E+02 -0.10305002877E+03  0.87882263055E+03  0.88491075379E+03  0.00000000000E+00 0. -1.
         22    1    3    3    0    0 -0.22176983067E+02  0.17731783149E+02  0.96183405169E+03  0.96225307363E+03  0.00000000000E+00 0. -1.
</event>
<event>
 7    1  0.6176857E-006  0.5296678E+02  0.7818608E-02  0.1430063E+00
          2   -1    0    0  502    0  0.00000000000E+00  0.00000000000E+00  0.71430921879E+02  0.71430921879E+02  0.00000000000E+00 0. -1.
          1   -1    0    0  501    0 -0.00000000000E+00 -0.00000000000E+00 -0.49080409838E+03  0.49080409838E+03  0.00000000000E+00 0. -1.
         25    2    1    2    0    0  0.57907759928E+02  0.28401244989E+02 -0.17393818311E+03  0.22369529569E+03  0.12500061756E+03 0.  0.
          2    1    1    2  501    0 -0.48669173807E+02  0.23714149314E+02 -0.27337881909E+03  0.27868804797E+03  0.00000000000E+00 0. -1.
          1    1    1    2  502    0 -0.92385861218E+01 -0.52115394304E+02  0.27943825699E+02  0.59851676599E+02  0.00000000000E+00 0. -1.
         22    1    3    3    0    0  0.20296260402E+02 -0.32747430833E+02 -0.34168646419E+01  0.38678254568E+02  0.00000000000E+00 0.  1.
         22    1    3    3    0    0  0.37611499527E+02  0.61148675823E+02 -0.17052131847E+03  0.18501704112E+03  0.00000000000E+00 0.  1.
</event>
<event>
 7    1  0.6176857E-006  0.7345368E+02  0.7818608E-02  0.1348940E+00
          2   -1    0    0  502    0  0.00000000000E+00  0.00000000000E+00  0.16755362932E+04  0.16755362932E+04  0.00000000000E+00 0. -1.
          1   -1    0    0  501    0 -0.00000000000E+00 -0.00000000000E+00 -0.22768647509E+04  0.22768647509E+04  0.00000000000E+00 0. -1.
         25    2    1    2    0    0 -0.30164467499E+02  0.88187937619E+02 -0.45990462720E+02  0.16256287692E+03  0.12499823539E+03 0.  0.
          2    1    1    2  501    0 -0.38688423161E+02 -0.62282195395E+02 -0.21711323421E+04  0.21723700221E+04  0.00000000000E+00 0. -1.
          1    1    1    2  502    0  0.68852890660E+02 -0.25905742223E+02  0.16157943472E+04  0.16174681451E+04  0.00000000000E+00 0. -1.
         22    1    3    3    0    0 -0.41298883951E+02  0.18612657708E+02 -0.73979537978E+02  0.86746762948E+02  0.00000000000E+00 0. -1.
         22    1    3    3    0    0  0.11134416452E+02  0.69575279911E+02  0.27989075258E+02  0.75816113974E+02  0.00000000000E+00 0. -1.
</event>
<event>
 7    1  0.6176857E-006  0.1456516E+03  0.7818608E-02  0.1211207E+00
          2   -1    0    0  502    0  0.00000000000E+00  0.00000000000E+00  0.21846616548E+04  0.21846616548E+04  0.00000000000E+00 0. -1.
          1   -1    0    0  501    0 -0.00000000000E+00 -0.00000000000E+00 -0.49081531362E+02  0.49081531362E+02  0.00000000000E+00 0. -1.
         25    2    1    2    0    0  0.51179377140E+02  0.48322125824E+02  0.42328036659E+03  0.44692706362E+03  0.12499269963E+03 0.  0.
          2    1    1    2  501    0 -0.18804389235E+03  0.15023679779E+01  0.22870596979E+03  0.29608982282E+03  0.00000000000E+00 0. -1.
          1    1    1    2  502    0  0.13686451521E+03 -0.49824493802E+02  0.14835937871E+04  0.14907262998E+04  0.00000000000E+00 0. -1.
         22    1    3    3    0    0  0.20913802477E+02  0.81665141820E+02  0.17089811041E+03  0.19055903721E+03  0.00000000000E+00 0.  1.
         22    1    3    3    0    0  0.30265574663E+02 -0.33343015996E+02  0.25238225618E+03  0.25636802640E+03  0.00000000000E+00 0.  1.
</event>
<event>
 7    1  0.6176857E-006  0.1083044E+03  0.7818608E-02  0.1417980E+00
          2   -1    0    0  502    0  0.00000000000E+00  0.00000000000E+00  0.22158718801E+04  0.22158718801E+04  0.00000000000E+00 0. -1.
          1   -1    0    0  501    0 -0.00000000000E+00 -0.00000000000E+00 -0.18274103877E+04  0.18274103877E+04  0.00000000000E+00 0. -1.
         25    2    1    2    0    0 -0.10134662262E+03  0.31359990973E+02  0.51708177752E+03  0.54244763267E+03  0.12498512949E+03 0.  0.
          2    1    1    2  501    0  0.10825491387E+03 -0.38233005528E+01 -0.18129912729E+04  0.18162244078E+04  0.00000000000E+00 0. -1.
          1    1    1    2  502    0 -0.69082912574E+01 -0.27536690420E+02  0.16843709877E+04  0.16846102273E+04  0.00000000000E+00 0. -1.
         22    1    3    3    0    0 -0.55613260921E+02  0.63768791738E+02  0.16001954314E+03  0.18101256248E+03  0.00000000000E+00 0. -1.
         22    1    3    3    0    0 -0.45733361696E+02 -0.32408800765E+02  0.35706223438E+03  0.36143507019E+03  0.00000000000E+00 0. -1.
</event>
<event>
 7    1  0.6176857E-006  0.1006769E+04  0.7818608E-02  0.1102082E+00
          2   -1    0    0  502    0  0.00000000000E+00  0.00000000000E+00  0.32945094544E+04  0.32945094544E+04  0.00000000000E+00 0. -1.
          1   -1    0    0  501    0 -0.00000000000E+00 -0.00000000000E+00 -0.18845670745E+04  0.18845670745E+04  0.00000000000E+00 0. -1.
         25    2    1    2    0    0  0.85626976769E+03 -0.44602168123E+03  0.10170539093E+04  0.14078909884E+04  0.12500050244E+03 0.  0.
          2    1    1    2  501    0 -0.92199310395E+03  0.41745775306E+03 -0.15368174282E+04  0.18401494686E+04  0.00000000000E+00 0. -1.
          1    1    1    2  502    0  0.65723336268E+02  0.28563928167E+02  0.19297058989E+04  0.19310360719E+04  0.00000000000E+00 0. -1.
         22    1    3    3    0    0  0.69731616145E+02 -0.74957303768E+02  0.13220573104E+03  0.16721079809E+03  0.00000000000E+00 0. -1.
         22    1    3    3    0    0  0.78653815154E+03 -0.37106437746E+03  0.88484817826E+03  0.12406801903E+04  0.00000000000E+00 0. -1.
</event>
<event>
 7    1  0.6176857E-006  0.8975168E+02  0.7818608E-02  0.1331474E+00
          2   -1    0    0  502    0  0.00000000000E+00  0.00000000000E+00  0.17764954668E+04  0.17764954668E+04  0.00000000000E+00 0. -1.
          1   -1    0    0  501    0 -0.00000000000E+00 -0.00000000000E+00 -0.19899809139E+02  0.19899809139E+02  0.00000000000E+00 0. -1.
         25    2    1    2    0    0  0.73201656575E+02  0.12976657493E+03  0.10913667969E+04  0.11085596999E+04  0.12500110543E+03 0.  0.
          2    1    1    2  501    0 -0.46271163763E+02 -0.65365924022E+02  0.17246843283E+03  0.19015542312E+03  0.00000000000E+00 0. -1.
          1    1    1    2  502    0 -0.26930492811E+02 -0.64400650907E+02  0.49276042798E+03  0.49768015297E+03  0.00000000000E+00 0. -1.
         22    1    3    3    0    0  0.94001973863E+02  0.14202767550E+03  0.95073764298E+03  0.96587281641E+03  0.00000000000E+00 0.  1.
         22    1    3    3    0    0 -0.20800317288E+02 -0.12261100573E+02  0.14062915389E+03  0.14268688346E+03  0.00000000000E+00 0.  1.
</event>
<event>
 7    1  0.6176857E-006  0.6132291E+02  0.7818608E-02  0.1470663E+00
          2   -1    0    0  502    0  0.00000000000E+00  0.00000000000E+00  0.22124023161E+04  0.22124023161E+04  0.00000000000E+00 0. -1.
          1   -1    0    0  501    0 -0.00000000000E+00 -0.00000000000E+00 -0.36311595251E+02  0.36311595251E+02  0.00000000000E+00 0. -1.
         25    2    1    2    0    0  0.78075630305E+02 -0.22448528193E+02  0.70390750276E+03  0.71952059036E+03  0.12499746812E+03 0.  0.
          2    1    1    2  501    0 -0.30613336743E+02 -0.14562615321E+02 -0.17598548323E+02  0.38196270166E+02  0.00000000000E+00 0. -1.
          1    1    1    2  502    0 -0.47462293562E+02  0.37011143514E+02  0.14897817664E+04  0.14909970508E+04  0.00000000000E+00 0. -1.
         22    1    3    3    0    0 -0.24423492124E+02 -0.18025912337E+02  0.57486494114E+02  0.65008749324E+02  0.00000000000E+00 0.  1.
         22    1    3    3    0    0  0.10249912243E+03 -0.44226158569E+01  0.64642100865E+03  0.65451184103E+03  0.00000000000E+00 0.  1.
</event>
<event>
 7    1  0.6176857E-006  0.1894279E+03  0.7818608E-02  0.1289008E+00
          2   -1    0    0  502    0  0.00000000000E+00  0.00000000000E+00  0.14121829151E+04  0.14121829151E+04  0.00000000000E+00 0. -1.
          1   -1    0    0  501    0 -0.00000000000E+00 -0.00000000000E+00 -0.41020002090E+03  0.41020002090E+03  0.00000000000E+00 0. -1.
         25    2    1    2    0    0  0.10759972254E+03 -0.11139138932E+03  0.36013440537E+03  0.41147083521E+03  0.12500286555E+03 0.  0.
          2    1    1    2  501    0  0.27614563239E+02 -0.40017475604E+02 -0.37290107750E+03  0.37605741059E+03  0.00000000000E+00 0. -1.
          1    1    1    2  502    0 -0.13521428578E+03  0.15140886492E+03  0.10147495663E+04  0.10348546902E+04  0.00000000000E+00 0. -1.
         22    1    3    3    0    0  0.65793072490E+01  0.24845816478E+02  0.24957288249E+02  0.35825523263E+02  0.00000000000E+00 0.  1.
         22    1    3    3    0    0  0.10102041529E+03 -0.13623720579E+03  0.33517711712E+03  0.37564531195E+03  0.00000000000E+00 0.  1.
</event>
<event>
 7    1  0.6176857E-006  0.1133048E+03  0.7818608E-02  0.1341337E+00
          2   -1    0    0  502    0  0.00000000000E+00  0.00000000000E+00  0.27192852095E+04  0.27192852095E+04  0.00000000000E+00 0. -1.
          1   -1    0    0  501    0 -0.00000000000E+00 -0.00000000000E+00 -0.95037677437E+02  0.95037677437E+02  0.00000000000E+00 0. -1.
         25    2    1    2    0    0  0.14827734981E+03  0.50699159548E+02  0.37007907006E+03  0.42088047513E+03  0.12500111602E+03 0.  0.
          2    1    1    2  501    0 -0.97610386079E+02 -0.47933564283E+02 -0.26728279437E+02  0.11198131530E+03  0.00000000000E+00 0. -1.
          1    1    1    2  502    0 -0.50666963734E+02 -0.27655952645E+01  0.22808967415E+04  0.22814610965E+04  0.00000000000E+00 0. -1.
         22    1    3    3    0    0  0.89314058636E+02  0.56230813223E+02  0.33679827648E+03  0.35294756617E+03  0.00000000000E+00 0.  1.
         22    1    3    3    0    0  0.58963291177E+02 -0.55316536751E+01  0.33280793579E+02  0.67932908962E+02  0.00000000000E+00 0.  1.
</event>
<event>
 7    1  0.6176857E-006  0.1060132E+03  0.7818608E-02  0.1320181E+00
          2   -1    0    0  502    0  0.00000000000E+00  0.00000000000E+00  0.10725615122E+03  0.10725615122E+03  0.00000000000E+00 0. -1.
          1   -1    0    0  501    0 -0.00000000000E+00 -0.00000000000E+00 -0.13985939619E+04  0.13985939619E+04  0.00000000000E+00 0. -1.
         25    2    1    2    0    0 -0.54564694949E+02  0.31634333285E+02 -0.36475626149E+03  0.39070591507E+03  0.12500377911E+03 0.  0.
          2    1    1    2  501    0  0.11776378267E+03 -0.15156859875E+02 -0.10056241575E+04  0.10126094929E+04  0.00000000000E+00 0. -1.
          1    1    1    2  502    0 -0.63199087720E+02 -0.16477473410E+02  0.79042608371E+02  0.10253470513E+03  0.00000000000E+00 0. -1.
         22    1    3    3    0    0 -0.80606316206E+02 -0.32544831166E+01 -0.31222659843E+03  0.32248010581E+03  0.00000000000E+00 0. -1.
         22    1    3    3    0    0  0.26041621257E+02  0.34888816402E+02 -0.52529663062E+02  0.68225809259E+02  0.00000000000E+00 0. -1.
</event>
<event>
 7    1  0.6176857E-006  0.8589346E+02  0.7818608E-02  0.1313909E+00
          2   -1    0    0  502    0  0.00000000000E+00  0.00000000000E+00  0.12118693237E+04  0.12118693237E+04  0.00000000000E+00 0. -1.
          1   -1    0    0  501    0 -0.00000000000E+00 -0.00000000000E+00 -0.76330816909E+03  0.76330816909E+03  0.00000000000E+00 0. -1.
         25    2    1    2    0    0  0.87179020777E+02 -0.12211546251E+02 -0.94461796771E+02  0.17971105290E+03  0.12499491173E+03 0.  0.
          2    1    1    2  501    0 -0.52768775563E+02 -0.66991406164E+02 -0.62171261178E+03  0.62753403400E+03  0.00000000000E+00 0. -1.
          1    1    1    2  502    0 -0.34410245214E+02  0.79202952416E+02  0.11647355631E+04  0.11679324059E+04  0.00000000000E+00 0. -1.
         22    1    3    3    0    0 -0.79525133194E+01  0.52014957546E+01 -0.81595423224E+02  0.82146887448E+02  0.00000000000E+00 0.  1.
         22    1    3    3    0    0  0.95131534097E+02 -0.17413042006E+02 -0.12866373547E+02  0.97564165449E+02  0.00000000000E+00 0.  1.
</event>
<event>
 7    1  0.6176857E-006  0.8297684E+02  0.7818608E-02  0.1411890E+00
          2   -1    0    0  502    0  0.00000000000E+00  0.00000000000E+00  0.69875829030E+03  0.69875829030E+03  0.00000000000E+00 0. -1.
          1   -1    0    0  501    0 -0.00000000000E+00 -0.00000000000E+00 -0.50251140419E+03  0.50251140419E+03  0.00000000000E+00 0. -1.
         25    2    1    2    0    0 -0.16525212477E+02 -0.79795902184E+02 -0.49171388145E+02  0.15710866309E+03  0.12499935181E+03 0.  0.
          2    1    1    2  501    0 -0.35808894721E+02  0.15057584615E+02 -0.39572950031E+03  0.39763154454E+03  0.00000000000E+00 0. -1.
          1    1    1    2  502    0  0.52334107197E+02  0.64738317568E+02  0.64114777457E+03  0.64652948686E+03  0.00000000000E+00 0. -1.
         22    1    3    3    0    0  0.11459781278E+01 -0.92310972799E+02 -0.78135167326E+02  0.12094516666E+03  0.00000000000E+00 0.  1.
         22    1    3    3    0    0 -0.17671190604E+02  0.12515070615E+02  0.28963779181E+02  0.36163496434E+02  0.00000000000E+00 0.  1.
</event>
<event>
 7    1  0.6176857E-006  0.9132292E+02  0.7818608E-02  0.1373404E+00
          2   -1    0    0  502    0  0.00000000000E+00  0.00000000000E+00  0.73864025680E+02  0.73864025680E+02  0.00000000000E+00 0. -1.
          1   -1    0    0  501    0 -0.00000000000E+00 -0.00000000000E+00 -0.54650649754E+03  0.54650649754E+03  0.00000000000E+00 0. -1.
         25    2    1    2    0    0 -0.32879765617E+02 -0.12735930495E+03 -0.28642124050E+03  0.33906321638E+03  0.12500106460E+03 0.  0.
          2    1    1    2  501    0  0.23817896454E+02  0.41710250236E+02 -0.18912732084E+03  0.19513118832E+03  0.00000000000E+00 0. -1.
          1    1    1    2  502    0  0.90618691638E+01  0.85649054710E+02  0.29060894866E+01  0.86176118511E+02  0.00000000000E+00 0. -1.
         22    1    3    3    0    0 -0.16445956699E+02  0.21922216213E+01 -0.14738287146E+03  0.14831380963E+03  0.00000000000E+00 0. -1.
         22    1    3    3    0    0 -0.16433808918E+02 -0.12955152657E+03 -0.13903836904E+03  0.19074940676E+03  0.00000000000E+00 0. -1.
</event>
<event>
 7    1  0.6176857E-006  0.8226879E+02  0.7818608E-02  0.1342152E+00
          2   -1    0    0  502    0  0.00000000000E+00  0.00000000000E+00  0.22585777972E+04  0.22585777972E+04  0.00000000000E+00 0. -1.
          1   -1    0    0  501    0 -0.00000000000E+00 -0.00000000000E+00 -0.25080403773E+03  0.25080403773E+03  0.00000000000E+00 0. -1.
         25    2    1    2    0    0  0.42266514246E+01 -0.14602130863E+03  0.13284602388E+03  0.23369422349E+03  0.12499934750E+03 0.  0.
          2    1    1    2  501    0  0.16527420340E+02  0.67397768843E+02 -0.19354890607E+03  0.20561321433E+03  0.00000000000E+00 0. -1.
          1    1    1    2  502    0 -0.20754071765E+02  0.78623539785E+02  0.20684766417E+04  0.20700743971E+04  0.00000000000E+00 0. -1.
         22    1    3    3    0    0 -0.27884572067E+02 -0.15608057155E+03  0.10732627833E+03  0.19146180871E+03  0.00000000000E+00 0.  1.
         22    1    3    3    0    0  0.32111223492E+02  0.10059262925E+02  0.25519745554E+02  0.42232414777E+02  0.00000000000E+00 0.  1.
</event>
<event>
 7    1  0.6176857E-006  0.1539969E+03  0.7818608E-02  0.1358765E+00
          2   -1    0    0  502    0  0.00000000000E+00  0.00000000000E+00  0.51415866645E+03  0.51415866645E+03  0.00000000000E+00 0. -1.
          1   -1    0    0  501    0 -0.00000000000E+00 -0.00000000000E+00 -0.19814627703E+04  0.19814627703E+04  0.00000000000E+00 0. -1.
         25    2    1    2    0    0 -0.15740582465E+03  0.14293996767E+02  0.62067211157E+02  0.21085117356E+03  0.12499986686E+03 0.  0.
          2    1    1    2  501    0  0.46932709438E+01 -0.31832049772E+02 -0.18912883923E+04  0.18915620764E+04  0.00000000000E+00 0. -1.
          1    1    1    2  502    0  0.15271255370E+03  0.17538053005E+02  0.36191707724E+03  0.39320818679E+03  0.00000000000E+00 0. -1.
         22    1    3    3    0    0 -0.14464942457E+03  0.46528821810E+02  0.15414987070E+02  0.15272854715E+03  0.00000000000E+00 0.  1.
         22    1    3    3    0    0 -0.12756400074E+02 -0.32234825043E+02  0.46652224088E+02  0.58122626409E+02  0.00000000000E+00 0.  1.
</event>
<event>
 7    1  0.6176857E-006  0.4498215E+02  0.7818608E-02  0.1515821E+00
          2   -1    0    0  502    0  0.00000000000E+00  0.00000000000E+00  0.10344920690E+04  0.10344920690E+04  0.00000000000E+00 0. -1.
          1   -1    0    0  501    0 -0.00000000000E+00 -0.00000000000E+00 -0.14850062181E+04  0.14850062181E+04  0.00000000000E+00 0. -1.
         25    2    1    2    0    0  0.61682672714E+01  0.96671242159E+01 -0.43710075438E+01  0.12560040509E+03  0.12499942096E+03 0.  0.
          2    1    1    2  501    0  0.18459377648E+02  0.28297888887E+02 -0.14192936616E+04  0.14196957480E+04  0.00000000000E+00 0. -1.
          1    1    1    2  502    0 -0.24627644919E+02 -0.37965013103E+02  0.97315052004E+03  0.97420213394E+03  0.00000000000E+00 0. -1.
         22    1    3    3    0    0  0.62469232164E+02  0.56215073089E+01 -0.21995755766E+02  0.66466680249E+02  0.00000000000E+00 0.  1.
         22    1    3    3    0    0 -0.56300964892E+02  0.40456169071E+01  0.17624748223E+02  0.59133724843E+02  0.00000000000E+00 0.  1.
</event>
<event>
 7    1  0.6176857E-006  0.6869285E+02  0.7818608E-02  0.1382137E+00
          2   -1    0    0  502    0  0.00000000000E+00  0.00000000000E+00  0.98250181876E+02  0.98250181876E+02  0.00000000000E+00 0. -1.
          1   -1    0    0  501    0 -0.00000000000E+00 -0.00000000000E+00 -0.78865457108E+03  0.78865457108E+03  0.00000000000E+00 0. -1.
         25    2    1    2    0    0 -0.10489073901E+03 -0.60600873356E+02 -0.10341794113E+03  0.20246861091E+03  0.12499493939E+03 0.  0.
          2    1    1    2  501    0  0.50229238014E+02  0.31804510769E+02 -0.61409617960E+03  0.61696727714E+03  0.00000000000E+00 0. -1.
          1    1    1    2  502    0  0.54661501000E+02  0.28796362587E+02  0.27109731524E+02  0.67468864917E+02  0.00000000000E+00 0. -1.
         22    1    3    3    0    0 -0.82205382154E+02 -0.67755713848E+02 -0.11066409721E+02  0.10710288063E+03  0.00000000000E+00 0.  1.
         22    1    3    3    0    0 -0.22685356860E+02  0.71548404919E+01 -0.92351531411E+02  0.95365730282E+02  0.00000000000E+00 0.  1.
</event>
<event>
 7    1  0.6176857E-006  0.2114778E+03  0.7818608E-02  0.1278439E+00
          2   -1    0    0  502    0  0.00000000000E+00  0.00000000000E+00  0.62849843664E+03  0.62849843664E+03  0.00000000000E+00 0. -1.
          1   -1    0    0  501    0 -0.00000000000E+00 -0.00000000000E+00 -0.23848162180E+03  0.23848162180E+03  0.00000000000E+00 0. -1.
         25    2    1    2    0    0  0.18939357870E+03  0.75649304514E+02  0.25472131661E+03  0.34942948883E+03  0.12500109440E+03 0.  0.
          2    1    1    2  501    0 -0.17577834451E+03 -0.12181339096E+03 -0.12843544894E+03  0.24946381132E+03  0.00000000000E+00 0. -1.
          1    1    1    2  502    0 -0.13615234195E+02  0.46164086450E+02  0.26373094716E+03  0.26808675829E+03  0.00000000000E+00 0. -1.
         22    1    3    3    0    0  0.12004199589E+03  0.28878696650E+02  0.59528825991E+02  0.13706838082E+03  0.00000000000E+00 0. -1.
         22    1    3    3    0    0  0.69351582809E+02  0.46770607864E+02  0.19519249062E+03  0.21236110801E+03  0.00000000000E+00 0. -1.
</event>
<event>
 7    1  0.6176857E-006  0.9196223E+02  0.7818608E-02  0.1487360E+00
          2   -1    0    0  502    0  0.00000000000E+00  0.00000000000E+00  0.31210390427E+04  0.31210390427E+04  0.00000000000E+00 0. -1.
          1   -1    0    0  501    0 -0.00000000000E+00 -0.00000000000E+00 -0.32495285741E+03  0.32495285741E+03  0.00000000000E+00 0. -1.
         25    2    1    2    0    0  0.59245191864E+02 -0.43334368410E+02  0.47172178044E+03  0.49349148934E+03  0.12499820664E+03 0.  0.
          2    1    1    2  501    0  0.14653842161E+02 -0.13739411480E+02 -0.31291975684E+03  0.31356383838E+03  0.00000000000E+00 0. -1.
          1    1    1    2  502    0 -0.73899034026E+02  0.57073779891E+02  0.26372841617E+04  0.26389365724E+04  0.00000000000E+00 0. -1.
         22    1    3    3    0    0  0.58959263532E+02  0.18192074881E+02  0.36604001055E+03  0.37120403509E+03  0.00000000000E+00 0. -1.
         22    1    3    3    0    0  0.28592833222E+00 -0.61526443292E+02  0.10568176989E+03  0.12228745424E+03  0.00000000000E+00 0. -1.
</event>
<event>
 7    1  0.6176857E-006  0.1838621E+03  0.7818608E-02  0.1227367E+00
          2   -1    0    0  502    0  0.00000000000E+00  0.00000000000E+00  0.74654283818E+03  0.74654283818E+03  0.00000000000E+00 0. -1.
          1   -1    0    0  501    0 -0.00000000000E+00 -0.00000000000E+00 -0.27441537837E+03  0.27441537837E+03  0.00000000000E+00 0. -1.
         25    2    1    2    0    0  0.21059375193E+03  0.32915711522E+02  0.22474963891E+01  0.24708642569E+03  0.12495390392E+03 0.  0.
          2    1    1    2  501    0 -0.17006822658E+03  0.49679038435E+02 -0.95349939218E+02  0.20120342806E+03  0.00000000000E+00 0. -1.
          1    1    1    2  502    0 -0.40525525345E+02 -0.82594749956E+02  0.56522990264E+03  0.57266836281E+03  0.00000000000E+00 0. -1.
         22    1    3    3    0    0  0.38570564052E+02  0.50446977913E+02  0.32832414677E+02  0.71488134997E+02  0.00000000000E+00 0. -1.
         22    1    3    3    0    0  0.17202318788E+03 -0.17531266391E+02 -0.30584918287E+02  0.17559829069E+03  0.00000000000E+00 0. -1.
</event>
<event>
 7    1  0.6176857E-006  0.5806937E+02  0.7818608E-02  0.1410926E+00
          2   -1    0    0  502    0  0.00000000000E+00  0.00000000000E+00  0.16934149912E+03  0.16934149912E+03  0.00000000000E+00 0. -1.
          1   -1    0    0  501    0 -0.00000000000E+00 -0.00000000000E+00 -0.21212474876E+03  0.21212474876E+03  0.00000000000E+00 0. -1.
         25    2    1    2    0    0  0.53483774716E+02 -0.27605436817E+01  0.42824851977E+02  0.14261338820E+03  0.12504589472E+03 0.  0.
          2    1    1    2  501    0 -0.18733015895E+02  0.54964768602E+02 -0.14268885029E+03  0.15405245752E+03  0.00000000000E+00 0. -1.
          1    1    1    2  502    0 -0.34750758821E+02 -0.52204224921E+02  0.57080748674E+02  0.84800402166E+02  0.00000000000E+00 0. -1.
         22    1    3    3    0    0  0.83335116025E+02 -0.26992599680E+02  0.35767405345E+01  0.87670605526E+02  0.00000000000E+00 0.  1.
         22    1    3    3    0    0 -0.29851341309E+02  0.24232055999E+02  0.39248111442E+02  0.54942782671E+02  0.00000000000E+00 0.  1.
</event>
<event>
 7    1  0.8888698E-006  0.1342271E+03  0.7818608E-02  0.1296034E+00
          2   -1    0    0  502    0  0.00000000000E+00  0.00000000000E+00  0.66046212772E+03  0.66046212772E+03  0.00000000000E+00 0. -1.
          1   -1    0    0  501    0 -0.00000000000E+00 -0.00000000000E+00 -0.14065286352E+04  0.14065286352E+04  0.00000000000E+00 0. -1.
         25    2    1    2    0    0 -0.93334019218E+02 -0.17990025107E+01 -0.27294429456E+03  0.31438670369E+03  0.12500374382E+03 0.  0.
          2    1    1    2  501    0 -0.28345188159E+02 -0.57673970847E+02 -0.11047508244E+04  0.11066183265E+04  0.00000000000E+00 0. -1.
          1    1    1    2  502    0  0.12167920738E+03  0.59472973358E+02  0.63162861146E+03  0.64598573272E+03  0.00000000000E+00 0. -1.
         22    1    3    3    0    0 -0.11704741406E+03 -0.55258264254E+00 -0.15585223120E+03  0.19491105781E+03  0.00000000000E+00 0.  1.
         22    1    3    3    0    0  0.23713394838E+02 -0.12464198682E+01 -0.11709206335E+03  0.11947564588E+03  0.00000000000E+00 0.  1.
</event>
<event>
 7    1  0.6176857E-006  0.1569391E+03  0.7818608E-02  0.1311208E+00
          2   -1    0    0  502    0  0.00000000000E+00  0.00000000000E+00  0.13312940319E+03  0.13312940319E+03  0.00000000000E+00 0. -1.
          1   -1    0    0  501    0 -0.00000000000E+00 -0.00000000000E+00 -0.39834844894E+03  0.39834844894E+03  0.00000000000E+00 0. -1.
         25    2    1    2    0    0 -0.10233479105E+03 -0.95896331605E+02 -0.77754192613E+02  0.20335131047E+03  0.12505009046E+03 0.  0.
          2    1    1    2  501    0  0.71219352067E+01 -0.47293224576E+02 -0.14261133427E+03  0.15041729859E+03  0.00000000000E+00 0. -1.
          1    1    1    2  502    0  0.95212855847E+02  0.14318955618E+03 -0.44853518862E+02  0.17770924307E+03  0.00000000000E+00 0. -1.
         22    1    3    3    0    0  0.44919394505E+01 -0.44437785466E+02  0.20702667582E+02  0.49229003059E+02  0.00000000000E+00 0. -1.
         22    1    3    3    0    0 -0.10682673050E+03 -0.51458546139E+02 -0.98456860194E+02  0.15412230741E+03  0.00000000000E+00 0. -1.
</event>
<event>
 7    1  0.6176857E-006  0.2417008E+03  0.7818608E-02  0.1234767E+00
          2   -1    0    0  502    0  0.00000000000E+00  0.00000000000E+00  0.27051902238E+04  0.27051902238E+04  0.00000000000E+00 0. -1.
          1   -1    0    0  501    0 -0.00000000000E+00 -0.00000000000E+00 -0.27639372188E+03  0.27639372188E+03  0.00000000000E+00 0. -1.
         25    2    1    2    0    0  0.11571633999E+03 -0.24794964167E+03  0.10727804021E+04  0.11141596624E+04  0.12499866420E+03 0.  0.
          2    1    1    2  501    0 -0.52256104331E+02  0.23461378632E+03 -0.19839281265E+03  0.31166333965E+03  0.00000000000E+00 0. -1.
          1    1    1    2  502    0 -0.63460235657E+02  0.13335855348E+02  0.15544089124E+04  0.15557609436E+04  0.00000000000E+00 0. -1.
         22    1    3    3    0    0  0.12445523419E+03 -0.19610165729E+03  0.98344736349E+03  0.10105016982E+04  0.00000000000E+00 0. -1.
         22    1    3    3    0    0 -0.87388941974E+01 -0.51847984379E+02  0.89333038631E+02  0.10365796422E+03  0.00000000000E+00 0. -1.
</event>
<event>
 7    1  0.6176857E-006  0.3746143E+02  0.7818608E-02  0.1563157E+00
          2   -1    0    0  502    0  0.00000000000E+00  0.00000000000E+00  0.12257786093E+04  0.12257786093E+04  0.00000000000E+00 0. -1.
          1   -1    0    0  501    0 -0.00000000000E+00 -0.00000000000E+00 -0.11442976036E+04  0.11442976036E+04  0.00000000000E+00 0. -1.
         25    2    1    2    0    0  0.52498994539E+02  0.36615798169E+02  0.92892799952E+02  0.16837703460E+03  0.12499956958E+03 0.  0.
          2    1    1    2  501    0 -0.28730165823E+02 -0.79246995393E+01 -0.11060378131E+04  0.11064392741E+04  0.00000000000E+00 0. -1.
          1    1    1    2  502    0 -0.23768828716E+02 -0.28691098629E+02  0.10946260189E+04  0.10952599041E+04  0.00000000000E+00 0. -1.
         22    1    3    3    0    0  0.47090780637E+02  0.19270239068E+02  0.12305825853E+03  0.13316237730E+03  0.00000000000E+00 0.  1.
         22    1    3    3    0    0  0.54082139027E+01  0.17345559101E+02 -0.30165458578E+02  0.35214657308E+02  0.00000000000E+00 0.  1.
</event>
<event>
 7    1  0.6176857E-006  0.2034354E+03  0.7818608E-02  0.1268744E+00
          2   -1    0    0  502    0  0.00000000000E+00  0.00000000000E+00  0.22478640563E+03  0.22478640563E+03  0.00000000000E+00 0. -1.
          1   -1    0    0  501    0 -0.00000000000E+00 -0.00000000000E+00 -0.51145868700E+03  0.51145868700E+03  0.00000000000E+00 0. -1.
         25    2    1    2    0    0  0.13596404602E+03 -0.14170080730E+03 -0.13728676275E+03  0.27025405584E+03  0.12499703544E+03 0.  0.
          2    1    1    2  501    0 -0.36826123627E+02 -0.40744574460E+02 -0.23504444966E+03  0.24137559331E+03  0.00000000000E+00 0. -1.
          1    1    1    2  502    0 -0.99137922393E+02  0.18244538176E+03  0.85658931035E+02  0.22461544348E+03  0.00000000000E+00 0. -1.
         22    1    3    3    0    0  0.86997692046E+02 -0.14062025361E+03 -0.54576692392E+02  0.17413003617E+03  0.00000000000E+00 0. -1.
         22    1    3    3    0    0  0.48966353973E+02 -0.10805536984E+01 -0.82710070355E+02  0.96124019662E+02  0.00000000000E+00 0. -1.
</event>
<event>
 7    1  0.6176857E-006  0.1140348E+03  0.7818608E-02  0.1411964E+00
          2   -1    0    0  502    0  0.00000000000E+00  0.00000000000E+00  0.12157905565E+04  0.12157905565E+04  0.00000000000E+00 0. -1.
          1   -1    0    0  501    0 -0.00000000000E+00 -0.00000000000E+00 -0.35862041741E+02  0.35862041741E+02  0.00000000000E+00 0. -1.
         25    2    1    2    0    0  0.77617613352E+02  0.63837479776E+02  0.56407807940E+03  0.58643700643E+03  0.12499826048E+03 0.  0.
          2    1    1    2  501    0  0.28034435852E+02 -0.34805486278E+01 -0.81982734567E+01  0.29415225648E+02  0.00000000000E+00 0. -1.
          1    1    1    2  502    0 -0.10565204920E+03 -0.60356931148E+02  0.62404870877E+03  0.63580036612E+03  0.00000000000E+00 0. -1.
         22    1    3    3    0    0  0.68119818479E+01 -0.13283099633E+02  0.24422859099E+01  0.15126420364E+02  0.00000000000E+00 0.  1.
         22    1    3    3    0    0  0.70805631504E+02  0.77120579409E+02  0.56163579349E+03  0.57131058606E+03  0.00000000000E+00 0.  1.
</event>
<event>
 7    1  0.6176857E-006  0.8352393E+02  0.7818608E-02  0.1436935E+00
          2   -1    0    0  502    0  0.00000000000E+00  0.00000000000E+00  0.30151480948E+04  0.30151480948E+04  0.00000000000E+00 0. -1.
          1   -1    0    0  501    0 -0.00000000000E+00 -0.00000000000E+00 -0.63724607234E+02  0.63724607234E+02  0.00000000000E+00 0. -1.
         25    2    1    2    0    0  0.66030932258E+02  0.11288545250E+02  0.10110592725E+04  0.10209563147E+04  0.12499371438E+03 0.  0.
          2    1    1    2  501    0 -0.82619172477E+02  0.15922858920E+02 -0.28468906898E+02  0.88825355372E+02  0.00000000000E+00 0. -1.
          1    1    1    2  502    0  0.16588240219E+02 -0.27211404171E+02  0.19688331219E+04  0.19690910320E+04  0.00000000000E+00 0. -1.
         22    1    3    3    0    0  0.43317319259E+02  0.10221818543E+02  0.98214717757E+02  0.10782859781E+03  0.00000000000E+00 0.  1.
         22    1    3    3    0    0  0.22713612999E+02  0.10667267076E+01  0.91284455476E+03  0.91312771684E+03  0.00000000000E+00 0.  1.
</event>
<event>
 7    1  0.6176857E-006  0.5487691E+02  0.7818608E-02  0.1505221E+00
          2   -1    0    0  502    0  0.00000000000E+00  0.00000000000E+00  0.10595348466E+04  0.10595348466E+04  0.00000000000E+00 0. -1.
          1   -1    0    0  501    0 -0.00000000000E+00 -0.00000000000E+00 -0.37821968057E+03  0.37821968057E+03  0.00000000000E+00 0. -1.
         25    2    1    2    0    0 -0.63048150681E+02 -0.36645659420E+02  0.78184536968E+02  0.16448501525E+03  0.12499809903E+03 0.  0.
          2    1    1    2  501    0  0.33939065031E+02  0.42816100052E+02 -0.33260416361E+03  0.33706172760E+03  0.00000000000E+00 0. -1.
          1    1    1    2  502    0  0.29109085650E+02 -0.61704406323E+01  0.93573479272E+03  0.93620778437E+03  0.00000000000E+00 0. -1.
         22    1    3    3    0    0  0.31139971545E+02 -0.97837470836E+01  0.54806312675E+02  0.63789900798E+02  0.00000000000E+00 0. -1.
         22    1    3    3    0    0 -0.94188122227E+02 -0.26861912336E+02  0.23378224293E+02  0.10069511445E+03  0.00000000000E+00 0. -1.
</event>
<event>
 7    1  0.6176857E-006  0.3721405E+02  0.7818608E-02  0.1565300E+00
          2   -1    0    0  502    0  0.00000000000E+00  0.00000000000E+00  0.29715505618E+03  0.29715505618E+03  0.00000000000E+00 0. -1.
          1   -1    0    0  501    0 -0.00000000000E+00 -0.00000000000E+00 -0.21294744381E+04  0.21294744381E+04  0.00000000000E+00 0. -1.
         25    2    1    2    0    0 -0.55932196992E+02  0.27801940225E+02 -0.66307010725E+03  0.67763325693E+03  0.12499402075E+03 0.  0.
          2    1    1    2  501    0  0.19124498525E+02 -0.22590576745E+02 -0.14577800421E+04  0.14580804957E+04  0.00000000000E+00 0. -1.
          1    1    1    2  502    0  0.36807698467E+02 -0.52113634801E+01  0.28853076747E+03  0.29091574168E+03  0.00000000000E+00 0. -1.
         22    1    3    3    0    0 -0.20775318332E+02  0.64551786915E+02 -0.54325419007E+03  0.54747023853E+03  0.00000000000E+00 0. -1.
         22    1    3    3    0    0 -0.35156878661E+02 -0.36749846689E+02 -0.11981591718E+03  0.13016301840E+03  0.00000000000E+00 0. -1.
</event>
<event>
 7    1  0.6176857E-006  0.1858662E+03  0.7818608E-02  0.1266934E+00
          2   -1    0    0  502    0  0.00000000000E+00  0.00000000000E+00  0.67739284836E+03  0.67739284836E+03  0.00000000000E+00 0. -1.
          1   -1    0    0  501    0 -0.00000000000E+00 -0.00000000000E+00 -0.25345937455E+04  0.25345937455E+04  0.00000000000E+00 0. -1.
         25    2    1    2    0    0 -0.57233542939E+02  0.13676353546E+03 -0.45725641611E+03  0.49667618470E+03  0.12499543716E+03 0.  0.
          2    1    1    2  501    0  0.11440281570E+03 -0.15854107991E+03 -0.20515473477E+04  0.20608420119E+04  0.00000000000E+00 0. -1.
          1    1    1    2  502    0 -0.57169272759E+02  0.21777544454E+02  0.65160286664E+03  0.65446839726E+03  0.00000000000E+00 0. -1.
         22    1    3    3    0    0 -0.90481600090E+02  0.55590140058E+02 -0.25205857408E+03  0.27351546281E+03  0.00000000000E+00 0. -1.
         22    1    3    3    0    0  0.33248057151E+02  0.81173395401E+02 -0.20519784202E+03  0.22316072189E+03  0.00000000000E+00 0. -1.
</event>
<event>
 7    1  0.6176857E-006  0.1012775E+03  0.7818608E-02  0.1319234E+00
          2   -1    0    0  502    0  0.00000000000E+00  0.00000000000E+00  0.17100034260E+04  0.17100034260E+04  0.00000000000E+00 0. -1.
          1   -1    0    0  501    0 -0.00000000000E+00 -0.00000000000E+00 -0.12675327967E+03  0.12675327967E+03  0.00000000000E+00 0. -1.
         25    2    1    2    0    0 -0.49736653192E+02 -0.62320222246E+02  0.73977902828E+02  0.16569645430E+03  0.12500016036E+03 0.  0.
          2    1    1    2  501    0  0.10938134880E+03  0.27734714375E+02 -0.40398654014E+02  0.11985635191E+03  0.00000000000E+00 0. -1.
          1    1    1    2  502    0 -0.59644695609E+02  0.34585507870E+02  0.15496708975E+04  0.15512038994E+04  0.00000000000E+00 0. -1.
         22    1    3    3    0    0 -0.26921576805E+02 -0.57170091642E+02  0.10757360830E+03  0.12476085876E+03  0.00000000000E+00 0.  1.
         22    1    3    3    0    0 -0.22815076387E+02 -0.51501306041E+01 -0.33595705473E+02  0.40935595538E+02  0.00000000000E+00 0.  1.
</event>
<event>
 7    1  0.6176857E-006  0.8461780E+02  0.7818608E-02  0.1357585E+00
          2   -1    0    0  502    0  0.00000000000E+00  0.00000000000E+00  0.16681263682E+04  0.16681263682E+04  0.00000000000E+00 0. -1.
          1   -1    0    0  501    0 -0.00000000000E+00 -0.00000000000E+00 -0.14356115318E+03  0.14356115318E+03  0.00000000000E+00 0. -1.
         25    2    1    2    0    0 -0.91822660329E+01  0.51803078299E+02  0.20319399434E+03  0.24429826989E+03  0.12500388955E+03 0.  0.
          2    1    1    2  501    0  0.54450501813E+02  0.23087198781E+02 -0.11449013676E+03  0.12886375483E+03  0.00000000000E+00 0. -1.
          1    1    1    2  502    0 -0.45268235780E+02 -0.74890277079E+02  0.14358613575E+04  0.14385254967E+04  0.00000000000E+00 0. -1.
         22    1    3    3    0    0  0.47984355416E+02  0.51201411943E+02  0.68903785164E+02  0.98345384028E+02  0.00000000000E+00 0.  1.
         22    1    3    3    0    0 -0.57166621449E+02  0.60166635548E+00  0.13429020918E+03  0.14595288586E+03  0.00000000000E+00 0.  1.
</event>
<event>
 7    1  0.6176857E-006  0.6915957E+02  0.7818608E-02  0.1483451E+00
          2   -1    0    0  502    0  0.00000000000E+00  0.00000000000E+00  0.22384056745E+04  0.22384056745E+04  0.00000000000E+00 0. -1.
          1   -1    0    0  501    0 -0.00000000000E+00 -0.00000000000E+00 -0.55183977494E+02  0.55183977494E+02  0.00000000000E+00 0. -1.
         25    2    1    2    0    0 -0.57112909406E+02  0.31865677004E+02  0.70454461192E+03  0.71853011578E+03  0.12500044518E+03 0.  0.
          2    1    1    2  501    0  0.69102610421E+02 -0.71695314371E+01 -0.22961758386E+02  0.73169770371E+02  0.00000000000E+00 0. -1.
          1    1    1    2  502    0 -0.11989701014E+02 -0.24696145567E+02  0.15016388435E+04  0.15018897659E+04  0.00000000000E+00 0. -1.
         22    1    3    3    0    0 -0.95136664610E+02  0.17459197761E+02  0.56350489898E+03  0.57174607976E+03  0.00000000000E+00 0. -1.
         22    1    3    3    0    0  0.38023755204E+02  0.14406479243E+02  0.14103971294E+03  0.14678403602E+03  0.00000000000E+00 0. -1.
</event>
<event>
 7    1  0.6176857E-006  0.2651826E+03  0.7818608E-02  0.1268814E+00
          2   -1    0    0  502    0  0.00000000000E+00  0.00000000000E+00  0.75332302221E+03  0.75332302221E+03  0.00000000000E+00 0. -1.
          1   -1    0    0  501    0 -0.00000000000E+00 -0.00000000000E+00 -0.39560032389E+03  0.39560032389E+03  0.00000000000E+00 0. -1.
         25    2    1    2    0    0 -0.23224721928E+03 -0.82335403413E+02  0.13548773032E+03  0.30771404752E+03  0.12495247279E+03 0.  0.
          2    1    1    2  501    0 -0.12142433284E+02 -0.40314892825E+02 -0.27260951172E+03  0.27584175745E+03  0.00000000000E+00 0. -1.
          1    1    1    2  502    0  0.24438965257E+03  0.12265029624E+03  0.49484447973E+03  0.56536754113E+03  0.00000000000E+00 0. -1.
         22    1    3    3    0    0 -0.14767302930E+03 -0.10027184672E+03  0.13049934931E+03  0.22111500853E+03  0.00000000000E+00 0. -1.
         22    1    3    3    0    0 -0.84574189983E+02  0.17936443303E+02  0.49883810105E+01  0.86599038995E+02  0.00000000000E+00 0. -1.
</event>
<event>
 7    1  0.9103572E-006  0.1137325E+03  0.7818608E-02  0.1326873E+00
          2   -1    0    0  502    0  0.00000000000E+00  0.00000000000E+00  0.95552205083E+03  0.95552205083E+03  0.00000000000E+00 0. -1.
          1   -1    0    0  501    0 -0.00000000000E+00 -0.00000000000E+00 -0.17223578101E+04  0.17223578101E+04  0.00000000000E+00 0. -1.
         25    2    1    2    0    0  0.28824851522E+02 -0.16082234077E+03 -0.10836336502E+04  0.11029881065E+04  0.12500471104E+03 0.  0.
          2    1    1    2  501    0  0.14021198354E+02  0.55624586247E+02 -0.62431696637E+03  0.62694685828E+03  0.00000000000E+00 0. -1.
          1    1    1    2  502    0 -0.42846049877E+02  0.10519775452E+03  0.94111485732E+03  0.94794489619E+03  0.00000000000E+00 0. -1.
         22    1    3    3    0    0 -0.32635178570E+02 -0.48402274415E+02 -0.15630903839E+03  0.16685427933E+03  0.00000000000E+00 0. -1.
         22    1    3    3    0    0  0.61460030093E+02 -0.11242006635E+03 -0.92732461181E+03  0.93613382713E+03  0.00000000000E+00 0. -1.
</event>
<event>
 7    1  0.6176857E-006  0.3335604E+02  0.7818608E-02  0.1625305E+00
          2   -1    0    0  502    0  0.00000000000E+00  0.00000000000E+00  0.26815798309E+03  0.26815798309E+03  0.00000000000E+00 0. -1.
          1   -1    0    0  501    0 -0.00000000000E+00 -0.00000000000E+00 -0.83193309746E+03  0.83193309746E+03  0.00000000000E+00 0. -1.
         25    2    1    2    0    0  0.21505397051E+02  0.26177158988E+02  0.91031409031E+01  0.12982868679E+03  0.12499957994E+03 0.  0.
          2    1    1    2  501    0 -0.32814851684E+02 -0.61934784694E+01 -0.77054406837E+03  0.77126735634E+03  0.00000000000E+00 0. -1.
          1    1    1    2  502    0  0.11309454634E+02 -0.19983680519E+02  0.19766581309E+03  0.19899503742E+03  0.00000000000E+00 0. -1.
         22    1    3    3    0    0  0.30049428139E+02 -0.44854164868E+02  0.19768282721E+02  0.57494775756E+02  0.00000000000E+00 0.  1.
         22    1    3    3    0    0 -0.85440310881E+01  0.71031323856E+02 -0.10665141818E+02  0.72333911038E+02  0.00000000000E+00 0.  1.
</event>
<event>
 7    1  0.6176857E-006  0.1373972E+03  0.7818608E-02  0.1319745E+00
          2   -1    0    0  502    0  0.00000000000E+00  0.00000000000E+00  0.97259824601E+03  0.97259824601E+03  0.00000000000E+00 0. -1.
          1   -1    0    0  501    0 -0.00000000000E+00 -0.00000000000E+00 -0.51970551709E+03  0.51970551709E+03  0.00000000000E+00 0. -1.
         25    2    1    2    0    0 -0.61818333364E+02 -0.15291777408E+03 -0.60944809394E+02  0.21574139688E+03  0.12499891426E+03 0.  0.
          2    1    1    2  501    0 -0.22383954311E+02  0.45368696152E+02 -0.37444119521E+03  0.37784331233E+03  0.00000000000E+00 0. -1.
          1    1    1    2  502    0  0.84202287676E+02  0.10754907792E+03  0.88827873352E+03  0.89871905390E+03  0.00000000000E+00 0. -1.
         22    1    3    3    0    0 -0.57802046796E+02 -0.11595820593E+02  0.61045108113E+01  0.59268918678E+02  0.00000000000E+00 0. -1.
         22    1    3    3    0    0 -0.40162865682E+01 -0.14132195348E+03 -0.67049320206E+02  0.15647247820E+03  0.00000000000E+00 0. -1.
</event>
<event>
 7    1  0.6176857E-006  0.6844926E+02  0.7818608E-02  0.1484357E+00
          2   -1    0    0  502    0  0.00000000000E+00  0.00000000000E+00  0.54187972052E+03  0.54187972052E+03  0.00000000000E+00 0. -1.
          1   -1    0    0  501    0 -0.00000000000E+00 -0.00000000000E+00 -0.25076570190E+04  0.25076570190E+04  0.00000000000E+00 0. -1.
         25    2    1    2    0    0  0.69430405866E+02  0.46238488420E+02 -0.35102852948E+02  0.15432339156E+03  0.12499967930E+03 0.  0.
          2    1    1    2  501    0 -0.42791184500E+02 -0.53309197373E+02 -0.24120654812E+04  0.24130339496E+04  0.00000000000E+00 0. -1.
          1    1    1    2  502    0 -0.26639221366E+02  0.70707089526E+01  0.48139103568E+03  0.48217939843E+03  0.00000000000E+00 0. -1.
         22    1    3    3    0    0  0.30877368630E+02  0.66563398773E+02  0.27229434728E+02  0.78265829487E+02  0.00000000000E+00 0. -1.
         22    1    3    3    0    0  0.38553037236E+02 -0.20324910353E+02 -0.62332287676E+02  0.76057562068E+02  0.00000000000E+00 0. -1.
</event>
<event>
 7    1  0.6176857E-006  0.1881388E+03  0.7818608E-02  0.1307485E+00
          2   -1    0    0  502    0  0.00000000000E+00  0.00000000000E+00  0.12721646622E+04  0.12721646622E+04  0.00000000000E+00 0. -1.
          1   -1    0    0  501    0 -0.00000000000E+00 -0.00000000000E+00 -0.94685840042E+03  0.94685840042E+03  0.00000000000E+00 0. -1.
         25    2    1    2    0    0 -0.86554217047E+02 -0.16440545312E+03 -0.75801370810E+03  0.79039911026E+03  0.12500074531E+03 0.  0.
          2    1    1    2  501    0 -0.35457533258E+02  0.21113046458E+02 -0.16301614818E+03  0.16815844303E+03  0.00000000000E+00 0. -1.
          1    1    1    2  502    0  0.12201175030E+03  0.14329240666E+03  0.12463361181E+04  0.12604655093E+04  0.00000000000E+00 0. -1.
         22    1    3    3    0    0  0.13296994957E+02  0.10995022904E+02 -0.11968672676E+03  0.12092399747E+03  0.00000000000E+00 0.  1.
         22    1    3    3    0    0 -0.99851212004E+02 -0.17540047602E+03 -0.63832698135E+03  0.66947511279E+03  0.00000000000E+00 0.  1.
</event>
<event>
 7    1  0.6176857E-006  0.1736740E+03  0.7818608E-02  0.1341341E+00
          2   -1    0    0  502    0  0.00000000000E+00  0.00000000000E+00  0.11429256275E+04  0.11429256275E+04  0.00000000000E+00 0. -1.
          1   -1    0    0  501    0 -0.00000000000E+00 -0.00000000000E+00 -0.82786854012E+02  0.82786854012E+02  0.00000000000E+00 0. -1.
         25    2    1    2    0    0  0.15306328482E+03 -0.11212555786E+03  0.17499405810E+03  0.28678932526E+03  0.12499874730E+03 0.  0.
          2    1    1    2  501    0 -0.12294230042E+03  0.98394763555E+02  0.20757377061E+03  0.26054406340E+03  0.00000000000E+00 0. -1.
          1    1    1    2  502    0 -0.30120984402E+02  0.13730794308E+02  0.67757094482E+03  0.67837909289E+03  0.00000000000E+00 0. -1.
         22    1    3    3    0    0  0.72218640467E+01 -0.52056020728E+02  0.18690162680E+01  0.52587810719E+02  0.00000000000E+00 0. -1.
         22    1    3    3    0    0  0.14584142077E+03 -0.60069537134E+02  0.17312504183E+03  0.23420151454E+03  0.00000000000E+00 0. -1.
</event>
<event>
 7    1  0.6176857E-006  0.2295897E+02  0.7818608E-02  0.1694169E+00
          2   -1    0    0  502    0  0.00000000000E+00  0.00000000000E+00  0.93346038745E+03  0.93346038745E+03  0.00000000000E+00 0. -1.
          1   -1    0    0  501    0 -0.00000000000E+00 -0.00000000000E+00 -0.73901344688E+02  0.73901344688E+02  0.00000000000E+00 0. -1.
         25    2    1    2    0    0  0.27680875228E+02  0.16890789492E+01  0.38269829457E+03  0.40354948327E+03  0.12500046777E+03 0.  0.
          2    1    1    2  501    0 -0.12960358059E+02 -0.18989087598E+02 -0.61146475860E+02  0.65325705805E+02  0.00000000000E+00 0. -1.
          1    1    1    2  502    0 -0.14720517169E+02  0.17300008649E+02  0.53800722406E+03  0.53848654307E+03  0.00000000000E+00 0. -1.
         22    1    3    3    0    0  0.42773626604E+02  0.54519289893E+02  0.26064656147E+03  0.26970088266E+03  0.00000000000E+00 0. -1.
         22    1    3    3    0    0 -0.15092751376E+02 -0.52830210944E+02  0.12205173310E+03  0.13384860061E+03  0.00000000000E+00 0. -1.
</event>
<event>
 7    1  0.6176857E-006  0.2649169E+03  0.7818608E-02  0.1205412E+00
          2   -1    0    0  502    0  0.00000000000E+00  0.00000000000E+00  0.45644386421E+03  0.45644386421E+03  0.00000000000E+00 0. -1.
          1   -1    0    0  501    0 -0.00000000000E+00 -0.00000000000E+00 -0.24791859454E+03  0.24791859454E+03  0.00000000000E+00 0. -1.
         25    2    1    2    0    0 -0.28115263868E+03  0.14403310505E+03  0.10213196361E+03  0.35474976264E+03  0.12499645802E+03 0.  0.
          2    1    1    2  501    0  0.20927346452E+03 -0.10774873612E+03  0.27668222772E+02  0.23700359415E+03  0.00000000000E+00 0. -1.
          1    1    1    2  502    0  0.71879174158E+02 -0.36284368926E+02  0.78725083291E+02  0.11260910196E+03  0.00000000000E+00 0. -1.
         22    1    3    3    0    0 -0.17503812573E+03  0.11135298486E+03  0.54564472335E+01  0.20752736087E+03  0.00000000000E+00 0. -1.
         22    1    3    3    0    0 -0.10611451295E+03  0.32680120192E+02  0.96675516381E+02  0.14722240176E+03  0.00000000000E+00 0. -1.
</event>
<event>
 7    1  0.6176857E-006  0.1386542E+03  0.7818608E-02  0.1247281E+00
          2   -1    0    0  502    0  0.00000000000E+00  0.00000000000E+00  0.57082636015E+03  0.57082636015E+03  0.00000000000E+00 0. -1.
          1   -1    0    0  501    0 -0.00000000000E+00 -0.00000000000E+00 -0.85568360677E+03  0.85568360677E+03  0.00000000000E+00 0. -1.
         25    2    1    2    0    0  0.72455722804E+02 -0.70017115559E+02  0.91611435580E+02  0.18485275415E+03  0.12500262937E+03 0.  0.
          2    1    1    2  501    0 -0.14163616346E+03 -0.15971532785E+01 -0.79700489619E+03  0.80949376665E+03  0.00000000000E+00 0. -1.
          1    1    1    2  502    0  0.69180440660E+02  0.71614268837E+02  0.42053621399E+03  0.43216344611E+03  0.00000000000E+00 0. -1.
         22    1    3    3    0    0  0.83273450961E+02 -0.50841126607E+02  0.74407087032E+01  0.97850150412E+02  0.00000000000E+00 0.  1.
         22    1    3    3    0    0 -0.10817728156E+02 -0.19175988952E+02  0.84170726876E+02  0.87002603741E+02  0.00000000000E+00 0.  1.
</event>
<event>
 7    1  0.6176857E-006  0.2756801E+03  0.7818608E-02  0.1247041E+00
          2   -1    0    0  502    0  0.00000000000E+00  0.00000000000E+00  0.50747008964E+03  0.50747008964E+03  0.00000000000E+00 0. -1.
          1   -1    0    0  501    0 -0.00000000000E+00 -0.00000000000E+00 -0.38683611363E+04  0.38683611363E+04  0.00000000000E+00 0. -1.
         25    2    1    2    0    0 -0.44917236988E+02  0.32158754393E+03  0.17407452159E+03  0.38905430185E+03  0.12500081651E+03 0.  0.
          2    1    1    2  501    0  0.33036403262E+02 -0.27281326738E+03 -0.37529951247E+04  0.37630427700E+04  0.00000000000E+00 0. -1.
          1    1    1    2  502    0  0.11880833726E+02 -0.48774276550E+02  0.21802955641E+03  0.22373415415E+03  0.00000000000E+00 0. -1.
         22    1    3    3    0    0 -0.38875043180E+02  0.17523773662E+03  0.27060639996E+02  0.18152633846E+03  0.00000000000E+00 0. -1.
         22    1    3    3    0    0 -0.60421938079E+01  0.14634980732E+03  0.14701388159E+03  0.20752796339E+03  0.00000000000E+00 0. -1.
</event>
<event>
 7    1  0.6176857E-006  0.8245942E+02  0.7818608E-02  0.1396650E+00
          2   -1    0    0  502    0  0.00000000000E+00  0.00000000000E+00  0.29439914489E+03  0.29439914489E+03  0.00000000000E+00 0. -1.
          1   -1    0    0  501    0 -0.00000000000E+00 -0.00000000000E+00 -0.13795813834E+03  0.13795813834E+03  0.00000000000E+00 0. -1.
         25    2    1    2    0    0 -0.46154558939E+02  0.25835521858E+02  0.23643299878E+03  0.27262222162E+03  0.12499838121E+03 0.  0.
          2    1    1    2  501    0  0.48436846880E+02 -0.69846197517E+02 -0.78404185755E+02  0.11563665417E+03  0.00000000000E+00 0. -1.
          1    1    1    2  502    0 -0.22822879413E+01  0.44010675660E+02 -0.15878064744E+01  0.44098407450E+02  0.00000000000E+00 0. -1.
         22    1    3    3    0    0  0.25893336375E+02  0.31197737945E+01  0.18169288615E+01  0.26143815476E+02  0.00000000000E+00 0.  1.
         22    1    3    3    0    0 -0.72047895313E+02  0.22715748063E+02  0.23461606992E+03  0.24647840614E+03  0.00000000000E+00 0.  1.
</event>
<event>
 7    1  0.6575442E-006  0.4300047E+02  0.7818608E-02  0.1497786E+00
          2   -1    0    0  502    0  0.00000000000E+00  0.00000000000E+00  0.82322423785E+03  0.82322423785E+03  0.00000000000E+00 0. -1.
          1   -1    0    0  501    0 -0.00000000000E+00 -0.00000000000E+00 -0.12383697121E+04  0.12383697121E+04  0.00000000000E+00 0. -1.
         25    2    1    2    0    0 -0.22510537132E+02 -0.41943893680E+02 -0.29953030755E+03  0.32803833755E+03  0.12499892505E+03 0.  0.
          2    1    1    2  501    0  0.42810739861E+02  0.75238054204E+01 -0.92358045641E+03  0.92460273986E+03  0.00000000000E+00 0. -1.
          1    1    1    2  502    0 -0.20300202729E+02  0.34420088259E+02  0.80796528968E+03  0.80895287257E+03  0.00000000000E+00 0. -1.
         22    1    3    3    0    0 -0.16678233003E+02  0.12735783523E+02 -0.25869443715E+03  0.25954416859E+03  0.00000000000E+00 0.  1.
         22    1    3    3    0    0 -0.58323041291E+01 -0.54679677203E+02 -0.40835870408E+02  0.68494168967E+02  0.00000000000E+00 0.  1.
</event>
<event>
 7    1  0.6176857E-006  0.8000393E+02  0.7818608E-02  0.1473681E+00
          2   -1    0    0  502    0  0.00000000000E+00  0.00000000000E+00  0.39701201834E+03  0.39701201834E+03  0.00000000000E+00 0. -1.
          1   -1    0    0  501    0 -0.00000000000E+00 -0.00000000000E+00 -0.25835025015E+03  0.25835025015E+03  0.00000000000E+00 0. -1.
         25    2    1    2    0    0 -0.56007675285E+02 -0.82989932315E+02 -0.46057188398E+02  0.16664620056E+03  0.12500201198E+03 0.  0.
          2    1    1    2  501    0  0.35268537891E+02  0.68272551813E+02 -0.14176010677E+03  0.16124806656E+03  0.00000000000E+00 0. -1.
          1    1    1    2  502    0  0.20739137395E+02  0.14717380502E+02  0.32647906337E+03  0.32746800138E+03  0.00000000000E+00 0. -1.
         22    1    3    3    0    0 -0.47932270204E+02 -0.87772366738E+02  0.18248928575E+02  0.10165881312E+03  0.00000000000E+00 0. -1.
         22    1    3    3    0    0 -0.80754050810E+01  0.47824344232E+01 -0.64306116974E+02  0.64987387441E+02  0.00000000000E+00 0. -1.
</event>
<event>
 7    1  0.6176857E-006  0.9551601E+02  0.7818608E-02  0.1308763E+00
          2   -1    0    0  502    0  0.00000000000E+00  0.00000000000E+00  0.20794491043E+03  0.20794491043E+03  0.00000000000E+00 0. -1.
          1   -1    0    0  501    0 -0.00000000000E+00 -0.00000000000E+00 -0.54457984723E+03  0.54457984723E+03  0.00000000000E+00 0. -1.
         25    2    1    2    0    0  0.53484190165E+02 -0.31457392633E+02 -0.11513509406E+03  0.18091774678E+03  0.12500006027E+03 0.  0.
          2    1    1    2  501    0 -0.21379091148E+02  0.10510960473E+03 -0.37949175154E+03  0.39435908007E+03  0.00000000000E+00 0. -1.
          1    1    1    2  502    0 -0.32105099016E+02 -0.73652212094E+02  0.15799190880E+03  0.17724793081E+03  0.00000000000E+00 0. -1.
         22    1    3    3    0    0  0.37401515871E+02 -0.77427712596E+02 -0.49600961368E+02  0.99268219667E+02  0.00000000000E+00 0. -1.
         22    1    3    3    0    0  0.16082674294E+02  0.45970319963E+02 -0.65534132696E+02  0.81649527115E+02  0.00000000000E+00 0. -1.
</event>
<event>
 7    1  0.6176857E-006  0.5264693E+02  0.7818608E-02  0.1497322E+00
          2   -1    0    0  502    0  0.00000000000E+00  0.00000000000E+00  0.18366622395E+04  0.18366622395E+04  0.00000000000E+00 0. -1.
          1   -1    0    0  501    0 -0.00000000000E+00 -0.00000000000E+00 -0.63762089728E+03  0.63762089728E+03  0.00000000000E+00 0. -1.
         25    2    1    2    0    0 -0.35713630612E+02  0.23336607141E+02  0.93955658835E+02  0.16208841792E+03  0.12499971501E+03 0.  0.
          2    1    1    2  501    0  0.52608853118E+02  0.47109841022E+01 -0.60224163812E+03  0.60455345130E+03  0.00000000000E+00 0. -1.
          1    1    1    2  502    0 -0.16895222506E+02 -0.28047591244E+02  0.17073273215E+04  0.17076412675E+04  0.00000000000E+00 0. -1.
         22    1    3    3    0    0 -0.33076321498E+02  0.70394448289E+00 -0.24685827257E+02  0.41278670631E+02  0.00000000000E+00 0. -1.
         22    1    3    3    0    0 -0.26373091135E+01  0.22632662658E+02  0.11864148609E+03  0.12080974729E+03  0.00000000000E+00 0. -1.
</event>
<event>
 7    1  0.6176857E-006  0.1472048E+03  0.7818608E-02  0.1320544E+00
          2   -1    0    0  502    0  0.00000000000E+00  0.00000000000E+00  0.49596947778E+03  0.49596947778E+03  0.00000000000E+00 0. -1.
          1   -1    0    0  501    0 -0.00000000000E+00 -0.00000000000E+00 -0.49452795256E+03  0.49452795256E+03  0.00000000000E+00 0. -1.
         25    2    1    2    0    0 -0.13846810350E+03 -0.96430422026E+02  0.18238314121E+03  0.27813710261E+03  0.12499758265E+03 0.  0.
          2    1    1    2  501    0  0.75942920314E+01  0.46264730875E+02 -0.42679442097E+03  0.42936182453E+03  0.00000000000E+00 0. -1.
          1    1    1    2  502    0  0.13087381147E+03  0.50165691151E+02  0.24585280498E+03  0.28299850320E+03  0.00000000000E+00 0. -1.
         22    1    3    3    0    0  0.54077330486E+01  0.18725809279E+02  0.42560872835E+02  0.46811616148E+02  0.00000000000E+00 0. -1.
         22    1    3    3    0    0 -0.14387583655E+03 -0.11515623131E+03  0.13982226838E+03  0.23132548646E+03  0.00000000000E+00 0. -1.
</event>
<event>
 7    1  0.6176857E-006  0.1040176E+03  0.7818608E-02  0.1374374E+00
          2   -1    0    0  502    0  0.00000000000E+00  0.00000000000E+00  0.71800947320E+03  0.71800947320E+03  0.00000000000E+00 0. -1.
          1   -1    0    0  501    0 -0.00000000000E+00 -0.00000000000E+00 -0.37391473049E+03  0.37391473049E+03  0.00000000000E+00 0. -1.
         25    2    1    2    0    0  0.72962664481E+02  0.13024388454E+02  0.13749650504E+03  0.20005757116E+03  0.12499823109E+03 0.  0.
          2    1    1    2  501    0  0.36379843031E+02 -0.20654685518E+02 -0.33585499018E+03  0.33845041504E+03  0.00000000000E+00 0. -1.
          1    1    1    2  502    0 -0.10934250751E+03  0.76302970638E+01  0.54245322785E+03  0.55341621749E+03  0.00000000000E+00 0. -1.
         22    1    3    3    0    0  0.10598485610E+03  0.23842873078E+02  0.89220614085E+02  0.14057592360E+03  0.00000000000E+00 0.  1.
         22    1    3    3    0    0 -0.33022191615E+02 -0.10818484624E+02  0.48275890953E+02  0.59481647556E+02  0.00000000000E+00 0.  1.
</event>
<event>
 7    1  0.6176857E-006  0.9801064E+02  0.7818608E-02  0.1352553E+00
          2   -1    0    0  502    0  0.00000000000E+00  0.00000000000E+00  0.27617826028E+04  0.27617826028E+04  0.00000000000E+00 0. -1.
          1   -1    0    0  501    0 -0.00000000000E+00 -0.00000000000E+00 -0.17901140094E+03  0.17901140094E+03  0.00000000000E+00 0. -1.
         25    2    1    2    0    0  0.66740998236E+02  0.12742763346E+03  0.63157324899E+02  0.20076297514E+03  0.12499904754E+03 0.  0.
          2    1    1    2  501    0 -0.35402572350E+02 -0.84334289812E+02 -0.90913005705E+02  0.12896041708E+03  0.00000000000E+00 0. -1.
          1    1    1    2  502    0 -0.31338425887E+02 -0.43093343649E+02  0.26105268827E+04  0.26110706115E+04  0.00000000000E+00 0. -1.
         22    1    3    3    0    0  0.10225003997E+03  0.11042780035E+03  0.56929890221E+02  0.16090488546E+03  0.00000000000E+00 0.  1.
         22    1    3    3    0    0 -0.35509041733E+02  0.16999833106E+02  0.62274346785E+01  0.39858089682E+02  0.00000000000E+00 0.  1.
</event>
<event>
 7    1  0.6176857E-006  0.2127198E+03  0.7818608E-02  0.1187702E+00
          2   -1    0    0  502    0  0.00000000000E+00  0.00000000000E+00  0.22213181314E+03  0.22213181314E+03  0.00000000000E+00 0. -1.
          1   -1    0    0  501    0 -0.00000000000E+00 -0.00000000000E+00 -0.27329920108E+04  0.27329920108E+04  0.00000000000E+00 0. -1.
         25    2    1    2    0    0 -0.58979993690E+02  0.26087646501E+03 -0.71585650301E+03  0.77434572545E+03  0.12500239983E+03 0.  0.
          2    1    1    2  501    0 -0.47055749888E+02 -0.20118993651E+03 -0.19627229068E+04  0.19735685555E+04  0.00000000000E+00 0. -1.
          1    1    1    2  502    0  0.10603574358E+03 -0.59686528508E+02  0.16771921216E+03  0.20720954305E+03  0.00000000000E+00 0. -1.
         22    1    3    3    0    0 -0.71249188918E+02  0.67293983031E+02 -0.18864839501E+03  0.21258679172E+03  0.00000000000E+00 0. -1.
         22    1    3    3    0    0  0.12269195229E+02  0.19358248198E+03 -0.52720810800E+03  0.56175893373E+03  0.00000000000E+00 0. -1.
</event>
<event>
 7    1  0.6176857E-006  0.1151517E+03  0.7818608E-02  0.1300498E+00
          2   -1    0    0  502    0  0.00000000000E+00  0.00000000000E+00  0.14555892560E+04  0.14555892560E+04  0.00000000000E+00 0. -1.
          1   -1    0    0  501    0 -0.00000000000E+00 -0.00000000000E+00 -0.21937159316E+03  0.21937159316E+03  0.00000000000E+00 0. -1.
         25    2    1    2    0    0 -0.97416467047E+02 -0.92697347656E+02  0.10950738920E+03  0.21376861806E+03  0.12498954941E+03 0.  0.
          2    1    1    2  501    0 -0.15534599088E+02  0.70182233054E+02 -0.15681784765E+03  0.17250712144E+03  0.00000000000E+00 0. -1.
          1    1    1    2  502    0  0.11295106613E+03  0.22515114602E+02  0.12835281213E+04  0.12886851096E+04  0.00000000000E+00 0. -1.
         22    1    3    3    0    0 -0.45154393855E+01 -0.68510292048E+02  0.69477296103E+00  0.68662449845E+02  0.00000000000E+00 0. -1.
         22    1    3    3    0    0 -0.92901027662E+02 -0.24187055608E+02  0.10881261624E+03  0.14510616821E+03  0.00000000000E+00 0. -1.
</event>
<event>
 7    1  0.6176857E-006  0.6055378E+02  0.7818608E-02  0.1517906E+00
          2   -1    0    0  502    0  0.00000000000E+00  0.00000000000E+00  0.10138353320E+02  0.10138353320E+02  0.00000000000E+00 0. -1.
          1   -1    0    0  501    0 -0.00000000000E+00 -0.00000000000E+00 -0.27367811560E+04  0.27367811560E+04  0.00000000000E+00 0. -1.
         25    2    1    2    0    0  0.55281694839E+02  0.56897917987E+02 -0.82941695772E+03  0.84252035800E+03  0.12495849326E+03 0.  0.
          2    1    1    2  501    0 -0.49372745562E+02 -0.32864505015E+02 -0.18511263440E+04  0.18520762633E+04  0.00000000000E+00 0. -1.
          1    1    1    2  502    0 -0.59089492765E+01 -0.24033412972E+02 -0.46099501009E+02  0.52322888050E+02  0.00000000000E+00 0. -1.
         22    1    3    3    0    0  0.94063343444E+02  0.39351158109E+02 -0.66043884653E+03  0.66826334347E+03  0.00000000000E+00 0. -1.
         22    1    3    3    0    0 -0.38781648605E+02  0.17546759878E+02 -0.16897811119E+03  0.17425701453E+03  0.00000000000E+00 0. -1.
</event>
<event>
 7    1  0.6176857E-006  0.2431506E+03  0.7818608E-02  0.1192783E+00
          2   -1    0    0  502    0  0.00000000000E+00  0.00000000000E+00  0.11698282920E+04  0.11698282920E+04  0.00000000000E+00 0. -1.
          1   -1    0    0  501    0 -0.00000000000E+00 -0.00000000000E+00 -0.76411974584E+03  0.76411974584E+03  0.00000000000E+00 0. -1.
         25    2    1    2    0    0 -0.14350625653E+03  0.13198441846E+03 -0.54022313058E+02  0.23782881174E+03  0.12502080228E+03 0.  0.
          2    1    1    2  501    0  0.12157252494E+03 -0.23020898920E+03 -0.58826722725E+03  0.64329960997E+03  0.00000000000E+00 0. -1.
          1    1    1    2  502    0  0.21933731588E+02  0.98224570743E+02  0.10479980865E+04  0.10528196162E+04  0.00000000000E+00 0. -1.
         22    1    3    3    0    0 -0.89676144683E+02  0.12237203959E+03 -0.86090989124E+02  0.17443733949E+03  0.00000000000E+00 0. -1.
         22    1    3    3    0    0 -0.53830111850E+02  0.96123788664E+01  0.32068676066E+02  0.63391472249E+02  0.00000000000E+00 0. -1.
</event>
<event>
 7    1  0.6176857E-006  0.2844689E+02  0.7818608E-02  0.1647952E+00
          2   -1    0    0  502    0  0.00000000000E+00  0.00000000000E+00  0.49278228100E+03  0.49278228100E+03  0.00000000000E+00 0. -1.
          1   -1    0    0  501    0 -0.00000000000E+00 -0.00000000000E+00 -0.11098905529E+04  0.11098905529E+04  0.00000000000E+00 0. -1.
         25    2    1    2    0    0  0.14870906591E+02  0.12299847868E+02 -0.43918604425E+02  0.13388853495E+03  0.12499946342E+03 0.  0.
          2    1    1    2  501    0  0.12606743175E+02 -0.19999375540E+02 -0.10203953128E+04  0.10206691429E+04  0.00000000000E+00 0. -1.
          1    1    1    2  502    0 -0.27477649767E+02  0.76995276717E+01  0.44720564525E+03  0.44811515608E+03  0.00000000000E+00 0. -1.
         22    1    3    3    0    0  0.24036877005E+02 -0.43336527676E+02 -0.57481105795E+02  0.75894028821E+02  0.00000000000E+00 0.  1.
         22    1    3    3    0    0 -0.91659704139E+01  0.55636375544E+02  0.13562501371E+02  0.57994506126E+02  0.00000000000E+00 0.  1.
</event>
<event>
 7    1  0.6176857E-006  0.1040329E+03  0.7818608E-02  0.1408384E+00
          2   -1    0    0  502    0  0.00000000000E+00  0.00000000000E+00  0.75419021018E+03  0.75419021018E+03  0.00000000000E+00 0. -1.
          1   -1    0    0  501    0 -0.00000000000E+00 -0.00000000000E+00 -0.50282651768E+02  0.50282651768E+02  0.00000000000E+00 0. -1.
         25    2    1    2    0    0  0.69229189306E+02  0.45851435450E+02  0.25778682956E+03  0.29830361851E+03  0.12504385045E+03 0.  0.
          2    1    1    2  501    0  0.12858917756E+02  0.29130933741E+02 -0.12542190107E+02  0.34223816257E+02  0.00000000000E+00 0. -1.
          1    1    1    2  502    0 -0.82088107063E+02 -0.74982369190E+02  0.45866291896E+03  0.47194542718E+03  0.00000000000E+00 0. -1.
         22    1    3    3    0    0  0.78459825247E+02  0.17335201768E+02  0.25595896550E+03  0.26827494371E+03  0.00000000000E+00 0.  1.
         22    1    3    3    0    0 -0.92306359409E+01  0.28516233682E+02  0.18278640535E+01  0.30028674800E+02  0.00000000000E+00 0.  1.
</event>
<event>
 7    1  0.6176857E-006  0.7647660E+02  0.7818608E-02  0.1346962E+00
          2   -1    0    0  502    0  0.00000000000E+00  0.00000000000E+00  0.17801053044E+03  0.17801053044E+03  0.00000000000E+00 0. -1.
          1   -1    0    0  501    0 -0.00000000000E+00 -0.00000000000E+00 -0.42804122972E+03  0.42804122972E+03  0.00000000000E+00 0. -1.
         25    2    1    2    0    0 -0.58557401158E+02  0.13267225434E+03 -0.18922940133E+03  0.26919076720E+03  0.12500002605E+03 0.  0.
          2    1    1    2  501    0  0.29739277787E+02 -0.65158353291E+02 -0.18176403900E+03  0.19536683834E+03  0.00000000000E+00 0. -1.
          1    1    1    2  502    0  0.28818123372E+02 -0.67513901044E+02  0.12096274106E+03  0.14149415462E+03  0.00000000000E+00 0. -1.
         22    1    3    3    0    0  0.38487686575E+02  0.27805984997E+02 -0.35271412636E+02  0.59148519584E+02  0.00000000000E+00 0.  1.
         22    1    3    3    0    0 -0.97045087734E+02  0.10486626934E+03 -0.15395798870E+03  0.21004224761E+03  0.00000000000E+00 0.  1.
</event>
<event>
 7    1  0.6176857E-006  0.9880991E+02  0.7818608E-02  0.1463819E+00
          2   -1    0    0  502    0  0.00000000000E+00  0.00000000000E+00  0.16091197523E+04  0.16091197523E+04  0.00000000000E+00 0. -1.
          1   -1    0    0  501    0 -0.00000000000E+00 -0.00000000000E+00 -0.10041183352E+04  0.10041183352E+04  0.00000000000E+00 0. -1.
         25    2    1    2    0    0  0.29112287523E+02  0.72325308379E+02  0.25053809653E+03  0.29064700931E+03  0.12501148224E+03 0.  0.
          2    1    1    2  501    0 -0.43926333873E+02 -0.88725664766E+02 -0.98148212810E+03  0.98646283973E+03  0.00000000000E+00 0. -1.
          1    1    1    2  502    0  0.14814046350E+02  0.16400356387E+02  0.13359454487E+04  0.13361282384E+04  0.00000000000E+00 0. -1.
         22    1    3    3    0    0  0.76159078638E+02  0.24152339718E+02  0.14123450391E+03  0.16226745166E+03  0.00000000000E+00 0. -1.
         22    1    3    3    0    0 -0.47046791115E+02  0.48172968661E+02  0.10930359262E+03  0.12837955765E+03  0.00000000000E+00 0. -1.
</event>
<event>
 7    1  0.6176857E-006  0.5180196E+02  0.7818608E-02  0.1499057E+00
          2   -1    0    0  502    0  0.00000000000E+00  0.00000000000E+00  0.22539382540E+04  0.22539382540E+04  0.00000000000E+00 0. -1.
          1   -1    0    0  501    0 -0.00000000000E+00 -0.00000000000E+00 -0.20682807927E+04  0.20682807927E+04  0.00000000000E+00 0. -1.
         25    2    1    2    0    0 -0.31626667499E+02 -0.63648196300E+02  0.31654327440E+02  0.14723682491E+03  0.12500138869E+03 0.  0.
          2    1    1    2  501    0 -0.90059192649E+01  0.31624423596E+02 -0.20100459174E+04  0.20103148512E+04  0.00000000000E+00 0. -1.
          1    1    1    2  502    0  0.40632586764E+02  0.32023772704E+02  0.21640490513E+04  0.21646673706E+04  0.00000000000E+00 0. -1.
         22    1    3    3    0    0  0.17849459343E+01 -0.56982932364E+02 -0.38810748721E+02  0.68967491103E+02  0.00000000000E+00 0.  1.
         22    1    3    3    0    0 -0.33411613434E+02 -0.66652639361E+01  0.70465076161E+02  0.78269333803E+02  0.00000000000E+00 0.  1.
</event>
<event>
 7    1  0.6828301E-006  0.7636638E+02  0.7818608E-02  0.1452007E+00
          2   -1    0    0  502    0  0.00000000000E+00  0.00000000000E+00  0.11543933435E+04  0.11543933435E+04  0.00000000000E+00 0. -1.
          1   -1    0    0  501    0 -0.00000000000E+00 -0.00000000000E+00 -0.17342594478E+04  0.17342594478E+04  0.00000000000E+00 0. -1.
         25    2    1    2    0    0  0.76523562763E+02  0.33849411667E+02 -0.29968926307E+03  0.33532103794E+03  0.12499962303E+03 0.  0.
          2    1    1    2  501    0 -0.53263740402E+02 -0.54592185910E+02 -0.14155137827E+04  0.14175671419E+04  0.00000000000E+00 0. -1.
          1    1    1    2  502    0 -0.23259822360E+02  0.20742774243E+02  0.11353369415E+04  0.11357646115E+04  0.00000000000E+00 0. -1.
         22    1    3    3    0    0  0.10747014209E+03  0.14198268320E+02 -0.25775089710E+03  0.27961928979E+03  0.00000000000E+00 0. -1.
         22    1    3    3    0    0 -0.30946579332E+02  0.19651143346E+02 -0.41938365975E+02  0.55701748158E+02  0.00000000000E+00 0. -1.
</event>
<event>
 7    1  0.6176857E-006  0.1537642E+03  0.7818608E-02  0.1268897E+00
          2   -1    0    0  502    0  0.00000000000E+00  0.00000000000E+00  0.10276639780E+04  0.10276639780E+04  0.00000000000E+00 0. -1.
          1   -1    0    0  501    0 -0.00000000000E+00 -0.00000000000E+00 -0.31723626457E+03  0.31723626457E+03  0.00000000000E+00 0. -1.
         25    2    1    2    0    0  0.13918060002E+03  0.93659219864E+02 -0.98338037971E+02  0.23116823179E+03  0.12500037115E+03 0.  0.
          2    1    1    2  501    0 -0.76799731233E+02 -0.13070972566E+03 -0.11302045327E+03  0.18909482795E+03  0.00000000000E+00 0. -1.
          1    1    1    2  502    0 -0.62380868785E+02  0.37050505794E+02  0.92178620470E+03  0.92463718286E+03  0.00000000000E+00 0. -1.
         22    1    3    3    0    0  0.62956717667E+02  0.71619977351E+01 -0.97010750043E+02  0.11587030739E+03  0.00000000000E+00 0.  1.
         22    1    3    3    0    0  0.76223882352E+02  0.86497222129E+02 -0.13272879273E+01  0.11529792440E+03  0.00000000000E+00 0.  1.
</event>
<event>
 7    1  0.6176857E-006  0.1911827E+03  0.7818608E-02  0.1254058E+00
          2   -1    0    0  502    0  0.00000000000E+00  0.00000000000E+00  0.15669653516E+04  0.15669653516E+04  0.00000000000E+00 0. -1.
          1   -1    0    0  501    0 -0.00000000000E+00 -0.00000000000E+00 -0.56992298494E+02  0.56992298494E+02  0.00000000000E+00 0. -1.
         25    2    1    2    0    0  0.14630266175E+03 -0.98177633284E+02  0.27434451164E+03  0.34918953375E+03  0.12500041158E+03 0.  0.
          2    1    1    2  501    0 -0.21329241603E+03  0.89958959725E+02  0.76293078145E+03  0.79727639276E+03  0.00000000000E+00 0. -1.
          1    1    1    2  502    0  0.66989754283E+02  0.82186735588E+01  0.47269776004E+03  0.47749172362E+03  0.00000000000E+00 0. -1.
         22    1    3    3    0    0  0.77561547146E+02 -0.10327260504E+03  0.10533037506E+03  0.16665987057E+03  0.00000000000E+00 0.  1.
         22    1    3    3    0    0  0.68741114602E+02  0.50949717587E+01  0.16901413658E+03  0.18252966318E+03  0.00000000000E+00 0.  1.
</event>
<event>
 7    1  0.6176857E-006  0.4139632E+02  0.7818608E-02  0.1504272E+00
          2   -1    0    0  502    0  0.00000000000E+00  0.00000000000E+00  0.18177180163E+02  0.18177180163E+02  0.00000000000E+00 0. -1.
          1   -1    0    0  501    0 -0.00000000000E+00 -0.00000000000E+00 -0.93010825775E+03  0.93010825775E+03  0.00000000000E+00 0. -1.
         25    2    1    2    0    0 -0.30235339132E+02  0.18846848792E+02 -0.70982150442E+03  0.72162321743E+03  0.12499648140E+03 0.  0.
          2    1    1    2  501    0  0.45123066624E+02  0.19779704947E+02 -0.16080765115E+03  0.16818569659E+03  0.00000000000E+00 0. -1.
          1    1    1    2  502    0 -0.14887727492E+02 -0.38626553739E+02 -0.41301922021E+02  0.58476523890E+02  0.00000000000E+00 0. -1.
         22    1    3    3    0    0 -0.56127179730E+02 -0.13078085873E+02 -0.62193442158E+03  0.62459884837E+03  0.00000000000E+00 0. -1.
         22    1    3    3    0    0  0.25891840598E+02  0.31924934666E+02 -0.87887082830E+02  0.97024369060E+02  0.00000000000E+00 0. -1.
</event>
<event>
 7    1  0.6176857E-006  0.3287770E+02  0.7818608E-02  0.1582839E+00
          2   -1    0    0  502    0  0.00000000000E+00  0.00000000000E+00  0.54207915081E+03  0.54207915081E+03  0.00000000000E+00 0. -1.
          1   -1    0    0  501    0 -0.00000000000E+00 -0.00000000000E+00 -0.39977598111E+03  0.39977598111E+03  0.00000000000E+00 0. -1.
         25    2    1    2    0    0  0.41213457702E+02  0.45431683922E+02 -0.16410820877E+03  0.21521825497E+03  0.12499922435E+03 0.  0.
          2    1    1    2  501    0 -0.19012939659E+02 -0.25196666018E+02 -0.20848703014E+03  0.21086300194E+03  0.00000000000E+00 0. -1.
          1    1    1    2  502    0 -0.22200518043E+02 -0.20235017904E+02  0.51489840861E+03  0.51577387501E+03  0.00000000000E+00 0. -1.
         22    1    3    3    0    0  0.73568428125E+02  0.28912509722E+02 -0.16025120707E+03  0.17868602688E+03  0.00000000000E+00 0.  1.
         22    1    3    3    0    0 -0.32354970423E+02  0.16519174200E+02 -0.38570017060E+01  0.36532228094E+02  0.00000000000E+00 0.  1.
</event>
<event>
 7    1  0.6176857E-006  0.5528542E+02  0.7818608E-02  0.1482974E+00
          2   -1    0    0  502    0  0.00000000000E+00  0.00000000000E+00  0.97957688612E+03  0.97957688612E+03  0.00000000000E+00 0. -1.
          1   -1    0    0  501    0 -0.00000000000E+00 -0.00000000000E+00 -0.26177197912E+03  0.26177197912E+03  0.00000000000E+00 0. -1.
         25    2    1    2    0    0 -0.27954130186E+02  0.82921246603E+02  0.91373775812E+02  0.17785020401E+03  0.12499664647E+03 0.  0.
          2    1    1    2  501    0  0.98682948887E+01 -0.53591715085E+02 -0.21477853969E+03  0.22158356501E+03  0.00000000000E+00 0. -1.
          1    1    1    2  502    0  0.18085835297E+02 -0.29329531518E+02  0.84120967088E+03  0.84191509622E+03  0.00000000000E+00 0. -1.
         22    1    3    3    0    0  0.10859254911E+02 -0.26203558276E+02  0.44780095944E+02  0.53007611494E+02  0.00000000000E+00 0.  1.
         22    1    3    3    0    0 -0.38813385097E+02  0.10912480488E+03  0.46593679868E+02  0.12484259252E+03  0.00000000000E+00 0.  1.
</event>
<event>
 7    1  0.6176857E-006  0.8682482E+02  0.7818608E-02  0.1358585E+00
          2   -1    0    0  502    0  0.00000000000E+00  0.00000000000E+00  0.22991287404E+03  0.22991287404E+03  0.00000000000E+00 0. -1.
          1   -1    0    0  501    0 -0.00000000000E+00 -0.00000000000E+00 -0.54934705454E+03  0.54934705454E+03  0.00000000000E+00 0. -1.
         25    2    1    2    0    0 -0.88040636960E+02 -0.97767841518E+02 -0.38576367245E+03  0.42631865267E+03  0.12499711216E+03 0.  0.
          2    1    1    2  501    0  0.53963247526E+02  0.18835839099E+02 -0.12814318199E+03  0.14031213778E+03  0.00000000000E+00 0. -1.
          1    1    1    2  502    0  0.34077389434E+02  0.78932002419E+02  0.19447267392E+03  0.21262913813E+03  0.00000000000E+00 0. -1.
         22    1    3    3    0    0 -0.19222398176E+02 -0.77026558879E+02 -0.31720498421E+03  0.32698867469E+03  0.00000000000E+00 0. -1.
         22    1    3    3    0    0 -0.68818238784E+02 -0.20741282640E+02 -0.68558688234E+02  0.99329977989E+02  0.00000000000E+00 0. -1.
</event>
<event>
 7    1  0.6176857E-006  0.8360366E+02  0.7818608E-02  0.1434598E+00
          2   -1    0    0  502    0  0.00000000000E+00  0.00000000000E+00  0.12317495002E+04  0.12317495002E+04  0.00000000000E+00 0. -1.
          1   -1    0    0  501    0 -0.00000000000E+00 -0.00000000000E+00 -0.19917658478E+03  0.19917658478E+03  0.00000000000E+00 0. -1.
         25    2    1    2    0    0  0.67214125905E+02  0.22583615184E+02 -0.98978020715E+02  0.17449571690E+03  0.12499739292E+03 0.  0.
          2    1    1    2  501    0  0.16411645202E+02 -0.27939311903E+02 -0.56658530556E+02  0.65269719876E+02  0.00000000000E+00 0. -1.
          1    1    1    2  502    0 -0.83625771107E+02  0.53556967189E+01  0.11882094667E+04  0.11911606482E+04  0.00000000000E+00 0. -1.
         22    1    3    3    0    0  0.90172278017E+02  0.24480412986E+02 -0.11369256447E+03  0.14716089684E+03  0.00000000000E+00 0.  1.
         22    1    3    3    0    0 -0.22958152112E+02 -0.18967978024E+01  0.14714543752E+02  0.27334820067E+02  0.00000000000E+00 0.  1.
</event>
<event>
 7    1  0.6176857E-006  0.1801747E+03  0.7818608E-02  0.1215987E+00
          2   -1    0    0  502    0  0.00000000000E+00  0.00000000000E+00  0.28414143962E+04  0.28414143962E+04  0.00000000000E+00 0. -1.
          1   -1    0    0  501    0 -0.00000000000E+00 -0.00000000000E+00 -0.13057206108E+03  0.13057206108E+03  0.00000000000E+00 0. -1.
         25    2    1    2    0    0  0.23297903378E+02 -0.15986877519E+03  0.86957086439E+03  0.89324003378E+03  0.12499380854E+03 0.  0.
          2    1    1    2  501    0 -0.12587580607E+03  0.13410801793E+03 -0.45128513539E+02  0.18938390048E+03  0.00000000000E+00 0. -1.
          1    1    1    2  502    0  0.10257790269E+03  0.25760757266E+02  0.18863999843E+04  0.18893625230E+04  0.00000000000E+00 0. -1.
         22    1    3    3    0    0  0.58033671487E+02 -0.10739971070E+03  0.36759078999E+03  0.38733137463E+03  0.00000000000E+00 0. -1.
         22    1    3    3    0    0 -0.34735768109E+02 -0.52469064489E+02  0.50198007439E+03  0.50590865915E+03  0.00000000000E+00 0. -1.
</event>
<event>
 7    1  0.6176857E-006  0.7112494E+02  0.7818608E-02  0.1406976E+00
          2   -1    0    0  502    0  0.00000000000E+00  0.00000000000E+00  0.85755492123E+03  0.85755492123E+03  0.00000000000E+00 0. -1.
          1   -1    0    0  501    0 -0.00000000000E+00 -0.00000000000E+00 -0.53209813364E+03  0.53209813364E+03  0.00000000000E+00 0. -1.
         25    2    1    2    0    0 -0.96049239599E+02  0.14570402525E+02  0.61598490029E+03  0.63600392047E+03  0.12500334559E+03 0.  0.
          2    1    1    2  501    0  0.43305476291E+02  0.18500822066E+02 -0.51681442918E+03  0.51895548836E+03  0.00000000000E+00 0. -1.
          1    1    1    2  502    0  0.52743763308E+02 -0.33071224590E+02  0.22628631648E+03  0.23469364604E+03  0.00000000000E+00 0. -1.
         22    1    3    3    0    0  0.20220683041E+02 -0.38477468162E+01  0.20703921176E+02  0.29194751759E+02  0.00000000000E+00 0. -1.
         22    1    3    3    0    0 -0.11626992264E+03  0.18418149341E+02  0.59528097911E+03  0.60680916871E+03  0.00000000000E+00 0. -1.
</event>
<event>
 7    1  0.6176857E-006  0.5624024E+02  0.7818608E-02  0.1476582E+00
          2   -1    0    0  502    0  0.00000000000E+00  0.00000000000E+00  0.34137683691E+03  0.34137683691E+03  0.00000000000E+00 0. -1.
          1   -1    0    0  501    0 -0.00000000000E+00 -0.00000000000E+00 -0.20464731287E+03  0.20464731287E+03  0.00000000000E+00 0. -1.
         25    2    1    2    0    0 -0.71809480424E+02 -0.23616265831E+02  0.27227405036E+03  0.30898302357E+03  0.12499208320E+03 0.  0.
          2    1    1    2  501    0  0.25743809284E+02  0.24352780242E+02 -0.17366485310E+03  0.17724356920E+03  0.00000000000E+00 0. -1.
          1    1    1    2  502    0  0.46065671140E+02 -0.73651441168E+00  0.38120326769E+02  0.59797557008E+02  0.00000000000E+00 0. -1.
         22    1    3    3    0    0 -0.75080221649E+02 -0.13941741780E+02  0.28361848015E+03  0.29371900539E+03  0.00000000000E+00 0.  1.
         22    1    3    3    0    0  0.32707412255E+01 -0.96745240502E+01 -0.11344429786E+02  0.15264018178E+02  0.00000000000E+00 0.  1.
</event>
<event>
 7    1  0.6176857E-006  0.1222046E+03  0.7818608E-02  0.1404017E+00
          2   -1    0    0  502    0  0.00000000000E+00  0.00000000000E+00  0.11694202325E+04  0.11694202325E+04  0.00000000000E+00 0. -1.
          1   -1    0    0  501    0 -0.00000000000E+00 -0.00000000000E+00 -0.61029405429E+03  0.61029405429E+03  0.00000000000E+00 0. -1.
         25    2    1    2    0    0  0.13669103321E+03 -0.29250268717E+02  0.10414545515E+02  0.18781104559E+03  0.12499803722E+03 0.  0.
          2    1    1    2  501    0 -0.23540271904E+02 -0.15257975242E+02 -0.51776164838E+03  0.51852104561E+03  0.00000000000E+00 0. -1.
          1    1    1    2  502    0 -0.11315076131E+03  0.44508243959E+02  0.10664732810E+04  0.10733821956E+04  0.00000000000E+00 0. -1.
         22    1    3    3    0    0  0.84586212484E+02  0.40261071832E+02 -0.19960017622E+02  0.95781958379E+02  0.00000000000E+00 0. -1.
         22    1    3    3    0    0  0.52104820726E+02 -0.69511340548E+02  0.30374563137E+02  0.92029087214E+02  0.00000000000E+00 0. -1.
</event>
<event>
 7    1  0.6176857E-006  0.4964606E+02  0.7818608E-02  0.1450803E+00
          2   -1    0    0  502    0  0.00000000000E+00  0.00000000000E+00  0.47123222199E+03  0.47123222199E+03  0.00000000000E+00 0. -1.
          1   -1    0    0  501    0 -0.00000000000E+00 -0.00000000000E+00 -0.58985019130E+03  0.58985019130E+03  0.00000000000E+00 0. -1.
         25    2    1    2    0    0 -0.16812902239E+02  0.33451223308E+02 -0.14779975747E+02  0.13131266635E+03  0.12499164227E+03 0.  0.
          2    1    1    2  501    0 -0.33519998351E+02 -0.34865608326E+02 -0.51412981600E+03  0.51639971788E+03  0.00000000000E+00 0. -1.
          1    1    1    2  502    0  0.50332900590E+02  0.14143850188E+01  0.41029182244E+03  0.41337002906E+03  0.00000000000E+00 0. -1.
         22    1    3    3    0    0 -0.21990535450E+02  0.79300573260E+02  0.17180049404E+01  0.82311093479E+02  0.00000000000E+00 0. -1.
         22    1    3    3    0    0  0.51776332109E+01 -0.45849349953E+02 -0.16497980688E+02  0.49001572868E+02  0.00000000000E+00 0. -1.
</event>
<event>
 7    1  0.6176857E-006  0.6689489E+02  0.7818608E-02  0.1422470E+00
          2   -1    0    0  502    0  0.00000000000E+00  0.00000000000E+00  0.16072006605E+04  0.16072006605E+04  0.00000000000E+00 0. -1.
          1   -1    0    0  501    0 -0.00000000000E+00 -0.00000000000E+00 -0.20573871940E+02  0.20573871940E+02  0.00000000000E+00 0. -1.
         25    2    1    2    0    0 -0.52877681454E+02  0.93242894600E+02  0.57502163055E+03  0.59813505401E+03  0.12500152259E+03 0.  0.
          2    1    1    2  501    0  0.17356169748E+02 -0.40872091416E+02  0.53853147927E+02  0.69799183567E+02  0.00000000000E+00 0. -1.
          1    1    1    2  502    0  0.35521511705E+02 -0.52370803184E+02  0.95775201011E+03  0.95984029489E+03  0.00000000000E+00 0. -1.
         22    1    3    3    0    0  0.28922957552E+02  0.57402027484E+02  0.14013639966E+03  0.15417438420E+03  0.00000000000E+00 0.  1.
         22    1    3    3    0    0 -0.81800639005E+02  0.35840867116E+02  0.43488523089E+03  0.44396066982E+03  0.00000000000E+00 0.  1.
</event>
<event>
 7    1  0.6176857E-006  0.9212094E+02  0.7818608E-02  0.1333470E+00
          2   -1    0    0  502    0  0.00000000000E+00  0.00000000000E+00  0.19243471132E+04  0.19243471132E+04  0.00000000000E+00 0. -1.
          1   -1    0    0  501    0 -0.00000000000E+00 -0.00000000000E+00 -0.59062970000E+03  0.59062970000E+03  0.00000000000E+00 0. -1.
         25    2    1    2    0    0 -0.75033162894E+02  0.31583794781E+02  0.97979179942E+02  0.17847299710E+03  0.12500071746E+03 0.  0.
          2    1    1    2  501    0  0.86545521853E+02  0.34247290302E+02 -0.54581679976E+03  0.55369574962E+03  0.00000000000E+00 0. -1.
          1    1    1    2  502    0 -0.11512358959E+02 -0.65831085083E+02  0.17815550330E+04  0.17828080664E+04  0.00000000000E+00 0. -1.
         22    1    3    3    0    0 -0.23059102203E+01  0.54912258208E+02  0.92293481682E+00  0.54968401215E+02  0.00000000000E+00 0. -1.
         22    1    3    3    0    0 -0.72727252673E+02 -0.23328463427E+02  0.97056245126E+02  0.12350459589E+03  0.00000000000E+00 0. -1.
</event>
<event>
 7    1  0.6176857E-006  0.1307486E+03  0.7818608E-02  0.1336188E+00
          2   -1    0    0  502    0  0.00000000000E+00  0.00000000000E+00  0.46197171285E+03  0.46197171285E+03  0.00000000000E+00 0. -1.
          1   -1    0    0  501    0 -0.00000000000E+00 -0.00000000000E+00 -0.11743761515E+03  0.11743761515E+03  0.00000000000E+00 0. -1.
         25    2    1    2    0    0  0.89203589321E+01 -0.14371126008E+03  0.13636136863E+03  0.23441517625E+03  0.12499421155E+03 0.  0.
          2    1    1    2  501    0 -0.47633557716E+02  0.11889949922E+03 -0.37493639445E+01  0.12814095546E+03  0.00000000000E+00 0. -1.
          1    1    1    2  502    0  0.38713198784E+02  0.24811760856E+02  0.21192209301E+03  0.21685319630E+03  0.00000000000E+00 0. -1.
         22    1    3    3    0    0  0.35430775400E+02 -0.45110711636E+01 -0.27745410061E+01  0.35824400710E+02  0.00000000000E+00 0.  1.
         22    1    3    3    0    0 -0.26510416467E+02 -0.13920018892E+03  0.13913590964E+03  0.19859077553E+03  0.00000000000E+00 0.  1.
</event>
<event>
 7    1  0.6176857E-006  0.1721177E+03  0.7818608E-02  0.1312961E+00
          2   -1    0    0  502    0  0.00000000000E+00  0.00000000000E+00  0.32508731123E+04  0.32508731123E+04  0.00000000000E+00 0. -1.
          1   -1    0    0  501    0 -0.00000000000E+00 -0.00000000000E+00 -0.14087461462E+03  0.14087461462E+03  0.00000000000E+00 0. -1.
         25    2    1    2    0    0 -0.16198275748E+03 -0.12737994862E+03  0.23514748175E+03  0.33672395230E+03  0.12499846738E+03 0.  0.
          2    1    1    2  501    0  0.12621136273E+03  0.10365706023E+03 -0.15772233764E+02  0.16408186242E+03  0.00000000000E+00 0. -1.
          1    1    1    2  502    0  0.35771394747E+02  0.23722888394E+02  0.28906232496E+04  0.28909419122E+04  0.00000000000E+00 0. -1.
         22    1    3    3    0    0 -0.72770600601E+02 -0.15747600005E+01  0.26930324866E+02  0.77609809807E+02  0.00000000000E+00 0.  1.
         22    1    3    3    0    0 -0.89212156877E+02 -0.12580518862E+03  0.20821715689E+03  0.25911414249E+03  0.00000000000E+00 0.  1.
</event>
<event>
 7    1  0.6176857E-006  0.6213109E+02  0.7818608E-02  0.1435528E+00
          2   -1    0    0  502    0  0.00000000000E+00  0.00000000000E+00  0.62643574283E+02  0.62643574283E+02  0.00000000000E+00 0. -1.
          1   -1    0    0  501    0 -0.00000000000E+00 -0.00000000000E+00 -0.12246953798E+04  0.12246953798E+04  0.00000000000E+00 0. -1.
         25    2    1    2    0    0 -0.82977131260E+01 -0.10211049462E+03 -0.27402553045E+03  0.31813577404E+03  0.12499989692E+03 0.  0.
          2    1    1    2  501    0  0.28477018783E+01  0.43203630861E+02 -0.90626371089E+03  0.90729740262E+03  0.00000000000E+00 0. -1.
          1    1    1    2  502    0  0.54500112477E+01  0.58906863755E+02  0.18237435778E+02  0.61905777468E+02  0.00000000000E+00 0. -1.
         22    1    3    3    0    0 -0.26441160479E+02 -0.28745654899E+02 -0.58229395238E+01  0.39488659989E+02  0.00000000000E+00 0.  1.
         22    1    3    3    0    0  0.18143447353E+02 -0.73364839717E+02 -0.26820259093E+03  0.27864711405E+03  0.00000000000E+00 0.  1.
</event>
<event>
 7    1  0.6176857E-006  0.5459709E+02  0.7818608E-02  0.1439000E+00
          2   -1    0    0  502    0  0.00000000000E+00  0.00000000000E+00  0.16584190193E+03  0.16584190193E+03  0.00000000000E+00 0. -1.
          1   -1    0    0  501    0 -0.00000000000E+00 -0.00000000000E+00 -0.18326675812E+04  0.18326675812E+04  0.00000000000E+00 0. -1.
         25    2    1    2    0    0  0.61483656549E+02  0.78326773200E+02 -0.31507247106E+03  0.35328543263E+03  0.12499844584E+03 0.  0.
          2    1    1    2  501    0 -0.20248747329E+02 -0.43525687454E+02 -0.14931294592E+04  0.14939009603E+04  0.00000000000E+00 0. -1.
          1    1    1    2  502    0 -0.41234909220E+02 -0.34801085746E+02  0.14137625096E+03  0.15132309025E+03  0.00000000000E+00 0. -1.
         22    1    3    3    0    0  0.40122137310E+01 -0.16952156646E+02 -0.16781208300E+03  0.16871386628E+03  0.00000000000E+00 0. -1.
         22    1    3    3    0    0  0.57471442818E+02  0.95278929846E+02 -0.14726038807E+03  0.18457156635E+03  0.00000000000E+00 0. -1.
</event>
<event>
 7    1  0.6176857E-006  0.1541444E+03  0.7818608E-02  0.1275958E+00
          2   -1    0    0  502    0  0.00000000000E+00  0.00000000000E+00  0.15021241794E+04  0.15021241794E+04  0.00000000000E+00 0. -1.
          1   -1    0    0  501    0 -0.00000000000E+00 -0.00000000000E+00 -0.30410707482E+03  0.30410707482E+03  0.00000000000E+00 0. -1.
         25    2    1    2    0    0  0.96303915840E+02 -0.15777671143E+02  0.23605914096E+03  0.28438195604E+03  0.12500319908E+03 0.  0.
          2    1    1    2  501    0 -0.14763941866E+03  0.59784850434E+02 -0.25627438317E+03  0.30174191912E+03  0.00000000000E+00 0. -1.
          1    1    1    2  502    0  0.51335502823E+02 -0.44007179290E+02  0.12182323468E+04  0.12201073791E+04  0.00000000000E+00 0. -1.
         22    1    3    3    0    0  0.38806395235E+02  0.24297035918E+02  0.88808022192E+01  0.46638513201E+02  0.00000000000E+00 0.  1.
         22    1    3    3    0    0  0.57497520605E+02 -0.40074707062E+02  0.22717833874E+03  0.23774344284E+03  0.00000000000E+00 0.  1.
</event>
<event>
 7    1  0.6176857E-006  0.8859649E+02  0.7818608E-02  0.1323556E+00
          2   -1    0    0  502    0  0.00000000000E+00  0.00000000000E+00  0.27627415309E+04  0.27627415309E+04  0.00000000000E+00 0. -1.
          1   -1    0    0  501    0 -0.00000000000E+00 -0.00000000000E+00 -0.13692339540E+04  0.13692339540E+04  0.00000000000E+00 0. -1.
         25    2    1    2    0    0 -0.13852827139E+03  0.19890019999E+02  0.10520673104E+03  0.21512415140E+03  0.12499699752E+03 0.  0.
          2    1    1    2  501    0  0.68183110161E+02  0.33200124569E+02 -0.13124342359E+04  0.13146234474E+04  0.00000000000E+00 0. -1.
          1    1    1    2  502    0  0.70345161229E+02 -0.53090144568E+02  0.26007350819E+04  0.26022278861E+04  0.00000000000E+00 0. -1.
         22    1    3    3    0    0 -0.13590425724E+03 -0.85302141061E+01  0.12129572641E+03  0.18236059041E+03  0.00000000000E+00 0.  1.
         22    1    3    3    0    0 -0.26240141500E+01  0.28420234105E+02 -0.16088995370E+02  0.32763560992E+02  0.00000000000E+00 0.  1.
</event>
<event>
 7    1  0.6878434E-006  0.1649966E+03  0.7818608E-02  0.1323893E+00
          2   -1    0    0  502    0  0.00000000000E+00  0.00000000000E+00  0.17068096428E+04  0.17068096428E+04  0.00000000000E+00 0. -1.
          1   -1    0    0  501    0 -0.00000000000E+00 -0.00000000000E+00 -0.86484386700E+03  0.86484386700E+03  0.00000000000E+00 0. -1.
         25    2    1    2    0    0  0.73346006258E+01 -0.17309560557E+03 -0.23548853047E+03  0.31795597456E+03  0.12500107498E+03 0.  0.
          2    1    1    2  501    0  0.37928122700E+02  0.14483060050E+02 -0.58333064846E+03  0.58474177801E+03  0.00000000000E+00 0. -1.
          1    1    1    2  502    0 -0.45262723326E+02  0.15861254552E+03  0.16607849547E+04  0.16689557572E+04  0.00000000000E+00 0. -1.
         22    1    3    3    0    0 -0.42866396574E+02 -0.71560972993E+02 -0.41142218772E+02  0.93011735692E+02  0.00000000000E+00 0.  1.
         22    1    3    3    0    0  0.50200997200E+02 -0.10153463258E+03 -0.19434631169E+03  0.22494423887E+03  0.00000000000E+00 0.  1.
</event>
<event>
 7    1  0.6176857E-006  0.8685072E+02  0.7818608E-02  0.1478177E+00
          2   -1    0    0  502    0  0.00000000000E+00  0.00000000000E+00  0.13436333818E+04  0.13436333818E+04  0.00000000000E+00 0. -1.
          1   -1    0    0  501    0 -0.00000000000E+00 -0.00000000000E+00 -0.12137970791E+04  0.12137970791E+04  0.00000000000E+00 0. -1.
         25    2    1    2    0    0 -0.62965018871E+02  0.19624360989E+02  0.71893435642E+02  0.15856658817E+03  0.12499995060E+03 0.  0.
          2    1    1    2  501    0  0.85492495417E+02 -0.16917135710E+02 -0.11687331873E+04  0.11719779944E+04  0.00000000000E+00 0. -1.
          1    1    1    2  502    0 -0.22527476546E+02 -0.27072252793E+01  0.12266760543E+04  0.12268858783E+04  0.00000000000E+00 0. -1.
         22    1    3    3    0    0 -0.18126230995E+02  0.58432290642E+02 -0.50909328095E+01  0.61390638021E+02  0.00000000000E+00 0. -1.
         22    1    3    3    0    0 -0.44838787875E+02 -0.38807929653E+02  0.76984368452E+02  0.97175950152E+02  0.00000000000E+00 0. -1.
</event>
<event>
 7    1  0.6176857E-006  0.4621352E+02  0.7818608E-02  0.1584957E+00
          2   -1    0    0  502    0  0.00000000000E+00  0.00000000000E+00  0.12930702108E+04  0.12930702108E+04  0.00000000000E+00 0. -1.
          1   -1    0    0  501    0 -0.00000000000E+00 -0.00000000000E+00 -0.37912591192E+02  0.37912591192E+02  0.00000000000E+00 0. -1.
         25    2    1    2    0    0  0.13085854290E+02  0.56179098207E+02  0.43001729286E+03  0.45151669573E+03  0.12500049482E+03 0.  0.
          2    1    1    2  501    0  0.11551484464E+02 -0.17650100332E+02 -0.22355950455E+02  0.30736807833E+02  0.00000000000E+00 0. -1.
          1    1    1    2  502    0 -0.24637338754E+02 -0.38528997876E+02  0.84749627720E+03  0.84872929843E+03  0.00000000000E+00 0. -1.
         22    1    3    3    0    0  0.80007724479E+01 -0.24155431429E+02  0.28098739887E+03  0.28213722823E+03  0.00000000000E+00 0. -1.
         22    1    3    3    0    0  0.50850818416E+01  0.80334529636E+02  0.14902989399E+03  0.16937946750E+03  0.00000000000E+00 0. -1.
</event>
<event>
 7    1  0.6176857E-006  0.7132315E+02  0.7818608E-02  0.1430234E+00
          2   -1    0    0  502    0  0.00000000000E+00  0.00000000000E+00  0.14453817429E+04  0.14453817429E+04  0.00000000000E+00 0. -1.
          1   -1    0    0  501    0 -0.00000000000E+00 -0.00000000000E+00 -0.14597616629E+04  0.14597616629E+04  0.00000000000E+00 0. -1.
         25    2    1    2    0    0 -0.14226453191E+02  0.88116512711E+02  0.26252853635E+03  0.30415978780E+03  0.12500012932E+03 0.  0.
          2    1    1    2  501    0 -0.19773919427E+02 -0.68496683086E+02 -0.14377309820E+04  0.14394975444E+04  0.00000000000E+00 0. -1.
          1    1    1    2  502    0  0.34000372618E+02 -0.19619829626E+02  0.11608225257E+04  0.11614860736E+04  0.00000000000E+00 0. -1.
         22    1    3    3    0    0  0.92596548012E+01  0.11616551919E+03  0.18912642352E+03  0.22214628768E+03  0.00000000000E+00 0. -1.
         22    1    3    3    0    0 -0.23486107992E+02 -0.28049006482E+02  0.73402112829E+02  0.82013500115E+02  0.00000000000E+00 0. -1.
</event>
<event>
 7    1  0.6176857E-006  0.5808066E+03  0.7818608E-02  0.1083467E+00
          2   -1    0    0  502    0  0.00000000000E+00  0.00000000000E+00  0.28872965030E+04  0.28872965030E+04  0.00000000000E+00 0. -1.
          1   -1    0    0  501    0 -0.00000000000E+00 -0.00000000000E+00 -0.17065923409E+04  0.17065923409E+04  0.00000000000E+00 0. -1.
         25    2    1    2    0    0 -0.17221430895E+03 -0.55003621538E+03  0.50024210079E+02  0.59188032500E+03  0.12498916390E+03 0.  0.
          2    1    1    2  501    0  0.31919684951E+03  0.49025944168E+03 -0.13734525535E+04  0.14928539331E+04  0.00000000000E+00 0. -1.
          1    1    1    2  502    0 -0.14698254055E+03  0.59776773700E+02  0.25041325055E+04  0.25091545857E+04  0.00000000000E+00 0. -1.
         22    1    3    3    0    0 -0.18152003592E+03 -0.55074668184E+03  0.45980792291E+02  0.58170926093E+03  0.00000000000E+00 0.  1.
         22    1    3    3    0    0  0.93057269648E+01  0.71046645635E+00  0.40434177887E+01  0.10171064071E+02  0.00000000000E+00 0.  1.
</event>
<event>
 7    1  0.6176857E-006  0.1542494E+03  0.7818608E-02  0.1258903E+00
          2   -1    0    0  502    0  0.00000000000E+00  0.00000000000E+00  0.77042046303E+03  0.77042046303E+03  0.00000000000E+00 0. -1.
          1   -1    0    0  501    0 -0.00000000000E+00 -0.00000000000E+00 -0.27804946424E+03  0.27804946424E+03  0.00000000000E+00 0. -1.
         25    2    1    2    0    0 -0.89751211093E+02  0.59472817857E+02  0.19922535712E+02  0.16617581098E+03  0.12500078708E+03 0.  0.
          2    1    1    2  501    0 -0.70500629673E+02 -0.37258044426E+02 -0.18699918464E+03  0.20329091400E+03  0.00000000000E+00 0. -1.
          1    1    1    2  502    0  0.16025184077E+03 -0.22214773431E+02  0.65944764772E+03  0.67900320229E+03  0.00000000000E+00 0. -1.
         22    1    3    3    0    0  0.20623085675E+01 -0.21806120427E+02  0.36370047321E+02  0.42456334590E+02  0.00000000000E+00 0.  1.
         22    1    3    3    0    0 -0.91813519661E+02  0.81278938284E+02 -0.16447511609E+02  0.12371947639E+03  0.00000000000E+00 0.  1.
</event>
<event>
 7    1  0.6176857E-006  0.6292347E+02  0.7818608E-02  0.1476583E+00
          2   -1    0    0  502    0  0.00000000000E+00  0.00000000000E+00  0.43168119413E+03  0.43168119413E+03  0.00000000000E+00 0. -1.
          1   -1    0    0  501    0 -0.00000000000E+00 -0.00000000000E+00 -0.41914927978E+02  0.41914927978E+02  0.00000000000E+00 0. -1.
         25    2    1    2    0    0 -0.18929279760E+02  0.51559577569E+02  0.19698527277E+03  0.23967745071E+03  0.12500150006E+03 0.  0.
          2    1    1    2  501    0 -0.93392283402E+01 -0.65845337281E+02  0.39395303009E+02  0.77296956776E+02  0.00000000000E+00 0. -1.
          1    1    1    2  502    0  0.28268508100E+02  0.14285759712E+02  0.15338569037E+03  0.15662171462E+03  0.00000000000E+00 0. -1.
         22    1    3    3    0    0  0.14362807181E+02  0.84300338829E+02  0.96914434872E+02  0.12924877192E+03  0.00000000000E+00 0.  1.
         22    1    3    3    0    0 -0.33292086941E+02 -0.32740761260E+02  0.10007083790E+03  0.11042867878E+03  0.00000000000E+00 0.  1.
</event>
<event>
 7    1  0.6176857E-006  0.7726470E+02  0.7818608E-02  0.1422543E+00
          2   -1    0    0  502    0  0.00000000000E+00  0.00000000000E+00  0.26333367565E+04  0.26333367565E+04  0.00000000000E+00 0. -1.
          1   -1    0    0  501    0 -0.00000000000E+00 -0.00000000000E+00 -0.31852781725E+02  0.31852781725E+02  0.00000000000E+00 0. -1.
         25    2    1    2    0    0 -0.79714565418E+02 -0.33236308365E+01  0.17013966842E+04  0.17078468044E+04  0.12499828703E+03 0.  0.
          2    1    1    2  501    0  0.69722445852E+02 -0.33777934193E+02  0.24992958160E+02  0.81405259361E+02  0.00000000000E+00 0. -1.
          1    1    1    2  502    0  0.99921195657E+01  0.37101565030E+02  0.87509433240E+03  0.87593747447E+03  0.00000000000E+00 0. -1.
         22    1    3    3    0    0 -0.19812756660E+02  0.53153027517E+02  0.42075893837E+03  0.42456551188E+03  0.00000000000E+00 0.  1.
         22    1    3    3    0    0 -0.59901808759E+02 -0.56476658354E+02  0.12806377458E+04  0.12832812925E+04  0.00000000000E+00 0.  1.
</event>
<event>
 7    1  0.6176857E-006  0.5568878E+02  0.7818608E-02  0.1437257E+00
          2   -1    0    0  502    0  0.00000000000E+00  0.00000000000E+00  0.42192055822E+03  0.42192055822E+03  0.00000000000E+00 0. -1.
          1   -1    0    0  501    0 -0.00000000000E+00 -0.00000000000E+00 -0.14230207552E+03  0.14230207552E+03  0.00000000000E+00 0. -1.
         25    2    1    2    0    0 -0.54581777201E+02  0.49426167109E+02  0.51931038184E+02  0.15408841286E+03  0.12499715938E+03 0.  0.
          2    1    1    2  501    0  0.72316088207E+01 -0.55048120451E+02 -0.80770475039E+02  0.98012557203E+02  0.00000000000E+00 0. -1.
          1    1    1    2  502    0  0.47350168380E+02  0.56219533422E+01  0.30845791955E+03  0.31212166368E+03  0.00000000000E+00 0. -1.
         22    1    3    3    0    0 -0.70202086705E+02  0.89259067377E+01  0.76497573011E+02  0.10421076463E+03  0.00000000000E+00 0. -1.
         22    1    3    3    0    0  0.15620309504E+02  0.40500260372E+02 -0.24566534827E+02  0.49877648226E+02  0.00000000000E+00 0. -1.
</event>
<event>
 7    1  0.6176857E-006  0.8272970E+02  0.7818608E-02  0.1436137E+00
          2   -1    0    0  502    0  0.00000000000E+00  0.00000000000E+00  0.78601509274E+03  0.78601509274E+03  0.00000000000E+00 0. -1.
          1   -1    0    0  501    0 -0.00000000000E+00 -0.00000000000E+00 -0.88645303470E+03  0.88645303470E+03  0.00000000000E+00 0. -1.
         25    2    1    2    0    0 -0.20633441906E+02  0.10440874481E+03  0.33426082213E+03  0.37240113509E+03  0.12500153314E+03 0.  0.
          2    1    1    2  501    0 -0.81602758863E+01 -0.31322673367E+02 -0.86351182597E+03  0.86411826364E+03  0.00000000000E+00 0. -1.
          1    1    1    2  502    0  0.28793717792E+02 -0.73086071438E+02  0.42881306188E+03  0.43594872871E+03  0.00000000000E+00 0. -1.
         22    1    3    3    0    0  0.30452137012E-01 -0.10711084459E+02 -0.62238644815E+01  0.12388088904E+02  0.00000000000E+00 0. -1.
         22    1    3    3    0    0 -0.20663894043E+02  0.11511982926E+03  0.34048468662E+03  0.36001304619E+03  0.00000000000E+00 0. -1.
</event>
<event>
 7    1  0.6176857E-006  0.5127490E+02  0.7818608E-02  0.1532430E+00
          2   -1    0    0  502    0  0.00000000000E+00  0.00000000000E+00  0.26618840289E+04  0.26618840289E+04  0.00000000000E+00 0. -1.
          1   -1    0    0  501    0 -0.00000000000E+00 -0.00000000000E+00 -0.71489704471E+01  0.71489704471E+01  0.00000000000E+00 0. -1.
         25    2    1    2    0    0 -0.47004897899E+01 -0.34899049619E+02  0.23121938453E+04  0.23158379777E+04  0.12500049010E+03 0.  0.
          2    1    1    2  501    0  0.29872774023E+02  0.43311378928E+02  0.15275988283E+03  0.16156682820E+03  0.00000000000E+00 0. -1.
          1    1    1    2  502    0 -0.25172284234E+02 -0.84123293085E+01  0.18978133032E+03  0.19162819343E+03  0.00000000000E+00 0. -1.
         22    1    3    3    0    0  0.11649323756E+02  0.45046736016E+01  0.22400407505E+02  0.25647165235E+02  0.00000000000E+00 0. -1.
         22    1    3    3    0    0 -0.16349813545E+02 -0.39403723221E+02  0.22897934378E+04  0.22901908125E+04  0.00000000000E+00 0. -1.
</event>
<event>
 7    1  0.6176857E-006  0.4825852E+02  0.7818608E-02  0.1535411E+00
          2   -1    0    0  502    0  0.00000000000E+00  0.00000000000E+00  0.81789282958E+01  0.81789282958E+01  0.00000000000E+00 0. -1.
          1   -1    0    0  501    0 -0.00000000000E+00 -0.00000000000E+00 -0.26356063459E+04  0.26356063459E+04  0.00000000000E+00 0. -1.
         25    2    1    2    0    0 -0.59348203255E+02  0.17600463217E+02 -0.11581236362E+04  0.11664929736E+04  0.12499406030E+03 0.  0.
          2    1    1    2  501    0  0.24027826139E+02  0.13688432864E+02 -0.13285889506E+04  0.13288767096E+04  0.00000000000E+00 0. -1.
          1    1    1    2  502    0  0.35320377117E+02 -0.31288896082E+02 -0.14071483079E+03  0.14841559103E+03  0.00000000000E+00 0. -1.
         22    1    3    3    0    0 -0.59043434223E+02  0.16211272759E+02 -0.21981301613E+03  0.22818127563E+03  0.00000000000E+00 0.  1.
         22    1    3    3    0    0 -0.30476903210E+00  0.13891904587E+01 -0.93831062007E+03  0.93831169793E+03  0.00000000000E+00 0.  1.
</event>
<event>
 7    1  0.6176857E-006  0.5443135E+02  0.7818608E-02  0.1494638E+00
          2   -1    0    0  502    0  0.00000000000E+00  0.00000000000E+00  0.15810641238E+04  0.15810641238E+04  0.00000000000E+00 0. -1.
          1   -1    0    0  501    0 -0.00000000000E+00 -0.00000000000E+00 -0.13990034678E+03  0.13990034678E+03  0.00000000000E+00 0. -1.
         25    2    1    2    0    0  0.37657081336E+02  0.26427807114E+02  0.66450281895E+03  0.67771962467E+03  0.12499363385E+03 0.  0.
          2    1    1    2  501    0 -0.17566027623E+02 -0.51670860114E+02 -0.12740580754E+03  0.13860260786E+03  0.00000000000E+00 0. -1.
          1    1    1    2  502    0 -0.20091053713E+02  0.25243053000E+02  0.90406676560E+03  0.90464223803E+03  0.00000000000E+00 0. -1.
         22    1    3    3    0    0  0.44808781240E+02 -0.43764652773E+02  0.31293052636E+03  0.31913740933E+03  0.00000000000E+00 0. -1.
         22    1    3    3    0    0 -0.71516999038E+01  0.70192459888E+02  0.35157229260E+03  0.35858221534E+03  0.00000000000E+00 0. -1.
</event>
<event>
 7    1  0.6176857E-006  0.1364641E+03  0.7818608E-02  0.1290610E+00
          2   -1    0    0  502    0  0.00000000000E+00  0.00000000000E+00  0.45940665240E+02  0.45940665240E+02  0.00000000000E+00 0. -1.
          1   -1    0    0  501    0 -0.00000000000E+00 -0.00000000000E+00 -0.34976992656E+04  0.34976992656E+04  0.00000000000E+00 0. -1.
         25    2    1    2    0    0 -0.77624576401E+02  0.17601186188E+03 -0.16063682240E+04  0.16226673239E+04  0.12499848967E+03 0.  0.
          2    1    1    2  501    0  0.47011127459E+02 -0.47013493741E+02 -0.17643139515E+04  0.17655662078E+04  0.00000000000E+00 0. -1.
          1    1    1    2  502    0  0.30613448942E+02 -0.12899836814E+03 -0.81076424856E+02  0.15540639918E+03  0.00000000000E+00 0. -1.
         22    1    3    3    0    0  0.17593037755E+02  0.11025977646E+03 -0.68103737190E+03  0.69012943366E+03  0.00000000000E+00 0. -1.
         22    1    3    3    0    0 -0.95217614156E+02  0.65752085425E+02 -0.92533085212E+03  0.93253789021E+03  0.00000000000E+00 0. -1.
</event>
<event>
 7    1  0.6176857E-006  0.7458043E+02  0.7818608E-02  0.1386856E+00
          2   -1    0    0  502    0  0.00000000000E+00  0.00000000000E+00  0.11360600806E+04  0.11360600806E+04  0.00000000000E+00 0. -1.
          1   -1    0    0  501    0 -0.00000000000E+00 -0.00000000000E+00 -0.25828947104E+03  0.25828947104E+03  0.00000000000E+00 0. -1.
         25    2    1    2    0    0  0.30356324189E+02  0.31740634875E+02 -0.50232240022E+02  0.14169293721E+03  0.12499854478E+03 0.  0.
          2    1    1    2  501    0 -0.29881076819E+02  0.43415075800E+02 -0.15671401850E+03  0.16533913981E+03  0.00000000000E+00 0. -1.
          1    1    1    2  502    0 -0.47524736958E+00 -0.75155710675E+02  0.10847168681E+04  0.10873174746E+04  0.00000000000E+00 0. -1.
         22    1    3    3    0    0  0.38950768056E+02  0.73406436951E+02 -0.11006312322E+02  0.83826047437E+02  0.00000000000E+00 0. -1.
         22    1    3    3    0    0 -0.85944438671E+01 -0.41665802076E+02 -0.39225927700E+02  0.57866889773E+02  0.00000000000E+00 0. -1.
</event>
<event>
 7    1  0.6176857E-006  0.1686180E+03  0.7818608E-02  0.1197584E+00
          2   -1    0    0  502    0  0.00000000000E+00  0.00000000000E+00  0.23241646028E+03  0.23241646028E+03  0.00000000000E+00 0. -1.
          1   -1    0    0  501    0 -0.00000000000E+00 -0.00000000000E+00 -0.45203078541E+03  0.45203078541E+03  0.00000000000E+00 0. -1.
         25    2    1    2    0    0 -0.54117102415E+01 -0.11614847516E+03 -0.23626280576E+02  0.17234615160E+03  0.12500095979E+03 0.  0.
          2    1    1    2  501    0  0.16619963321E+03  0.28455656892E+02 -0.26690290057E+03  0.31570429332E+03  0.00000000000E+00 0. -1.
          1    1    1    2  502    0 -0.16078792297E+03  0.87692818264E+02  0.70914856025E+02  0.19639680077E+03  0.00000000000E+00 0. -1.
         22    1    3    3    0    0  0.17269986161E+02 -0.10647796504E+03  0.31149160660E+02  0.11227679935E+03  0.00000000000E+00 0. -1.
         22    1    3    3    0    0 -0.22681696402E+02 -0.96705101114E+01 -0.54775441235E+02  0.60069352252E+02  0.00000000000E+00 0. -1.
</event>
<event>
 7    1  0.6176857E-006  0.5957472E+02  0.7818608E-02  0.1427514E+00
          2   -1    0    0  502    0  0.00000000000E+00  0.00000000000E+00  0.25020997236E+03  0.25020997236E+03  0.00000000000E+00 0. -1.
          1   -1    0    0  501    0 -0.00000000000E+00 -0.00000000000E+00 -0.95220512811E+03  0.95220512811E+03  0.00000000000E+00 0. -1.
         25    2    1    2    0    0 -0.36825179976E+02 -0.89786709835E+02 -0.58931185989E+03  0.61018905719E+03  0.12499788066E+03 0.  0.
          2    1    1    2  501    0 -0.50833738515E+01  0.47706888260E+02 -0.34710166639E+03  0.35040170474E+03  0.00000000000E+00 0. -1.
          1    1    1    2  502    0  0.41908553828E+02  0.42079821575E+02  0.23441837053E+03  0.24182433854E+03  0.00000000000E+00 0. -1.
         22    1    3    3    0    0 -0.77696428094E+02 -0.86290260244E+02 -0.40172477853E+03  0.41816927391E+03  0.00000000000E+00 0.  1.
         22    1    3    3    0    0  0.40871248117E+02 -0.34964495907E+01 -0.18758708136E+03  0.19201978329E+03  0.00000000000E+00 0.  1.
</event>
<event>
 7    1  0.6176857E-006  0.1124810E+03  0.7818608E-02  0.1309368E+00
          2   -1    0    0  502    0  0.00000000000E+00  0.00000000000E+00  0.10329586336E+04  0.10329586336E+04  0.00000000000E+00 0. -1.
          1   -1    0    0  501    0 -0.00000000000E+00 -0.00000000000E+00 -0.37953320867E+03  0.37953320867E+03  0.00000000000E+00 0. -1.
         25    2    1    2    0    0 -0.97806514275E+02 -0.32557379518E+02  0.23630367702E+03  0.28651428042E+03  0.12499963165E+03 0.  0.
          2    1    1    2  501    0  0.65855869198E+02  0.92417145413E+02 -0.34379578728E+03  0.36204069885E+03  0.00000000000E+00 0. -1.
          1    1    1    2  502    0  0.31950645077E+02 -0.59859765896E+02  0.76091753516E+03  0.76393686297E+03  0.00000000000E+00 0. -1.
         22    1    3    3    0    0 -0.12622131933E+03 -0.16819129894E+02  0.16729839152E+03  0.21024618044E+03  0.00000000000E+00 0. -1.
         22    1    3    3    0    0  0.28414805051E+02 -0.15738249623E+02  0.69005285503E+02  0.76268099981E+02  0.00000000000E+00 0. -1.
</event>
<event>
 7    1  0.6176857E-006  0.1108535E+03  0.7818608E-02  0.1326036E+00
          2   -1    0    0  502    0  0.00000000000E+00  0.00000000000E+00  0.16032618193E+03  0.16032618193E+03  0.00000000000E+00 0. -1.
          1   -1    0    0  501    0 -0.00000000000E+00 -0.00000000000E+00 -0.97793113057E+03  0.97793113057E+03  0.00000000000E+00 0. -1.
         25    2    1    2    0    0  0.67112674745E+02  0.24704886650E+02 -0.32654557331E+03  0.35689210959E+03  0.12500209560E+03 0.  0.
          2    1    1    2  501    0 -0.11022679619E+03 -0.65406961872E+02 -0.62335234079E+03  0.63639308452E+03  0.00000000000E+00 0. -1.
          1    1    1    2  502    0  0.43114121448E+02  0.40702075222E+02  0.13229296547E+03  0.14497211838E+03  0.00000000000E+00 0. -1.
         22    1    3    3    0    0 -0.32893582463E+02 -0.89746470710E+01 -0.46783418089E+02  0.57889725042E+02  0.00000000000E+00 0. -1.
         22    1    3    3    0    0  0.10000625721E+03  0.33679533721E+02 -0.27976215522E+03  0.29900238455E+03  0.00000000000E+00 0. -1.
</event>
<event>
 7    1  0.6176857E-006  0.2990765E+02  0.7818608E-02  0.1640949E+00
          2   -1    0    0  502    0  0.00000000000E+00  0.00000000000E+00  0.38670933859E+03  0.38670933859E+03  0.00000000000E+00 0. -1.
          1   -1    0    0  501    0 -0.00000000000E+00 -0.00000000000E+00 -0.15559262149E+04  0.15559262149E+04  0.00000000000E+00 0. -1.
         25    2    1    2    0    0  0.29657469685E+02  0.43056031524E+02 -0.69518908084E+03  0.70826997788E+03  0.12500046435E+03 0.  0.
          2    1    1    2  501    0 -0.17166990299E+02 -0.15901404996E+02 -0.85344857869E+03  0.85376931117E+03  0.00000000000E+00 0. -1.
          1    1    1    2  502    0 -0.12490479386E+02 -0.27154626527E+02  0.37942078318E+03  0.38059626447E+03  0.00000000000E+00 0. -1.
         22    1    3    3    0    0  0.69657298810E+02  0.82590307021E+01 -0.53396107888E+03  0.53854877646E+03  0.00000000000E+00 0.  1.
         22    1    3    3    0    0 -0.39999829124E+02  0.34797000821E+02 -0.16122800195E+03  0.16972120142E+03  0.00000000000E+00 0.  1.
</event>
<event>
 7    1  0.6176857E-006  0.5067402E+02  0.7818608E-02  0.1442024E+00
          2   -1    0    0  502    0  0.00000000000E+00  0.00000000000E+00  0.15154261131E+03  0.15154261131E+03  0.00000000000E+00 0. -1.
          1   -1    0    0  501    0 -0.00000000000E+00 -0.00000000000E+00 -0.10598794685E+04  0.10598794685E+04  0.00000000000E+00 0. -1.
         25    2    1    2    0    0  0.45490209472E+01 -0.20514741378E+02 -0.23873695878E+03  0.27029920514E+03  0.12499910641E+03 0.  0.
          2    1    1    2  501    0  0.46877062138E+02  0.19245707798E+02 -0.79965745367E+03  0.80126144263E+03  0.00000000000E+00 0. -1.
          1    1    1    2  502    0 -0.51426083085E+02  0.12690335804E+01  0.13005755531E+03  0.13986143200E+03  0.00000000000E+00 0. -1.
         22    1    3    3    0    0 -0.10181180101E+01 -0.46555548087E+01  0.15137005260E+02  0.15869457556E+02  0.00000000000E+00 0.  1.
         22    1    3    3    0    0  0.55671389573E+01 -0.15859186570E+02 -0.25387396404E+03  0.25442974758E+03  0.00000000000E+00 0.  1.
</event>
<event>
 7    1  0.6176857E-006  0.7225287E+02  0.7818608E-02  0.1413601E+00
          2   -1    0    0  502    0  0.00000000000E+00  0.00000000000E+00  0.11000432120E+03  0.11000432120E+03  0.00000000000E+00 0. -1.
          1   -1    0    0  501    0 -0.00000000000E+00 -0.00000000000E+00 -0.18538963431E+04  0.18538963431E+04  0.00000000000E+00 0. -1.
         25    2    1    2    0    0  0.84818780084E+02  0.33214555726E+02 -0.20442405954E+03  0.25634270601E+03  0.12499981856E+03 0.  0.
          2    1    1    2  501    0 -0.38450799171E+02  0.21435470615E+02 -0.16078773702E+04  0.16084798976E+04  0.00000000000E+00 0. -1.
          1    1    1    2  502    0 -0.46367980914E+02 -0.54650026341E+02  0.68409407834E+02  0.99078060706E+02  0.00000000000E+00 0. -1.
         22    1    3    3    0    0  0.24345571774E+02  0.46814749307E+02 -0.11907141265E+02  0.54093508213E+02  0.00000000000E+00 0. -1.
         22    1    3    3    0    0  0.60473208310E+02 -0.13600193581E+02 -0.19251691828E+03  0.20224919780E+03  0.00000000000E+00 0. -1.
</event>
<event>
 7    1  0.6176857E-006  0.1100765E+03  0.7818608E-02  0.1290535E+00
          2   -1    0    0  502    0  0.00000000000E+00  0.00000000000E+00  0.12280198901E+04  0.12280198901E+04  0.00000000000E+00 0. -1.
          1   -1    0    0  501    0 -0.00000000000E+00 -0.00000000000E+00 -0.24095009657E+03  0.24095009657E+03  0.00000000000E+00 0. -1.
         25    2    1    2    0    0  0.13805168199E+03 -0.55295399948E+02  0.24725457467E+03  0.31444374253E+03  0.12499677743E+03 0.  0.
          2    1    1    2  501    0 -0.31616286131E+02  0.76181235539E+02 -0.19589461759E+03  0.21255086779E+03  0.00000000000E+00 0. -1.
          1    1    1    2  502    0 -0.10643539586E+03 -0.20885835591E+02  0.93570983643E+03  0.94197537633E+03  0.00000000000E+00 0. -1.
         22    1    3    3    0    0  0.51448730260E+02 -0.51180021741E+02  0.20603830670E+03  0.21844484498E+03  0.00000000000E+00 0. -1.
         22    1    3    3    0    0  0.86602951733E+02 -0.41153782075E+01  0.41216267973E+02  0.95998897558E+02  0.00000000000E+00 0. -1.
</event>
<event>
 7    1  0.6176857E-006  0.7074569E+02  0.7818608E-02  0.1366524E+00
          2   -1    0    0  502    0  0.00000000000E+00  0.00000000000E+00  0.16713632842E+04  0.16713632842E+04  0.00000000000E+00 0. -1.
          1   -1    0    0  501    0 -0.00000000000E+00 -0.00000000000E+00 -0.42078702412E+03  0.42078702412E+03  0.00000000000E+00 0. -1.
         25    2    1    2    0    0  0.58435826368E+01  0.79702017174E+01  0.46585086002E+03  0.48243571309E+03  0.12501808632E+03 0.  0.
          2    1    1    2  501    0  0.20050969983E+02 -0.68282650457E+02 -0.40851647345E+03  0.41466886890E+03  0.00000000000E+00 0. -1.
          1    1    1    2  502    0 -0.25894552620E+02  0.60312448740E+02  0.11932418735E+04  0.11950457263E+04  0.00000000000E+00 0. -1.
         22    1    3    3    0    0  0.57509268738E+02 -0.10048718642E+02  0.13488319778E+03  0.14697540536E+03  0.00000000000E+00 0.  1.
         22    1    3    3    0    0 -0.51665686102E+02  0.18018920360E+02  0.33096766224E+03  0.33546030773E+03  0.00000000000E+00 0.  1.
</event>
<event>
 7    1  0.6176857E-006  0.6913548E+02  0.7818608E-02  0.1390381E+00
          2   -1    0    0  502    0  0.00000000000E+00  0.00000000000E+00  0.40779826205E+03  0.40779826205E+03  0.00000000000E+00 0. -1.
          1   -1    0    0  501    0 -0.00000000000E+00 -0.00000000000E+00 -0.10554674808E+04  0.10554674808E+04  0.00000000000E+00 0. -1.
         25    2    1    2    0    0 -0.63319407669E+02  0.85252237042E+02 -0.45305925110E+03  0.48183485427E+03  0.12499940190E+03 0.  0.
          2    1    1    2  501    0  0.12132990061E+01 -0.55250985251E+02 -0.58368206804E+03  0.58629250380E+03  0.00000000000E+00 0. -1.
          1    1    1    2  502    0  0.62106108663E+02 -0.30001251791E+02  0.38907210038E+03  0.39513838479E+03  0.00000000000E+00 0. -1.
         22    1    3    3    0    0 -0.56632355179E+02 -0.74406988848E+01 -0.86344634993E+02  0.10352769506E+03  0.00000000000E+00 0.  1.
         22    1    3    3    0    0 -0.66870524896E+01  0.92692935926E+02 -0.36671461611E+03  0.37830715921E+03  0.00000000000E+00 0.  1.
</event>
<event>
 7    1  0.6176857E-006  0.2086896E+03  0.7818608E-02  0.1349202E+00
          2   -1    0    0  502    0  0.00000000000E+00  0.00000000000E+00  0.42252768408E+03  0.42252768408E+03  0.00000000000E+00 0. -1.
          1   -1    0    0  501    0 -0.00000000000E+00 -0.00000000000E+00 -0.61913552337E+03  0.61913552337E+03  0.00000000000E+00 0. -1.
         25    2    1    2    0    0 -0.12557576439E+02  0.18724985022E+03 -0.12396580553E+02  0.22582901735E+03  0.12499948294E+03 0.  0.
          2    1    1    2  501    0  0.18027328915E+02 -0.21241148056E+03 -0.47671062040E+03  0.52220363582E+03  0.00000000000E+00 0. -1.
          1    1    1    2  502    0 -0.54697524761E+01  0.25161630343E+02  0.29249936166E+03  0.29363055428E+03  0.00000000000E+00 0. -1.
         22    1    3    3    0    0  0.41228105622E+02  0.86687513099E+02  0.35213965593E+02  0.10224727377E+03  0.00000000000E+00 0.  1.
         22    1    3    3    0    0 -0.53785682061E+02  0.10056233712E+03 -0.47610546146E+02  0.12358174358E+03  0.00000000000E+00 0.  1.
</event>
<event>
 7    1  0.6176857E-006  0.1026391E+03  0.7818608E-02  0.1401398E+00
          2   -1    0    0  502    0  0.00000000000E+00  0.00000000000E+00  0.91076668078E+03  0.91076668078E+03  0.00000000000E+00 0. -1.
          1   -1    0    0  501    0 -0.00000000000E+00 -0.00000000000E+00 -0.56384646231E+03  0.56384646231E+03  0.00000000000E+00 0. -1.
         25    2    1    2    0    0  0.57303331851E+02 -0.60757753976E+02 -0.14160199119E+03  0.20653552805E+03  0.12502249370E+03 0.  0.
          2    1    1    2  501    0 -0.51570247317E+02  0.94369708174E+02 -0.38201981767E+03  0.39686808050E+03  0.00000000000E+00 0. -1.
          1    1    1    2  502    0 -0.57330845349E+01 -0.33611954198E+02  0.87054202732E+03  0.87120953453E+03  0.00000000000E+00 0. -1.
         22    1    3    3    0    0  0.54450106913E+02  0.21658888594E+02 -0.95534068628E+02  0.11207443895E+03  0.00000000000E+00 0.  1.
         22    1    3    3    0    0  0.28532249384E+01 -0.82416642570E+02 -0.46067922562E+02  0.94461089101E+02  0.00000000000E+00 0.  1.
</event>
<event>
 7    1  0.6176857E-006  0.9578776E+02  0.7818608E-02  0.1302415E+00
          2   -1    0    0  502    0  0.00000000000E+00  0.00000000000E+00  0.42666168844E+03  0.42666168844E+03  0.00000000000E+00 0. -1.
          1   -1    0    0  501    0 -0.00000000000E+00 -0.00000000000E+00 -0.12633908745E+04  0.12633908745E+04  0.00000000000E+00 0. -1.
         25    2    1    2    0    0  0.50331186565E+02  0.43927907025E+02 -0.16198788902E+03  0.21523898247E+03  0.12499941612E+03 0.  0.
          2    1    1    2  501    0  0.42861674465E+02 -0.73287895753E+02 -0.10670998196E+04  0.10704719818E+04  0.00000000000E+00 0. -1.
          1    1    1    2  502    0 -0.93192861030E+02  0.29359988728E+02  0.39235852251E+03  0.40434159874E+03  0.00000000000E+00 0. -1.
         22    1    3    3    0    0 -0.33874900558E+02  0.36735076255E+02 -0.95215593585E+02  0.10753131626E+03  0.00000000000E+00 0. -1.
         22    1    3    3    0    0  0.84206087123E+02  0.71928307703E+01 -0.66772295432E+02  0.10770766621E+03  0.00000000000E+00 0. -1.
</event>
<event>
 7    1  0.6176857E-006  0.1201804E+03  0.7818608E-02  0.1292055E+00
          2   -1    0    0  502    0  0.00000000000E+00  0.00000000000E+00  0.86719842750E+03  0.86719842750E+03  0.00000000000E+00 0. -1.
          1   -1    0    0  501    0 -0.00000000000E+00 -0.00000000000E+00 -0.10654834062E+04  0.10654834062E+04  0.00000000000E+00 0. -1.
         25    2    1    2    0    0 -0.12142804613E+03 -0.79411790834E+02  0.44877420933E+02  0.19669741532E+03  0.12499954949E+03 0.  0.
          2    1    1    2  501    0  0.68906027248E+02 -0.28275227214E+02 -0.98334794248E+03  0.98616464398E+03  0.00000000000E+00 0. -1.
          1    1    1    2  502    0  0.52522018886E+02  0.10768701805E+03  0.74018554282E+03  0.74981977443E+03  0.00000000000E+00 0. -1.
         22    1    3    3    0    0  0.14737751705E+01 -0.52849015506E+02  0.47292033320E+02  0.70934666199E+02  0.00000000000E+00 0. -1.
         22    1    3    3    0    0 -0.12290182130E+03 -0.26562775328E+02 -0.24146123874E+01  0.12576274912E+03  0.00000000000E+00 0. -1.
</event>
<event>
 7    1  0.6176857E-006  0.1473720E+03  0.7818608E-02  0.1335725E+00
          2   -1    0    0  502    0  0.00000000000E+00  0.00000000000E+00  0.69651769397E+03  0.69651769397E+03  0.00000000000E+00 0. -1.
          1   -1    0    0  501    0 -0.00000000000E+00 -0.00000000000E+00 -0.87462968455E+03  0.87462968455E+03  0.00000000000E+00 0. -1.
         25    2    1    2    0    0 -0.29296016884E+02  0.11336580335E+03  0.35403480257E+02  0.17489615348E+03  0.12500078445E+03 0.  0.
          2    1    1    2  501    0  0.94642150875E+01 -0.14920513403E+03 -0.79721690738E+03  0.81111438207E+03  0.00000000000E+00 0. -1.
          1    1    1    2  502    0  0.19831801796E+02  0.35839330684E+02  0.58370143654E+03  0.58513684298E+03  0.00000000000E+00 0. -1.
         22    1    3    3    0    0  0.39193386967E+02  0.51099777126E+00  0.60530113356E+01  0.39661336928E+02  0.00000000000E+00 0. -1.
         22    1    3    3    0    0 -0.68489403850E+02  0.11285480558E+03  0.29350468921E+02  0.13523481655E+03  0.00000000000E+00 0. -1.
</event>
<event>
 7    1  0.6176857E-006  0.1645438E+03  0.7818608E-02  0.1214040E+00
          2   -1    0    0  502    0  0.00000000000E+00  0.00000000000E+00  0.17401435690E+04  0.17401435690E+04  0.00000000000E+00 0. -1.
          1   -1    0    0  501    0 -0.00000000000E+00 -0.00000000000E+00 -0.12738090434E+03  0.12738090434E+03  0.00000000000E+00 0. -1.
         25    2    1    2    0    0 -0.24344676348E+02 -0.11654977996E+03  0.14308080129E+03  0.22422850345E+03  0.12501916488E+03 0.  0.
          2    1    1    2  501    0 -0.66875824428E+02  0.19175177224E+03  0.37830920719E+02  0.20657273927E+03  0.00000000000E+00 0. -1.
          1    1    1    2  502    0  0.91220500776E+02 -0.75201992278E+02  0.14318509427E+04  0.14367232306E+04  0.00000000000E+00 0. -1.
         22    1    3    3    0    0 -0.20053307237E+02 -0.59523898937E+02  0.15372244211E+03  0.16605968470E+03  0.00000000000E+00 0.  1.
         22    1    3    3    0    0 -0.42913691107E+01 -0.57025881022E+02 -0.10641640819E+02  0.58168818747E+02  0.00000000000E+00 0.  1.
</event>
<event>
 7    1  0.6176857E-006  0.5120774E+02  0.7818608E-02  0.1472166E+00
          2   -1    0    0  502    0  0.00000000000E+00  0.00000000000E+00  0.10787243448E+04  0.10787243448E+04  0.00000000000E+00 0. -1.
          1   -1    0    0  501    0 -0.00000000000E+00 -0.00000000000E+00 -0.50976263633E+03  0.50976263633E+03  0.00000000000E+00 0. -1.
         25    2    1    2    0    0 -0.35551362573E+02 -0.48329554781E+00  0.14696265690E+03  0.19618345743E+03  0.12500317392E+03 0.  0.
          2    1    1    2  501    0  0.28810155210E+01 -0.40059512054E+02 -0.48357191222E+03  0.48523691022E+03  0.00000000000E+00 0. -1.
          1    1    1    2  502    0  0.32670347052E+02  0.40542807602E+02  0.90557096382E+03  0.90706661350E+03  0.00000000000E+00 0. -1.
         22    1    3    3    0    0 -0.16540886104E+02  0.61551542256E+02  0.86907330250E+02  0.10777326811E+03  0.00000000000E+00 0.  1.
         22    1    3    3    0    0 -0.19010476469E+02 -0.62034837804E+02  0.60055326647E+02  0.88410189320E+02  0.00000000000E+00 0.  1.
</event>
<event>
 7    1  0.6176857E-006  0.1190285E+03  0.7818608E-02  0.1313209E+00
          2   -1    0    0  502    0  0.00000000000E+00  0.00000000000E+00  0.73150185928E+03  0.73150185928E+03  0.00000000000E+00 0. -1.
          1   -1    0    0  501    0 -0.00000000000E+00 -0.00000000000E+00 -0.16615010610E+03  0.16615010610E+03  0.00000000000E+00 0. -1.
         25    2    1    2    0    0 -0.74490044523E+02  0.81622562059E+01  0.10270699910E+03  0.17829495074E+03  0.12499989054E+03 0.  0.
          2    1    1    2  501    0  0.12815447215E+03  0.22745586244E+02 -0.93192488828E+02  0.16008051224E+03  0.00000000000E+00 0. -1.
          1    1    1    2  502    0 -0.53664427630E+02 -0.30907842450E+02  0.55583724292E+03  0.55927650239E+03  0.00000000000E+00 0. -1.
         22    1    3    3    0    0  0.22411279561E+02  0.30071522822E+02  0.31306318652E+01  0.37634595683E+02  0.00000000000E+00 0. -1.
         22    1    3    3    0    0 -0.96901324084E+02 -0.21909266616E+02  0.99576367230E+02  0.14066035505E+03  0.00000000000E+00 0. -1.
</event>
<event>
 7    1  0.6176857E-006  0.8853565E+02  0.7818608E-02  0.1390614E+00
          2   -1    0    0  502    0  0.00000000000E+00  0.00000000000E+00  0.56585736884E+03  0.56585736884E+03  0.00000000000E+00 0. -1.
          1   -1    0    0  501    0 -0.00000000000E+00 -0.00000000000E+00 -0.87558480670E+03  0.87558480670E+03  0.00000000000E+00 0. -1.
         25    2    1    2    0    0 -0.70110667553E+01  0.47601455484E+02 -0.24280413979E+02  0.13612997056E+03  0.12500710684E+03 0.  0.
          2    1    1    2  501    0  0.36807918967E+01  0.42916514858E+02 -0.79076645369E+03  0.79193873485E+03  0.00000000000E+00 0. -1.
          1    1    1    2  502    0  0.33302748586E+01 -0.90517970342E+02  0.50531942981E+03  0.51337347012E+03  0.00000000000E+00 0. -1.
         22    1    3    3    0    0 -0.37082043857E+02 -0.80712879264E+01  0.33366585405E+02  0.50532689291E+02  0.00000000000E+00 0.  1.
         22    1    3    3    0    0  0.30070977101E+02  0.55672743410E+02 -0.57646999384E+02  0.85597281269E+02  0.00000000000E+00 0.  1.
</event>
<event>
 7    1  0.6176857E-006  0.5745882E+02  0.7818608E-02  0.1414903E+00
          2   -1    0    0  502    0  0.00000000000E+00  0.00000000000E+00  0.11536935705E+03  0.11536935705E+03  0.00000000000E+00 0. -1.
          1   -1    0    0  501    0 -0.00000000000E+00 -0.00000000000E+00 -0.14683698172E+04  0.14683698172E+04  0.00000000000E+00 0. -1.
         25    2    1    2    0    0 -0.26177118828E+02  0.10671102328E+03 -0.13960285580E+03  0.21721567245E+03  0.12498482695E+03 0.  0.
          2    1    1    2  501    0  0.42832139656E+01 -0.56473792041E+02 -0.12794471438E+04  0.12807000542E+04  0.00000000000E+00 0. -1.
          1    1    1    2  502    0  0.21893904863E+02 -0.50237231239E+02  0.66049539516E+02  0.85823447513E+02  0.00000000000E+00 0. -1.
         22    1    3    3    0    0  0.43991095640E+02  0.71510883652E+02 -0.95555451457E+02  0.12720010723E+03  0.00000000000E+00 0. -1.
         22    1    3    3    0    0 -0.70168214469E+02  0.35200139629E+02 -0.44047404347E+02  0.90015565217E+02  0.00000000000E+00 0. -1.
</event>
<event>
 7    1  0.6176857E-006  0.4456208E+02  0.7818608E-02  0.1481327E+00
          2   -1    0    0  502    0  0.00000000000E+00  0.00000000000E+00  0.69733566250E+02  0.69733566250E+02  0.00000000000E+00 0. -1.
          1   -1    0    0  501    0 -0.00000000000E+00 -0.00000000000E+00 -0.67950791949E+03  0.67950791949E+03  0.00000000000E+00 0. -1.
         25    2    1    2    0    0  0.51663276884E+02  0.17737645283E+02 -0.16937495176E+03  0.21747063682E+03  0.12498754080E+03 0.  0.
          2    1    1    2  501    0 -0.38372463729E+02  0.23417423041E+02 -0.47454418691E+03  0.47666865536E+03  0.00000000000E+00 0. -1.
          1    1    1    2  502    0 -0.13290813155E+02 -0.41155068325E+02  0.34144785429E+02  0.55102193560E+02  0.00000000000E+00 0. -1.
         22    1    3    3    0    0  0.72013625123E+02  0.45077526635E+02 -0.62997955844E+02  0.10576714070E+03  0.00000000000E+00 0. -1.
         22    1    3    3    0    0 -0.20350348239E+02 -0.27339881352E+02 -0.10637699591E+03  0.11170349612E+03  0.00000000000E+00 0. -1.
</event>
<event>
 7    1  0.6176857E-006  0.1445940E+03  0.7818608E-02  0.1273240E+00
          2   -1    0    0  502    0  0.00000000000E+00  0.00000000000E+00  0.12203146252E+04  0.12203146252E+04  0.00000000000E+00 0. -1.
          1   -1    0    0  501    0 -0.00000000000E+00 -0.00000000000E+00 -0.46558682400E+03  0.46558682400E+03  0.00000000000E+00 0. -1.
         25    2    1    2    0    0  0.12383079423E+03  0.16854977424E+03  0.50040308830E+03  0.55657098373E+03  0.12499966864E+03 0.  0.
          2    1    1    2  501    0 -0.60892449641E+02 -0.12965307984E+03 -0.42371188658E+03  0.44726901789E+03  0.00000000000E+00 0. -1.
          1    1    1    2  502    0 -0.62938344590E+02 -0.38896694397E+02  0.67803659949E+03  0.68206144760E+03  0.00000000000E+00 0. -1.
         22    1    3    3    0    0  0.58502850193E+02  0.14721715356E+03  0.24241662741E+03  0.28958814725E+03  0.00000000000E+00 0. -1.
         22    1    3    3    0    0  0.65327944038E+02  0.21332620686E+02  0.25798646088E+03  0.26698283648E+03  0.00000000000E+00 0. -1.
</event>
<event>
 7    1  0.6176857E-006  0.1422387E+03  0.7818608E-02  0.1249263E+00
          2   -1    0    0  502    0  0.00000000000E+00  0.00000000000E+00  0.17946366366E+03  0.17946366366E+03  0.00000000000E+00 0. -1.
          1   -1    0    0  501    0 -0.00000000000E+00 -0.00000000000E+00 -0.68925280373E+03  0.68925280373E+03  0.00000000000E+00 0. -1.
         25    2    1    2    0    0  0.12936722793E+03 -0.57146208052E+02 -0.26815332996E+03  0.32792331926E+03  0.12500370470E+03 0.  0.
          2    1    1    2  501    0 -0.14890624641E+03 -0.35980252150E+02 -0.35863615464E+03  0.38998402555E+03  0.00000000000E+00 0. -1.
          1    1    1    2  502    0  0.19539018486E+02  0.93126460202E+02  0.11700034453E+03  0.15080912258E+03  0.00000000000E+00 0. -1.
         22    1    3    3    0    0  0.93579978747E+02 -0.96547118838E+02 -0.17572381169E+03  0.22126322915E+03  0.00000000000E+00 0. -1.
         22    1    3    3    0    0  0.35787249182E+02  0.39400910786E+02 -0.92429518265E+02  0.10666009011E+03  0.00000000000E+00 0. -1.
</event>
<event>
 7    1  0.6176857E-006  0.7319121E+02  0.7818608E-02  0.1515128E+00
          2   -1    0    0  502    0  0.00000000000E+00  0.00000000000E+00  0.10900967446E+04  0.10900967446E+04  0.00000000000E+00 0. -1.
          1   -1    0    0  501    0 -0.00000000000E+00 -0.00000000000E+00 -0.40035393536E+03  0.40035393536E+03  0.00000000000E+00 0. -1.
         25    2    1    2    0    0  0.89974403744E+01 -0.65597606051E+02  0.38679061165E+03  0.41184465470E+03  0.12500016998E+03 0.  0.
          2    1    1    2  501    0  0.20656081343E+02 -0.29206504042E+01 -0.38552676505E+03  0.38609078008E+03  0.00000000000E+00 0. -1.
          1    1    1    2  502    0 -0.29653521718E+02  0.68518256455E+02  0.68847896266E+03  0.69251524521E+03  0.00000000000E+00 0. -1.
         22    1    3    3    0    0  0.23194308629E+02  0.14866496629E+02  0.15378427245E+02  0.31551302656E+02  0.00000000000E+00 0.  1.
         22    1    3    3    0    0 -0.14196868254E+02 -0.80464102679E+02  0.37141218440E+03  0.38029335205E+03  0.00000000000E+00 0.  1.
</event>
<event>
 7    1  0.6176857E-006  0.5282559E+02  0.7818608E-02  0.1463885E+00
          2   -1    0    0  502    0  0.00000000000E+00  0.00000000000E+00  0.42068676424E+03  0.42068676424E+03  0.00000000000E+00 0. -1.
          1   -1    0    0  501    0 -0.00000000000E+00 -0.00000000000E+00 -0.27880540563E+03  0.27880540563E+03  0.00000000000E+00 0. -1.
         25    2    1    2    0    0  0.56269217162E+01  0.91180478009E+02  0.12880838751E+03  0.20140127579E+03  0.12500132551E+03 0.  0.
          2    1    1    2  501    0 -0.52602918873E+01 -0.40982828666E+02 -0.23824858876E+03  0.24180498953E+03  0.00000000000E+00 0. -1.
          1    1    1    2  502    0 -0.36662982892E+00 -0.50197649344E+02  0.25132155987E+03  0.25628590455E+03  0.00000000000E+00 0. -1.
         22    1    3    3    0    0  0.52777604110E+02  0.50899707919E+02  0.11729586449E+03  0.13832778314E+03  0.00000000000E+00 0.  1.
         22    1    3    3    0    0 -0.47150682394E+02  0.40280770091E+02  0.11512523019E+02  0.63073492654E+02  0.00000000000E+00 0.  1.
</event>
<event>
 7    1  0.6176857E-006  0.7409200E+02  0.7818608E-02  0.1398521E+00
          2   -1    0    0  502    0  0.00000000000E+00  0.00000000000E+00  0.11020744440E+04  0.11020744440E+04  0.00000000000E+00 0. -1.
          1   -1    0    0  501    0 -0.00000000000E+00 -0.00000000000E+00 -0.14677581566E+04  0.14677581566E+04  0.00000000000E+00 0. -1.
         25    2    1    2    0    0  0.34552509149E+01  0.11485201575E+03  0.10887644145E+03  0.20169669690E+03  0.12499821500E+03 0.  0.
          2    1    1    2  501    0  0.17625799452E+02 -0.44994053081E+02 -0.14195303361E+04  0.14203526001E+04  0.00000000000E+00 0. -1.
          1    1    1    2  502    0 -0.21081050367E+02 -0.69857962672E+02  0.94497018206E+03  0.94778330361E+03  0.00000000000E+00 0. -1.
         22    1    3    3    0    0  0.52389130557E+02  0.96196510093E+02  0.10051066791E+03  0.14866332405E+03  0.00000000000E+00 0.  1.
         22    1    3    3    0    0 -0.48933879642E+02  0.18655505660E+02  0.83657735449E+01  0.53033372844E+02  0.00000000000E+00 0.  1.
</event>
<event>
 7    1  0.6176857E-006  0.6782912E+02  0.7818608E-02  0.1400430E+00
          2   -1    0    0  502    0  0.00000000000E+00  0.00000000000E+00  0.10725917077E+04  0.10725917077E+04  0.00000000000E+00 0. -1.
          1   -1    0    0  501    0 -0.00000000000E+00 -0.00000000000E+00 -0.34925390966E+03  0.34925390966E+03  0.00000000000E+00 0. -1.
         25    2    1    2    0    0  0.20428398893E+02 -0.70805806755E+01 -0.39634055206E+02  0.13290265817E+03  0.12499921645E+03 0.  0.
          2    1    1    2  501    0 -0.72401072319E+02  0.85216256440E+01 -0.25725871010E+03  0.26738843897E+03  0.00000000000E+00 0. -1.
          1    1    1    2  502    0  0.51972673426E+02 -0.14410449685E+01  0.10202305633E+04  0.10215545202E+04  0.00000000000E+00 0. -1.
         22    1    3    3    0    0 -0.30925721597E+02  0.43504345097E+02 -0.72059604856E+01  0.53860506543E+02  0.00000000000E+00 0.  1.
         22    1    3    3    0    0  0.51354120489E+02 -0.50584925772E+02 -0.32428094720E+02  0.79042151627E+02  0.00000000000E+00 0.  1.
</event>
<event>
 7    1  0.6176857E-006  0.9803831E+02  0.7818608E-02  0.1423927E+00
          2   -1    0    0  502    0  0.00000000000E+00  0.00000000000E+00  0.23118188049E+04  0.23118188049E+04  0.00000000000E+00 0. -1.
          1   -1    0    0  501    0 -0.00000000000E+00 -0.00000000000E+00 -0.13964791828E+03  0.13964791828E+03  0.00000000000E+00 0. -1.
         25    2    1    2    0    0  0.51113409477E+02  0.57713071437E+02 -0.52461768702E+02  0.15594989385E+03  0.12499901189E+03 0.  0.
          2    1    1    2  501    0  0.29891398229E+02 -0.20661008236E+01 -0.27840595970E+02  0.40900650907E+02  0.00000000000E+00 0. -1.
          1    1    1    2  502    0 -0.81004807706E+02 -0.55646970613E+02  0.22524732513E+04  0.22546161784E+04  0.00000000000E+00 0. -1.
         22    1    3    3    0    0 -0.87799312958E+01 -0.31207632932E+02 -0.34327784077E+02  0.47216525777E+02  0.00000000000E+00 0. -1.
         22    1    3    3    0    0  0.59893340773E+02  0.88920704369E+02 -0.18133984625E+02  0.10873336807E+03  0.00000000000E+00 0. -1.
</event>
<event>
 7    1  0.6176857E-006  0.5155766E+02  0.7818608E-02  0.1553232E+00
          2   -1    0    0  502    0  0.00000000000E+00  0.00000000000E+00  0.20121659006E+04  0.20121659006E+04  0.00000000000E+00 0. -1.
          1   -1    0    0  501    0 -0.00000000000E+00 -0.00000000000E+00 -0.46245614752E+02  0.46245614752E+02  0.00000000000E+00 0. -1.
         25    2    1    2    0    0  0.28635918945E+02  0.15735990915E+02  0.85702623815E+03  0.86671047511E+03  0.12500175006E+03 0.  0.
          2    1    1    2  501    0 -0.35765256463E+02 -0.37670789322E+02 -0.24947579658E+02  0.57624852874E+02  0.00000000000E+00 0. -1.
          1    1    1    2  502    0  0.71293375185E+01  0.21934798407E+02  0.11338416274E+04  0.11340761874E+04  0.00000000000E+00 0. -1.
         22    1    3    3    0    0 -0.37659605510E+02  0.67681996967E+01  0.59670482826E+03  0.59793035253E+03  0.00000000000E+00 0. -1.
         22    1    3    3    0    0  0.66295524455E+02  0.89677912180E+01  0.26032140989E+03  0.26878012257E+03  0.00000000000E+00 0. -1.
</event>
<event>
 7    1  0.6176857E-006  0.5773704E+02  0.7818608E-02  0.1439370E+00
          2   -1    0    0  502    0  0.00000000000E+00  0.00000000000E+00  0.25878477045E+04  0.25878477045E+04  0.00000000000E+00 0. -1.
          1   -1    0    0  501    0 -0.00000000000E+00 -0.00000000000E+00 -0.36335089743E+03  0.36335089743E+03  0.00000000000E+00 0. -1.
         25    2    1    2    0    0 -0.81655815564E+02 -0.38057502752E+02 -0.10636287677E+03  0.18722858551E+03  0.12500174378E+03 0.  0.
          2    1    1    2  501    0  0.36538149494E+02  0.41755041806E+02 -0.21279649631E+03  0.21991104730E+03  0.00000000000E+00 0. -1.
          1    1    1    2  502    0  0.45117666070E+02 -0.36975390542E+01  0.25436561802E+04  0.25440589691E+04  0.00000000000E+00 0. -1.
         22    1    3    3    0    0  0.91790028305E+00  0.40257958588E+02 -0.26931358360E+02  0.48444234267E+02  0.00000000000E+00 0. -1.
         22    1    3    3    0    0 -0.82573715847E+02 -0.78315461340E+02 -0.79431518412E+02  0.13878435125E+03  0.00000000000E+00 0. -1.
</event>
<event>
 7    1  0.6176857E-006  0.1641919E+03  0.7818608E-02  0.1265693E+00
          2   -1    0    0  502    0  0.00000000000E+00  0.00000000000E+00  0.14260436300E+04  0.14260436300E+04  0.00000000000E+00 0. -1.
          1   -1    0    0  501    0 -0.00000000000E+00 -0.00000000000E+00 -0.59112769488E+03  0.59112769488E+03  0.00000000000E+00 0. -1.
         25    2    1    2    0    0 -0.69668894437E+02  0.69117112175E+02 -0.77270458656E+02  0.17670954450E+03  0.12499843715E+03 0.  0.
          2    1    1    2  501    0 -0.35390547195E+02  0.60502882587E+02 -0.45639554783E+03  0.46174666832E+03  0.00000000000E+00 0. -1.
          1    1    1    2  502    0  0.10505944163E+03 -0.12961999476E+03  0.13685819416E+04  0.13787151120E+04  0.00000000000E+00 0. -1.
         22    1    3    3    0    0 -0.31419694870E+02 -0.66383335973E+01  0.27220726337E+02  0.42097893546E+02  0.00000000000E+00 0. -1.
         22    1    3    3    0    0 -0.38249199567E+02  0.75755445772E+02 -0.10449118499E+03  0.13461165096E+03  0.00000000000E+00 0. -1.
</event>
<event>
 7    1  0.6176857E-006  0.2594444E+02  0.7818608E-02  0.1687828E+00
          2   -1    0    0  502    0  0.00000000000E+00  0.00000000000E+00  0.20434625337E+04  0.20434625337E+04  0.00000000000E+00 0. -1.
          1   -1    0    0  501    0 -0.00000000000E+00 -0.00000000000E+00 -0.40229742004E+01  0.40229742004E+01  0.00000000000E+00 0. -1.
         25    2    1    2    0    0 -0.22776842282E+02 -0.25386375640E+00  0.15699039322E+04  0.15750372454E+04  0.12500047592E+03 0.  0.
          2    1    1    2  501    0  0.34426931429E+01  0.20510441352E+02  0.11966480711E+03  0.12145862012E+03  0.00000000000E+00 0. -1.
          1    1    1    2  502    0  0.19334149139E+02 -0.20256577595E+02  0.34987082015E+03  0.35098964237E+03  0.00000000000E+00 0. -1.
         22    1    3    3    0    0 -0.48043844206E+02  0.23356998959E+01  0.23403477044E+03  0.23892664195E+03  0.00000000000E+00 0. -1.
         22    1    3    3    0    0  0.25267001923E+02 -0.25895636523E+01  0.13358691618E+04  0.13361106034E+04  0.00000000000E+00 0. -1.
</event>
<event>
 7    1  0.6176857E-006  0.7292959E+02  0.7818608E-02  0.1520815E+00
          2   -1    0    0  502    0  0.00000000000E+00  0.00000000000E+00  0.52584113184E+03  0.52584113184E+03  0.00000000000E+00 0. -1.
          1   -1    0    0  501    0 -0.00000000000E+00 -0.00000000000E+00 -0.69890472213E+02  0.69890472213E+02  0.00000000000E+00 0. -1.
         25    2    1    2    0    0  0.48087686960E+02 -0.78006232969E+02  0.39576660308E+03  0.42503365931E+03  0.12500003764E+03 0.  0.
          2    1    1    2  501    0 -0.40536723983E+02  0.59321163637E+02 -0.30314915713E+02  0.77982181050E+02  0.00000000000E+00 0. -1.
          1    1    1    2  502    0 -0.75509629773E+01  0.18685069331E+02  0.90498972254E+02  0.92715763691E+02  0.00000000000E+00 0. -1.
         22    1    3    3    0    0  0.42949714416E+02 -0.87645758436E+02  0.40115182884E+03  0.41285499479E+03  0.00000000000E+00 0.  1.
         22    1    3    3    0    0  0.51379725438E+01  0.96395254670E+01 -0.53852257557E+01  0.12178664522E+02  0.00000000000E+00 0.  1.
</event>
<event>
 7    1  0.6176857E-006  0.8278850E+02  0.7818608E-02  0.1475554E+00
          2   -1    0    0  502    0  0.00000000000E+00  0.00000000000E+00  0.56929233944E+03  0.56929233944E+03  0.00000000000E+00 0. -1.
          1   -1    0    0  501    0 -0.00000000000E+00 -0.00000000000E+00 -0.60699583535E+03  0.60699583535E+03  0.00000000000E+00 0. -1.
         25    2    1    2    0    0 -0.73172084322E+02 -0.76874193443E+02 -0.12390487452E+02  0.16444329045E+03  0.12499710418E+03 0.  0.
          2    1    1    2  501    0  0.16280337707E+02  0.17972344902E+02 -0.51489278920E+03  0.51546351854E+03  0.00000000000E+00 0. -1.
          1    1    1    2  502    0  0.56891746615E+02  0.58901848541E+02  0.48957978075E+03  0.49638136580E+03  0.00000000000E+00 0. -1.
         22    1    3    3    0    0  0.12246315893E+02 -0.48191258259E+02  0.36730537711E+02  0.61818298472E+02  0.00000000000E+00 0.  1.
         22    1    3    3    0    0 -0.85418400215E+02 -0.28682935184E+02 -0.49121025163E+02  0.10262499198E+03  0.00000000000E+00 0.  1.
</event>
<event>
 7    1  0.6176857E-006  0.4064482E+02  0.7818608E-02  0.1510810E+00
          2   -1    0    0  502    0  0.00000000000E+00  0.00000000000E+00  0.36475284155E+03  0.36475284155E+03  0.00000000000E+00 0. -1.
          1   -1    0    0  501    0 -0.00000000000E+00 -0.00000000000E+00 -0.14546036804E+04  0.14546036804E+04  0.00000000000E+00 0. -1.
         25    2    1    2    0    0 -0.51526826573E+02 -0.76902340275E+01 -0.78089042933E+03  0.79254593194E+03  0.12500015222E+03 0.  0.
          2    1    1    2  501    0  0.28688638367E+02 -0.25940866186E+02 -0.66617166670E+03  0.66729353063E+03  0.00000000000E+00 0. -1.
          1    1    1    2  502    0  0.22838188206E+02  0.33631100214E+02  0.35721125717E+03  0.35951705939E+03  0.00000000000E+00 0. -1.
         22    1    3    3    0    0 -0.86903830196E+01 -0.55028228488E+02 -0.18394344356E+03  0.19219474269E+03  0.00000000000E+00 0. -1.
         22    1    3    3    0    0 -0.42836443554E+02  0.47337994460E+02 -0.59694698577E+03  0.60035118925E+03  0.00000000000E+00 0. -1.
</event>
<event>
 7    1  0.6176857E-006  0.1075886E+03  0.7818608E-02  0.1286561E+00
          2   -1    0    0  502    0  0.00000000000E+00  0.00000000000E+00  0.18458161816E+03  0.18458161816E+03  0.00000000000E+00 0. -1.
          1   -1    0    0  501    0 -0.00000000000E+00 -0.00000000000E+00 -0.86282271872E+03  0.86282271872E+03  0.00000000000E+00 0. -1.
         25    2    1    2    0    0  0.27558207943E+02  0.31913962987E+02  0.13537758630E+02  0.13261496672E+03  0.12500201051E+03 0.  0.
          2    1    1    2  501    0 -0.60902479823E+02  0.88691583295E+02 -0.76317651613E+03  0.77072284498E+03  0.00000000000E+00 0. -1.
          1    1    1    2  502    0  0.33344271880E+02 -0.12060554628E+03  0.71397656933E+02  0.14406652518E+03  0.00000000000E+00 0. -1.
         22    1    3    3    0    0  0.48601974431E+02 -0.35636766659E+02 -0.14830231632E+01  0.60285407971E+02  0.00000000000E+00 0.  1.
         22    1    3    3    0    0 -0.21043766488E+02  0.67550729646E+02  0.15020781793E+02  0.72329558753E+02  0.00000000000E+00 0.  1.
</event>
<event>
 7    1  0.6176857E-006  0.6629154E+02  0.7818608E-02  0.1417420E+00
          2   -1    0    0  502    0  0.00000000000E+00  0.00000000000E+00  0.70684112983E+02  0.70684112983E+02  0.00000000000E+00 0. -1.
          1   -1    0    0  501    0 -0.00000000000E+00 -0.00000000000E+00 -0.62325705284E+03  0.62325705284E+03  0.00000000000E+00 0. -1.
         25    2    1    2    0    0  0.30658410159E+02 -0.30679448654E+02 -0.25175398223E+03  0.28440424344E+03  0.12499815771E+03 0.  0.
          2    1    1    2  501    0 -0.72825708106E+02  0.10882471242E+02 -0.34048340973E+03  0.34835465297E+03  0.00000000000E+00 0. -1.
          1    1    1    2  502    0  0.42167297947E+02  0.19796977412E+02  0.39664452106E+02  0.61182269423E+02  0.00000000000E+00 0. -1.
         22    1    3    3    0    0  0.64427128035E+02 -0.57331703880E+02 -0.19473006681E+03  0.21297318614E+03  0.00000000000E+00 0.  1.
         22    1    3    3    0    0 -0.33768717877E+02  0.26652255226E+02 -0.57023915426E+02  0.71431057294E+02  0.00000000000E+00 0.  1.
</event>
<event>
 7    1  0.6176857E-006  0.5181561E+02  0.7818608E-02  0.1442443E+00
          2   -1    0    0  502    0  0.00000000000E+00  0.00000000000E+00  0.54634138512E+03  0.54634138512E+03  0.00000000000E+00 0. -1.
          1   -1    0    0  501    0 -0.00000000000E+00 -0.00000000000E+00 -0.17426632306E+04  0.17426632306E+04  0.00000000000E+00 0. -1.
         25    2    1    2    0    0  0.58116031438E+02 -0.16693182107E+01 -0.16408592546E+03  0.21431102618E+03  0.12499906109E+03 0.  0.
          2    1    1    2  501    0 -0.25580811739E+02  0.42142439960E+02 -0.15517789442E+04  0.15525618360E+04  0.00000000000E+00 0. -1.
          1    1    1    2  502    0 -0.32535219699E+02 -0.40473121749E+02  0.51954302413E+03  0.52213175351E+03  0.00000000000E+00 0. -1.
         22    1    3    3    0    0 -0.29096373308E+02  0.48651672445E+01 -0.10425069629E+03  0.10834424982E+03  0.00000000000E+00 0.  1.
         22    1    3    3    0    0  0.87212404746E+02 -0.65344854553E+01 -0.59835229166E+02  0.10596677636E+03  0.00000000000E+00 0.  1.
</event>
<event>
 7    1  0.6176857E-006  0.1274183E+03  0.7818608E-02  0.1261026E+00
          2   -1    0    0  502    0  0.00000000000E+00  0.00000000000E+00  0.42798264676E+03  0.42798264676E+03  0.00000000000E+00 0. -1.
          1   -1    0    0  501    0 -0.00000000000E+00 -0.00000000000E+00 -0.15267694222E+04  0.15267694222E+04  0.00000000000E+00 0. -1.
         25    2    1    2    0    0 -0.41225623362E+02 -0.84919696855E+01 -0.48917017575E+02  0.14067537154E+03  0.12500007992E+03 0.  0.
          2    1    1    2  501    0  0.13229635313E+03 -0.16879826902E+02 -0.14229592669E+04  0.14291956930E+04  0.00000000000E+00 0. -1.
          1    1    1    2  502    0 -0.91070729769E+02  0.25371796587E+02  0.37308950900E+03  0.38488100447E+03  0.00000000000E+00 0. -1.
         22    1    3    3    0    0 -0.15934436450E+02  0.22773811842E+02 -0.83269565240E+02  0.87785951416E+02  0.00000000000E+00 0. -1.
         22    1    3    3    0    0 -0.25291186913E+02 -0.31265781527E+02  0.34352547665E+02  0.52889420124E+02  0.00000000000E+00 0. -1.
</event>
<event>
 7    1  0.6176857E-006  0.6141570E+02  0.7818608E-02  0.1539676E+00
          2   -1    0    0  502    0  0.00000000000E+00  0.00000000000E+00  0.11951912069E+04  0.11951912069E+04  0.00000000000E+00 0. -1.
          1   -1    0    0  501    0 -0.00000000000E+00 -0.00000000000E+00 -0.20849306874E+04  0.20849306874E+04  0.00000000000E+00 0. -1.
         25    2    1    2    0    0 -0.24084587234E+02  0.33693456931E+02  0.57122901707E+02  0.14353342333E+03  0.12499400518E+03 0.  0.
          2    1    1    2  501    0  0.41943512950E+02 -0.44990885006E+02 -0.20411601254E+04  0.20420867013E+04  0.00000000000E+00 0. -1.
          1    1    1    2  502    0 -0.17858925716E+02  0.11297428075E+02  0.10942977432E+04  0.10945017697E+04  0.00000000000E+00 0. -1.
         22    1    3    3    0    0  0.27570636638E+02  0.62961949457E+02  0.13976455904E+02  0.70140490472E+02  0.00000000000E+00 0. -1.
         22    1    3    3    0    0 -0.51655223872E+02 -0.29268492526E+02  0.43146445803E+02  0.73392932858E+02  0.00000000000E+00 0. -1.
</event>
<event>
 7    1  0.6176857E-006  0.1580183E+03  0.7818608E-02  0.1310627E+00
          2   -1    0    0  502    0  0.00000000000E+00  0.00000000000E+00  0.72817484426E+03  0.72817484426E+03  0.00000000000E+00 0. -1.
          1   -1    0    0  501    0 -0.00000000000E+00 -0.00000000000E+00 -0.56229853978E+03  0.56229853978E+03  0.00000000000E+00 0. -1.
         25    2    1    2    0    0  0.58861243783E+01  0.20455986650E+03 -0.34480487792E+03  0.41999345804E+03  0.12499886207E+03 0.  0.
          2    1    1    2  501    0  0.16287912437E+00 -0.47750263274E+02 -0.16760656256E+03  0.17427585600E+03  0.00000000000E+00 0. -1.
          1    1    1    2  502    0 -0.60490035027E+01 -0.15680960323E+03  0.67828774496E+03  0.69620406999E+03  0.00000000000E+00 0. -1.
         22    1    3    3    0    0  0.13262010921E+02  0.14283649745E+03 -0.12084832872E+03  0.18756989228E+03  0.00000000000E+00 0.  1.
         22    1    3    3    0    0 -0.73758865432E+01  0.61723369049E+02 -0.22395654920E+03  0.23242356576E+03  0.00000000000E+00 0.  1.
</event>
<event>
 7    1  0.6176857E-006  0.7572931E+02  0.7818608E-02  0.1375385E+00
          2   -1    0    0  502    0  0.00000000000E+00  0.00000000000E+00  0.16660205149E+04  0.16660205149E+04  0.00000000000E+00 0. -1.
          1   -1    0    0  501    0 -0.00000000000E+00 -0.00000000000E+00 -0.17683233952E+03  0.17683233952E+03  0.00000000000E+00 0. -1.
         25    2    1    2    0    0  0.39861780139E+02  0.62135702241E+02 -0.12279832428E+02  0.14569538489E+03  0.12500617539E+03 0.  0.
          2    1    1    2  501    0 -0.55665297680E+02  0.12196921859E+02 -0.88562251196E+02  0.10531221489E+03  0.00000000000E+00 0. -1.
          1    1    1    2  502    0  0.15803517541E+02 -0.74332624100E+02  0.15900302590E+04  0.15918452547E+04  0.00000000000E+00 0. -1.
         22    1    3    3    0    0 -0.63077685449E+01 -0.26728966484E+01 -0.54969558027E+02  0.55394806888E+02  0.00000000000E+00 0.  1.
         22    1    3    3    0    0  0.46169548684E+02  0.64808598889E+02  0.42689725598E+02  0.90300578001E+02  0.00000000000E+00 0.  1.
</event>
<event>
 7    1  0.6176857E-006  0.3186995E+03  0.7818608E-02  0.1244073E+00
          2   -1    0    0  502    0  0.00000000000E+00  0.00000000000E+00  0.26333161655E+03  0.26333161655E+03  0.00000000000E+00 0. -1.
          1   -1    0    0  501    0 -0.00000000000E+00 -0.00000000000E+00 -0.10553749780E+04  0.10553749780E+04  0.00000000000E+00 0. -1.
         25    2    1    2    0    0 -0.32517793026E+03  0.12098200608E+03 -0.15308621024E+03  0.39929895420E+03  0.12500773951E+03 0.  0.
          2    1    1    2  501    0  0.30026290909E+03 -0.83820606744E+02 -0.74321895847E+03  0.80595169143E+03  0.00000000000E+00 0. -1.
          1    1    1    2  502    0  0.24915021172E+02 -0.37161399332E+02  0.10426180729E+03  0.11345594889E+03  0.00000000000E+00 0. -1.
         22    1    3    3    0    0 -0.18802502425E+03  0.71720946114E+01 -0.10133512595E+03  0.21371395939E+03  0.00000000000E+00 0. -1.
         22    1    3    3    0    0 -0.13715290601E+03  0.11380991147E+03 -0.51751084291E+02  0.18558499482E+03  0.00000000000E+00 0. -1.
</event>
<event>
 7    1  0.6176857E-006  0.9800289E+02  0.7818608E-02  0.1358570E+00
          2   -1    0    0  502    0  0.00000000000E+00  0.00000000000E+00  0.52833090318E+03  0.52833090318E+03  0.00000000000E+00 0. -1.
          1   -1    0    0  501    0 -0.00000000000E+00 -0.00000000000E+00 -0.51102161185E+03  0.51102161185E+03  0.00000000000E+00 0. -1.
         25    2    1    2    0    0 -0.75236533165E+02  0.11633215022E+03 -0.11003331234E+03  0.21662785951E+03  0.12500637820E+03 0.  0.
          2    1    1    2  501    0  0.44322724052E+02 -0.24499377408E+02 -0.34085949850E+03  0.34460110429E+03  0.00000000000E+00 0. -1.
          1    1    1    2  502    0  0.30913809113E+02 -0.91832772815E+02  0.46820210217E+03  0.47812355123E+03  0.00000000000E+00 0. -1.
         22    1    3    3    0    0  0.34774201750E+02  0.18617009273E+02 -0.22093768770E+02  0.45210316965E+02  0.00000000000E+00 0.  1.
         22    1    3    3    0    0 -0.11001073491E+03  0.97715140950E+02 -0.87939543575E+02  0.17141754254E+03  0.00000000000E+00 0.  1.
</event>
<event>
 7    1  0.6176857E-006  0.1721350E+03  0.7818608E-02  0.1312868E+00
          2   -1    0    0  502    0  0.00000000000E+00  0.00000000000E+00  0.53301902326E+03  0.53301902326E+03  0.00000000000E+00 0. -1.
          1   -1    0    0  501    0 -0.00000000000E+00 -0.00000000000E+00 -0.97724362123E+03  0.97724362123E+03  0.00000000000E+00 0. -1.
         25    2    1    2    0    0 -0.12361711540E+03  0.84047351860E+02  0.49047356873E+02  0.20092247727E+03  0.12497619806E+03 0.  0.
          2    1    1    2  501    0 -0.40620113938E+02 -0.13967800527E+02 -0.88122209446E+03  0.88226836782E+03  0.00000000000E+00 0. -1.
          1    1    1    2  502    0  0.16423722934E+03 -0.70079551334E+02  0.38795013961E+03  0.42707179940E+03  0.00000000000E+00 0. -1.
         22    1    3    3    0    0 -0.70506791770E+02 -0.57594357398E+01  0.64153255469E+02  0.95498790427E+02  0.00000000000E+00 0.  1.
         22    1    3    3    0    0 -0.53110323628E+02  0.89806787600E+02 -0.15105898596E+02  0.10542368684E+03  0.00000000000E+00 0.  1.
</event>
<event>
 7    1  0.6176857E-006  0.6010810E+02  0.7818608E-02  0.1544973E+00
          2   -1    0    0  502    0  0.00000000000E+00  0.00000000000E+00  0.18273314560E+04  0.18273314560E+04  0.00000000000E+00 0. -1.
          1   -1    0    0  501    0 -0.00000000000E+00 -0.00000000000E+00 -0.10096236661E+03  0.10096236661E+03  0.00000000000E+00 0. -1.
         25    2    1    2    0    0  0.59910985440E+01  0.80369820230E+02  0.94373493862E+03  0.95538268745E+03  0.12500097536E+03 0.  0.
          2    1    1    2  501    0 -0.21339994728E+01 -0.59866971662E+02 -0.85570785819E+02  0.10445557733E+03  0.00000000000E+00 0. -1.
          1    1    1    2  502    0 -0.38570990711E+01 -0.20502848568E+02  0.86820493656E+03  0.86845555780E+03  0.00000000000E+00 0. -1.
         22    1    3    3    0    0  0.45030324877E+02 -0.35873047946E+01  0.50315868650E+03  0.50518240539E+03  0.00000000000E+00 0.  1.
         22    1    3    3    0    0 -0.39039226333E+02  0.83957125025E+02  0.44057625212E+03  0.45020028206E+03  0.00000000000E+00 0.  1.
</event>
<event>
 7    1  0.6176857E-006  0.9806068E+02  0.7818608E-02  0.1335345E+00
          2   -1    0    0  502    0  0.00000000000E+00  0.00000000000E+00  0.71174188670E+03  0.71174188670E+03  0.00000000000E+00 0. -1.
          1   -1    0    0  501    0 -0.00000000000E+00 -0.00000000000E+00 -0.13463066880E+04  0.13463066880E+04  0.00000000000E+00 0. -1.
         25    2    1    2    0    0 -0.13097093945E+03  0.79736330214E+02  0.89681469495E+02  0.21720751288E+03  0.12500027338E+03 0.  0.
          2    1    1    2  501    0  0.92128214254E+02 -0.31717522993E+02 -0.12789768356E+04  0.12826828740E+04  0.00000000000E+00 0. -1.
          1    1    1    2  502    0  0.38842725200E+02 -0.48018807221E+02  0.55473056480E+03  0.55815818786E+03  0.00000000000E+00 0. -1.
         22    1    3    3    0    0 -0.34587448793E+02  0.77658517451E+02  0.85709650521E+02  0.12071984567E+03  0.00000000000E+00 0. -1.
         22    1    3    3    0    0 -0.96383490661E+02  0.20778127628E+01  0.39718189738E+01  0.96487667211E+02  0.00000000000E+00 0. -1.
</event>
<event>
 7    1  0.6176857E-006  0.6448116E+02  0.7818608E-02  0.1462720E+00
          2   -1    0    0  502    0  0.00000000000E+00  0.00000000000E+00  0.32584132271E+03  0.32584132271E+03  0.00000000000E+00 0. -1.
          1   -1    0    0  501    0 -0.00000000000E+00 -0.00000000000E+00 -0.15653611013E+04  0.15653611013E+04  0.00000000000E+00 0. -1.
         25    2    1    2    0    0 -0.63575737135E+02 -0.40011210160E+02 -0.80124525734E+00  0.14583404308E+03  0.12499661930E+03 0.  0.
          2    1    1    2  501    0  0.33068240723E+02  0.55327518478E+02 -0.14901936124E+04  0.14915869553E+04  0.00000000000E+00 0. -1.
          1    1    1    2  502    0  0.30507496412E+02 -0.15316308318E+02  0.25147507902E+03  0.25378142565E+03  0.00000000000E+00 0. -1.
         22    1    3    3    0    0 -0.29848775714E+02  0.42061907041E+02 -0.19522521497E+02  0.55147822089E+02  0.00000000000E+00 0.  1.
         22    1    3    3    0    0 -0.33726961421E+02 -0.82073117201E+02  0.18721276240E+02  0.90686220992E+02  0.00000000000E+00 0.  1.
</event>
<event>
 7    1  0.6176857E-006  0.5363173E+02  0.7818608E-02  0.1472725E+00
          2   -1    0    0  502    0  0.00000000000E+00  0.00000000000E+00  0.23776390576E+04  0.23776390576E+04  0.00000000000E+00 0. -1.
          1   -1    0    0  501    0 -0.00000000000E+00 -0.00000000000E+00 -0.33744741002E+02  0.33744741002E+02  0.00000000000E+00 0. -1.
         25    2    1    2    0    0 -0.92750790438E+01 -0.89718587488E+02  0.94112559329E+03  0.95366579654E+03  0.12500246841E+03 0.  0.
          2    1    1    2  501    0  0.10748847164E+02  0.51552042450E+02 -0.17405563105E+01  0.52689470792E+02  0.00000000000E+00 0. -1.
          1    1    1    2  502    0 -0.14737681198E+01  0.38166545038E+02  0.14045092797E+04  0.14050285313E+04  0.00000000000E+00 0. -1.
         22    1    3    3    0    0  0.28394664359E+02 -0.68188860421E+02  0.23790452039E+03  0.24910748377E+03  0.00000000000E+00 0. -1.
         22    1    3    3    0    0 -0.37669743403E+02 -0.21529727067E+02  0.70322107290E+03  0.70455831277E+03  0.00000000000E+00 0. -1.
</event>
<event>
 7    1  0.6176857E-006  0.8281437E+02  0.7818608E-02  0.1420234E+00
          2   -1    0    0  502    0  0.00000000000E+00  0.00000000000E+00  0.65356757992E+03  0.65356757992E+03  0.00000000000E+00 0. -1.
          1   -1    0    0  501    0 -0.00000000000E+00 -0.00000000000E+00 -0.70346518110E+03  0.70346518110E+03  0.00000000000E+00 0. -1.
         25    2    1    2    0    0 -0.40448021182E+02  0.52789757124E+02  0.49802661025E+02  0.15006600789E+03  0.12496679881E+03 0.  0.
          2    1    1    2  501    0 -0.33965603863E+02 -0.13335466410E+02 -0.64961513114E+03  0.65063915923E+03  0.00000000000E+00 0. -1.
          1    1    1    2  502    0  0.74413625045E+02 -0.39454290713E+02  0.54991486894E+03  0.55632759390E+03  0.00000000000E+00 0. -1.
         22    1    3    3    0    0  0.18863837886E+02  0.63922953630E+02 -0.72214600641E+01  0.67038331319E+02  0.00000000000E+00 0. -1.
         22    1    3    3    0    0 -0.59311859068E+02 -0.11133196506E+02  0.57024121089E+02  0.83027676570E+02  0.00000000000E+00 0. -1.
</event>
<event>
 7    1  0.6176857E-006  0.1298530E+03  0.7818608E-02  0.1320235E+00
          2   -1    0    0  502    0  0.00000000000E+00  0.00000000000E+00  0.21590564715E+03  0.21590564715E+03  0.00000000000E+00 0. -1.
          1   -1    0    0  501    0 -0.00000000000E+00 -0.00000000000E+00 -0.18179099171E+04  0.18179099171E+04  0.00000000000E+00 0. -1.
         25    2    1    2    0    0 -0.33653323875E+02  0.15861952267E+03 -0.44333732228E+02  0.20947981655E+03  0.12499445807E+03 0.  0.
          2    1    1    2  501    0  0.39950089468E+02 -0.35275709338E+02 -0.16618838650E+04  0.16627382133E+04  0.00000000000E+00 0. -1.
          1    1    1    2  502    0 -0.62967655929E+01 -0.12334381333E+03  0.10421332725E+03  0.16159753439E+03  0.00000000000E+00 0. -1.
         22    1    3    3    0    0 -0.63964846566E+02  0.27562466914E+02 -0.22555224614E+02  0.73211538270E+02  0.00000000000E+00 0. -1.
         22    1    3    3    0    0  0.30311522691E+02  0.13105705576E+03 -0.21778507613E+02  0.13626827828E+03  0.00000000000E+00 0. -1.
</event>
<event>
 7    1  0.6176857E-006  0.1132718E+03  0.7818608E-02  0.1407683E+00
          2   -1    0    0  502    0  0.00000000000E+00  0.00000000000E+00  0.44112364749E+03  0.44112364749E+03  0.00000000000E+00 0. -1.
          1   -1    0    0  501    0 -0.00000000000E+00 -0.00000000000E+00 -0.37636510166E+03  0.37636510166E+03  0.00000000000E+00 0. -1.
         25    2    1    2    0    0 -0.10128065578E+03 -0.29143801201E+02  0.15697610930E+03  0.22665584381E+03  0.12499696099E+03 0.  0.
          2    1    1    2  501    0  0.11379964666E+03  0.25354103814E+01 -0.33111410880E+03  0.35013331879E+03  0.00000000000E+00 0. -1.
          1    1    1    2  502    0 -0.12518990875E+02  0.26608390820E+02  0.23889654533E+03  0.24069958655E+03  0.00000000000E+00 0. -1.
         22    1    3    3    0    0 -0.25270849438E+02  0.14749911404E+02  0.13227556730E+03  0.13547324984E+03  0.00000000000E+00 0.  1.
         22    1    3    3    0    0 -0.76009806343E+02 -0.43893712606E+02  0.24700541996E+02  0.91182593961E+02  0.00000000000E+00 0.  1.
</event>
<event>
 7    1  0.6176857E-006  0.8549373E+02  0.7818608E-02  0.1483419E+00
          2   -1    0    0  502    0  0.00000000000E+00  0.00000000000E+00  0.74883783234E+03  0.74883783234E+03  0.00000000000E+00 0. -1.
          1   -1    0    0  501    0 -0.00000000000E+00 -0.00000000000E+00 -0.50088813673E+02  0.50088813673E+02  0.00000000000E+00 0. -1.
         25    2    1    2    0    0 -0.51515344326E+02  0.54271743253E+02  0.25511968716E+03  0.29378657300E+03  0.12500097152E+03 0.  0.
          2    1    1    2  501    0  0.73195332288E+02 -0.49436533529E+02  0.33587154932E+02  0.94496690378E+02  0.00000000000E+00 0. -1.
          1    1    1    2  502    0 -0.21679987962E+02 -0.48352097243E+01  0.41004217658E+03  0.41064338264E+03  0.00000000000E+00 0. -1.
         22    1    3    3    0    0  0.19364400824E+02 -0.26075988039E+01 -0.33328664281E+01  0.19821392217E+02  0.00000000000E+00 0.  1.
         22    1    3    3    0    0 -0.70879745150E+02  0.56879342057E+02  0.25845255359E+03  0.27396518078E+03  0.00000000000E+00 0.  1.
</event>
<event>
 7    1  0.6176857E-006  0.1371499E+03  0.7818608E-02  0.1403283E+00
          2   -1    0    0  502    0  0.00000000000E+00  0.00000000000E+00  0.38221482415E+03  0.38221482415E+03  0.00000000000E+00 0. -1.
          1   -1    0    0  501    0 -0.00000000000E+00 -0.00000000000E+00 -0.30098501258E+03  0.30098501258E+03  0.00000000000E+00 0. -1.
         25    2    1    2    0    0 -0.11104047861E+03 -0.53202671138E+02 -0.10928576891E+03  0.20671019439E+03  0.12500085229E+03 0.  0.
          2    1    1    2  501    0  0.13329564478E+03  0.64897245004E+02 -0.10387775083E+03  0.18102477301E+03  0.00000000000E+00 0. -1.
          1    1    1    2  502    0 -0.22255166173E+02 -0.11694573866E+02  0.29439333132E+03  0.29546486932E+03  0.00000000000E+00 0. -1.
         22    1    3    3    0    0 -0.17917349248E+02 -0.38672996898E+02  0.19703914877E+02  0.46956110941E+02  0.00000000000E+00 0. -1.
         22    1    3    3    0    0 -0.93123129361E+02 -0.14529674240E+02 -0.12898968379E+03  0.15975408345E+03  0.00000000000E+00 0. -1.
</event>
<event>
 7    1  0.6176857E-006  0.4044389E+03  0.7818608E-02  0.1092191E+00
          2   -1    0    0  502    0  0.00000000000E+00  0.00000000000E+00  0.18881535318E+04  0.18881535318E+04  0.00000000000E+00 0. -1.
          1   -1    0    0  501    0 -0.00000000000E+00 -0.00000000000E+00 -0.26436185880E+03  0.26436185880E+03  0.00000000000E+00 0. -1.
         25    2    1    2    0    0 -0.13820741741E+03 -0.51950288745E+03  0.35868345167E+03  0.65822797056E+03  0.12500280971E+03 0.  0.
          2    1    1    2  501    0  0.92825172433E+02  0.32168864929E+03  0.16069269022E+03  0.37137883678E+03  0.00000000000E+00 0. -1.
          1    1    1    2  502    0  0.45382244978E+02  0.19781423816E+03  0.11044155311E+04  0.11229085833E+04  0.00000000000E+00 0. -1.
         22    1    3    3    0    0 -0.12578001956E+03 -0.31611076822E+03  0.27689951499E+03  0.43865701010E+03  0.00000000000E+00 0. -1.
         22    1    3    3    0    0 -0.12427397849E+02 -0.20339211922E+03  0.81783936678E+02  0.21957096046E+03  0.00000000000E+00 0. -1.
</event>
<event>
 7    1  0.6176857E-006  0.6308184E+02  0.7818608E-02  0.1417475E+00
          2   -1    0    0  502    0  0.00000000000E+00  0.00000000000E+00  0.56032414137E+03  0.56032414137E+03  0.00000000000E+00 0. -1.
          1   -1    0    0  501    0 -0.00000000000E+00 -0.00000000000E+00 -0.38538848180E+03  0.38538848180E+03  0.00000000000E+00 0. -1.
         25    2    1    2    0    0  0.13888606134E+02 -0.42491949642E+01  0.36658890550E+03  0.38758614436E+03  0.12499857849E+03 0.  0.
          2    1    1    2  501    0 -0.61549754899E+02  0.15331812363E+02 -0.36886702717E+03  0.37428107156E+03  0.00000000000E+00 0. -1.
          1    1    1    2  502    0  0.47661148765E+02 -0.11082617399E+02  0.17721378123E+03  0.18384540725E+03  0.00000000000E+00 0. -1.
         22    1    3    3    0    0  0.61415789858E+02  0.19811007179E+02  0.26652446663E+03  0.27422557605E+03  0.00000000000E+00 0. -1.
         22    1    3    3    0    0 -0.47527183724E+02 -0.24060202143E+02  0.10006443887E+03  0.11336056830E+03  0.00000000000E+00 0. -1.
</event>
<event>
 7    1  0.6176857E-006  0.7927722E+02  0.7818608E-02  0.1407849E+00
          2   -1    0    0  502    0  0.00000000000E+00  0.00000000000E+00  0.49115493135E+03  0.49115493135E+03  0.00000000000E+00 0. -1.
          1   -1    0    0  501    0 -0.00000000000E+00 -0.00000000000E+00 -0.59638199950E+02  0.59638199950E+02  0.00000000000E+00 0. -1.
         25    2    1    2    0    0  0.23384544882E+02  0.88893529050E+02  0.15372300392E+03  0.21841569598E+03  0.12500303143E+03 0.  0.
          2    1    1    2  501    0  0.29004275533E+02 -0.30323517225E+02 -0.17509022126E+01  0.41997968459E+02  0.00000000000E+00 0. -1.
          1    1    1    2  502    0 -0.52388820415E+02 -0.58570011825E+02  0.27954462969E+03  0.29037946686E+03  0.00000000000E+00 0. -1.
         22    1    3    3    0    0  0.45108890435E+02  0.94440259027E+02  0.16336007607E+03  0.19401105374E+03  0.00000000000E+00 0. -1.
         22    1    3    3    0    0 -0.21724345553E+02 -0.55467299767E+01 -0.96370721417E+01  0.24404642235E+02  0.00000000000E+00 0. -1.
</event>
<event>
 7    1  0.6176857E-006  0.1959307E+03  0.7818608E-02  0.1280710E+00
          2   -1    0    0  502    0  0.00000000000E+00  0.00000000000E+00  0.13989377798E+03  0.13989377798E+03  0.00000000000E+00 0. -1.
          1   -1    0    0  501    0 -0.00000000000E+00 -0.00000000000E+00 -0.61796135627E+03  0.61796135627E+03  0.00000000000E+00 0. -1.
         25    2    1    2    0    0  0.15177687752E+03  0.34940911595E+02 -0.35061168300E+02  0.20276478110E+03  0.12500873201E+03 0.  0.
          2    1    1    2  501    0 -0.20138547562E+03 -0.46052921773E+02 -0.45770843438E+03  0.50216928649E+03  0.00000000000E+00 0. -1.
          1    1    1    2  502    0  0.49608598099E+02  0.11112010177E+02  0.14702024382E+02  0.52921066660E+02  0.00000000000E+00 0. -1.
         22    1    3    3    0    0 -0.20367719537E+02  0.17191605092E+02 -0.47007687829E+01  0.27064598869E+02  0.00000000000E+00 0. -1.
         22    1    3    3    0    0  0.17214459705E+03  0.17749306503E+02 -0.30360399517E+02  0.17570018223E+03  0.00000000000E+00 0. -1.
</event>
<event>
 7    1  0.6176857E-006  0.3742770E+02  0.7818608E-02  0.1576694E+00
          2   -1    0    0  502    0  0.00000000000E+00  0.00000000000E+00  0.20391720078E+04  0.20391720078E+04  0.00000000000E+00 0. -1.
          1   -1    0    0  501    0 -0.00000000000E+00 -0.00000000000E+00 -0.56928203391E+03  0.56928203391E+03  0.00000000000E+00 0. -1.
         25    2    1    2    0    0 -0.64382455067E+01  0.10390369667E+02  0.88948611123E+03  0.89830986806E+03  0.12500266476E+03 0.  0.
          2    1    1    2  501    0 -0.83174184605E+01  0.26115221037E+02 -0.56419896738E+03  0.56486428371E+03  0.00000000000E+00 0. -1.
          1    1    1    2  502    0  0.14755663967E+02 -0.36505590703E+02  0.11446028301E+04  0.11452798900E+04  0.00000000000E+00 0. -1.
         22    1    3    3    0    0  0.20442749362E+02  0.39933539632E+02  0.12544684198E+03  0.13322726355E+03  0.00000000000E+00 0.  1.
         22    1    3    3    0    0 -0.26880994869E+02 -0.29543169965E+02  0.76403926925E+03  0.76508260451E+03  0.00000000000E+00 0.  1.
</event>
<event>
 7    1  0.6176857E-006  0.8371033E+02  0.7818608E-02  0.1331225E+00
          2   -1    0    0  502    0  0.00000000000E+00  0.00000000000E+00  0.13242508004E+03  0.13242508004E+03  0.00000000000E+00 0. -1.
          1   -1    0    0  501    0 -0.00000000000E+00 -0.00000000000E+00 -0.10111062995E+04  0.10111062995E+04  0.00000000000E+00 0. -1.
         25    2    1    2    0    0  0.49461468298E+02  0.52715996913E+02 -0.10819714038E+03  0.18043759900E+03  0.12500277105E+03 0.  0.
          2    1    1    2  501    0 -0.85210010196E+02  0.13223540254E+02 -0.84966350694E+03  0.85402791692E+03  0.00000000000E+00 0. -1.
          1    1    1    2  502    0  0.35748541898E+02 -0.65939537168E+02  0.79179427858E+02  0.10906586361E+03  0.00000000000E+00 0. -1.
         22    1    3    3    0    0  0.16349043221E+02 -0.28270351723E+02 -0.83295763894E+02  0.89468923563E+02  0.00000000000E+00 0. -1.
         22    1    3    3    0    0  0.33112425077E+02  0.80986348636E+02 -0.24901376482E+02  0.90968675436E+02  0.00000000000E+00 0. -1.
</event>
<event>
 7    1  0.7645333E-006  0.8672700E+02  0.7818608E-02  0.1337179E+00
          2   -1    0    0  502    0  0.00000000000E+00  0.00000000000E+00  0.16893630797E+04  0.16893630797E+04  0.00000000000E+00 0. -1.
          1   -1    0    0  501    0 -0.00000000000E+00 -0.00000000000E+00 -0.56116522715E+03  0.56116522715E+03  0.00000000000E+00 0. -1.
         25    2    1    2    0    0  0.24479184923E+02  0.12004138823E+03 -0.44458715958E+02  0.18058461829E+03  0.12500024622E+03 0.  0.
          2    1    1    2  501    0 -0.59963529621E+02 -0.61183742024E+02 -0.44381712797E+03  0.45200964398E+03  0.00000000000E+00 0. -1.
          1    1    1    2  502    0  0.35484344698E+02 -0.58857646201E+02  0.16164736964E+04  0.16179340446E+04  0.00000000000E+00 0. -1.
         22    1    3    3    0    0  0.56352065580E+02  0.60753181701E+01 -0.13558958632E+02  0.58277870116E+02  0.00000000000E+00 0.  1.
         22    1    3    3    0    0 -0.31872880658E+02  0.11396607006E+03 -0.30899757327E+02  0.12230674817E+03  0.00000000000E+00 0.  1.
</event>
<event>
 7    1  0.6176857E-006  0.5922208E+02  0.7818608E-02  0.1531400E+00
          2   -1    0    0  502    0  0.00000000000E+00  0.00000000000E+00  0.17294280515E+03  0.17294280515E+03  0.00000000000E+00 0. -1.
          1   -1    0    0  501    0 -0.00000000000E+00 -0.00000000000E+00 -0.11253434293E+04  0.11253434293E+04  0.00000000000E+00 0. -1.
         25    2    1    2    0    0  0.64376198797E+02 -0.30411843730E+02 -0.98722987410E+03  0.99765636410E+03  0.12500488518E+03 0.  0.
          2    1    1    2  501    0 -0.20958731784E+02 -0.97967443187E+01 -0.12659977822E+03  0.12869634215E+03  0.00000000000E+00 0. -1.
          1    1    1    2  502    0 -0.43417467013E+02  0.40208588049E+02  0.16142902815E+03  0.17193352821E+03  0.00000000000E+00 0. -1.
         22    1    3    3    0    0  0.64332045226E+02 -0.10885803135E+02 -0.20393566533E+03  0.21411881829E+03  0.00000000000E+00 0.  1.
         22    1    3    3    0    0  0.44153570496E-01 -0.19526040595E+02 -0.78329420877E+03  0.78353754581E+03  0.00000000000E+00 0.  1.
</event>
<event>
 7    1  0.6176857E-006  0.4995915E+02  0.7818608E-02  0.1567243E+00
          2   -1    0    0  502    0  0.00000000000E+00  0.00000000000E+00  0.49324811977E+03  0.49324811977E+03  0.00000000000E+00 0. -1.
          1   -1    0    0  501    0 -0.00000000000E+00 -0.00000000000E+00 -0.79956251676E+03  0.79956251676E+03  0.00000000000E+00 0. -1.
         25    2    1    2    0    0 -0.63126127268E+02 -0.26809614003E+02 -0.24829734442E+03  0.28632142608E+03  0.12499889774E+03 0.  0.
          2    1    1    2  501    0  0.41357408782E+02  0.26104373872E+02 -0.53087846890E+03  0.53312645999E+03  0.00000000000E+00 0. -1.
          1    1    1    2  502    0  0.21768718487E+02  0.70524013115E+00  0.47286141633E+03  0.47336275046E+03  0.00000000000E+00 0. -1.
         22    1    3    3    0    0 -0.64333313736E+02 -0.57979023974E+02 -0.89698591112E+02  0.12468432028E+03  0.00000000000E+00 0. -1.
         22    1    3    3    0    0  0.12071864671E+01  0.31169409971E+02 -0.15859875331E+03  0.16163710579E+03  0.00000000000E+00 0. -1.
</event>
<event>
 7    1  0.6176857E-006  0.1237476E+03  0.7818608E-02  0.1367831E+00
          2   -1    0    0  502    0  0.00000000000E+00  0.00000000000E+00  0.16287486918E+04  0.16287486918E+04  0.00000000000E+00 0. -1.
          1   -1    0    0  501    0 -0.00000000000E+00 -0.00000000000E+00 -0.15870717015E+04  0.15870717015E+04  0.00000000000E+00 0. -1.
         25    2    1    2    0    0 -0.15810675509E+03  0.12615263085E+02  0.14556404779E+03  0.24893900384E+03  0.12499937903E+03 0.  0.
          2    1    1    2  501    0  0.12331616273E+03  0.32201133900E+00 -0.15326667157E+04  0.15376196673E+04  0.00000000000E+00 0. -1.
          1    1    1    2  502    0  0.34790592361E+02 -0.12937274424E+02  0.14287796582E+04  0.14292617221E+04  0.00000000000E+00 0. -1.
         22    1    3    3    0    0 -0.13880269840E+03  0.22802553775E+02  0.16699978305E+03  0.21834622295E+03  0.00000000000E+00 0.  1.
         22    1    3    3    0    0 -0.19304056692E+02 -0.10187290690E+02 -0.21435735260E+02  0.30592780888E+02  0.00000000000E+00 0.  1.
</event>
<event>
 7    1  0.6176857E-006  0.5609525E+02  0.7818608E-02  0.1424719E+00
          2   -1    0    0  502    0  0.00000000000E+00  0.00000000000E+00  0.10229544185E+04  0.10229544185E+04  0.00000000000E+00 0. -1.
          1   -1    0    0  501    0 -0.00000000000E+00 -0.00000000000E+00 -0.58736849498E+03  0.58736849498E+03  0.00000000000E+00 0. -1.
         25    2    1    2    0    0 -0.10017067208E+02 -0.76963872570E+02 -0.15872297525E+02  0.14798972388E+03  0.12500099692E+03 0.  0.
          2    1    1    2  501    0 -0.32631217794E+02  0.40551724821E+02 -0.50327250449E+03  0.50595696708E+03  0.00000000000E+00 0. -1.
          1    1    1    2  502    0  0.42648285001E+02  0.36412147749E+02  0.95473072553E+03  0.95637622251E+03  0.00000000000E+00 0. -1.
         22    1    3    3    0    0  0.47486044989E+02  0.40827887490E+01 -0.25829353363E+01  0.47731176265E+02  0.00000000000E+00 0. -1.
         22    1    3    3    0    0 -0.57503112197E+02 -0.81046661319E+02 -0.13289362189E+02  0.10025854762E+03  0.00000000000E+00 0. -1.
</event>
<event>
 7    1  0.6176857E-006  0.1106514E+03  0.7818608E-02  0.1371857E+00
          2   -1    0    0  502    0  0.00000000000E+00  0.00000000000E+00  0.28991757441E+03  0.28991757441E+03  0.00000000000E+00 0. -1.
          1   -1    0    0  501    0 -0.00000000000E+00 -0.00000000000E+00 -0.12504719978E+04  0.12504719978E+04  0.00000000000E+00 0. -1.
         25    2    1    2    0    0  0.55868458719E+02  0.70075403483E+02 -0.25692844147E+03  0.29944882248E+03  0.12500210557E+03 0.  0.
          2    1    1    2  501    0 -0.18964989064E+02  0.35389060431E+02 -0.96022806967E+03  0.96106711638E+03  0.00000000000E+00 0. -1.
          1    1    1    2  502    0 -0.36903469655E+02 -0.10546446391E+03  0.25660208773E+03  0.27987363336E+03  0.00000000000E+00 0. -1.
         22    1    3    3    0    0  0.64508335218E+02 -0.11163207147E+01 -0.53711655521E+02  0.83949469465E+02  0.00000000000E+00 0.  1.
         22    1    3    3    0    0 -0.86398764998E+01  0.71191724197E+02 -0.20321678594E+03  0.21549935301E+03  0.00000000000E+00 0.  1.
</event>
<event>
 7    1  0.6176857E-006  0.4632797E+02  0.7818608E-02  0.1511413E+00
          2   -1    0    0  502    0  0.00000000000E+00  0.00000000000E+00  0.99984075737E+03  0.99984075737E+03  0.00000000000E+00 0. -1.
          1   -1    0    0  501    0 -0.00000000000E+00 -0.00000000000E+00 -0.26489397348E+03  0.26489397348E+03  0.00000000000E+00 0. -1.
         25    2    1    2    0    0 -0.91633898366E+01  0.77939175761E+02  0.26077198646E+03  0.29964246890E+03  0.12500038966E+03 0.  0.
          2    1    1    2  501    0  0.12630249402E+02 -0.44322626245E+02 -0.24289394427E+03  0.24722760072E+03  0.00000000000E+00 0. -1.
          1    1    1    2  502    0 -0.34668595654E+01 -0.33616549516E+02  0.71706874171E+03  0.71786466123E+03  0.00000000000E+00 0. -1.
         22    1    3    3    0    0 -0.52829742030E+02  0.79686738421E+02  0.21999132464E+03  0.23986900767E+03  0.00000000000E+00 0. -1.
         22    1    3    3    0    0  0.43666352193E+02 -0.17475626602E+01  0.40780661818E+02  0.59773461230E+02  0.00000000000E+00 0. -1.
</event>
<event>
 7    1  0.6176857E-006  0.1743731E+03  0.7818608E-02  0.1302927E+00
          2   -1    0    0  502    0  0.00000000000E+00  0.00000000000E+00  0.12448244670E+04  0.12448244670E+04  0.00000000000E+00 0. -1.
          1   -1    0    0  501    0 -0.00000000000E+00 -0.00000000000E+00 -0.38775761007E+03  0.38775761007E+03  0.00000000000E+00 0. -1.
         25    2    1    2    0    0 -0.15246910131E+03 -0.94346146635E+02  0.17574106525E+03  0.28046473928E+03  0.12501010248E+03 0.  0.
          2    1    1    2  501    0 -0.14562143294E+02  0.44076680674E+02 -0.32625927745E+03  0.32954502866E+03  0.00000000000E+00 0. -1.
          1    1    1    2  502    0  0.16703124460E+03  0.50269465962E+02  0.10075850691E+04  0.10225723091E+04  0.00000000000E+00 0. -1.
         22    1    3    3    0    0 -0.46335412792E+02 -0.63884175553E+02  0.14623596504E+03  0.16617194659E+03  0.00000000000E+00 0. -1.
         22    1    3    3    0    0 -0.10613368852E+03 -0.30461971082E+02  0.29505100217E+02  0.11429279268E+03  0.00000000000E+00 0. -1.
</event>
<event>
 7    1  0.6176857E-006  0.1445468E+03  0.7818608E-02  0.1304065E+00
          2   -1    0    0  502    0  0.00000000000E+00  0.00000000000E+00  0.75380037905E+03  0.75380037905E+03  0.00000000000E+00 0. -1.
          1   -1    0    0  501    0 -0.00000000000E+00 -0.00000000000E+00 -0.40973753745E+03  0.40973753745E+03  0.00000000000E+00 0. -1.
         25    2    1    2    0    0 -0.66074772998E+01  0.17201124444E+03 -0.20735183966E+03  0.29707479788E+03  0.12500849233E+03 0.  0.
          2    1    1    2  501    0  0.35476234624E+02 -0.12470719771E+03 -0.12952740151E+03  0.18326973598E+03  0.00000000000E+00 0. -1.
          1    1    1    2  502    0 -0.28868757324E+02 -0.47304046727E+02  0.68094208277E+03  0.68319338263E+03  0.00000000000E+00 0. -1.
         22    1    3    3    0    0 -0.56279160398E+02  0.11522083306E+03 -0.86754364507E+02  0.15482087723E+03  0.00000000000E+00 0. -1.
         22    1    3    3    0    0  0.49671683098E+02  0.56790411380E+02 -0.12059747515E+03  0.14225392065E+03  0.00000000000E+00 0. -1.
</event>
<event>
 7    1  0.6176857E-006  0.8784468E+02  0.7818608E-02  0.1332404E+00
          2   -1    0    0  502    0  0.00000000000E+00  0.00000000000E+00  0.20938038914E+04  0.20938038914E+04  0.00000000000E+00 0. -1.
          1   -1    0    0  501    0 -0.00000000000E+00 -0.00000000000E+00 -0.39513944158E+02  0.39513944158E+02  0.00000000000E+00 0. -1.
         25    2    1    2    0    0  0.61856129819E+02  0.12970275869E+03  0.11636313212E+04  0.11791149306E+04  0.12500072584E+03 0.  0.
          2    1    1    2  501    0 -0.15470488180E+02 -0.69028789279E+02  0.11424232351E+02  0.71657678156E+02  0.00000000000E+00 0. -1.
          1    1    1    2  502    0 -0.46385641639E+02 -0.60673969412E+02  0.87923439369E+03  0.88254522681E+03  0.00000000000E+00 0. -1.
         22    1    3    3    0    0 -0.31906216560E+01  0.88594597109E+02  0.90357261558E+03  0.90791114892E+03  0.00000000000E+00 0. -1.
         22    1    3    3    0    0  0.65046751475E+02  0.41108161583E+02  0.26005870563E+03  0.27120378168E+03  0.00000000000E+00 0. -1.
</event>
<event>
 7    1  0.6176857E-006  0.2076729E+03  0.7818608E-02  0.1214557E+00
          2   -1    0    0  502    0  0.00000000000E+00  0.00000000000E+00  0.11810796901E+04  0.11810796901E+04  0.00000000000E+00 0. -1.
          1   -1    0    0  501    0 -0.00000000000E+00 -0.00000000000E+00 -0.11672209589E+04  0.11672209589E+04  0.00000000000E+00 0. -1.
         25    2    1    2    0    0 -0.27632298045E+03  0.26294157893E+02  0.20354534906E+03  0.36621073491E+03  0.12503527891E+03 0.  0.
          2    1    1    2  501    0  0.20315202959E+03  0.31363110677E+02 -0.10736907230E+04  0.10931908161E+04  0.00000000000E+00 0. -1.
          1    1    1    2  502    0  0.73170950862E+02 -0.57657268570E+02  0.88400410507E+03  0.88889909802E+03  0.00000000000E+00 0. -1.
         22    1    3    3    0    0 -0.25343769539E+03  0.15148671544E+02  0.21996141252E+03  0.33592137576E+03  0.00000000000E+00 0.  1.
         22    1    3    3    0    0 -0.22885285059E+02  0.11145486349E+02 -0.16416063456E+02  0.30289359148E+02  0.00000000000E+00 0.  1.
</event>
<event>
 7    1  0.6176857E-006  0.6285134E+02  0.7818608E-02  0.1512906E+00
          2   -1    0    0  502    0  0.00000000000E+00  0.00000000000E+00  0.15459556640E+04  0.15459556640E+04  0.00000000000E+00 0. -1.
          1   -1    0    0  501    0 -0.00000000000E+00 -0.00000000000E+00 -0.69138643399E+02  0.69138643399E+02  0.00000000000E+00 0. -1.
         25    2    1    2    0    0  0.69390567091E+02 -0.67745612631E+01  0.97682182699E+02  0.17328603120E+03  0.12500117723E+03 0.  0.
          2    1    1    2  501    0 -0.87341574842E+01  0.23061671665E+02 -0.25672453054E+02  0.35597767525E+02  0.00000000000E+00 0. -1.
          1    1    1    2  502    0 -0.60656409607E+02 -0.16287110402E+02  0.14048072910E+04  0.14062105087E+04  0.00000000000E+00 0. -1.
         22    1    3    3    0    0 -0.66243058885E+01 -0.88468238535E+01 -0.25912832198E+02  0.28171307981E+02  0.00000000000E+00 0.  1.
         22    1    3    3    0    0  0.76014872980E+02  0.20722625903E+01  0.12359501490E+03  0.14511472322E+03  0.00000000000E+00 0.  1.
</event>
<event>
 7    1  0.6176857E-006  0.2918267E+03  0.7818608E-02  0.1108830E+00
          2   -1    0    0  502    0  0.00000000000E+00  0.00000000000E+00  0.10686523239E+04  0.10686523239E+04  0.00000000000E+00 0. -1.
          1   -1    0    0  501    0 -0.00000000000E+00 -0.00000000000E+00 -0.98138559983E+03  0.98138559983E+03  0.00000000000E+00 0. -1.
         25    2    1    2    0    0  0.73649344294E+02 -0.15434026096E+03  0.34647966670E+00  0.21182889431E+03  0.12500487330E+03 0.  0.
          2    1    1    2  501    0 -0.14756997767E+03 -0.17209501394E+03 -0.83089701859E+03  0.86126851077E+03  0.00000000000E+00 0. -1.
          1    1    1    2  502    0  0.73920633378E+02  0.32643527490E+03  0.91781726302E+03  0.97694051868E+03  0.00000000000E+00 0. -1.
         22    1    3    3    0    0 -0.66243724627E+01  0.10312500323E+02  0.24177270973E+02  0.27106648726E+02  0.00000000000E+00 0. -1.
         22    1    3    3    0    0  0.80273716757E+02 -0.16465276129E+03 -0.23830791306E+02  0.18472224559E+03  0.00000000000E+00 0. -1.
</event>
<event>
 7    1  0.6176857E-006  0.3634636E+02  0.7818608E-02  0.1571864E+00
          2   -1    0    0  502    0  0.00000000000E+00  0.00000000000E+00  0.51645023551E+03  0.51645023551E+03  0.00000000000E+00 0. -1.
          1   -1    0    0  501    0 -0.00000000000E+00 -0.00000000000E+00 -0.29533321803E+03  0.29533321803E+03  0.00000000000E+00 0. -1.
         25    2    1    2    0    0  0.29061015118E+02  0.40713575882E+02  0.12840333483E+02  0.13524617332E+03  0.12499806147E+03 0.  0.
          2    1    1    2  501    0 -0.32107662085E+00 -0.36253113654E+02 -0.23224441197E+03  0.23505713822E+03  0.00000000000E+00 0. -1.
          1    1    1    2  502    0 -0.28739938497E+02 -0.44604622287E+01  0.44052109597E+03  0.44148014200E+03  0.00000000000E+00 0. -1.
         22    1    3    3    0    0  0.48226175753E+02  0.51867876332E+02 -0.37571599536E+02  0.80172724256E+02  0.00000000000E+00 0.  1.
         22    1    3    3    0    0 -0.19165160635E+02 -0.11154300449E+02  0.50411933019E+02  0.55073449061E+02  0.00000000000E+00 0.  1.
</event>
<event>
 7    1  0.6176857E-006  0.1175093E+03  0.7818608E-02  0.1252515E+00
          2   -1    0    0  502    0  0.00000000000E+00  0.00000000000E+00  0.27323890435E+03  0.27323890435E+03  0.00000000000E+00 0. -1.
          1   -1    0    0  501    0 -0.00000000000E+00 -0.00000000000E+00 -0.73047348567E+03  0.73047348567E+03  0.00000000000E+00 0. -1.
         25    2    1    2    0    0  0.10152981374E+03  0.19703552089E+03 -0.88265900860E+01  0.25462542734E+03  0.12499959995E+03 0.  0.
          2    1    1    2  501    0 -0.35423974280E+02 -0.10724133849E+03 -0.57176004889E+03  0.58280795820E+03  0.00000000000E+00 0. -1.
          1    1    1    2  502    0 -0.66105839456E+02 -0.89794182401E+02  0.12335205765E+03  0.16627900448E+03  0.00000000000E+00 0. -1.
         22    1    3    3    0    0  0.11787522208E+03  0.16712097608E+03  0.25686051563E+02  0.20611589427E+03  0.00000000000E+00 0. -1.
         22    1    3    3    0    0 -0.16345408346E+02  0.29914544818E+02 -0.34512641649E+02  0.48509533076E+02  0.00000000000E+00 0. -1.
</event>
<event>
 7    1  0.6176857E-006  0.5205435E+02  0.7818608E-02  0.1476886E+00
          2   -1    0    0  502    0  0.00000000000E+00  0.00000000000E+00  0.66474966284E+03  0.66474966284E+03  0.00000000000E+00 0. -1.
          1   -1    0    0  501    0 -0.00000000000E+00 -0.00000000000E+00 -0.54077054807E+03  0.54077054807E+03  0.00000000000E+00 0. -1.
         25    2    1    2    0    0  0.25091827921E+02 -0.21500373535E+02 -0.12792917541E+03  0.18188977467E+03  0.12500460118E+03 0.  0.
          2    1    1    2  501    0 -0.53908500219E+02 -0.35832510324E+01 -0.38339320329E+03  0.38718124233E+03  0.00000000000E+00 0. -1.
          1    1    1    2  502    0  0.28816672298E+02  0.25083624567E+02  0.63530149348E+03  0.63644919392E+03  0.00000000000E+00 0. -1.
         22    1    3    3    0    0  0.68440277081E+02 -0.42996232225E+02 -0.83235013733E+02  0.11602075256E+03  0.00000000000E+00 0. -1.
         22    1    3    3    0    0 -0.43348449160E+02  0.21495858690E+02 -0.44694161682E+02  0.65869022110E+02  0.00000000000E+00 0. -1.
</event>
<event>
 7    1  0.6176857E-006  0.7630214E+02  0.7818608E-02  0.1483986E+00
          2   -1    0    0  502    0  0.00000000000E+00  0.00000000000E+00  0.85250802641E+02  0.85250802641E+02  0.00000000000E+00 0. -1.
          1   -1    0    0  501    0 -0.00000000000E+00 -0.00000000000E+00 -0.10202048609E+04  0.10202048609E+04  0.00000000000E+00 0. -1.
         25    2    1    2    0    0  0.41551010330E+01 -0.77107454758E+02 -0.57912016588E+03  0.59746907636E+03  0.12500522484E+03 0.  0.
          2    1    1    2  501    0 -0.24544164158E+02  0.34787607419E+01 -0.41226253865E+03  0.41300716524E+03  0.00000000000E+00 0. -1.
          1    1    1    2  502    0  0.20389063125E+02  0.73628694016E+02  0.56428646248E+02  0.94979421955E+02  0.00000000000E+00 0. -1.
         22    1    3    3    0    0 -0.15670139517E+02 -0.10856673691E+03 -0.43954101288E+03  0.45302162381E+03  0.00000000000E+00 0.  1.
         22    1    3    3    0    0  0.19825240550E+02  0.31459282157E+02 -0.13957915300E+03  0.14444745255E+03  0.00000000000E+00 0.  1.
</event>
<event>
 7    1  0.6176857E-006  0.1582882E+03  0.7818608E-02  0.1279847E+00
          2   -1    0    0  502    0  0.00000000000E+00  0.00000000000E+00  0.26032608246E+04  0.26032608246E+04  0.00000000000E+00 0. -1.
          1   -1    0    0  501    0 -0.00000000000E+00 -0.00000000000E+00 -0.41412749358E+02  0.41412749358E+02  0.00000000000E+00 0. -1.
         25    2    1    2    0    0  0.50914040894E+02  0.13045094314E+03  0.29108391942E+03  0.34635838683E+03  0.12499838343E+03 0.  0.
          2    1    1    2  501    0  0.61674818882E+02 -0.14888808048E+02  0.82325490301E+02  0.10393722260E+03  0.00000000000E+00 0. -1.
          1    1    1    2  502    0 -0.11258885978E+03 -0.11556213509E+03  0.21884386656E+04  0.21943779646E+04  0.00000000000E+00 0. -1.
         22    1    3    3    0    0  0.29327822816E+02 -0.14892244802E+02  0.10025869178E+03  0.10551637514E+03  0.00000000000E+00 0. -1.
         22    1    3    3    0    0  0.21586218078E+02  0.14534318794E+03  0.19082522764E+03  0.24084201169E+03  0.00000000000E+00 0. -1.
</event>
<event>
 7    1  0.6176857E-006  0.9167819E+02  0.7818608E-02  0.1358146E+00
          2   -1    0    0  502    0  0.00000000000E+00  0.00000000000E+00  0.24236011133E+03  0.24236011133E+03  0.00000000000E+00 0. -1.
          1   -1    0    0  501    0 -0.00000000000E+00 -0.00000000000E+00 -0.25322250887E+03  0.25322250887E+03  0.00000000000E+00 0. -1.
         25    2    1    2    0    0 -0.28256301125E+02  0.97740218272E+02  0.65867276248E+02  0.17411352174E+03  0.12500180619E+03 0.  0.
          2    1    1    2  501    0  0.53560216824E+02 -0.91166771076E+01 -0.17707399603E+03  0.18522151792E+03  0.00000000000E+00 0. -1.
          1    1    1    2  502    0 -0.25303915699E+02 -0.88623541164E+02  0.10034432224E+03  0.13624758055E+03  0.00000000000E+00 0. -1.
         22    1    3    3    0    0 -0.74434472187E+02  0.35831105317E+02  0.22869324262E+02  0.85716770531E+02  0.00000000000E+00 0. -1.
         22    1    3    3    0    0  0.46178171062E+02  0.61909112955E+02  0.42997951986E+02  0.88396751210E+02  0.00000000000E+00 0. -1.
</event>
<event>
 7    1  0.6176857E-006  0.8033651E+02  0.7818608E-02  0.1335174E+00
          2   -1    0    0  502    0  0.00000000000E+00  0.00000000000E+00  0.56956240886E+03  0.56956240886E+03  0.00000000000E+00 0. -1.
          1   -1    0    0  501    0 -0.00000000000E+00 -0.00000000000E+00 -0.53099185658E+03  0.53099185658E+03  0.00000000000E+00 0. -1.
         25    2    1    2    0    0  0.11412177934E+03  0.94234183634E+02  0.76279671146E+02  0.20820651242E+03  0.12501000640E+03 0.  0.
          2    1    1    2  501    0 -0.44824858530E+02 -0.60755056644E+02 -0.45845031370E+03  0.46462580103E+03  0.00000000000E+00 0. -1.
          1    1    1    2  502    0 -0.69296920812E+02 -0.33479126989E+02  0.42074119483E+03  0.42772195198E+03  0.00000000000E+00 0. -1.
         22    1    3    3    0    0  0.71801587179E+01  0.76830179683E+02  0.26555684239E+01  0.77210641967E+02  0.00000000000E+00 0.  1.
         22    1    3    3    0    0  0.10694162062E+03  0.17404003950E+02  0.73624102722E+02  0.13099587046E+03  0.00000000000E+00 0.  1.
</event>
<event>
 7    1  0.6176857E-006  0.9696639E+02  0.7818608E-02  0.1377600E+00
          2   -1    0    0  502    0  0.00000000000E+00  0.00000000000E+00  0.13110621354E+04  0.13110621354E+04  0.00000000000E+00 0. -1.
          1   -1    0    0  501    0 -0.00000000000E+00 -0.00000000000E+00 -0.54243884592E+03  0.54243884592E+03  0.00000000000E+00 0. -1.
         25    2    1    2    0    0 -0.73493063363E+02 -0.83413918141E+02  0.10409366264E+03  0.19702566556E+03  0.12499804073E+03 0.  0.
          2    1    1    2  501    0 -0.13672023516E+02  0.41510951482E+02 -0.49298944578E+03  0.49492290003E+03  0.00000000000E+00 0. -1.
          1    1    1    2  502    0  0.87165086879E+02  0.41902966659E+02  0.11575190727E+04  0.11615524158E+04  0.00000000000E+00 0. -1.
         22    1    3    3    0    0  0.12785510450E+02  0.25375045132E+02  0.16547394398E+02  0.32881278173E+02  0.00000000000E+00 0. -1.
         22    1    3    3    0    0 -0.86278573813E+02 -0.10878896327E+03  0.87546268237E+02  0.16414438739E+03  0.00000000000E+00 0. -1.
</event>
<event>
 7    1  0.6176857E-006  0.1947791E+03  0.7818608E-02  0.1261614E+00
          2   -1    0    0  502    0  0.00000000000E+00  0.00000000000E+00  0.22887938880E+03  0.22887938880E+03  0.00000000000E+00 0. -1.
          1   -1    0    0  501    0 -0.00000000000E+00 -0.00000000000E+00 -0.73578215649E+03  0.73578215649E+03  0.00000000000E+00 0. -1.
         25    2    1    2    0    0  0.76333704674E+02  0.13951269116E+03 -0.61779498981E+02  0.21150100401E+03  0.12500137095E+03 0.  0.
          2    1    1    2  501    0  0.51396134057E+02  0.33753836819E+02 -0.52122974400E+03  0.52484410079E+03  0.00000000000E+00 0. -1.
          1    1    1    2  502    0 -0.12772983873E+03 -0.17326652798E+03  0.76106475296E+02  0.22831644050E+03  0.00000000000E+00 0. -1.
         22    1    3    3    0    0  0.11032577598E+03  0.92144667160E+02 -0.48493494311E+02  0.15170377557E+03  0.00000000000E+00 0.  1.
         22    1    3    3    0    0 -0.33992071304E+02  0.47368023999E+02 -0.13286004670E+02  0.59797228441E+02  0.00000000000E+00 0.  1.
</event>
<event>
 7    1  0.6176857E-006  0.9238161E+02  0.7818608E-02  0.1322966E+00
          2   -1    0    0  502    0  0.00000000000E+00  0.00000000000E+00  0.38681543643E+04  0.38681543643E+04  0.00000000000E+00 0. -1.
          1   -1    0    0  501    0 -0.00000000000E+00 -0.00000000000E+00 -0.10038962997E+04  0.10038962997E+04  0.00000000000E+00 0. -1.
         25    2    1    2    0    0 -0.43441238422E+02 -0.46399719810E+02  0.43669669824E+03  0.45866010054E+03  0.12500002553E+03 0.  0.
          2    1    1    2  501    0  0.92292004140E+02 -0.79958007230E+01 -0.99036207223E+03  0.99468526730E+03  0.00000000000E+00 0. -1.
          1    1    1    2  502    0 -0.48850765718E+02  0.54395520533E+02  0.34179234386E+04  0.34187052961E+04  0.00000000000E+00 0. -1.
         22    1    3    3    0    0 -0.43911249194E+02  0.24897986541E+02  0.77740840701E+02  0.92691670890E+02  0.00000000000E+00 0.  1.
         22    1    3    3    0    0  0.47001077249E+00 -0.71297706351E+02  0.35895585753E+03  0.36596842965E+03  0.00000000000E+00 0.  1.
</event>
<event>
 7    1  0.6176857E-006  0.1386531E+03  0.7818608E-02  0.1265210E+00
          2   -1    0    0  502    0  0.00000000000E+00  0.00000000000E+00  0.28065090603E+04  0.28065090603E+04  0.00000000000E+00 0. -1.
          1   -1    0    0  501    0 -0.00000000000E+00 -0.00000000000E+00 -0.81555152067E+03  0.81555152067E+03  0.00000000000E+00 0. -1.
         25    2    1    2    0    0 -0.11689335220E+03  0.14521277637E+03 -0.36108888330E+03  0.42515971703E+03  0.12499918853E+03 0.  0.
          2    1    1    2  501    0  0.82668530104E+02 -0.10991135024E+02 -0.41656280460E+03  0.42482874326E+03  0.00000000000E+00 0. -1.
          1    1    1    2  502    0  0.34224822101E+02 -0.13422164135E+03  0.27686092275E+04  0.27720721206E+04  0.00000000000E+00 0. -1.
         22    1    3    3    0    0 -0.11620103118E+03  0.16221869566E+03 -0.28971481473E+03  0.35178439241E+03  0.00000000000E+00 0.  1.
         22    1    3    3    0    0 -0.69232102382E+00 -0.17005919289E+02 -0.71374068568E+02  0.73375324621E+02  0.00000000000E+00 0.  1.
</event>
<event>
 7    1  0.6176857E-006  0.4544569E+02  0.7818608E-02  0.1544209E+00
          2   -1    0    0  502    0  0.00000000000E+00  0.00000000000E+00  0.39972461679E+03  0.39972461679E+03  0.00000000000E+00 0. -1.
          1   -1    0    0  501    0 -0.00000000000E+00 -0.00000000000E+00 -0.21576895698E+03  0.21576895698E+03  0.00000000000E+00 0. -1.
         25    2    1    2    0    0  0.49610960233E+02  0.16236933349E+02  0.11957012205E+03  0.18070170959E+03  0.12502483106E+03 0.  0.
          2    1    1    2  501    0 -0.44127975174E+02  0.10945810787E+02 -0.18162210091E+03  0.18722627088E+03  0.00000000000E+00 0. -1.
          1    1    1    2  502    0 -0.54829850584E+01 -0.27182744136E+02  0.24600763867E+03  0.24756559331E+03  0.00000000000E+00 0. -1.
         22    1    3    3    0    0  0.27145325833E+02  0.33736765862E+02  0.13941963559E+03  0.14598929027E+03  0.00000000000E+00 0.  1.
         22    1    3    3    0    0  0.22465634400E+02 -0.17499832514E+02 -0.19849513545E+02  0.34712419319E+02  0.00000000000E+00 0.  1.
</event>
<event>
 7    1  0.6176857E-006  0.1028015E+03  0.7818608E-02  0.1422542E+00
          2   -1    0    0  502    0  0.00000000000E+00  0.00000000000E+00  0.41745522084E+03  0.41745522084E+03  0.00000000000E+00 0. -1.
          1   -1    0    0  501    0 -0.00000000000E+00 -0.00000000000E+00 -0.39147708419E+03  0.39147708419E+03  0.00000000000E+00 0. -1.
         25    2    1    2    0    0  0.93983791162E+02  0.74199645633E+01 -0.66899756367E+02  0.17025503284E+03  0.12499275952E+03 0.  0.
          2    1    1    2  501    0  0.75152597620E+01 -0.27884013340E+02 -0.26477135896E+03  0.26634164124E+03  0.00000000000E+00 0. -1.
          1    1    1    2  502    0 -0.10149905092E+03  0.20464048777E+02  0.35764925198E+03  0.37233563094E+03  0.00000000000E+00 0. -1.
         22    1    3    3    0    0 -0.17222936156E+02  0.35142387526E+02 -0.31692905621E+02  0.50359281146E+02  0.00000000000E+00 0. -1.
         22    1    3    3    0    0  0.11120672732E+03 -0.27722422963E+02 -0.35206850746E+02  0.11989575170E+03  0.00000000000E+00 0. -1.
</event>
<event>
 7    1  0.6176857E-006  0.7709735E+02  0.7818608E-02  0.1378440E+00
          2   -1    0    0  502    0  0.00000000000E+00  0.00000000000E+00  0.16631120858E+04  0.16631120858E+04  0.00000000000E+00 0. -1.
          1   -1    0    0  501    0 -0.00000000000E+00 -0.00000000000E+00 -0.32904382072E+03  0.32904382072E+03  0.00000000000E+00 0. -1.
         25    2    1    2    0    0 -0.34108313084E+02 -0.44716762358E+02 -0.27640577949E+02  0.13983037381E+03  0.12500226411E+03 0.  0.
          2    1    1    2  501    0 -0.67287582362E+01  0.80945812137E+02 -0.23810630188E+03  0.25157923540E+03  0.00000000000E+00 0. -1.
          1    1    1    2  502    0  0.40837071320E+02 -0.36229049778E+02  0.15998151449E+04  0.16007462973E+04  0.00000000000E+00 0. -1.
         22    1    3    3    0    0  0.19703885993E+02 -0.72291253287E+02 -0.44181375604E+01  0.75058566230E+02  0.00000000000E+00 0.  1.
         22    1    3    3    0    0 -0.53812199076E+02  0.27574490929E+02 -0.23222440389E+02  0.64771807579E+02  0.00000000000E+00 0.  1.
</event>
<event>
 7    1  0.6176857E-006  0.2888391E+02  0.7818608E-02  0.1666190E+00
          2   -1    0    0  502    0  0.00000000000E+00  0.00000000000E+00  0.10569683791E+04  0.10569683791E+04  0.00000000000E+00 0. -1.
          1   -1    0    0  501    0 -0.00000000000E+00 -0.00000000000E+00 -0.42764753802E+03  0.42764753802E+03  0.00000000000E+00 0. -1.
         25    2    1    2    0    0 -0.44425334159E+02  0.10240264575E+02  0.12093191762E+03  0.17979963858E+03  0.12499963200E+03 0.  0.
          2    1    1    2  501    0  0.20304906637E+02  0.54515722173E+01 -0.39770762066E+03  0.39826292873E+03  0.00000000000E+00 0. -1.
          1    1    1    2  502    0  0.24120427522E+02 -0.15691836792E+02  0.90609654416E+03  0.90655334984E+03  0.00000000000E+00 0. -1.
         22    1    3    3    0    0 -0.65943069394E+02  0.44143930268E+02  0.11422986776E+03  0.13908859647E+03  0.00000000000E+00 0. -1.
         22    1    3    3    0    0  0.21517735235E+02 -0.33903665694E+02  0.67020498630E+01  0.40711042108E+02  0.00000000000E+00 0. -1.
</event>
<event>
 7    1  0.6176857E-006  0.1552282E+03  0.7818608E-02  0.1300077E+00
          2   -1    0    0  502    0  0.00000000000E+00  0.00000000000E+00  0.23050190995E+04  0.23050190995E+04  0.00000000000E+00 0. -1.
          1   -1    0    0  501    0 -0.00000000000E+00 -0.00000000000E+00 -0.13697613781E+03  0.13697613781E+03  0.00000000000E+00 0. -1.
         25    2    1    2    0    0 -0.87193876022E+02 -0.71288464287E+02  0.54336702368E+03  0.56882136439E+03  0.12500082003E+03 0.  0.
          2    1    1    2  501    0  0.14059629255E+03  0.74981114030E+02 -0.72567002920E+02  0.17508699224E+03  0.00000000000E+00 0. -1.
          1    1    1    2  502    0 -0.53402416529E+02 -0.36926497423E+01  0.16972429410E+04  0.16980868807E+04  0.00000000000E+00 0. -1.
         22    1    3    3    0    0 -0.11206495937E+03 -0.54248001457E+02  0.31896911633E+03  0.34240721072E+03  0.00000000000E+00 0. -1.
         22    1    3    3    0    0  0.24871083344E+02 -0.17040462831E+02  0.22439790735E+03  0.22641415367E+03  0.00000000000E+00 0. -1.
</event>
<event>
 7    1  0.6176857E-006  0.7078920E+02  0.7818608E-02  0.1366121E+00
          2   -1    0    0  502    0  0.00000000000E+00  0.00000000000E+00  0.13828827766E+04  0.13828827766E+04  0.00000000000E+00 0. -1.
          1   -1    0    0  501    0 -0.00000000000E+00 -0.00000000000E+00 -0.88996456655E+02  0.88996456655E+02  0.00000000000E+00 0. -1.
         25    2    1    2    0    0 -0.71916626560E+02 -0.10264888469E+03  0.22248546406E+03  0.28431146438E+03  0.12499772939E+03 0.  0.
          2    1    1    2  501    0  0.55439134591E+02  0.35472074625E+02 -0.38009560342E+02  0.76003239403E+02  0.00000000000E+00 0. -1.
          1    1    1    2  502    0  0.16477491969E+02  0.67176810069E+02  0.11094104162E+04  0.11115645295E+04  0.00000000000E+00 0. -1.
         22    1    3    3    0    0 -0.86913471050E+02 -0.16627626616E+02  0.95425454150E+02  0.13014010418E+03  0.00000000000E+00 0. -1.
         22    1    3    3    0    0  0.14996844490E+02 -0.86021258078E+02  0.12706000991E+03  0.15417136020E+03  0.00000000000E+00 0. -1.
</event>
<event>
 7    1  0.6176857E-006  0.8355324E+02  0.7818608E-02  0.1377864E+00
          2   -1    0    0  502    0  0.00000000000E+00  0.00000000000E+00  0.39995111733E+03  0.39995111733E+03  0.00000000000E+00 0. -1.
          1   -1    0    0  501    0 -0.00000000000E+00 -0.00000000000E+00 -0.79344126523E+03  0.79344126523E+03  0.00000000000E+00 0. -1.
         25    2    1    2    0    0 -0.11625148440E+03 -0.40436126963E+02  0.59059051829E+02  0.18510249560E+03  0.12500189712E+03 0.  0.
          2    1    1    2  501    0  0.36134384401E+02  0.35436795986E+02 -0.72371986407E+03  0.72548735475E+03  0.00000000000E+00 0. -1.
          1    1    1    2  502    0  0.80117100004E+02  0.49993309771E+01  0.27117066435E+03  0.28280253221E+03  0.00000000000E+00 0. -1.
         22    1    3    3    0    0  0.24811041991E+02  0.79904839890E+01  0.12128407447E+02  0.28749502713E+02  0.00000000000E+00 0.  1.
         22    1    3    3    0    0 -0.14106252640E+03 -0.48426610952E+02  0.46930644382E+02  0.15635299288E+03  0.00000000000E+00 0.  1.
</event>
<event>
 7    1  0.6176857E-006  0.1402447E+03  0.7818608E-02  0.1312512E+00
          2   -1    0    0  502    0  0.00000000000E+00  0.00000000000E+00  0.11200668343E+04  0.11200668343E+04  0.00000000000E+00 0. -1.
          1   -1    0    0  501    0 -0.00000000000E+00 -0.00000000000E+00 -0.10545118178E+04  0.10545118178E+04  0.00000000000E+00 0. -1.
         25    2    1    2    0    0 -0.92947606903E+02  0.43556584965E+02 -0.80478062338E+02  0.18066773270E+03  0.12501070913E+03 0.  0.
          2    1    1    2  501    0  0.14263139959E+03 -0.25416568455E+02 -0.91759832791E+03  0.92896523589E+03  0.00000000000E+00 0. -1.
          1    1    1    2  502    0 -0.49683792689E+02 -0.18140016510E+02  0.10636314068E+04  0.10649456836E+04  0.00000000000E+00 0. -1.
         22    1    3    3    0    0 -0.12217838122E+03  0.19745675766E+02 -0.57047153627E+02  0.13627848798E+03  0.00000000000E+00 0. -1.
         22    1    3    3    0    0  0.29230774313E+02  0.23810909199E+02 -0.23430908712E+02  0.44389244721E+02  0.00000000000E+00 0. -1.
</event>
<event>
 7    1  0.6176857E-006  0.5152348E+02  0.7818608E-02  0.1483560E+00
          2   -1    0    0  502    0  0.00000000000E+00  0.00000000000E+00  0.49986696890E+03  0.49986696890E+03  0.00000000000E+00 0. -1.
          1   -1    0    0  501    0 -0.00000000000E+00 -0.00000000000E+00 -0.14011489255E+04  0.14011489255E+04  0.00000000000E+00 0. -1.
         25    2    1    2    0    0  0.76883384306E+02  0.46268740166E+00 -0.99805778803E+03  0.10087899498E+04  0.12500618263E+03 0.  0.
          2    1    1    2  501    0 -0.43476004569E+02  0.15021497765E+02 -0.39570551345E+03  0.39837000608E+03  0.00000000000E+00 0. -1.
          1    1    1    2  502    0 -0.33407379737E+02 -0.15484185167E+02  0.49248134486E+03  0.49385593855E+03  0.00000000000E+00 0. -1.
         22    1    3    3    0    0  0.35397624442E+02 -0.45454711721E+02 -0.77990230771E+03  0.78202732190E+03  0.00000000000E+00 0. -1.
         22    1    3    3    0    0  0.41485759864E+02  0.45917399123E+02 -0.21815548033E+03  0.22676262790E+03  0.00000000000E+00 0. -1.
</event>
<event>
 7    1  0.6176857E-006  0.1383701E+03  0.7818608E-02  0.1305924E+00
          2   -1    0    0  502    0  0.00000000000E+00  0.00000000000E+00  0.21790672954E+04  0.21790672954E+04  0.00000000000E+00 0. -1.
          1   -1    0    0  501    0 -0.00000000000E+00 -0.00000000000E+00 -0.72527033373E+03  0.72527033373E+03  0.00000000000E+00 0. -1.
         25    2    1    2    0    0 -0.78852177163E+02 -0.28387423083E+02  0.18038326285E+03  0.23491823384E+03  0.12499977378E+03 0.  0.
          2    1    1    2  501    0  0.13489884908E+03  0.38292797996E+02 -0.69054345839E+03  0.70463771244E+03  0.00000000000E+00 0. -1.
          1    1    1    2  502    0 -0.56046671918E+02 -0.99053749127E+01  0.19639571572E+04  0.19647816829E+04  0.00000000000E+00 0. -1.
         22    1    3    3    0    0  0.72128256949E+00 -0.57152223046E+02  0.11344080789E+03  0.12702642930E+03  0.00000000000E+00 0.  1.
         22    1    3    3    0    0 -0.79573459733E+02  0.28764799962E+02  0.66942454960E+02  0.10789180454E+03  0.00000000000E+00 0.  1.
</event>
<event>
 7    1  0.1426490E-005  0.8756189E+02  0.7818608E-02  0.1487271E+00
          2   -1    0    0  502    0  0.00000000000E+00  0.00000000000E+00  0.12661095546E+04  0.12661095546E+04  0.00000000000E+00 0. -1.
          1   -1    0    0  501    0 -0.00000000000E+00 -0.00000000000E+00 -0.19210655375E+04  0.19210655375E+04  0.00000000000E+00 0. -1.
         25    2    1    2    0    0  0.25193354443E+02 -0.10201427452E+03 -0.10129803617E+04  0.10260585613E+04  0.12500136280E+03 0.  0.
          2    1    1    2  501    0  0.60233024282E+01  0.20232653789E+02 -0.89990124289E+03  0.90014881404E+03  0.00000000000E+00 0. -1.
          1    1    1    2  502    0 -0.31216656871E+02  0.81781620731E+02  0.12579256217E+04  0.12609677168E+04  0.00000000000E+00 0. -1.
         22    1    3    3    0    0  0.94053490087E+01  0.27106428604E+02 -0.29476199711E+03  0.29615511814E+03  0.00000000000E+00 0. -1.
         22    1    3    3    0    0  0.15788005434E+02 -0.12912070312E+03 -0.71821836460E+03  0.72990344317E+03  0.00000000000E+00 0. -1.
</event>
<event>
 7    1  0.6176857E-006  0.6752139E+02  0.7818608E-02  0.1407900E+00
          2   -1    0    0  502    0  0.00000000000E+00  0.00000000000E+00  0.17691396177E+04  0.17691396177E+04  0.00000000000E+00 0. -1.
          1   -1    0    0  501    0 -0.00000000000E+00 -0.00000000000E+00 -0.41325286871E+03  0.41325286871E+03  0.00000000000E+00 0. -1.
         25    2    1    2    0    0 -0.35056210600E+02  0.26595777603E+02  0.14183054660E+03  0.19410496289E+03  0.12499823753E+03 0.  0.
          2    1    1    2  501    0  0.67355331583E+02  0.10580713083E+02 -0.38373118988E+03  0.38974134790E+03  0.00000000000E+00 0. -1.
          1    1    1    2  502    0 -0.32299120983E+02 -0.37176490686E+02  0.15977873922E+04  0.15985461756E+04  0.00000000000E+00 0. -1.
         22    1    3    3    0    0  0.34386234562E+02  0.42575504425E+02  0.92366460255E+02  0.10736223584E+03  0.00000000000E+00 0.  1.
         22    1    3    3    0    0 -0.69442445162E+02 -0.15979726822E+02  0.49464086340E+02  0.86742727054E+02  0.00000000000E+00 0.  1.
</event>
<event>
 7    1  0.6176857E-006  0.7946390E+02  0.7818608E-02  0.1443526E+00
          2   -1    0    0  502    0  0.00000000000E+00  0.00000000000E+00  0.64131955978E+03  0.64131955978E+03  0.00000000000E+00 0. -1.
          1   -1    0    0  501    0 -0.00000000000E+00 -0.00000000000E+00 -0.12729980435E+03  0.12729980435E+03  0.00000000000E+00 0. -1.
         25    2    1    2    0    0  0.88645582337E+02  0.32227303167E+02  0.25485683348E+03  0.29912187052E+03  0.12500099807E+03 0.  0.
          2    1    1    2  501    0 -0.11276476017E+02 -0.29827493206E+02 -0.98510969434E+02  0.10354346605E+03  0.00000000000E+00 0. -1.
          1    1    1    2  502    0 -0.77369106320E+02 -0.23998099612E+01  0.35767389139E+03  0.36595402756E+03  0.00000000000E+00 0. -1.
         22    1    3    3    0    0  0.97893253287E+02  0.61273450926E+01  0.93850343479E+02  0.13575168643E+03  0.00000000000E+00 0. -1.
         22    1    3    3    0    0 -0.92476709507E+01  0.26099958074E+02  0.16100649000E+03  0.16337018409E+03  0.00000000000E+00 0. -1.
</event>
<event>
 7    1  0.6176857E-006  0.6021767E+02  0.7818608E-02  0.1404026E+00
          2   -1    0    0  502    0  0.00000000000E+00  0.00000000000E+00  0.21936793797E+03  0.21936793797E+03  0.00000000000E+00 0. -1.
          1   -1    0    0  501    0 -0.00000000000E+00 -0.00000000000E+00 -0.27915259381E+04  0.27915259381E+04  0.00000000000E+00 0. -1.
         25    2    1    2    0    0 -0.68600495101E+01 -0.88425127432E+02 -0.97166964938E+03  0.98368329345E+03  0.12499940341E+03 0.  0.
          2    1    1    2  501    0  0.41359260052E+02  0.39114230045E+02 -0.18091491620E+04  0.18100445303E+04  0.00000000000E+00 0. -1.
          1    1    1    2  502    0 -0.34499210542E+02  0.49310897387E+02  0.20866081124E+03  0.21716605231E+03  0.00000000000E+00 0. -1.
         22    1    3    3    0    0  0.39018405984E+02 -0.78434338097E+02 -0.37189898011E+03  0.38207752198E+03  0.00000000000E+00 0.  1.
         22    1    3    3    0    0 -0.45878455494E+02 -0.99907893344E+01 -0.59977066927E+03  0.60160577147E+03  0.00000000000E+00 0.  1.
</event>
<event>
 7    1  0.6176857E-006  0.1751388E+03  0.7818608E-02  0.1293147E+00
          2   -1    0    0  502    0  0.00000000000E+00  0.00000000000E+00  0.11976270140E+04  0.11976270140E+04  0.00000000000E+00 0. -1.
          1   -1    0    0  501    0 -0.00000000000E+00 -0.00000000000E+00 -0.97568617708E+03  0.97568617708E+03  0.00000000000E+00 0. -1.
         25    2    1    2    0    0 -0.11914975404E+03 -0.50216962963E+02  0.22185661133E+02  0.18120643806E+03  0.12500064951E+03 0.  0.
          2    1    1    2  501    0 -0.49234841439E+02 -0.11637052781E+02 -0.88811043013E+03  0.88955023845E+03  0.00000000000E+00 0. -1.
          1    1    1    2  502    0  0.16838459548E+03  0.61854015744E+02  0.10878656059E+04  0.11025565146E+04  0.00000000000E+00 0. -1.
         22    1    3    3    0    0 -0.49533849835E+02 -0.21660251859E+02 -0.52378045908E+02  0.75274354751E+02  0.00000000000E+00 0. -1.
         22    1    3    3    0    0 -0.69615904203E+02 -0.28556711104E+02  0.74563707041E+02  0.10593208331E+03  0.00000000000E+00 0. -1.
</event>
<event>
 7    1  0.6176857E-006  0.4255187E+03  0.7818608E-02  0.1147253E+00
          2   -1    0    0  502    0  0.00000000000E+00  0.00000000000E+00  0.17155972069E+04  0.17155972069E+04  0.00000000000E+00 0. -1.
          1   -1    0    0  501    0 -0.00000000000E+00 -0.00000000000E+00 -0.23429432339E+04  0.23429432339E+04  0.00000000000E+00 0. -1.
         25    2    1    2    0    0 -0.37276199927E+03 -0.17392663401E+03  0.28985661326E+03  0.51850149353E+03  0.12499984170E+03 0.  0.
          2    1    1    2  501    0  0.31431518406E+02 -0.91576275483E+02 -0.21918749422E+04  0.21940122873E+04  0.00000000000E+00 0. -1.
          1    1    1    2  502    0  0.34133048086E+03  0.26550290950E+03  0.12746723019E+04  0.13460266600E+04  0.00000000000E+00 0. -1.
         22    1    3    3    0    0 -0.33146801262E+03 -0.10778183052E+03  0.26066331930E+03  0.43523939667E+03  0.00000000000E+00 0. -1.
         22    1    3    3    0    0 -0.41293986652E+02 -0.66144803490E+02  0.29193293956E+02  0.83262096865E+02  0.00000000000E+00 0. -1.
</event>
<event>
 7    1  0.6176857E-006  0.8047530E+02  0.7818608E-02  0.1415148E+00
          2   -1    0    0  502    0  0.00000000000E+00  0.00000000000E+00  0.20411335465E+03  0.20411335465E+03  0.00000000000E+00 0. -1.
          1   -1    0    0  501    0 -0.00000000000E+00 -0.00000000000E+00 -0.79290667272E+03  0.79290667272E+03  0.00000000000E+00 0. -1.
         25    2    1    2    0    0  0.40810945604E+02  0.66253375119E+02 -0.14031840243E+03  0.20339810724E+03  0.12500597175E+03 0.  0.
          2    1    1    2  501    0 -0.36167992284E+02  0.14731744760E+02 -0.61085792141E+03  0.61210501397E+03  0.00000000000E+00 0. -1.
          1    1    1    2  502    0 -0.46429533201E+01 -0.80985119879E+02  0.16238300578E+03  0.18151690616E+03  0.00000000000E+00 0. -1.
         22    1    3    3    0    0 -0.38005484655E+02  0.49945874210E+02 -0.38573454890E+02  0.73667622716E+02  0.00000000000E+00 0.  1.
         22    1    3    3    0    0  0.78816430258E+02  0.16307500909E+02 -0.10174494754E+03  0.12973048452E+03  0.00000000000E+00 0.  1.
</event>
<event>
 7    1  0.6176857E-006  0.9322949E+02  0.7818608E-02  0.1411699E+00
          2   -1    0    0  502    0  0.00000000000E+00  0.00000000000E+00  0.11260531842E+04  0.11260531842E+04  0.00000000000E+00 0. -1.
          1   -1    0    0  501    0 -0.00000000000E+00 -0.00000000000E+00 -0.20204534195E+03  0.20204534195E+03  0.00000000000E+00 0. -1.
         25    2    1    2    0    0 -0.31702896880E+02  0.82035180889E+02 -0.93208247091E+02  0.17901869928E+03  0.12500029117E+03 0.  0.
          2    1    1    2  501    0  0.32709007530E+02  0.11359112737E+02 -0.59219794077E+02  0.68599508936E+02  0.00000000000E+00 0. -1.
          1    1    1    2  502    0 -0.10061106495E+01 -0.93394293627E+02  0.10764358834E+04  0.10804803179E+04  0.00000000000E+00 0. -1.
         22    1    3    3    0    0 -0.60328892557E+01  0.93042446199E+01  0.30937621940E+02  0.32864892698E+02  0.00000000000E+00 0.  1.
         22    1    3    3    0    0 -0.25670007624E+02  0.72730936269E+02 -0.12414586903E+03  0.14615380659E+03  0.00000000000E+00 0.  1.
</event>
<event>
 7    1  0.6176857E-006  0.4613671E+02  0.7818608E-02  0.1478838E+00
          2   -1    0    0  502    0  0.00000000000E+00  0.00000000000E+00  0.91395155888E+03  0.91395155888E+03  0.00000000000E+00 0. -1.
          1   -1    0    0  501    0 -0.00000000000E+00 -0.00000000000E+00 -0.24402796058E+02  0.24402796058E+02  0.00000000000E+00 0. -1.
         25    2    1    2    0    0  0.77319025270E+01 -0.42011997359E+02  0.28016655007E+03  0.30976165785E+03  0.12503678923E+03 0.  0.
          2    1    1    2  501    0 -0.41628030047E+02  0.86287332743E+01  0.43893916731E+02  0.61106659617E+02  0.00000000000E+00 0. -1.
          1    1    1    2  502    0  0.33896127521E+02  0.33383264085E+02  0.56548829603E+03  0.56748603747E+03  0.00000000000E+00 0. -1.
         22    1    3    3    0    0  0.30324547821E+02 -0.33469391760E+00  0.25362262785E+03  0.25542930055E+03  0.00000000000E+00 0.  1.
         22    1    3    3    0    0 -0.22592645294E+02 -0.41677303442E+02  0.26543922214E+02  0.54332357303E+02  0.00000000000E+00 0.  1.
</event>
<event>
 7    1  0.6176857E-006  0.1158646E+03  0.7818608E-02  0.1313867E+00
          2   -1    0    0  502    0  0.00000000000E+00  0.00000000000E+00  0.72984335633E+03  0.72984335633E+03  0.00000000000E+00 0. -1.
          1   -1    0    0  501    0 -0.00000000000E+00 -0.00000000000E+00 -0.54322804072E+03  0.54322804072E+03  0.00000000000E+00 0. -1.
         25    2    1    2    0    0  0.12460083921E+03 -0.38011004016E+02 -0.80129190920E+02  0.19752429149E+03  0.12499981172E+03 0.  0.
          2    1    1    2  501    0 -0.11246641866E+02  0.62235039549E+02 -0.39687399392E+03  0.40188139314E+03  0.00000000000E+00 0. -1.
          1    1    1    2  502    0 -0.11335419735E+03 -0.24224035533E+02  0.66361850045E+03  0.67366571243E+03  0.00000000000E+00 0. -1.
         22    1    3    3    0    0 -0.21304046672E+02 -0.94064862441E+00 -0.33892794900E+02  0.40043336157E+02  0.00000000000E+00 0.  1.
         22    1    3    3    0    0  0.14590488589E+03 -0.37070355392E+02 -0.46236396020E+02  0.15748095533E+03  0.00000000000E+00 0.  1.
</event>
<event>
 7    1  0.6176857E-006  0.8401366E+02  0.7818608E-02  0.1470588E+00
          2   -1    0    0  502    0  0.00000000000E+00  0.00000000000E+00  0.10792869641E+04  0.10792869641E+04  0.00000000000E+00 0. -1.
          1   -1    0    0  501    0 -0.00000000000E+00 -0.00000000000E+00 -0.65274225899E+03  0.65274225899E+03  0.00000000000E+00 0. -1.
         25    2    1    2    0    0 -0.12059931336E+01 -0.10011401941E+03  0.41549586699E+03  0.44529275132E+03  0.12499819037E+03 0.  0.
          2    1    1    2  501    0  0.14875742577E+02  0.19790353255E+02 -0.63504393272E+03  0.63552635058E+03  0.00000000000E+00 0. -1.
          1    1    1    2  502    0 -0.13669749444E+02  0.80323666157E+02  0.64609277089E+03  0.65121012123E+03  0.00000000000E+00 0. -1.
         22    1    3    3    0    0 -0.56340944812E+02 -0.26998547604E+02  0.23130554357E+03  0.23959440336E+03  0.00000000000E+00 0.  1.
         22    1    3    3    0    0  0.55134951678E+02 -0.73115471809E+02  0.18419032342E+03  0.20569834797E+03  0.00000000000E+00 0.  1.
</event>
<event>
 7    1  0.6176857E-006  0.9124747E+02  0.7818608E-02  0.1341890E+00
          2   -1    0    0  502    0  0.00000000000E+00  0.00000000000E+00  0.67549050337E+02  0.67549050337E+02  0.00000000000E+00 0. -1.
          1   -1    0    0  501    0 -0.00000000000E+00 -0.00000000000E+00 -0.88493633553E+03  0.88493633553E+03  0.00000000000E+00 0. -1.
         25    2    1    2    0    0  0.80971140984E+02 -0.71712131545E+02 -0.34194185031E+03  0.37980066372E+03  0.12500143874E+03 0.  0.
          2    1    1    2  501    0  0.98363304532E+01  0.61931669413E+02 -0.47723233225E+03  0.48133458635E+03  0.00000000000E+00 0. -1.
          1    1    1    2  502    0 -0.90807471437E+02  0.97804621315E+01  0.17868973625E+01  0.91350135799E+02  0.00000000000E+00 0. -1.
         22    1    3    3    0    0  0.65676891585E+02 -0.10694038549E+03 -0.28123575250E+03  0.30796631086E+03  0.00000000000E+00 0.  1.
         22    1    3    3    0    0  0.15294249399E+02  0.35228253943E+02 -0.60706097807E+02  0.71834352864E+02  0.00000000000E+00 0.  1.
</event>
<event>
 7    1  0.6176857E-006  0.1594755E+03  0.7818608E-02  0.1325188E+00
          2   -1    0    0  502    0  0.00000000000E+00  0.00000000000E+00  0.88724703187E+03  0.88724703187E+03  0.00000000000E+00 0. -1.
          1   -1    0    0  501    0 -0.00000000000E+00 -0.00000000000E+00 -0.41064547490E+03  0.41064547490E+03  0.00000000000E+00 0. -1.
         25    2    1    2    0    0  0.13585206084E+03 -0.11767551207E+03  0.16508434252E+03  0.27419190756E+03  0.12500021381E+03 0.  0.
          2    1    1    2  501    0 -0.13855576252E+03  0.76238375266E+02 -0.33783706526E+03  0.37301993492E+03  0.00000000000E+00 0. -1.
          1    1    1    2  502    0  0.27037016824E+01  0.41437136808E+02  0.64935427970E+03  0.65068066429E+03  0.00000000000E+00 0. -1.
         22    1    3    3    0    0  0.50388727682E+02 -0.11392685177E+03  0.58786714289E+02  0.13774697532E+03  0.00000000000E+00 0. -1.
         22    1    3    3    0    0  0.85463333155E+02 -0.37486603016E+01  0.10629762823E+03  0.13644493224E+03  0.00000000000E+00 0. -1.
</event>
<event>
 7    1  0.6176857E-006  0.9961824E+02  0.7818608E-02  0.1353354E+00
          2   -1    0    0  502    0  0.00000000000E+00  0.00000000000E+00  0.77598663208E+03  0.77598663208E+03  0.00000000000E+00 0. -1.
          1   -1    0    0  501    0 -0.00000000000E+00 -0.00000000000E+00 -0.55405569994E+03  0.55405569994E+03  0.00000000000E+00 0. -1.
         25    2    1    2    0    0  0.82197765423E+02 -0.12455940509E+03  0.39264363695E+02  0.19859133290E+03  0.12500123683E+03 0.  0.
          2    1    1    2  501    0 -0.31699760004E+02  0.41306361109E+02 -0.46933719565E+03  0.47221657475E+03  0.00000000000E+00 0. -1.
          1    1    1    2  502    0 -0.50498005419E+02  0.83253043985E+02  0.65200376409E+03  0.65923442437E+03  0.00000000000E+00 0. -1.
         22    1    3    3    0    0  0.10686749560E+02 -0.11316826486E+03 -0.48931667610E+01  0.11377700061E+03  0.00000000000E+00 0.  1.
         22    1    3    3    0    0  0.71511015863E+02 -0.11391140235E+02  0.44157530456E+02  0.84814332289E+02  0.00000000000E+00 0.  1.
</event>
<event>
 7    1  0.6176857E-006  0.2879350E+02  0.7818608E-02  0.1675477E+00
          2   -1    0    0  502    0  0.00000000000E+00  0.00000000000E+00  0.15774926152E+04  0.15774926152E+04  0.00000000000E+00 0. -1.
          1   -1    0    0  501    0 -0.00000000000E+00 -0.00000000000E+00 -0.12315165579E+04  0.12315165579E+04  0.00000000000E+00 0. -1.
         25    2    1    2    0    0 -0.30507574250E+02  0.32148974308E+02  0.91284608492E+03  0.92243032328E+03  0.12500183166E+03 0.  0.
          2    1    1    2  501    0  0.25860368270E+02 -0.12655899148E+02 -0.12264033012E+04  0.12267412065E+04  0.00000000000E+00 0. -1.
          1    1    1    2  502    0  0.46472059794E+01 -0.19493075160E+02  0.65953327366E+03  0.65983764333E+03  0.00000000000E+00 0. -1.
         22    1    3    3    0    0 -0.16606618405E+02  0.59831230474E+02  0.21215780802E+03  0.22105766537E+03  0.00000000000E+00 0. -1.
         22    1    3    3    0    0 -0.13900955845E+02 -0.27682256167E+02  0.70068827690E+03  0.70137265791E+03  0.00000000000E+00 0. -1.
</event>
<event>
 7    1  0.6176857E-006  0.2568130E+03  0.7818608E-02  0.1194441E+00
          2   -1    0    0  502    0  0.00000000000E+00  0.00000000000E+00  0.18722564402E+04  0.18722564402E+04  0.00000000000E+00 0. -1.
          1   -1    0    0  501    0 -0.00000000000E+00 -0.00000000000E+00 -0.17863160553E+04  0.17863160553E+04  0.00000000000E+00 0. -1.
         25    2    1    2    0    0  0.13530166130E+03 -0.11803147391E+03  0.28845126868E+02  0.22067282053E+03  0.12500593584E+03 0.  0.
          2    1    1    2  501    0 -0.16203062516E+03  0.20770288024E+03 -0.16788715826E+04  0.16994128989E+04  0.00000000000E+00 0. -1.
          1    1    1    2  502    0  0.26728963862E+02 -0.89671406332E+02  0.17359668407E+04  0.17384867761E+04  0.00000000000E+00 0. -1.
         22    1    3    3    0    0  0.71442979996E+02 -0.29470096880E+02  0.69724898362E+02  0.10408721080E+03  0.00000000000E+00 0.  1.
         22    1    3    3    0    0  0.63858681301E+02 -0.88561377029E+02 -0.40879771494E+02  0.11658560973E+03  0.00000000000E+00 0.  1.
</event>
<event>
 7    1  0.6176857E-006  0.1088391E+03  0.7818608E-02  0.1313505E+00
          2   -1    0    0  502    0  0.00000000000E+00  0.00000000000E+00  0.28241074278E+04  0.28241074278E+04  0.00000000000E+00 0. -1.
          1   -1    0    0  501    0 -0.00000000000E+00 -0.00000000000E+00 -0.25742724172E+03  0.25742724172E+03  0.00000000000E+00 0. -1.
         25    2    1    2    0    0 -0.20041484886E+02 -0.49248432968E+02  0.13820700722E+03  0.19379661477E+03  0.12501552618E+03 0.  0.
          2    1    1    2  501    0  0.26952734876E+02 -0.61935268490E+02 -0.22347057527E+03  0.23345561765E+03  0.00000000000E+00 0. -1.
          1    1    1    2  502    0 -0.69112499906E+01  0.11118370146E+03  0.26519437541E+04  0.26542824371E+04  0.00000000000E+00 0. -1.
         22    1    3    3    0    0 -0.65751534311E+02 -0.53634077811E+02  0.63015711245E+02  0.10569228179E+03  0.00000000000E+00 0. -1.
         22    1    3    3    0    0  0.45710049426E+02  0.43856448435E+01  0.75191295972E+02  0.88104332976E+02  0.00000000000E+00 0. -1.
</event>
<event>
 7    1  0.6176857E-006  0.8790594E+02  0.7818608E-02  0.1339492E+00
          2   -1    0    0  502    0  0.00000000000E+00  0.00000000000E+00  0.80896693842E+03  0.80896693842E+03  0.00000000000E+00 0. -1.
          1   -1    0    0  501    0 -0.00000000000E+00 -0.00000000000E+00 -0.87492151332E+02  0.87492151332E+02  0.00000000000E+00 0. -1.
         25    2    1    2    0    0  0.35241448872E+02  0.14009813298E+03  0.24110166616E+03  0.30761421369E+03  0.12500817756E+03 0.  0.
          2    1    1    2  501    0 -0.33205790638E+02 -0.57565528666E+02 -0.29228131283E+02  0.72599574935E+02  0.00000000000E+00 0. -1.
          1    1    1    2  502    0 -0.20356582337E+01 -0.82532604315E+02  0.50960125221E+03  0.51624530112E+03  0.00000000000E+00 0. -1.
         22    1    3    3    0    0 -0.42741327028E+02  0.77403088470E+02  0.13835680959E+03  0.16419703377E+03  0.00000000000E+00 0.  1.
         22    1    3    3    0    0  0.77982775900E+02  0.62695044511E+02  0.10274485657E+03  0.14341717992E+03  0.00000000000E+00 0.  1.
</event>
<event>
 7    1  0.6176857E-006  0.3632068E+03  0.7818608E-02  0.1165546E+00
          2   -1    0    0  502    0  0.00000000000E+00  0.00000000000E+00  0.74960635983E+03  0.74960635983E+03  0.00000000000E+00 0. -1.
          1   -1    0    0  501    0 -0.00000000000E+00 -0.00000000000E+00 -0.36544625045E+03  0.36544625045E+03  0.00000000000E+00 0. -1.
         25    2    1    2    0    0  0.39477270368E+03  0.52834275490E+02  0.44906875691E+03  0.61312798318E+03  0.12500490827E+03 0.  0.
          2    1    1    2  501    0 -0.35562181677E+03  0.29924128886E+02 -0.14015996351E+03  0.38341510850E+03  0.00000000000E+00 0. -1.
          1    1    1    2  502    0 -0.39150886914E+02 -0.82758404376E+02  0.75251315988E+02  0.11850951860E+03  0.00000000000E+00 0. -1.
         22    1    3    3    0    0  0.30134376085E+03  0.14545610684E+02  0.39957590129E+03  0.50068007538E+03  0.00000000000E+00 0.  1.
         22    1    3    3    0    0  0.93428942832E+02  0.38288664806E+02  0.49492855619E+02  0.11244790780E+03  0.00000000000E+00 0.  1.
</event>
<event>
 7    1  0.6176857E-006  0.1646265E+03  0.7818608E-02  0.1384988E+00
          2   -1    0    0  502    0  0.00000000000E+00  0.00000000000E+00  0.18955098547E+04  0.18955098547E+04  0.00000000000E+00 0. -1.
          1   -1    0    0  501    0 -0.00000000000E+00 -0.00000000000E+00 -0.11381457298E+03  0.11381457298E+03  0.00000000000E+00 0. -1.
         25    2    1    2    0    0 -0.14021675297E+03  0.94672649871E+02  0.28562636691E+03  0.35472686377E+03  0.12500031183E+03 0.  0.
          2    1    1    2  501    0  0.14734134660E+03 -0.71503485271E+02  0.55369172394E+01  0.16386847859E+03  0.00000000000E+00 0. -1.
          1    1    1    2  502    0 -0.71245936240E+01 -0.23169164601E+02  0.14905319975E+04  0.14907290853E+04  0.00000000000E+00 0. -1.
         22    1    3    3    0    0 -0.10654125897E+03 -0.19403006887E+01  0.16668129272E+03  0.19783189321E+03  0.00000000000E+00 0. -1.
         22    1    3    3    0    0 -0.33675494007E+02  0.96612950560E+02  0.11894507419E+03  0.15689497056E+03  0.00000000000E+00 0. -1.
</event>
<event>
 7    1  0.6176857E-006  0.1048512E+03  0.7818608E-02  0.1293315E+00
          2   -1    0    0  502    0  0.00000000000E+00  0.00000000000E+00  0.15471575935E+04  0.15471575935E+04  0.00000000000E+00 0. -1.
          1   -1    0    0  501    0 -0.00000000000E+00 -0.00000000000E+00 -0.10036100742E+03  0.10036100742E+03  0.00000000000E+00 0. -1.
         25    2    1    2    0    0 -0.77538066264E+02 -0.70968218583E+02  0.87432659188E+03  0.88944978017E+03  0.12500112965E+03 0.  0.
          2    1    1    2  501    0  0.77772477225E+00  0.10599319486E+03 -0.58781160091E+02  0.12120390667E+03  0.00000000000E+00 0. -1.
          1    1    1    2  502    0  0.76760341492E+02 -0.35024976273E+02  0.63125115425E+03  0.63686491404E+03  0.00000000000E+00 0. -1.
         22    1    3    3    0    0  0.24663361578E+02 -0.63982691275E+01  0.36841491494E+03  0.36929496179E+03  0.00000000000E+00 0. -1.
         22    1    3    3    0    0 -0.10220142784E+03 -0.64569949455E+02  0.50591167694E+03  0.52015481838E+03  0.00000000000E+00 0. -1.
</event>
<event>
 7    1  0.6176857E-006  0.3140365E+03  0.7818608E-02  0.1201960E+00
          2   -1    0    0  502    0  0.00000000000E+00  0.00000000000E+00  0.19582832898E+04  0.19582832898E+04  0.00000000000E+00 0. -1.
          1   -1    0    0  501    0 -0.00000000000E+00 -0.00000000000E+00 -0.11796238514E+04  0.11796238514E+04  0.00000000000E+00 0. -1.
         25    2    1    2    0    0 -0.20617090169E+03 -0.27978877221E+03 -0.12396059833E+03  0.38958826197E+03  0.12499834468E+03 0.  0.
          2    1    1    2  501    0  0.70479301380E+02 -0.18083148743E+01 -0.90809166392E+03  0.91082439142E+03  0.00000000000E+00 0. -1.
          1    1    1    2  502    0  0.13569160031E+03  0.28159708709E+03  0.18107117007E+04  0.18374944878E+04  0.00000000000E+00 0. -1.
         22    1    3    3    0    0 -0.12377226646E+03 -0.13247072325E+03 -0.19384453891E+01  0.18130588527E+03  0.00000000000E+00 0.  1.
         22    1    3    3    0    0 -0.82398635223E+02 -0.14731804897E+03 -0.12202215294E+03  0.20828237670E+03  0.00000000000E+00 0.  1.
</event>
<event>
 7    1  0.6176857E-006  0.6768452E+02  0.7818608E-02  0.1457710E+00
          2   -1    0    0  502    0  0.00000000000E+00  0.00000000000E+00  0.71390678861E+03  0.71390678861E+03  0.00000000000E+00 0. -1.
          1   -1    0    0  501    0 -0.00000000000E+00 -0.00000000000E+00 -0.19601823606E+03  0.19601823606E+03  0.00000000000E+00 0. -1.
         25    2    1    2    0    0 -0.13056799222E+02 -0.74444306433E+02  0.36512523315E+03  0.39326042358E+03  0.12499956040E+03 0.  0.
          2    1    1    2  501    0 -0.19283677530E+02  0.64877773390E+02 -0.17476036183E+03  0.18740909734E+03  0.00000000000E+00 0. -1.
          1    1    1    2  502    0  0.32340476752E+02  0.95665330430E+01  0.32752368123E+03  0.32925550376E+03  0.00000000000E+00 0. -1.
         22    1    3    3    0    0 -0.25761115571E+02  0.27942078148E+02  0.58666851354E+02  0.69901317974E+02  0.00000000000E+00 0. -1.
         22    1    3    3    0    0  0.12704316349E+02 -0.10238638458E+03  0.30645838180E+03  0.32335910560E+03  0.00000000000E+00 0. -1.
</event>
<event>
 7    1  0.6176857E-006  0.2172429E+03  0.7818608E-02  0.1297096E+00
          2   -1    0    0  502    0  0.00000000000E+00  0.00000000000E+00  0.48701255421E+03  0.48701255421E+03  0.00000000000E+00 0. -1.
          1   -1    0    0  501    0 -0.00000000000E+00 -0.00000000000E+00 -0.53532418661E+03  0.53532418661E+03  0.00000000000E+00 0. -1.
         25    2    1    2    0    0 -0.44401714436E+02  0.20374965896E+03  0.17959361538E+03  0.30226751376E+03  0.12500538956E+03 0.  0.
          2    1    1    2  501    0  0.83671078941E+02 -0.20181518542E+03 -0.44696894868E+03  0.49750523575E+03  0.00000000000E+00 0. -1.
          1    1    1    2  502    0 -0.39269364505E+02 -0.19344735340E+01  0.21906370090E+03  0.22256399131E+03  0.00000000000E+00 0. -1.
         22    1    3    3    0    0 -0.71941100401E+02  0.52340307918E+02  0.72695168300E+02  0.11488958723E+03  0.00000000000E+00 0.  1.
         22    1    3    3    0    0  0.27539385965E+02  0.15140935104E+03  0.10689844708E+03  0.18737792653E+03  0.00000000000E+00 0.  1.
</event>
<event>
 7    1  0.6176857E-006  0.4539321E+02  0.7818608E-02  0.1511398E+00
          2   -1    0    0  502    0  0.00000000000E+00  0.00000000000E+00  0.11681060260E+03  0.11681060260E+03  0.00000000000E+00 0. -1.
          1   -1    0    0  501    0 -0.00000000000E+00 -0.00000000000E+00 -0.10736344081E+04  0.10736344081E+04  0.00000000000E+00 0. -1.
         25    2    1    2    0    0 -0.32362776943E+02 -0.21439163600E+02 -0.23236727439E+03  0.26669129163E+03  0.12499083070E+03 0.  0.
          2    1    1    2  501    0  0.25007807863E+02 -0.23758367556E+02 -0.81846182877E+03  0.81918838837E+03  0.00000000000E+00 0. -1.
          1    1    1    2  502    0  0.73549690809E+01  0.45197531156E+02  0.94005297665E+02  0.10456533069E+03  0.00000000000E+00 0. -1.
         22    1    3    3    0    0  0.57797939010E+01 -0.24829932789E+02  0.52327894118E+01  0.26025250525E+02  0.00000000000E+00 0. -1.
         22    1    3    3    0    0 -0.38142570844E+02  0.33907691890E+01 -0.23760006380E+03  0.24066604111E+03  0.00000000000E+00 0. -1.
</event>
<event>
 7    1  0.6176857E-006  0.5898354E+02  0.7818608E-02  0.1456592E+00
          2   -1    0    0  502    0  0.00000000000E+00  0.00000000000E+00  0.84757038349E+03  0.84757038349E+03  0.00000000000E+00 0. -1.
          1   -1    0    0  501    0 -0.00000000000E+00 -0.00000000000E+00 -0.21297977547E+04  0.21297977547E+04  0.00000000000E+00 0. -1.
         25    2    1    2    0    0  0.89081045193E+02  0.13152687706E+01 -0.17513666824E+03  0.23287951656E+03  0.12499141620E+03 0.  0.
          2    1    1    2  501    0 -0.33937580348E+02  0.19251487101E+02 -0.19245339549E+04  0.19249294332E+04  0.00000000000E+00 0. -1.
          1    1    1    2  502    0 -0.55143464845E+02 -0.20566755872E+02  0.81744325197E+03  0.81955918844E+03  0.00000000000E+00 0. -1.
         22    1    3    3    0    0 -0.37955998326E+01  0.29894085098E+02  0.26695494884E+01  0.30252097389E+02  0.00000000000E+00 0. -1.
         22    1    3    3    0    0  0.92876645026E+02 -0.28578816328E+02 -0.17780621773E+03  0.20262741917E+03  0.00000000000E+00 0. -1.
</event>
<event>
 7    1  0.6176857E-006  0.1047481E+03  0.7818608E-02  0.1271510E+00
          2   -1    0    0  502    0  0.00000000000E+00  0.00000000000E+00  0.13389601458E+04  0.13389601458E+04  0.00000000000E+00 0. -1.
          1   -1    0    0  501    0 -0.00000000000E+00 -0.00000000000E+00 -0.12594765848E+03  0.12594765848E+03  0.00000000000E+00 0. -1.
         25    2    1    2    0    0  0.43968381697E+02  0.91758585367E+02  0.43695454145E+03  0.46573310323E+03  0.12500078228E+03 0.  0.
          2    1    1    2  501    0  0.59858025744E+02 -0.89609664384E+02 -0.81650456351E+02  0.13520233807E+03  0.00000000000E+00 0. -1.
          1    1    1    2  502    0 -0.10382640744E+03 -0.21489209829E+01  0.85770840223E+03  0.86397236299E+03  0.00000000000E+00 0. -1.
         22    1    3    3    0    0  0.30265739405E+02 -0.11485555175E+02  0.24689394967E+03  0.24900713914E+03  0.00000000000E+00 0.  1.
         22    1    3    3    0    0  0.13702642292E+02  0.10324414054E+03  0.19006059178E+03  0.21672596409E+03  0.00000000000E+00 0.  1.
</event>
<event>
 7    1  0.6176857E-006  0.8734772E+02  0.7818608E-02  0.1328015E+00
          2   -1    0    0  502    0  0.00000000000E+00  0.00000000000E+00  0.13316467264E+04  0.13316467264E+04  0.00000000000E+00 0. -1.
          1   -1    0    0  501    0 -0.00000000000E+00 -0.00000000000E+00 -0.29803486188E+03  0.29803486188E+03  0.00000000000E+00 0. -1.
         25    2    1    2    0    0  0.33066369835E+02 -0.75061479309E+02  0.22332595138E+03  0.26875126819E+03  0.12500061240E+03 0.  0.
          2    1    1    2  501    0  0.40801778912E+02  0.78388889969E+02 -0.26693065597E+03  0.28117890804E+03  0.00000000000E+00 0. -1.
          1    1    1    2  502    0 -0.73868148748E+02 -0.33274106599E+01  0.10772165691E+04  0.10797514120E+04  0.00000000000E+00 0. -1.
         22    1    3    3    0    0 -0.44841542781E+02 -0.21560087234E+02  0.11306780315E+03  0.12353108690E+03  0.00000000000E+00 0.  1.
         22    1    3    3    0    0  0.77907912616E+02 -0.53501392075E+02  0.11025814823E+03  0.14522018129E+03  0.00000000000E+00 0.  1.
</event>
<event>
 7    1  0.6176857E-006  0.8068345E+02  0.7818608E-02  0.1395621E+00
          2   -1    0    0  502    0  0.00000000000E+00  0.00000000000E+00  0.11613914541E+04  0.11613914541E+04  0.00000000000E+00 0. -1.
          1   -1    0    0  501    0 -0.00000000000E+00 -0.00000000000E+00 -0.34245016463E+03  0.34245016463E+03  0.00000000000E+00 0. -1.
         25    2    1    2    0    0  0.18543352110E+02 -0.72117730892E+02 -0.19890575309E+03  0.24644388587E+03  0.12500506892E+03 0.  0.
          2    1    1    2  501    0 -0.45220031877E+02 -0.41559165143E+01 -0.11397843192E+03  0.12269150691E+03  0.00000000000E+00 0. -1.
          1    1    1    2  502    0  0.26676679767E+02  0.76273647407E+02  0.11318254744E+04  0.11347062259E+04  0.00000000000E+00 0. -1.
         22    1    3    3    0    0  0.65395919095E+01 -0.39422163130E+02  0.43761512027E+01  0.40199799845E+02  0.00000000000E+00 0. -1.
         22    1    3    3    0    0  0.12003760200E+02 -0.32695567762E+02 -0.20328190429E+03  0.20624408603E+03  0.00000000000E+00 0. -1.
</event>
<event>
 7    1  0.6176857E-006  0.6832329E+02  0.7818608E-02  0.1382473E+00
          2   -1    0    0  502    0  0.00000000000E+00  0.00000000000E+00  0.15195286632E+04  0.15195286632E+04  0.00000000000E+00 0. -1.
          1   -1    0    0  501    0 -0.00000000000E+00 -0.00000000000E+00 -0.35286061825E+02  0.35286061825E+02  0.00000000000E+00 0. -1.
         25    2    1    2    0    0 -0.11198568881E+03  0.41601969175E+02  0.43247409832E+03  0.46575880450E+03  0.12500359961E+03 0.  0.
          2    1    1    2  501    0  0.53037885408E+02 -0.32739041410E+02  0.36888295803E+02  0.72426573081E+02  0.00000000000E+00 0. -1.
          1    1    1    2  502    0  0.58947803397E+02 -0.88629277655E+01  0.10148802072E+04  0.10166293474E+04  0.00000000000E+00 0. -1.
         22    1    3    3    0    0 -0.10843109593E+03  0.11841091432E+02  0.41887815588E+03  0.43284688226E+03  0.00000000000E+00 0.  1.
         22    1    3    3    0    0 -0.35545928710E+01  0.29760877743E+02  0.13595942443E+02  0.32911922239E+02  0.00000000000E+00 0.  1.
</event>
<event>
 7    1  0.6176857E-006  0.9149450E+02  0.7818608E-02  0.1404554E+00
          2   -1    0    0  502    0  0.00000000000E+00  0.00000000000E+00  0.13395835998E+02  0.13395835998E+02  0.00000000000E+00 0. -1.
          1   -1    0    0  501    0 -0.00000000000E+00 -0.00000000000E+00 -0.33481890764E+04  0.33481890764E+04  0.00000000000E+00 0. -1.
         25    2    1    2    0    0  0.59326118428E+02 -0.33596272532E+02 -0.12666079991E+04  0.12745876683E+04  0.12501841029E+03 0.  0.
          2    1    1    2  501    0 -0.95752732588E+02  0.25523379870E+02 -0.20339422215E+04  0.20363548289E+04  0.00000000000E+00 0. -1.
          1    1    1    2  502    0  0.36426614160E+02  0.80728926613E+01 -0.34243019807E+02  0.50642415232E+02  0.00000000000E+00 0. -1.
         22    1    3    3    0    0  0.20821342476E+02 -0.34554522817E+01 -0.28245535173E+02  0.35260157546E+02  0.00000000000E+00 0. -1.
         22    1    3    3    0    0  0.38504775953E+02 -0.30140820250E+02 -0.12383624640E+04  0.12393275108E+04  0.00000000000E+00 0. -1.
</event>
<event>
 7    1  0.6176857E-006  0.6093947E+02  0.7818608E-02  0.1443136E+00
          2   -1    0    0  502    0  0.00000000000E+00  0.00000000000E+00  0.37116037833E+03  0.37116037833E+03  0.00000000000E+00 0. -1.
          1   -1    0    0  501    0 -0.00000000000E+00 -0.00000000000E+00 -0.83769189105E+03  0.83769189105E+03  0.00000000000E+00 0. -1.
         25    2    1    2    0    0  0.39655445581E+02 -0.80977891037E+02 -0.24560030879E+03  0.28995188404E+03  0.12499044036E+03 0.  0.
          2    1    1    2  501    0 -0.36402477338E+02  0.20344538648E+02 -0.56650234846E+03  0.56803516742E+03  0.00000000000E+00 0. -1.
          1    1    1    2  502    0 -0.32529682423E+01  0.60633352389E+02  0.34557114452E+03  0.35086521793E+03  0.00000000000E+00 0. -1.
         22    1    3    3    0    0 -0.22510188915E+02  0.23439414607E+02 -0.56154569860E+02  0.64880278038E+02  0.00000000000E+00 0. -1.
         22    1    3    3    0    0  0.62165634495E+02 -0.10441730564E+03 -0.18944573893E+03  0.22507160600E+03  0.00000000000E+00 0. -1.
</event>
<event>
 7    1  0.6176857E-006  0.7459432E+02  0.7818608E-02  0.1350764E+00
          2   -1    0    0  502    0  0.00000000000E+00  0.00000000000E+00  0.16540630348E+04  0.16540630348E+04  0.00000000000E+00 0. -1.
          1   -1    0    0  501    0 -0.00000000000E+00 -0.00000000000E+00 -0.28819679093E+02  0.28819679093E+02  0.00000000000E+00 0. -1.
         25    2    1    2    0    0 -0.27714485068E+01 -0.13267590875E+02  0.87957921501E+03  0.88852181628E+03  0.12501085004E+03 0.  0.
          2    1    1    2  501    0 -0.45024144579E+02  0.65884480130E+02  0.48080306838E+02  0.93164661877E+02  0.00000000000E+00 0. -1.
          1    1    1    2  502    0  0.47795593086E+02 -0.52616889254E+02  0.69758383385E+03  0.70119623573E+03  0.00000000000E+00 0. -1.
         22    1    3    3    0    0 -0.31821463926E+01 -0.58182898337E+02  0.73056437379E+03  0.73288449292E+03  0.00000000000E+00 0.  1.
         22    1    3    3    0    0  0.41069788581E+00  0.44915307461E+02  0.14901484123E+03  0.15563732336E+03  0.00000000000E+00 0.  1.
</event>
<event>
 7    1  0.6176857E-006  0.4820208E+02  0.7818608E-02  0.1544393E+00
          2   -1    0    0  502    0  0.00000000000E+00  0.00000000000E+00  0.41084659009E+03  0.41084659009E+03  0.00000000000E+00 0. -1.
          1   -1    0    0  501    0 -0.00000000000E+00 -0.00000000000E+00 -0.83730742983E+02  0.83730742983E+02  0.00000000000E+00 0. -1.
         25    2    1    2    0    0 -0.23687053405E+01  0.30393440688E+02  0.11805716118E+03  0.17461891199E+03  0.12499959646E+03 0.  0.
          2    1    1    2  501    0  0.25291031632E+02 -0.42902227328E+02 -0.43456757991E+02  0.66096347901E+02  0.00000000000E+00 0. -1.
          1    1    1    2  502    0 -0.22922326292E+02  0.12508786639E+02  0.25251544392E+03  0.25386207319E+03  0.00000000000E+00 0. -1.
         22    1    3    3    0    0  0.16253419257E+02  0.73065067750E+02  0.99472252061E+02  0.12448858057E+03  0.00000000000E+00 0. -1.
         22    1    3    3    0    0 -0.18622124598E+02 -0.42671627061E+02  0.18584909119E+02  0.50130331413E+02  0.00000000000E+00 0. -1.
</event>
<event>
 7    1  0.6176857E-006  0.7283977E+02  0.7818608E-02  0.1457442E+00
          2   -1    0    0  502    0  0.00000000000E+00  0.00000000000E+00  0.41903415828E+03  0.41903415828E+03  0.00000000000E+00 0. -1.
          1   -1    0    0  501    0 -0.00000000000E+00 -0.00000000000E+00 -0.14344839514E+04  0.14344839514E+04  0.00000000000E+00 0. -1.
         25    2    1    2    0    0  0.30776713090E+00  0.95910848700E+02 -0.85865565922E+03  0.87299140376E+03  0.12500185717E+03 0.  0.
          2    1    1    2  501    0  0.18250499662E+02 -0.25551730144E+02 -0.56500716971E+03  0.56587902724E+03  0.00000000000E+00 0. -1.
          1    1    1    2  502    0 -0.18558266793E+02 -0.70359118556E+02  0.40821303581E+03  0.41464767868E+03  0.00000000000E+00 0. -1.
         22    1    3    3    0    0  0.25620189174E+02 -0.15623595005E+02 -0.36627375104E+03  0.36750095445E+03  0.00000000000E+00 0.  1.
         22    1    3    3    0    0 -0.25312422043E+02  0.11153444370E+03 -0.49238190818E+03  0.50549044931E+03  0.00000000000E+00 0.  1.
</event>
<event>
 7    1  0.6176857E-006  0.3010528E+03  0.7818608E-02  0.1146691E+00
          2   -1    0    0  502    0  0.00000000000E+00  0.00000000000E+00  0.72500296862E+03  0.72500296862E+03  0.00000000000E+00 0. -1.
          1   -1    0    0  501    0 -0.00000000000E+00 -0.00000000000E+00 -0.47062723685E+03  0.47062723685E+03  0.00000000000E+00 0. -1.
         25    2    1    2    0    0  0.77982292181E+02  0.16061724168E+03  0.45700091004E+03  0.50631957528E+03  0.12502217529E+03 0.  0.
          2    1    1    2  501    0 -0.13099796966E+03 -0.28777595819E+03 -0.36067308790E+03  0.47964627227E+03  0.00000000000E+00 0. -1.
          1    1    1    2  502    0  0.53015677483E+02  0.12715871650E+03  0.15804790964E+03  0.20966435792E+03  0.00000000000E+00 0. -1.
         22    1    3    3    0    0 -0.21189221063E+02  0.98463300199E+02  0.22250728166E+03  0.24424064971E+03  0.00000000000E+00 0.  1.
         22    1    3    3    0    0  0.99171513244E+02  0.62153941484E+02  0.23449362837E+03  0.26207892557E+03  0.00000000000E+00 0.  1.
</event>
<event>
 7    1  0.6176857E-006  0.5126719E+02  0.7818608E-02  0.1503979E+00
          2   -1    0    0  502    0  0.00000000000E+00  0.00000000000E+00  0.51982754570E+03  0.51982754570E+03  0.00000000000E+00 0. -1.
          1   -1    0    0  501    0 -0.00000000000E+00 -0.00000000000E+00 -0.10590873294E+04  0.10590873294E+04  0.00000000000E+00 0. -1.
         25    2    1    2    0    0 -0.69324827378E+02  0.16785558174E+02  0.27016672836E+03  0.30610848423E+03  0.12499862538E+03 0.  0.
          2    1    1    2  501    0  0.50408269491E+02  0.91760567516E+01 -0.10393689682E+04  0.10406310805E+04  0.00000000000E+00 0. -1.
          1    1    1    2  502    0  0.18916557887E+02 -0.25961614926E+02  0.22994245614E+03  0.23217531037E+03  0.00000000000E+00 0. -1.
         22    1    3    3    0    0  0.72747646301E+01  0.14832841155E+02 -0.74416201708E+01  0.18119411909E+02  0.00000000000E+00 0. -1.
         22    1    3    3    0    0 -0.76599592008E+02  0.19527170189E+01  0.27760834853E+03  0.28798907232E+03  0.00000000000E+00 0. -1.
</event>
<event>
 7    1  0.6176857E-006  0.9148838E+02  0.7818608E-02  0.1384189E+00
          2   -1    0    0  502    0  0.00000000000E+00  0.00000000000E+00  0.16814584088E+04  0.16814584088E+04  0.00000000000E+00 0. -1.
          1   -1    0    0  501    0 -0.00000000000E+00 -0.00000000000E+00 -0.52648955951E+03  0.52648955951E+03  0.00000000000E+00 0. -1.
         25    2    1    2    0    0  0.36828643268E+02 -0.43848100277E+02  0.32592426571E+03  0.35373691623E+03  0.12499669620E+03 0.  0.
          2    1    1    2  501    0  0.42815537310E+02 -0.97018472331E+01 -0.50992252835E+03  0.51180883247E+03  0.00000000000E+00 0. -1.
          1    1    1    2  502    0 -0.79644180578E+02  0.53549947510E+02  0.13389671119E+04  0.13424022196E+04  0.00000000000E+00 0. -1.
         22    1    3    3    0    0 -0.10291046811E+02 -0.70910583129E+02  0.25200861338E+03  0.26199724743E+03  0.00000000000E+00 0. -1.
         22    1    3    3    0    0  0.47119690078E+02  0.27062482852E+02  0.73915652332E+02  0.91739668796E+02  0.00000000000E+00 0. -1.
</event>
<event>
 7    1  0.6176857E-006  0.4869626E+02  0.7818608E-02  0.1471053E+00
          2   -1    0    0  502    0  0.00000000000E+00  0.00000000000E+00  0.17849113886E+03  0.17849113886E+03  0.00000000000E+00 0. -1.
          1   -1    0    0  501    0 -0.00000000000E+00 -0.00000000000E+00 -0.83251295108E+03  0.83251295108E+03  0.00000000000E+00 0. -1.
         25    2    1    2    0    0 -0.58269410656E+02 -0.14692403895E+02 -0.15115074325E+03  0.20513919751E+03  0.12499740886E+03 0.  0.
          2    1    1    2  501    0  0.42164941936E+02 -0.24715689428E+02 -0.65044219852E+03  0.65227586284E+03  0.00000000000E+00 0. -1.
          1    1    1    2  502    0  0.16104468721E+02  0.39408093323E+02  0.14757112955E+03  0.15358902959E+03  0.00000000000E+00 0. -1.
         22    1    3    3    0    0 -0.10658366632E+01 -0.54136695944E+01 -0.14693098683E+03  0.14703454940E+03  0.00000000000E+00 0.  1.
         22    1    3    3    0    0 -0.57203573993E+02 -0.92787343007E+01 -0.42197564109E+01  0.58104648110E+02  0.00000000000E+00 0.  1.
</event>
<event>
 7    1  0.6176857E-006  0.1487551E+03  0.7818608E-02  0.1213921E+00
          2   -1    0    0  502    0  0.00000000000E+00  0.00000000000E+00  0.10709045488E+04  0.10709045488E+04  0.00000000000E+00 0. -1.
          1   -1    0    0  501    0 -0.00000000000E+00 -0.00000000000E+00 -0.13590717355E+04  0.13590717355E+04  0.00000000000E+00 0. -1.
         25    2    1    2    0    0  0.25649707093E+03  0.95132569666E+02  0.13440115072E+03  0.32943534433E+03  0.12499209404E+03 0.  0.
          2    1    1    2  501    0 -0.14368451505E+03 -0.28670557221E+02 -0.12521484794E+04  0.12606914988E+04  0.00000000000E+00 0. -1.
          1    1    1    2  502    0 -0.11281255588E+03 -0.66462012445E+02  0.82958014195E+03  0.83984944114E+03  0.00000000000E+00 0. -1.
         22    1    3    3    0    0  0.86209326689E+02  0.13961497770E+02 -0.15233050868E+02  0.88651098509E+02  0.00000000000E+00 0.  1.
         22    1    3    3    0    0  0.17028774424E+03  0.81171071896E+02  0.14963420159E+03  0.24078424582E+03  0.00000000000E+00 0.  1.
</event>
<event>
 7    1  0.6176857E-006  0.1582577E+03  0.7818608E-02  0.1275418E+00
          2   -1    0    0  502    0  0.00000000000E+00  0.00000000000E+00  0.25770596680E+04  0.25770596680E+04  0.00000000000E+00 0. -1.
          1   -1    0    0  501    0 -0.00000000000E+00 -0.00000000000E+00 -0.47667227200E+03  0.47667227200E+03  0.00000000000E+00 0. -1.
         25    2    1    2    0    0  0.14590256350E+03  0.10788532411E+03 -0.88305876628E+02  0.23737691135E+03  0.12499227576E+03 0.  0.
          2    1    1    2  501    0 -0.14892178581E+03 -0.41753291004E+02 -0.29430719994E+03  0.33247219964E+03  0.00000000000E+00 0. -1.
          1    1    1    2  502    0  0.30192223087E+01 -0.66132033101E+02  0.24830004726E+04  0.24838828291E+04  0.00000000000E+00 0. -1.
         22    1    3    3    0    0 -0.11901420642E+02  0.22277279091E+02 -0.46695308513E+02  0.53088349137E+02  0.00000000000E+00 0. -1.
         22    1    3    3    0    0  0.15780398414E+03  0.85608045014E+02 -0.41610568116E+02  0.18428856221E+03  0.00000000000E+00 0. -1.
</event>
<event>
 7    1  0.6176857E-006  0.1256592E+03  0.7818608E-02  0.1276456E+00
          2   -1    0    0  502    0  0.00000000000E+00  0.00000000000E+00  0.28658950592E+04  0.28658950592E+04  0.00000000000E+00 0. -1.
          1   -1    0    0  501    0 -0.00000000000E+00 -0.00000000000E+00 -0.40710728374E+03  0.40710728374E+03  0.00000000000E+00 0. -1.
         25    2    1    2    0    0 -0.17269872079E+03  0.10308905351E+02 -0.20182026798E+02  0.21439014933E+03  0.12499880093E+03 0.  0.
          2    1    1    2  501    0  0.57387911238E+02 -0.59338630232E+02 -0.28249343174E+03  0.29430763560E+03  0.00000000000E+00 0. -1.
          1    1    1    2  502    0  0.11531080955E+03  0.49029724882E+02  0.27614632340E+04  0.27643045580E+04  0.00000000000E+00 0. -1.
         22    1    3    3    0    0 -0.10405892384E+03  0.38694550688E+02  0.40806261548E+02  0.11828220012E+03  0.00000000000E+00 0. -1.
         22    1    3    3    0    0 -0.68639796952E+02 -0.28385645337E+02 -0.60988288346E+02  0.96107949214E+02  0.00000000000E+00 0. -1.
</event>
<event>
 7    1  0.6176857E-006  0.8123647E+02  0.7818608E-02  0.1396648E+00
          2   -1    0    0  502    0  0.00000000000E+00  0.00000000000E+00  0.74917558468E+03  0.74917558468E+03  0.00000000000E+00 0. -1.
          1   -1    0    0  501    0 -0.00000000000E+00 -0.00000000000E+00 -0.12928760250E+04  0.12928760250E+04  0.00000000000E+00 0. -1.
         25    2    1    2    0    0  0.61131746994E+02  0.83143153280E+02 -0.45740021622E+02  0.16842502134E+03  0.12499985523E+03 0.  0.
          2    1    1    2  501    0  0.95584021264E+01 -0.43700931259E+02 -0.11829876140E+04  0.11838331087E+04  0.00000000000E+00 0. -1.
          1    1    1    2  502    0 -0.70690149120E+02 -0.39442222022E+02  0.68502719535E+03  0.68979347955E+03  0.00000000000E+00 0. -1.
         22    1    3    3    0    0  0.74920473148E+02  0.59566914271E+02  0.19515824450E+02  0.97683990379E+02  0.00000000000E+00 0. -1.
         22    1    3    3    0    0 -0.13788726154E+02  0.23576239009E+02 -0.65255846071E+02  0.70741030960E+02  0.00000000000E+00 0. -1.
</event>
<event>
 7    1  0.6176857E-006  0.7913418E+02  0.7818608E-02  0.1415230E+00
          2   -1    0    0  502    0  0.00000000000E+00  0.00000000000E+00  0.22291341131E+03  0.22291341131E+03  0.00000000000E+00 0. -1.
          1   -1    0    0  501    0 -0.00000000000E+00 -0.00000000000E+00 -0.11004844092E+04  0.11004844092E+04  0.00000000000E+00 0. -1.
         25    2    1    2    0    0 -0.87639130690E+02  0.57666916832E+02 -0.49052030236E+03  0.51695345866E+03  0.12499848346E+03 0.  0.
          2    1    1    2  501    0  0.39410908191E+02  0.46962231481E+01 -0.58864592157E+03  0.58998245328E+03  0.00000000000E+00 0. -1.
          1    1    1    2  502    0  0.48228222499E+02 -0.62363139980E+02  0.20159522607E+03  0.21646190854E+03  0.00000000000E+00 0. -1.
         22    1    3    3    0    0 -0.21257248417E+02 -0.39830123071E+02 -0.14364845249E+03  0.15057618410E+03  0.00000000000E+00 0.  1.
         22    1    3    3    0    0 -0.66381882272E+02  0.97497039902E+02 -0.34687184988E+03  0.36637727457E+03  0.00000000000E+00 0.  1.
</event>
<event>
 7    1  0.6176857E-006  0.9148508E+02  0.7818608E-02  0.1366912E+00
          2   -1    0    0  502    0  0.00000000000E+00  0.00000000000E+00  0.25039422666E+03  0.25039422666E+03  0.00000000000E+00 0. -1.
          1   -1    0    0  501    0 -0.00000000000E+00 -0.00000000000E+00 -0.17875027759E+04  0.17875027759E+04  0.00000000000E+00 0. -1.
         25    2    1    2    0    0  0.31474579390E+02 -0.11392958725E+03  0.14782837676E+03  0.22682323501E+03  0.12499980386E+03 0.  0.
          2    1    1    2  501    0  0.10914445810E+02  0.49401707131E+02 -0.17238665383E+04  0.17246087950E+04  0.00000000000E+00 0. -1.
          1    1    1    2  502    0 -0.42389025200E+02  0.64527880121E+02  0.38929612305E+02  0.86464972588E+02  0.00000000000E+00 0. -1.
         22    1    3    3    0    0 -0.30254695949E+01 -0.12204922648E+03  0.68626452006E+02  0.14005269389E+03  0.00000000000E+00 0.  1.
         22    1    3    3    0    0  0.34500048985E+02  0.81196392295E+01  0.79201924755E+02  0.86770541119E+02  0.00000000000E+00 0.  1.
</event>
<event>
 7    1  0.6176857E-006  0.3538612E+02  0.7818608E-02  0.1598389E+00
          2   -1    0    0  502    0  0.00000000000E+00  0.00000000000E+00  0.16108978072E+04  0.16108978072E+04  0.00000000000E+00 0. -1.
          1   -1    0    0  501    0 -0.00000000000E+00 -0.00000000000E+00 -0.70315940900E+03  0.70315940900E+03  0.00000000000E+00 0. -1.
         25    2    1    2    0    0 -0.22041786706E+02  0.38579352368E+02  0.36170098522E+03  0.38526082989E+03  0.12499639013E+03 0.  0.
          2    1    1    2  501    0  0.25164532536E+02 -0.33589942550E+01 -0.69089370439E+03  0.69135999834E+03  0.00000000000E+00 0. -1.
          1    1    1    2  502    0 -0.31227458297E+01 -0.35220358113E+02  0.12369311174E+04  0.12374363880E+04  0.00000000000E+00 0. -1.
         22    1    3    3    0    0  0.49865944981E+02 -0.79106309098E+00  0.15791858627E+03  0.16560651600E+03  0.00000000000E+00 0. -1.
         22    1    3    3    0    0 -0.71907731687E+02  0.39370415459E+02  0.20378239895E+03  0.21965431389E+03  0.00000000000E+00 0. -1.
</event>
<event>
 7    1  0.6176857E-006  0.1146362E+03  0.7818608E-02  0.1443341E+00
          2   -1    0    0  502    0  0.00000000000E+00  0.00000000000E+00  0.80976462799E+03  0.80976462799E+03  0.00000000000E+00 0. -1.
          1   -1    0    0  501    0 -0.00000000000E+00 -0.00000000000E+00 -0.12755653724E+03  0.12755653724E+03  0.00000000000E+00 0. -1.
         25    2    1    2    0    0  0.92106259620E+02 -0.47894618331E+02  0.12204902630E+03  0.20322007386E+03  0.12499990430E+03 0.  0.
          2    1    1    2  501    0  0.62487028541E+00 -0.22125695194E+02 -0.80244427248E+02  0.83241245516E+02  0.00000000000E+00 0. -1.
          1    1    1    2  502    0 -0.92731129906E+02  0.70020313525E+02  0.64040349170E+03  0.65085984585E+03  0.00000000000E+00 0. -1.
         22    1    3    3    0    0  0.28205937403E+02 -0.25120899818E+01  0.12158854977E+03  0.12484254457E+03  0.00000000000E+00 0.  1.
         22    1    3    3    0    0  0.63900322217E+02 -0.45382528349E+02  0.46047653061E+00  0.78377529289E+02  0.00000000000E+00 0.  1.
</event>
<event>
 7    1  0.6176857E-006  0.9315587E+02  0.7818608E-02  0.1303772E+00
          2   -1    0    0  502    0  0.00000000000E+00  0.00000000000E+00  0.12074427843E+03  0.12074427843E+03  0.00000000000E+00 0. -1.
          1   -1    0    0  501    0 -0.00000000000E+00 -0.00000000000E+00 -0.10926263225E+04  0.10926263225E+04  0.00000000000E+00 0. -1.
         25    2    1    2    0    0  0.12936879511E+03  0.32214198014E+02 -0.12233838559E+03  0.21991930474E+03  0.12499512113E+03 0.  0.
          2    1    1    2  501    0 -0.47851437771E+02 -0.71723433066E+02 -0.89005264536E+03  0.89421905731E+03  0.00000000000E+00 0. -1.
          1    1    1    2  502    0 -0.81517357344E+02  0.39509235053E+02  0.40508986929E+02  0.99232238838E+02  0.00000000000E+00 0. -1.
         22    1    3    3    0    0  0.26476406986E+02  0.70607541073E+01 -0.10990537222E+03  0.11326978952E+03  0.00000000000E+00 0. -1.
         22    1    3    3    0    0  0.10289238813E+03  0.25153443906E+02 -0.12433013372E+02  0.10664951522E+03  0.00000000000E+00 0. -1.
</event>
<event>
 7    1  0.6176857E-006  0.8502053E+02  0.7818608E-02  0.1344175E+00
          2   -1    0    0  502    0  0.00000000000E+00  0.00000000000E+00  0.19221396795E+04  0.19221396795E+04  0.00000000000E+00 0. -1.
          1   -1    0    0  501    0 -0.00000000000E+00 -0.00000000000E+00 -0.89172567868E+02  0.89172567868E+02  0.00000000000E+00 0. -1.
         25    2    1    2    0    0  0.81182081946E+02 -0.30527640651E+02  0.70752678991E+03  0.72369823892E+03  0.12499006081E+03 0.  0.
          2    1    1    2  501    0 -0.35442115456E+02  0.78090603123E+02 -0.57232867971E+02  0.10310134345E+03  0.00000000000E+00 0. -1.
          1    1    1    2  502    0 -0.45739966490E+02 -0.47562962472E+02  0.11826731897E+04  0.11845126650E+04  0.00000000000E+00 0. -1.
         22    1    3    3    0    0 -0.11542132237E+02 -0.95283461026E+01  0.43145844307E+03  0.43171796151E+03  0.00000000000E+00 0. -1.
         22    1    3    3    0    0  0.92724214184E+02 -0.20999294548E+02  0.27606834684E+03  0.29198027740E+03  0.00000000000E+00 0. -1.
</event>
<event>
 7    1  0.6176857E-006  0.7855539E+02  0.7818608E-02  0.1342569E+00
          2   -1    0    0  502    0  0.00000000000E+00  0.00000000000E+00  0.18390508450E+04  0.18390508450E+04  0.00000000000E+00 0. -1.
          1   -1    0    0  501    0 -0.00000000000E+00 -0.00000000000E+00 -0.11953683720E+04  0.11953683720E+04  0.00000000000E+00 0. -1.
         25    2    1    2    0    0 -0.40645985014E+02  0.25260256819E+02  0.69520263192E+02  0.15082848158E+03  0.12500394870E+03 0.  0.
          2    1    1    2  501    0  0.47966188644E+02  0.54249314440E+02 -0.11526555654E+04  0.11549279613E+04  0.00000000000E+00 0. -1.
          1    1    1    2  502    0 -0.73202036296E+01 -0.79509571260E+02  0.17268177753E+04  0.17286627741E+04  0.00000000000E+00 0. -1.
         22    1    3    3    0    0 -0.72146641267E+02  0.66576737839E+01  0.84489358391E+02  0.11130100695E+03  0.00000000000E+00 0. -1.
         22    1    3    3    0    0  0.31500656253E+02  0.18602583036E+02 -0.14969095199E+02  0.39527474635E+02  0.00000000000E+00 0. -1.
</event>
<event>
 7    1  0.6176857E-006  0.5384488E+02  0.7818608E-02  0.1446967E+00
          2   -1    0    0  502    0  0.00000000000E+00  0.00000000000E+00  0.25120269764E+04  0.25120269764E+04  0.00000000000E+00 0. -1.
          1   -1    0    0  501    0 -0.00000000000E+00 -0.00000000000E+00 -0.11655189254E+02  0.11655189254E+02  0.00000000000E+00 0. -1.
         25    2    1    2    0    0 -0.27973915771E+01 -0.13294432054E+02  0.97182399286E+03  0.97992391638E+03  0.12499776587E+03 0.  0.
          2    1    1    2  501    0  0.26876046813E+02  0.52341253983E+02  0.11241013135E+03  0.12687776161E+03  0.00000000000E+00 0. -1.
          1    1    1    2  502    0 -0.24078655236E+02 -0.39046821929E+02  0.14161376629E+04  0.14168804877E+04  0.00000000000E+00 0. -1.
         22    1    3    3    0    0 -0.60541865711E+00  0.56155049986E+02  0.45303451796E+03  0.45650195031E+03  0.00000000000E+00 0.  1.
         22    1    3    3    0    0 -0.21919729200E+01 -0.69449482040E+02  0.51878947489E+03  0.52342196607E+03  0.00000000000E+00 0.  1.
</event>
<event>
 7    1  0.6176857E-006  0.7162139E+02  0.7818608E-02  0.1404000E+00
          2   -1    0    0  502    0  0.00000000000E+00  0.00000000000E+00  0.16119388634E+04  0.16119388634E+04  0.00000000000E+00 0. -1.
          1   -1    0    0  501    0 -0.00000000000E+00 -0.00000000000E+00 -0.31454088329E+03  0.31454088329E+03  0.00000000000E+00 0. -1.
         25    2    1    2    0    0 -0.46193215730E+02 -0.39212660058E+02  0.84114765935E+03  0.85254093682E+03  0.12500087290E+03 0.  0.
          2    1    1    2  501    0  0.29063992938E+02 -0.38039137911E+02 -0.30492587564E+03  0.30866078685E+03  0.00000000000E+00 0. -1.
          1    1    1    2  502    0  0.17129222793E+02  0.77251797969E+02  0.76117619644E+03  0.76527802306E+03  0.00000000000E+00 0. -1.
         22    1    3    3    0    0 -0.86298883881E+02 -0.23479095449E+02  0.43393475078E+03  0.44305545162E+03  0.00000000000E+00 0. -1.
         22    1    3    3    0    0  0.40105668151E+02 -0.15733564610E+02  0.40721290858E+03  0.40948548520E+03  0.00000000000E+00 0. -1.
</event>
<event>
 7    1  0.6176857E-006  0.3338335E+02  0.7818608E-02  0.1617588E+00
          2   -1    0    0  502    0  0.00000000000E+00  0.00000000000E+00  0.19378292570E+04  0.19378292570E+04  0.00000000000E+00 0. -1.
          1   -1    0    0  501    0 -0.00000000000E+00 -0.00000000000E+00 -0.54327230620E+01  0.54327230620E+01  0.00000000000E+00 0. -1.
         25    2    1    2    0    0  0.71839294085E+01 -0.28214409471E+02  0.95443892968E+03  0.96302969994E+03  0.12499948298E+03 0.  0.
          2    1    1    2  501    0  0.16218429896E+02  0.33551965821E+02  0.38772708412E+03  0.38951388119E+03  0.00000000000E+00 0. -1.
          1    1    1    2  502    0 -0.23402359305E+02 -0.53375563502E+01  0.59023052013E+03  0.59071839892E+03  0.00000000000E+00 0. -1.
         22    1    3    3    0    0  0.55709971922E+01  0.46905040289E+02  0.23658009589E+03  0.24124937427E+03  0.00000000000E+00 0. -1.
         22    1    3    3    0    0  0.16129322164E+01 -0.75119449760E+02  0.71785883379E+03  0.72178032568E+03  0.00000000000E+00 0. -1.
</event>
<event>
 7    1  0.6176857E-006  0.9119812E+02  0.7818608E-02  0.1408629E+00
          2   -1    0    0  502    0  0.00000000000E+00  0.00000000000E+00  0.36515639979E+03  0.36515639979E+03  0.00000000000E+00 0. -1.
          1   -1    0    0  501    0 -0.00000000000E+00 -0.00000000000E+00 -0.26803931829E+04  0.26803931829E+04  0.00000000000E+00 0. -1.
         25    2    1    2    0    0  0.17199793991E+02  0.99945431728E+02 -0.30367376305E+03  0.34369792387E+03  0.12500234507E+03 0.  0.
          2    1    1    2  501    0 -0.34697203137E+02 -0.10511969821E+02 -0.23505498738E+04  0.23508294508E+04  0.00000000000E+00 0. -1.
          1    1    1    2  502    0  0.17497409146E+02 -0.89433461908E+02  0.33898685380E+03  0.35102220797E+03  0.00000000000E+00 0. -1.
         22    1    3    3    0    0  0.94570559730E+01  0.76375340137E+02 -0.30890156596E+03  0.31834384860E+03  0.00000000000E+00 0.  1.
         22    1    3    3    0    0  0.77427380183E+01  0.23570091591E+02  0.52278029111E+01  0.25354075272E+02  0.00000000000E+00 0.  1.
</event>
<event>
 7    1  0.6176857E-006  0.9844759E+02  0.7818608E-02  0.1309497E+00
          2   -1    0    0  502    0  0.00000000000E+00  0.00000000000E+00  0.18300664227E+04  0.18300664227E+04  0.00000000000E+00 0. -1.
          1   -1    0    0  501    0 -0.00000000000E+00 -0.00000000000E+00 -0.13131398072E+03  0.13131398072E+03  0.00000000000E+00 0. -1.
         25    2    1    2    0    0  0.18121620996E+02 -0.16580521574E+03  0.22173969823E+03  0.30432473497E+03  0.12500115132E+03 0.  0.
          2    1    1    2  501    0 -0.25768814209E+02  0.88748983124E+02 -0.65073532733E+02  0.11302645024E+03  0.00000000000E+00 0. -1.
          1    1    1    2  502    0  0.76471932126E+01  0.77056232616E+02  0.15420862765E+04  0.15440292182E+04  0.00000000000E+00 0. -1.
         22    1    3    3    0    0 -0.33085260482E+02 -0.60979130665E+00  0.54381357867E+02  0.63657979783E+02  0.00000000000E+00 0. -1.
         22    1    3    3    0    0  0.51206881479E+02 -0.16519542443E+03  0.16735834036E+03  0.24066675519E+03  0.00000000000E+00 0. -1.
</event>
<event>
 7    1  0.6176857E-006  0.7968161E+02  0.7818608E-02  0.1365091E+00
          2   -1    0    0  502    0  0.00000000000E+00  0.00000000000E+00  0.57702498124E+03  0.57702498124E+03  0.00000000000E+00 0. -1.
          1   -1    0    0  501    0 -0.00000000000E+00 -0.00000000000E+00 -0.83442664681E+03  0.83442664681E+03  0.00000000000E+00 0. -1.
         25    2    1    2    0    0  0.64431931529E+02 -0.13378734519E+02 -0.21966447420E+03  0.26116665624E+03  0.12500030708E+03 0.  0.
          2    1    1    2  501    0 -0.70928568458E+02 -0.45237272093E+02 -0.58945305067E+03  0.59542604205E+03  0.00000000000E+00 0. -1.
          1    1    1    2  502    0  0.64966369293E+01  0.58616006612E+02  0.55171585930E+03  0.55485892976E+03  0.00000000000E+00 0. -1.
         22    1    3    3    0    0  0.84407400510E+02 -0.12551112770E+02 -0.22486157101E+03  0.24050959609E+03  0.00000000000E+00 0.  1.
         22    1    3    3    0    0 -0.19975468981E+02 -0.82762174902E+00  0.51970968152E+01  0.20657060150E+02  0.00000000000E+00 0.  1.
</event>
<event>
 7    1  0.6176857E-006  0.7780952E+02  0.7818608E-02  0.1352379E+00
          2   -1    0    0  502    0  0.00000000000E+00  0.00000000000E+00  0.37284899946E+03  0.37284899946E+03  0.00000000000E+00 0. -1.
          1   -1    0    0  501    0 -0.00000000000E+00 -0.00000000000E+00 -0.69908746096E+03  0.69908746096E+03  0.00000000000E+00 0. -1.
         25    2    1    2    0    0 -0.56138434354E+02  0.11385083890E+03 -0.72546113399E+02  0.19235670263E+03  0.12499850058E+03 0.  0.
          2    1    1    2  501    0  0.55881856424E+02 -0.37353085062E+02 -0.55992084237E+03  0.56394094067E+03  0.00000000000E+00 0. -1.
          1    1    1    2  502    0  0.25657792976E+00 -0.76497753834E+02  0.30622849427E+03  0.31563881712E+03  0.00000000000E+00 0. -1.
         22    1    3    3    0    0 -0.48106132572E+02  0.91584485580E+02  0.12384876982E+02  0.10418878619E+03  0.00000000000E+00 0. -1.
         22    1    3    3    0    0 -0.80323017820E+01  0.22266353316E+02 -0.84930990381E+02  0.88167916438E+02  0.00000000000E+00 0. -1.
</event>
<event>
 7    1  0.6176857E-006  0.5926138E+02  0.7818608E-02  0.1425617E+00
          2   -1    0    0  502    0  0.00000000000E+00  0.00000000000E+00  0.15483108270E+04  0.15483108270E+04  0.00000000000E+00 0. -1.
          1   -1    0    0  501    0 -0.00000000000E+00 -0.00000000000E+00 -0.38290154510E+02  0.38290154510E+02  0.00000000000E+00 0. -1.
         25    2    1    2    0    0  0.55877103702E+02 -0.62414316062E+01  0.76542177735E+03  0.77759536132E+03  0.12499136977E+03 0.  0.
          2    1    1    2  501    0 -0.83871131973E+01  0.48208558189E+02 -0.11491348250E+02  0.50263901908E+02  0.00000000000E+00 0. -1.
          1    1    1    2  502    0 -0.47489990504E+02 -0.41967126583E+02  0.75609024334E+03  0.75874171823E+03  0.00000000000E+00 0. -1.
         22    1    3    3    0    0 -0.19431056238E+01 -0.53543976831E+02  0.19227556098E+03  0.19960116349E+03  0.00000000000E+00 0. -1.
         22    1    3    3    0    0  0.57820209325E+02  0.47302545225E+02  0.57314621637E+03  0.57799419783E+03  0.00000000000E+00 0. -1.
</event>
<event>
 7    1  0.6176857E-006  0.9560491E+02  0.7818608E-02  0.1356187E+00
          2   -1    0    0  502    0  0.00000000000E+00  0.00000000000E+00  0.20979913398E+04  0.20979913398E+04  0.00000000000E+00 0. -1.
          1   -1    0    0  501    0 -0.00000000000E+00 -0.00000000000E+00 -0.25689865488E+04  0.25689865488E+04  0.00000000000E+00 0. -1.
         25    2    1    2    0    0  0.10778868505E+03 -0.12643047481E+02 -0.14892677552E+03  0.22267059608E+03  0.12499905047E+03 0.  0.
          2    1    1    2  501    0 -0.19468783832E+02  0.49259923087E+02 -0.23817844922E+04  0.23823733841E+04  0.00000000000E+00 0. -1.
          1    1    1    2  502    0 -0.88319901219E+02 -0.36616875606E+02  0.20597160587E+04  0.20619339085E+04  0.00000000000E+00 0. -1.
         22    1    3    3    0    0  0.66712870173E+01 -0.26102424261E+02 -0.11038160472E+03  0.11362192254E+03  0.00000000000E+00 0.  1.
         22    1    3    3    0    0  0.10111739803E+03  0.13459376781E+02 -0.38545170802E+02  0.10904867354E+03  0.00000000000E+00 0.  1.
</event>
<event>
 7    1  0.6176857E-006  0.1924606E+03  0.7818608E-02  0.1241411E+00
          2   -1    0    0  502    0  0.00000000000E+00  0.00000000000E+00  0.23931541590E+04  0.23931541590E+04  0.00000000000E+00 0. -1.
          1   -1    0    0  501    0 -0.00000000000E+00 -0.00000000000E+00 -0.18230223018E+04  0.18230223018E+04  0.00000000000E+00 0. -1.
         25    2    1    2    0    0  0.18824892339E+03  0.12087263994E+03 -0.20967994830E+03  0.33111833990E+03  0.12500328816E+03 0.  0.
          2    1    1    2  501    0 -0.18517002994E+03 -0.44826910363E+02 -0.15461538697E+04  0.15578476115E+04  0.00000000000E+00 0. -1.
          1    1    1    2  502    0 -0.30788934487E+01 -0.76045729581E+02  0.23259656753E+04  0.23272105094E+04  0.00000000000E+00 0. -1.
         22    1    3    3    0    0  0.14796485534E+03  0.14654774666E+03 -0.16480016586E+03  0.26557284337E+03  0.00000000000E+00 0. -1.
         22    1    3    3    0    0  0.40284068049E+02 -0.25675106713E+02 -0.44879782445E+02  0.65545496531E+02  0.00000000000E+00 0. -1.
</event>
<event>
 7    1  0.6176857E-006  0.1014621E+03  0.7818608E-02  0.1310149E+00
          2   -1    0    0  502    0  0.00000000000E+00  0.00000000000E+00  0.12333550825E+04  0.12333550825E+04  0.00000000000E+00 0. -1.
          1   -1    0    0  501    0 -0.00000000000E+00 -0.00000000000E+00 -0.51765747760E+03  0.51765747760E+03  0.00000000000E+00 0. -1.
         25    2    1    2    0    0 -0.49168846378E+02 -0.82721936651E+02  0.29994384079E+03  0.33889768682E+03  0.12499936098E+03 0.  0.
          2    1    1    2  501    0  0.98456963241E+02  0.26602777299E+02 -0.49140988999E+03  0.50188162085E+03  0.00000000000E+00 0. -1.
          1    1    1    2  502    0 -0.49288116863E+02  0.56119159352E+02  0.90716365413E+03  0.91023325246E+03  0.00000000000E+00 0. -1.
         22    1    3    3    0    0  0.37769377406E+01 -0.53092566805E+02  0.27754724603E+02  0.60028415325E+02  0.00000000000E+00 0. -1.
         22    1    3    3    0    0 -0.52945784118E+02 -0.29629369846E+02  0.27218911618E+03  0.27886927149E+03  0.00000000000E+00 0. -1.
</event>
<event>
 7    1  0.6176857E-006  0.7914409E+02  0.7818608E-02  0.1402756E+00
          2   -1    0    0  502    0  0.00000000000E+00  0.00000000000E+00  0.21321120107E+04  0.21321120107E+04  0.00000000000E+00 0. -1.
          1   -1    0    0  501    0 -0.00000000000E+00 -0.00000000000E+00 -0.32895515387E+02  0.32895515387E+02  0.00000000000E+00 0. -1.
         25    2    1    2    0    0 -0.74183216793E+02  0.53799728890E+02  0.48642965220E+03  0.51052577386E+03  0.12500079501E+03 0.  0.
          2    1    1    2  501    0  0.33954126988E+02 -0.70990499473E+02  0.54829780331E+02  0.95910575883E+02  0.00000000000E+00 0. -1.
          1    1    1    2  502    0  0.40229089804E+02  0.17190770584E+02  0.15579570628E+04  0.15585711764E+04  0.00000000000E+00 0. -1.
         22    1    3    3    0    0 -0.89595348712E+02  0.65442969638E+02  0.25251586307E+03  0.27581582603E+03  0.00000000000E+00 0.  1.
         22    1    3    3    0    0  0.15412131919E+02 -0.11643240748E+02  0.23391378913E+03  0.23470994783E+03  0.00000000000E+00 0.  1.
</event>
<event>
 7    1  0.6176857E-006  0.9051777E+02  0.7818608E-02  0.1383029E+00
          2   -1    0    0  502    0  0.00000000000E+00  0.00000000000E+00  0.15760428848E+03  0.15760428848E+03  0.00000000000E+00 0. -1.
          1   -1    0    0  501    0 -0.00000000000E+00 -0.00000000000E+00 -0.16527331306E+04  0.16527331306E+04  0.00000000000E+00 0. -1.
         25    2    1    2    0    0  0.89584912805E+02  0.32244067751E+02 -0.40775288708E+03  0.43698240812E+03  0.12500428625E+03 0.  0.
          2    1    1    2  501    0  0.26249585769E+00 -0.44790369364E+02 -0.12155222562E+04  0.12163472372E+04  0.00000000000E+00 0. -1.
          1    1    1    2  502    0 -0.89847408662E+02  0.12546301613E+02  0.12814630115E+03  0.15700777378E+03  0.00000000000E+00 0. -1.
         22    1    3    3    0    0  0.19108232874E+02 -0.45693133789E+02 -0.16948993468E+03  0.17657809886E+03  0.00000000000E+00 0.  1.
         22    1    3    3    0    0  0.70476679931E+02  0.77937201540E+02 -0.23826295239E+03  0.26040430926E+03  0.00000000000E+00 0.  1.
</event>
<event>
 7    1  0.6176857E-006  0.1377256E+03  0.7818608E-02  0.1363737E+00
          2   -1    0    0  502    0  0.00000000000E+00  0.00000000000E+00  0.21110376011E+04  0.21110376011E+04  0.00000000000E+00 0. -1.
          1   -1    0    0  501    0 -0.00000000000E+00 -0.00000000000E+00 -0.85672950090E+03  0.85672950090E+03  0.00000000000E+00 0. -1.
         25    2    1    2    0    0 -0.10100219119E+02 -0.12327592722E+03  0.80403739733E+02  0.19336313829E+03  0.12500229290E+03 0.  0.
          2    1    1    2  501    0  0.31760390943E+02 -0.13494217899E+02 -0.79744791112E+03  0.79819420400E+03  0.00000000000E+00 0. -1.
          1    1    1    2  502    0 -0.21660171824E+02  0.13677014511E+03  0.19713522716E+04  0.19762097597E+04  0.00000000000E+00 0. -1.
         22    1    3    3    0    0 -0.34409716903E+01 -0.55708063498E+02 -0.30291803253E+02  0.63504503535E+02  0.00000000000E+00 0. -1.
         22    1    3    3    0    0 -0.66592474288E+01 -0.67567863718E+02  0.11069554299E+03  0.12985863476E+03  0.00000000000E+00 0. -1.
</event>
<event>
 7    1  0.6176857E-006  0.1314287E+03  0.7818608E-02  0.1270429E+00
          2   -1    0    0  502    0  0.00000000000E+00  0.00000000000E+00  0.15856424031E+04  0.15856424031E+04  0.00000000000E+00 0. -1.
          1   -1    0    0  501    0 -0.00000000000E+00 -0.00000000000E+00 -0.96173809431E+03  0.96173809431E+03  0.00000000000E+00 0. -1.
         25    2    1    2    0    0  0.12653741727E+03  0.15304883460E+03  0.57740479530E+03  0.62326286655E+03  0.12499855778E+03 0.  0.
          2    1    1    2  501    0 -0.32226480838E+02 -0.77177235575E+02 -0.93321449571E+03  0.93695473037E+03  0.00000000000E+00 0. -1.
          1    1    1    2  502    0 -0.94310936430E+02 -0.75871599021E+02  0.97971400920E+03  0.98716290049E+03  0.00000000000E+00 0. -1.
         22    1    3    3    0    0  0.84356845954E+02  0.17770282132E+02  0.15034088662E+03  0.17330390237E+03  0.00000000000E+00 0.  1.
         22    1    3    3    0    0  0.42180571314E+02  0.13527855246E+03  0.42706390868E+03  0.44995896419E+03  0.00000000000E+00 0.  1.
</event>
<event>
 7    1  0.6176857E-006  0.4783545E+02  0.7818608E-02  0.1548923E+00
          2   -1    0    0  502    0  0.00000000000E+00  0.00000000000E+00  0.68298785513E+03  0.68298785513E+03  0.00000000000E+00 0. -1.
          1   -1    0    0  501    0 -0.00000000000E+00 -0.00000000000E+00 -0.52696309754E+03  0.52696309754E+03  0.00000000000E+00 0. -1.
         25    2    1    2    0    0  0.41276641812E+02  0.54276151262E+02  0.12177509923E+03  0.18735744378E+03  0.12499590071E+03 0.  0.
          2    1    1    2  501    0 -0.40015496934E+01 -0.25240317232E+02 -0.49278394344E+03  0.49344614795E+03  0.00000000000E+00 0. -1.
          1    1    1    2  502    0 -0.37275092119E+02 -0.29035834030E+02  0.52703360180E+03  0.52914736093E+03  0.00000000000E+00 0. -1.
         22    1    3    3    0    0  0.25587693106E+02  0.55726638756E+02  0.14605954910E+03  0.15840953314E+03  0.00000000000E+00 0.  1.
         22    1    3    3    0    0  0.15688948706E+02 -0.14504874937E+01 -0.24284449868E+02  0.28947910648E+02  0.00000000000E+00 0.  1.
</event>
<event>
 7    1  0.6176857E-006  0.7473120E+02  0.7818608E-02  0.1452127E+00
          2   -1    0    0  502    0  0.00000000000E+00  0.00000000000E+00  0.54402234540E+03  0.54402234540E+03  0.00000000000E+00 0. -1.
          1   -1    0    0  501    0 -0.00000000000E+00 -0.00000000000E+00 -0.11285812730E+04  0.11285812730E+04  0.00000000000E+00 0. -1.
         25    2    1    2    0    0 -0.37421781872E+02  0.87773226802E+02 -0.68650164052E+03  0.70428247503E+03  0.12499909239E+03 0.  0.
          2    1    1    2  501    0  0.12777823236E+02 -0.67645157934E+02 -0.42997575140E+03  0.43545181932E+03  0.00000000000E+00 0. -1.
          1    1    1    2  502    0  0.24643958637E+02 -0.20128068868E+02  0.53191846430E+03  0.53286932406E+03  0.00000000000E+00 0. -1.
         22    1    3    3    0    0 -0.48766035049E+02  0.11652073748E+03 -0.55750650566E+03  0.57163687100E+03  0.00000000000E+00 0.  1.
         22    1    3    3    0    0  0.11344253177E+02 -0.28747510682E+02 -0.12899513486E+03  0.13264560403E+03  0.00000000000E+00 0.  1.
</event>
<event>
 7    1  0.6176857E-006  0.7767784E+02  0.7818608E-02  0.1375521E+00
          2   -1    0    0  502    0  0.00000000000E+00  0.00000000000E+00  0.97168938248E+03  0.97168938248E+03  0.00000000000E+00 0. -1.
          1   -1    0    0  501    0 -0.00000000000E+00 -0.00000000000E+00 -0.21241426636E+03  0.21241426636E+03  0.00000000000E+00 0. -1.
         25    2    1    2    0    0 -0.60326814401E+02 -0.11994089973E+02  0.93002179490E+02  0.16750344936E+03  0.12499926971E+03 0.  0.
          2    1    1    2  501    0  0.15307690307E+02 -0.53341377092E+02 -0.16884020239E+03  0.17772631160E+03  0.00000000000E+00 0. -1.
          1    1    1    2  502    0  0.45019124094E+02  0.65335467065E+02  0.83511313903E+03  0.83887388788E+03  0.00000000000E+00 0. -1.
         22    1    3    3    0    0 -0.65953345178E+02 -0.66324145297E+01  0.12126077240E+03  0.13819554112E+03  0.00000000000E+00 0.  1.
         22    1    3    3    0    0  0.56265307771E+01 -0.53616754434E+01 -0.28258592910E+02  0.29307908240E+02  0.00000000000E+00 0.  1.
</event>
<event>
 7    1  0.6176857E-006  0.1153323E+03  0.7818608E-02  0.1262678E+00
          2   -1    0    0  502    0  0.00000000000E+00  0.00000000000E+00  0.15439828474E+04  0.15439828474E+04  0.00000000000E+00 0. -1.
          1   -1    0    0  501    0 -0.00000000000E+00 -0.00000000000E+00 -0.42555221129E+03  0.42555221129E+03  0.00000000000E+00 0. -1.
         25    2    1    2    0    0  0.35280314099E+02  0.88139238793E+01  0.14561119098E+03  0.19531997066E+03  0.12499954474E+03 0.  0.
          2    1    1    2  501    0  0.30923532387E+02  0.98005887875E+02 -0.39117199345E+03  0.40444647035E+03  0.00000000000E+00 0. -1.
          1    1    1    2  502    0 -0.66203846487E+02 -0.10681981175E+03  0.13639914386E+04  0.13697686177E+04  0.00000000000E+00 0. -1.
         22    1    3    3    0    0 -0.72855037189E+01  0.90463174814E+01 -0.20652034275E+02  0.23694323035E+02  0.00000000000E+00 0.  1.
         22    1    3    3    0    0  0.42565817818E+02 -0.23239360209E+00  0.16626322525E+03  0.17162564763E+03  0.00000000000E+00 0.  1.
</event>
<event>
 7    1  0.6176857E-006  0.8288981E+02  0.7818608E-02  0.1470145E+00
          2   -1    0    0  502    0  0.00000000000E+00  0.00000000000E+00  0.12548970457E+03  0.12548970457E+03  0.00000000000E+00 0. -1.
          1   -1    0    0  501    0 -0.00000000000E+00 -0.00000000000E+00 -0.15036507868E+04  0.15036507868E+04  0.00000000000E+00 0. -1.
         25    2    1    2    0    0 -0.38788870307E+02  0.60810740717E+02 -0.13689553009E+02  0.14496825927E+03  0.12500347870E+03 0.  0.
          2    1    1    2  501    0  0.11011541562E+02  0.22637036135E+02 -0.13918362909E+04  0.13920639174E+04  0.00000000000E+00 0. -1.
          1    1    1    2  502    0  0.27777328745E+02 -0.83447776852E+02  0.27364761690E+02  0.92108314696E+02  0.00000000000E+00 0. -1.
         22    1    3    3    0    0 -0.50239281653E+02  0.79475219383E+02  0.27807156637E+02  0.98048630165E+02  0.00000000000E+00 0.  1.
         22    1    3    3    0    0  0.11450411346E+02 -0.18664478666E+02 -0.41496709646E+02  0.46919629104E+02  0.00000000000E+00 0.  1.
</event>
<event>
 7    1  0.6176857E-006  0.9588115E+02  0.7818608E-02  0.1312621E+00
          2   -1    0    0  502    0  0.00000000000E+00  0.00000000000E+00  0.11139168981E+03  0.11139168981E+03  0.00000000000E+00 0. -1.
          1   -1    0    0  501    0 -0.00000000000E+00 -0.00000000000E+00 -0.15183573416E+04  0.15183573416E+04  0.00000000000E+00 0. -1.
         25    2    1    2    0    0 -0.49312655932E+02  0.84503009025E+02 -0.32934724154E+03  0.36560590750E+03  0.12500231004E+03 0.  0.
          2    1    1    2  501    0  0.96143328360E+02 -0.23017760880E+02 -0.11523798389E+04  0.11566125756E+04  0.00000000000E+00 0. -1.
          1    1    1    2  502    0 -0.46830672428E+02 -0.61485248146E+02  0.74761428622E+02  0.10753054835E+03  0.00000000000E+00 0. -1.
         22    1    3    3    0    0 -0.74341928641E+02  0.77397610010E+02 -0.32071334383E+03  0.33819249149E+03  0.00000000000E+00 0.  1.
         22    1    3    3    0    0  0.25029272709E+02  0.71053990159E+01 -0.86338977149E+01  0.27413416009E+02  0.00000000000E+00 0.  1.
</event>
<event>
 7    1  0.6176857E-006  0.4758667E+02  0.7818608E-02  0.1478465E+00
          2   -1    0    0  502    0  0.00000000000E+00  0.00000000000E+00  0.17764105921E+04  0.17764105921E+04  0.00000000000E+00 0. -1.
          1   -1    0    0  501    0 -0.00000000000E+00 -0.00000000000E+00 -0.10431817977E+03  0.10431817977E+03  0.00000000000E+00 0. -1.
         25    2    1    2    0    0 -0.40207287518E+01  0.62364976141E+01  0.23993384458E+03  0.27064477959E+03  0.12500114712E+03 0.  0.
          2    1    1    2  501    0 -0.14676537829E+02  0.38632342900E+02 -0.83752670261E+02  0.93393621069E+02  0.00000000000E+00 0. -1.
          1    1    1    2  502    0  0.18697266581E+02 -0.44868840514E+02  0.15159112380E+04  0.15166903713E+04  0.00000000000E+00 0. -1.
         22    1    3    3    0    0  0.44249954317E+02 -0.19073693299E+02  0.37660750987E+02  0.61157145110E+02  0.00000000000E+00 0. -1.
         22    1    3    3    0    0 -0.48270683068E+02  0.25310190913E+02  0.20227309359E+03  0.20948763448E+03  0.00000000000E+00 0. -1.
</event>
<event>
 7    1  0.6176857E-006  0.1717686E+03  0.7818608E-02  0.1199576E+00
          2   -1    0    0  502    0  0.00000000000E+00  0.00000000000E+00  0.20666917096E+04  0.20666917096E+04  0.00000000000E+00 0. -1.
          1   -1    0    0  501    0 -0.00000000000E+00 -0.00000000000E+00 -0.10819081318E+04  0.10819081318E+04  0.00000000000E+00 0. -1.
         25    2    1    2    0    0 -0.23346682949E+02 -0.78180718693E+02  0.46609711770E+01  0.14934465164E+03  0.12499923177E+03 0.  0.
          2    1    1    2  501    0  0.15375679827E+03  0.10029399482E+03 -0.99899523896E+03  0.10157221696E+04  0.00000000000E+00 0. -1.
          1    1    1    2  502    0 -0.13041011532E+03 -0.22113276132E+02  0.19791178456E+04  0.19835330201E+04  0.00000000000E+00 0. -1.
         22    1    3    3    0    0 -0.74561231599E+02 -0.56438348316E+02  0.58208809762E+01  0.93693900940E+02  0.00000000000E+00 0. -1.
         22    1    3    3    0    0  0.51214548649E+02 -0.21742370377E+02 -0.11599097992E+01  0.55650750702E+02  0.00000000000E+00 0. -1.
</event>
<event>
 7    1  0.6176857E-006  0.1094237E+03  0.7818608E-02  0.1296062E+00
          2   -1    0    0  502    0  0.00000000000E+00  0.00000000000E+00  0.22066480530E+04  0.22066480530E+04  0.00000000000E+00 0. -1.
          1   -1    0    0  501    0 -0.00000000000E+00 -0.00000000000E+00 -0.66478772640E+03  0.66478772640E+03  0.00000000000E+00 0. -1.
         25    2    1    2    0    0  0.18778591566E+02 -0.93617989054E+02  0.52502983942E+02  0.16582705983E+03  0.12500034829E+03 0.  0.
          2    1    1    2  501    0 -0.78804422978E+02  0.88458922446E+00 -0.60411004674E+03  0.60922891277E+03  0.00000000000E+00 0. -1.
          1    1    1    2  502    0  0.60025831413E+02  0.92733399830E+02  0.20934673894E+04  0.20963798068E+04  0.00000000000E+00 0. -1.
         22    1    3    3    0    0 -0.38396045206E+02 -0.53444427692E+02 -0.16264520728E+02  0.67787150503E+02  0.00000000000E+00 0.  1.
         22    1    3    3    0    0  0.57174636772E+02 -0.40173561363E+02  0.68767504670E+02  0.98039909328E+02  0.00000000000E+00 0.  1.
</event>
<event>
 7    1  0.6176857E-006  0.5847638E+02  0.7818608E-02  0.1456272E+00
          2   -1    0    0  502    0  0.00000000000E+00  0.00000000000E+00  0.10063234659E+04  0.10063234659E+04  0.00000000000E+00 0. -1.
          1   -1    0    0  501    0 -0.00000000000E+00 -0.00000000000E+00 -0.83394397663E+03  0.83394397663E+03  0.00000000000E+00 0. -1.
         25    2    1    2    0    0  0.34374121869E+02  0.54696604839E+02 -0.20987645893E+02  0.14226337062E+03  0.12500034602E+03 0.  0.
          2    1    1    2  501    0  0.49003271410E+01 -0.58395554226E+02 -0.75076480369E+03  0.75304836791E+03  0.00000000000E+00 0. -1.
          1    1    1    2  502    0 -0.39274449010E+02  0.36989493867E+01  0.94413193880E+03  0.94495570395E+03  0.00000000000E+00 0. -1.
         22    1    3    3    0    0  0.40715129021E+02 -0.27392567675E+02 -0.32888619271E+02  0.59073985582E+02  0.00000000000E+00 0. -1.
         22    1    3    3    0    0 -0.63410071516E+01  0.82089172514E+02  0.11900973378E+02  0.83189385038E+02  0.00000000000E+00 0. -1.
</event>
<event>
 7    1  0.6176857E-006  0.1385085E+03  0.7818608E-02  0.1274177E+00
          2   -1    0    0  502    0  0.00000000000E+00  0.00000000000E+00  0.31267015324E+04  0.31267015324E+04  0.00000000000E+00 0. -1.
          1   -1    0    0  501    0 -0.00000000000E+00 -0.00000000000E+00 -0.45440534795E+03  0.45440534795E+03  0.00000000000E+00 0. -1.
         25    2    1    2    0    0  0.15516227998E+03 -0.68776295452E+02 -0.69643085806E+02  0.22199196282E+03  0.12499904085E+03 0.  0.
          2    1    1    2  501    0 -0.86937265175E+02  0.10348365902E+03 -0.29328328809E+03  0.32292730270E+03  0.00000000000E+00 0. -1.
          1    1    1    2  502    0 -0.68225014805E+02 -0.34707363565E+02  0.30352225583E+04  0.30361876148E+04  0.00000000000E+00 0. -1.
         22    1    3    3    0    0  0.52363418267E+02  0.28414900174E+02  0.88109733450E+01  0.60224308844E+02  0.00000000000E+00 0. -1.
         22    1    3    3    0    0  0.10279886171E+03 -0.97191195627E+02 -0.78454059151E+02  0.16176765398E+03  0.00000000000E+00 0. -1.
</event>
<event>
 7    1  0.6176857E-006  0.1322092E+03  0.7818608E-02  0.1266626E+00
          2   -1    0    0  502    0  0.00000000000E+00  0.00000000000E+00  0.23869206216E+04  0.23869206216E+04  0.00000000000E+00 0. -1.
          1   -1    0    0  501    0 -0.00000000000E+00 -0.00000000000E+00 -0.62062013009E+03  0.62062013009E+03  0.00000000000E+00 0. -1.
         25    2    1    2    0    0  0.27735244072E+02  0.65669618573E+02 -0.34464004407E+03  0.37346977997E+03  0.12498469510E+03 0.  0.
          2    1    1    2  501    0 -0.58628419579E+02  0.63277550565E+02 -0.25254374178E+03  0.26687015850E+03  0.00000000000E+00 0. -1.
          1    1    1    2  502    0  0.30893175507E+02 -0.12894716914E+03  0.23634842774E+04  0.23672008133E+04  0.00000000000E+00 0. -1.
         22    1    3    3    0    0  0.36928622808E+02  0.71112833089E+02 -0.97957742384E+02  0.12655622271E+03  0.00000000000E+00 0. -1.
         22    1    3    3    0    0 -0.91933787363E+01 -0.54432145168E+01 -0.24668230169E+03  0.24691355727E+03  0.00000000000E+00 0. -1.
</event>
<event>
 7    1  0.6176857E-006  0.9705484E+02  0.7818608E-02  0.1312701E+00
          2   -1    0    0  502    0  0.00000000000E+00  0.00000000000E+00  0.31404658248E+04  0.31404658248E+04  0.00000000000E+00 0. -1.
          1   -1    0    0  501    0 -0.00000000000E+00 -0.00000000000E+00 -0.90534870480E+02  0.90534870480E+02  0.00000000000E+00 0. -1.
         25    2    1    2    0    0  0.59270196085E+02  0.27440255171E+02  0.33711119892E+03  0.36542282384E+03  0.12499582391E+03 0.  0.
          2    1    1    2  501    0 -0.93783899744E+02  0.40606218018E+02 -0.41426942831E+02  0.11027455003E+03  0.00000000000E+00 0. -1.
          1    1    1    2  502    0  0.34513703659E+02 -0.68046473189E+02  0.27542466983E+04  0.27553033214E+04  0.00000000000E+00 0. -1.
         22    1    3    3    0    0  0.63604622302E+02  0.44279652303E+02  0.94614336117E+02  0.12230334495E+03  0.00000000000E+00 0. -1.
         22    1    3    3    0    0 -0.43344262169E+01 -0.16839397132E+02  0.24249686281E+03  0.24311947889E+03  0.00000000000E+00 0. -1.
</event>
<event>
 7    1  0.6176857E-006  0.7745713E+02  0.7818608E-02  0.1348045E+00
          2   -1    0    0  502    0  0.00000000000E+00  0.00000000000E+00  0.94713874280E+03  0.94713874280E+03  0.00000000000E+00 0. -1.
          1   -1    0    0  501    0 -0.00000000000E+00 -0.00000000000E+00 -0.12471095275E+04  0.12471095275E+04  0.00000000000E+00 0. -1.
         25    2    1    2    0    0 -0.85518579163E+02  0.61468292338E+02 -0.17467142794E+03  0.23922041484E+03  0.12499808316E+03 0.  0.
          2    1    1    2  501    0  0.84953996544E+01 -0.69547801013E+02 -0.10373407432E+04  0.10397042300E+04  0.00000000000E+00 0. -1.
          1    1    1    2  502    0  0.77023179509E+02  0.80795086753E+01  0.91204138645E+03  0.91532362542E+03  0.00000000000E+00 0. -1.
         22    1    3    3    0    0  0.26525726765E+02  0.26064590894E+02 -0.80362986309E+02  0.88550475139E+02  0.00000000000E+00 0. -1.
         22    1    3    3    0    0 -0.11204430593E+03  0.35403701444E+02 -0.94308441629E+02  0.15066993970E+03  0.00000000000E+00 0. -1.
</event>
<event>
 7    1  0.6176857E-006  0.1039595E+03  0.7818608E-02  0.1423135E+00
          2   -1    0    0  502    0  0.00000000000E+00  0.00000000000E+00  0.86873203798E+03  0.86873203798E+03  0.00000000000E+00 0. -1.
          1   -1    0    0  501    0 -0.00000000000E+00 -0.00000000000E+00 -0.75416987466E+03  0.75416987466E+03  0.00000000000E+00 0. -1.
         25    2    1    2    0    0  0.72579990800E+02 -0.45657672209E+02 -0.11136085077E+03  0.18809257598E+03  0.12500039983E+03 0.  0.
          2    1    1    2  501    0 -0.76624467085E+02  0.73796264638E+02 -0.59951574183E+03  0.60888120543E+03  0.00000000000E+00 0. -1.
          1    1    1    2  502    0  0.40444762849E+01 -0.28138592429E+02  0.82543875593E+03  0.82592813123E+03  0.00000000000E+00 0. -1.
         22    1    3    3    0    0  0.63777885991E+02 -0.63439771684E+02 -0.16849785371E+02  0.91521246931E+02  0.00000000000E+00 0.  1.
         22    1    3    3    0    0  0.88021048086E+01  0.17782099475E+02 -0.94511065401E+02  0.96571329048E+02  0.00000000000E+00 0.  1.
</event>
<event>
 7    1  0.6176857E-006  0.3915985E+02  0.7818608E-02  0.1555624E+00
          2   -1    0    0  502    0  0.00000000000E+00  0.00000000000E+00  0.16046305342E+04  0.16046305342E+04  0.00000000000E+00 0. -1.
          1   -1    0    0  501    0 -0.00000000000E+00 -0.00000000000E+00 -0.51079286957E+03  0.51079286957E+03  0.00000000000E+00 0. -1.
         25    2    1    2    0    0  0.22274023851E+02 -0.15349878178E+01 -0.23195151745E+03  0.26443346598E+03  0.12500025262E+03 0.  0.
          2    1    1    2  501    0  0.11397278922E+01 -0.29884252540E+02 -0.26150635490E+03  0.26321083029E+03  0.00000000000E+00 0. -1.
          1    1    1    2  502    0 -0.23413751743E+02  0.31419240358E+02  0.15872955370E+04  0.15877791075E+04  0.00000000000E+00 0. -1.
         22    1    3    3    0    0  0.52491289289E+02  0.27401003225E+02 -0.49293923392E+02  0.77045709240E+02  0.00000000000E+00 0.  1.
         22    1    3    3    0    0 -0.30217265437E+02 -0.28935991043E+02 -0.18265759406E+03  0.18738775674E+03  0.00000000000E+00 0.  1.
</event>
<event>
 7    1  0.6176857E-006  0.5056149E+02  0.7818608E-02  0.1512447E+00
          2   -1    0    0  502    0  0.00000000000E+00  0.00000000000E+00  0.83192440326E+02  0.83192440326E+02  0.00000000000E+00 0. -1.
          1   -1    0    0  501    0 -0.00000000000E+00 -0.00000000000E+00 -0.38546604333E+04  0.38546604333E+04  0.00000000000E+00 0. -1.
         25    2    1    2    0    0  0.33162896536E+02 -0.66492555837E+02 -0.10342835993E+03  0.17843651970E+03  0.12498451199E+03 0.  0.
          2    1    1    2  501    0 -0.72442174684E+01  0.49947186560E+02 -0.37083629774E+04  0.37087064015E+04  0.00000000000E+00 0. -1.
          1    1    1    2  502    0 -0.25918679067E+02  0.16545369278E+02  0.40323344408E+02  0.50709952409E+02  0.00000000000E+00 0. -1.
         22    1    3    3    0    0  0.67031555294E+02  0.18030308828E+01 -0.33365273194E+02  0.74898075948E+02  0.00000000000E+00 0.  1.
         22    1    3    3    0    0 -0.33868658758E+02 -0.68295586720E+02 -0.70063086740E+02  0.10353844375E+03  0.00000000000E+00 0.  1.
</event>
<event>
 7    1  0.6176857E-006  0.5974153E+02  0.7818608E-02  0.1473812E+00
          2   -1    0    0  502    0  0.00000000000E+00  0.00000000000E+00  0.18664909594E+03  0.18664909594E+03  0.00000000000E+00 0. -1.
          1   -1    0    0  501    0 -0.00000000000E+00 -0.00000000000E+00 -0.12830960821E+04  0.12830960821E+04  0.00000000000E+00 0. -1.
         25    2    1    2    0    0  0.78798460108E+01 -0.33412401005E+02  0.12376922330E+02  0.13021819796E+03  0.12500044143E+03 0.  0.
          2    1    1    2  501    0  0.27866080675E+02 -0.19522531160E+02 -0.12150767433E+04  0.12155530181E+04  0.00000000000E+00 0. -1.
          1    1    1    2  502    0 -0.35745926686E+02  0.52934932165E+02  0.10625283487E+03  0.12397396193E+03  0.00000000000E+00 0. -1.
         22    1    3    3    0    0  0.13264458010E+02 -0.26858282231E+02 -0.54829447235E+02  0.62478647991E+02  0.00000000000E+00 0. -1.
         22    1    3    3    0    0 -0.53846119987E+01 -0.65541187742E+01  0.67206369565E+02  0.67739549964E+02  0.00000000000E+00 0. -1.
</event>
<event>
 7    1  0.6176857E-006  0.3351306E+02  0.7818608E-02  0.1588720E+00
          2   -1    0    0  502    0  0.00000000000E+00  0.00000000000E+00  0.51597158322E+03  0.51597158322E+03  0.00000000000E+00 0. -1.
          1   -1    0    0  501    0 -0.00000000000E+00 -0.00000000000E+00 -0.99980668896E+02  0.99980668896E+02  0.00000000000E+00 0. -1.
         25    2    1    2    0    0 -0.32864788418E+01 -0.51637739122E+01  0.33179986725E+03  0.35461759130E+03  0.12500007461E+03 0.  0.
          2    1    1    2  501    0  0.35919303406E+01  0.33588157129E+02 -0.84115329677E+02  0.90644663106E+02  0.00000000000E+00 0. -1.
          1    1    1    2  502    0 -0.30545149886E+00 -0.28424383217E+02  0.16830637675E+03  0.17068999771E+03  0.00000000000E+00 0. -1.
         22    1    3    3    0    0 -0.35696134724E+02  0.26805903384E+02  0.42094745112E+02  0.61357461295E+02  0.00000000000E+00 0.  1.
         22    1    3    3    0    0  0.32409655882E+02 -0.31969677296E+02  0.28970512214E+03  0.29326013001E+03  0.00000000000E+00 0.  1.
</event>
<event>
 7    1  0.6176857E-006  0.9400992E+02  0.7818608E-02  0.1347104E+00
          2   -1    0    0  502    0  0.00000000000E+00  0.00000000000E+00  0.23102214327E+04  0.23102214327E+04  0.00000000000E+00 0. -1.
          1   -1    0    0  501    0 -0.00000000000E+00 -0.00000000000E+00 -0.31523220230E+04  0.31523220230E+04  0.00000000000E+00 0. -1.
         25    2    1    2    0    0 -0.47602630421E+02  0.88623900652E+02  0.68491736885E+02  0.17444728000E+03  0.12498211588E+03 0.  0.
          2    1    1    2  501    0 -0.10388225332E+02 -0.93499746239E+02 -0.30982433344E+04  0.30996712530E+04  0.00000000000E+00 0. -1.
          1    1    1    2  502    0  0.57990855753E+02  0.48758455869E+01  0.21876510071E+04  0.21884249227E+04  0.00000000000E+00 0. -1.
         22    1    3    3    0    0 -0.80470867182E+02  0.36643945575E+02  0.89944977967E+01  0.88877669878E+02  0.00000000000E+00 0. -1.
         22    1    3    3    0    0  0.32868236761E+02  0.51979955078E+02  0.59497239088E+02  0.85569610124E+02  0.00000000000E+00 0. -1.
</event>
<event>
 7    1  0.6176857E-006  0.1402529E+03  0.7818608E-02  0.1295062E+00
          2   -1    0    0  502    0  0.00000000000E+00  0.00000000000E+00  0.23909969925E+03  0.23909969925E+03  0.00000000000E+00 0. -1.
          1   -1    0    0  501    0 -0.00000000000E+00 -0.00000000000E+00 -0.15217721458E+04  0.15217721458E+04  0.00000000000E+00 0. -1.
         25    2    1    2    0    0 -0.64075615372E+02  0.10255237951E+03 -0.87220665633E+03  0.88937208446E+03  0.12496230730E+03 0.  0.
          2    1    1    2  501    0  0.49299070364E+02  0.37696224904E+02 -0.61771255546E+03  0.62082220070E+03  0.00000000000E+00 0. -1.
          1    1    1    2  502    0  0.14776545008E+02 -0.14024860441E+03  0.20724676525E+03  0.25067755988E+03  0.00000000000E+00 0. -1.
         22    1    3    3    0    0 -0.98116278324E+02  0.98423678859E+02 -0.66758398746E+03  0.68189618341E+03  0.00000000000E+00 0.  1.
         22    1    3    3    0    0  0.34040662952E+02  0.41287006516E+01 -0.20462266887E+03  0.20747590105E+03  0.00000000000E+00 0.  1.
</event>
<event>
 7    1  0.6176857E-006  0.5987998E+02  0.7818608E-02  0.1478503E+00
          2   -1    0    0  502    0  0.00000000000E+00  0.00000000000E+00  0.11673182628E+03  0.11673182628E+03  0.00000000000E+00 0. -1.
          1   -1    0    0  501    0 -0.00000000000E+00 -0.00000000000E+00 -0.16455378133E+03  0.16455378133E+03  0.00000000000E+00 0. -1.
         25    2    1    2    0    0  0.34203140912E+02  0.26520530617E+02  0.13612506771E+02  0.13298241471E+03  0.12500331551E+03 0.  0.
          2    1    1    2  501    0  0.18323600096E+01  0.32781995935E+02 -0.71028878454E+02  0.78250357029E+02  0.00000000000E+00 0. -1.
          1    1    1    2  502    0 -0.36035500922E+02 -0.59302526552E+02  0.95944166331E+01  0.70052835865E+02  0.00000000000E+00 0. -1.
         22    1    3    3    0    0  0.81208813149E+02  0.79463291984E+01  0.11425679899E+02  0.82392728089E+02  0.00000000000E+00 0.  1.
         22    1    3    3    0    0 -0.47005672237E+02  0.18574201419E+02  0.21868268718E+01  0.50589686622E+02  0.00000000000E+00 0.  1.
</event>
<event>
 7    1  0.6176857E-006  0.1010037E+03  0.7818608E-02  0.1364104E+00
          2   -1    0    0  502    0  0.00000000000E+00  0.00000000000E+00  0.11577560427E+03  0.11577560427E+03  0.00000000000E+00 0. -1.
          1   -1    0    0  501    0 -0.00000000000E+00 -0.00000000000E+00 -0.16419767088E+04  0.16419767088E+04  0.00000000000E+00 0. -1.
         25    2    1    2    0    0 -0.65338405036E+02  0.94477552358E+02 -0.12207220219E+04  0.12324699271E+04  0.12499900615E+03 0.  0.
          2    1    1    2  501    0 -0.20875604454E+02 -0.42009153609E+02 -0.39050698677E+03  0.39331446270E+03  0.00000000000E+00 0. -1.
          1    1    1    2  502    0  0.86214009490E+02 -0.52468398749E+02  0.85027904083E+02  0.13196792327E+03  0.00000000000E+00 0. -1.
         22    1    3    3    0    0 -0.99650722076E+02  0.47556783348E+02 -0.86713624092E+03  0.87413796072E+03  0.00000000000E+00 0.  1.
         22    1    3    3    0    0  0.34312317040E+02  0.46920769010E+02 -0.35358578096E+03  0.35833196643E+03  0.00000000000E+00 0.  1.
</event>
<event>
 7    1  0.6176857E-006  0.9728984E+02  0.7818608E-02  0.1342888E+00
          2   -1    0    0  502    0  0.00000000000E+00  0.00000000000E+00  0.44084654732E+04  0.44084654732E+04  0.00000000000E+00 0. -1.
          1   -1    0    0  501    0 -0.00000000000E+00 -0.00000000000E+00 -0.35649462890E+02  0.35649462890E+02  0.00000000000E+00 0. -1.
         25    2    1    2    0    0 -0.95980430981E+02  0.91676276791E+02  0.27292176783E+03  0.32821943428E+03  0.12499969132E+03 0.  0.
          2    1    1    2  501    0  0.61040840491E+02 -0.44994799303E+02  0.17690690718E+03  0.19247485545E+03  0.00000000000E+00 0. -1.
          1    1    1    2  502    0  0.34939590490E+02 -0.46681477488E+02  0.39229873353E+04  0.39234206464E+04  0.00000000000E+00 0. -1.
         22    1    3    3    0    0  0.20274591883E+00  0.40826028685E+02  0.76954178096E+01  0.41545459191E+02  0.00000000000E+00 0. -1.
         22    1    3    3    0    0 -0.96183176900E+02  0.50850248105E+02  0.26522635002E+03  0.28667397509E+03  0.00000000000E+00 0. -1.
</event>
<event>
 7    1  0.6176857E-006  0.3040341E+03  0.7818608E-02  0.1091901E+00
          2   -1    0    0  502    0  0.00000000000E+00  0.00000000000E+00  0.78668161539E+03  0.78668161539E+03  0.00000000000E+00 0. -1.
          1   -1    0    0  501    0 -0.00000000000E+00 -0.00000000000E+00 -0.13944491635E+04  0.13944491635E+04  0.00000000000E+00 0. -1.
         25    2    1    2    0    0  0.19800356082E+03  0.23153816664E+01  0.39488878631E+03  0.45910046286E+03  0.12500124141E+03 0.  0.
          2    1    1    2  501    0 -0.16375350702E+03  0.26651929684E+03 -0.12898020041E+04  0.13271913790E+04  0.00000000000E+00 0. -1.
          1    1    1    2  502    0 -0.34250053795E+02 -0.26883467851E+03  0.28714566972E+03  0.39483893702E+03  0.00000000000E+00 0. -1.
         22    1    3    3    0    0  0.12447013653E+03  0.43485530646E+02  0.14793455260E+03  0.19816265571E+03  0.00000000000E+00 0. -1.
         22    1    3    3    0    0  0.73533424287E+02 -0.41170148979E+02  0.24695423371E+03  0.26093780715E+03  0.00000000000E+00 0. -1.
</event>
<event>
 7    1  0.6176857E-006  0.2433323E+03  0.7818608E-02  0.1347678E+00
          2   -1    0    0  502    0  0.00000000000E+00  0.00000000000E+00  0.26398010634E+03  0.26398010634E+03  0.00000000000E+00 0. -1.
          1   -1    0    0  501    0 -0.00000000000E+00 -0.00000000000E+00 -0.75415010480E+03  0.75415010480E+03  0.00000000000E+00 0. -1.
         25    2    1    2    0    0 -0.23239792420E+03 -0.76245260060E+02 -0.29670776288E+03  0.40433064747E+03  0.12500256427E+03 0.  0.
          2    1    1    2  501    0  0.22290028005E+03  0.96502363664E+02 -0.36630292489E+03  0.43951686409E+03  0.00000000000E+00 0. -1.
          1    1    1    2  502    0  0.94976441522E+01 -0.20257103604E+02  0.17284068931E+03  0.17428269957E+03  0.00000000000E+00 0. -1.
         22    1    3    3    0    0 -0.22938696197E+03 -0.67907079341E+02 -0.21347304712E+03  0.32062515745E+03  0.00000000000E+00 0. -1.
         22    1    3    3    0    0 -0.30109622370E+01 -0.83381807189E+01 -0.83234715759E+02  0.83705490016E+02  0.00000000000E+00 0. -1.
</event>
<event>
 7    1  0.6176857E-006  0.1932613E+03  0.7818608E-02  0.1269328E+00
          2   -1    0    0  502    0  0.00000000000E+00  0.00000000000E+00  0.71000158731E+03  0.71000158731E+03  0.00000000000E+00 0. -1.
          1   -1    0    0  501    0 -0.00000000000E+00 -0.00000000000E+00 -0.19331242970E+04  0.19331242970E+04  0.00000000000E+00 0. -1.
         25    2    1    2    0    0  0.22833912207E+03 -0.58361620306E+02  0.18856582876E+03  0.32669059560E+03  0.12499936035E+03 0.  0.
          2    1    1    2  501    0 -0.17509184953E+03  0.80024981406E+02 -0.18572399504E+04  0.18671907741E+04  0.00000000000E+00 0. -1.
          1    1    1    2  502    0 -0.53247272540E+02 -0.21663361101E+02  0.44555141194E+03  0.44924451464E+03  0.00000000000E+00 0. -1.
         22    1    3    3    0    0  0.11120467324E+03 -0.78565570724E+02  0.52274332979E+02  0.14584798299E+03  0.00000000000E+00 0.  1.
         22    1    3    3    0    0  0.11713444883E+03  0.20203950418E+02  0.13629149578E+03  0.18084261261E+03  0.00000000000E+00 0.  1.
</event>
<event>
 7    1  0.6176857E-006  0.1117476E+03  0.7818608E-02  0.1370803E+00
          2   -1    0    0  502    0  0.00000000000E+00  0.00000000000E+00  0.20474109657E+03  0.20474109657E+03  0.00000000000E+00 0. -1.
          1   -1    0    0  501    0 -0.00000000000E+00 -0.00000000000E+00 -0.57942248520E+03  0.57942248520E+03  0.00000000000E+00 0. -1.
         25    2    1    2    0    0 -0.28138938505E+02  0.73367402738E+02 -0.66852081226E+02  0.16208190669E+03  0.12500707207E+03 0.  0.
          2    1    1    2  501    0  0.28453197849E+02 -0.11347058307E+03 -0.45486889989E+03  0.46967102718E+03  0.00000000000E+00 0. -1.
          1    1    1    2  502    0 -0.31425934450E+00  0.40103180332E+02  0.14703959249E+03  0.15241064789E+03  0.00000000000E+00 0. -1.
         22    1    3    3    0    0 -0.21750537999E+02 -0.29890932608E+02 -0.41476644433E+02  0.55559569732E+02  0.00000000000E+00 0. -1.
         22    1    3    3    0    0 -0.63884005058E+01  0.10325833535E+03 -0.25375436794E+02  0.10652233696E+03  0.00000000000E+00 0. -1.
</event>
<event>
 7    1  0.6176857E-006  0.6654247E+02  0.7818608E-02  0.1493045E+00
          2   -1    0    0  502    0  0.00000000000E+00  0.00000000000E+00  0.14174079039E+04  0.14174079039E+04  0.00000000000E+00 0. -1.
          1   -1    0    0  501    0 -0.00000000000E+00 -0.00000000000E+00 -0.23465479739E+02  0.23465479739E+02  0.00000000000E+00 0. -1.
         25    2    1    2    0    0  0.22847048778E+02 -0.48729052507E+02  0.80671069871E+03  0.81810996510E+03  0.12500102159E+03 0.  0.
          2    1    1    2  501    0 -0.41245240064E+01  0.67741464001E+02  0.48606372557E+02  0.83477524498E+02  0.00000000000E+00 0. -1.
          1    1    1    2  502    0 -0.18722524771E+02 -0.19012411494E+02  0.53862535292E+03  0.53928589406E+03  0.00000000000E+00 0. -1.
         22    1    3    3    0    0  0.10541847407E+02 -0.91069293930E+02  0.57052724448E+03  0.57784607253E+03  0.00000000000E+00 0. -1.
         22    1    3    3    0    0  0.12305201371E+02  0.42340241423E+02  0.23618345423E+03  0.24026389258E+03  0.00000000000E+00 0. -1.
</event>
<event>
 7    1  0.6176857E-006  0.2280909E+03  0.7818608E-02  0.1321482E+00
          2   -1    0    0  502    0  0.00000000000E+00  0.00000000000E+00  0.14068216493E+04  0.14068216493E+04  0.00000000000E+00 0. -1.
          1   -1    0    0  501    0 -0.00000000000E+00 -0.00000000000E+00 -0.16152181431E+04  0.16152181431E+04  0.00000000000E+00 0. -1.
         25    2    1    2    0    0 -0.10591978951E+03 -0.23009609832E+03 -0.85940130762E+03  0.90463208534E+03  0.12500154406E+03 0.  0.
          2    1    1    2  501    0 -0.27894341266E+01  0.29875690971E+02 -0.72351370479E+03  0.72413563568E+03  0.00000000000E+00 0. -1.
          1    1    1    2  502    0  0.10870922364E+03  0.20022040735E+03  0.13745185186E+04  0.13932720714E+04  0.00000000000E+00 0. -1.
         22    1    3    3    0    0 -0.30642264836E+02 -0.17432421453E+03 -0.67468498226E+03  0.69751538009E+03  0.00000000000E+00 0.  1.
         22    1    3    3    0    0 -0.75277524672E+02 -0.55771883792E+02 -0.18471632536E+03  0.20711670526E+03  0.00000000000E+00 0.  1.
</event>
<event>
 7    1  0.6176857E-006  0.9852726E+02  0.7818608E-02  0.1347772E+00
          2   -1    0    0  502    0  0.00000000000E+00  0.00000000000E+00  0.44249339286E+03  0.44249339286E+03  0.00000000000E+00 0. -1.
          1   -1    0    0  501    0 -0.00000000000E+00 -0.00000000000E+00 -0.56155213471E+03  0.56155213471E+03  0.00000000000E+00 0. -1.
         25    2    1    2    0    0 -0.53617324704E+02 -0.34686618529E+02  0.13420255403E+03  0.19419817365E+03  0.12499850450E+03 0.  0.
          2    1    1    2  501    0 -0.55015129845E+02  0.46371773501E+01 -0.51861627164E+03  0.52154674300E+03  0.00000000000E+00 0. -1.
          1    1    1    2  502    0  0.10863245455E+03  0.30049441179E+02  0.26535497575E+03  0.28830061091E+03  0.00000000000E+00 0. -1.
         22    1    3    3    0    0 -0.56728131114E+02 -0.69778721266E+02  0.49933918689E+02  0.10286178609E+03  0.00000000000E+00 0.  1.
         22    1    3    3    0    0  0.31108064094E+01  0.35092102738E+02  0.84268635345E+02  0.91336387568E+02  0.00000000000E+00 0.  1.
</event>
<event>
 7    1  0.6176857E-006  0.1010754E+03  0.7818608E-02  0.1335126E+00
          2   -1    0    0  502    0  0.00000000000E+00  0.00000000000E+00  0.11524933870E+03  0.11524933870E+03  0.00000000000E+00 0. -1.
          1   -1    0    0  501    0 -0.00000000000E+00 -0.00000000000E+00 -0.96925560532E+03  0.96925560532E+03  0.00000000000E+00 0. -1.
         25    2    1    2    0    0  0.11671624413E+03 -0.55740590177E+02 -0.56062288447E+02  0.18840841764E+03  0.12500022645E+03 0.  0.
          2    1    1    2  501    0 -0.23108740202E+02  0.55409194199E+02 -0.80021209831E+03  0.80246096164E+03  0.00000000000E+00 0. -1.
          1    1    1    2  502    0 -0.93607503932E+02  0.33139597826E+00  0.22681201329E+01  0.93635564742E+02  0.00000000000E+00 0. -1.
         22    1    3    3    0    0  0.67865621734E+02 -0.48593145467E+02  0.30409064674E+02  0.88835508745E+02  0.00000000000E+00 0.  1.
         22    1    3    3    0    0  0.48850622400E+02 -0.71474447104E+01 -0.86471353121E+02  0.99572908893E+02  0.00000000000E+00 0.  1.
</event>
<event>
 7    1  0.6176857E-006  0.1358500E+03  0.7818608E-02  0.1302897E+00
          2   -1    0    0  502    0  0.00000000000E+00  0.00000000000E+00  0.12732988843E+04  0.12732988843E+04  0.00000000000E+00 0. -1.
          1   -1    0    0  501    0 -0.00000000000E+00 -0.00000000000E+00 -0.84160244318E+03  0.84160244318E+03  0.00000000000E+00 0. -1.
         25    2    1    2    0    0 -0.19040840562E+03 -0.36428957371E+02  0.14914988950E+03  0.27468810183E+03  0.12500173553E+03 0.  0.
          2    1    1    2  501    0  0.13195452398E+03  0.24797267280E+02 -0.77219929786E+03  0.78378482792E+03  0.00000000000E+00 0. -1.
          1    1    1    2  502    0  0.58453881639E+02  0.11631690092E+02  0.10547458495E+04  0.10564283977E+04  0.00000000000E+00 0. -1.
         22    1    3    3    0    0 -0.12435872373E+02  0.23871241742E+02  0.61921890846E+02  0.67518943045E+02  0.00000000000E+00 0.  1.
         22    1    3    3    0    0 -0.17797253324E+03 -0.60300199114E+02  0.87227998652E+02  0.20716915878E+03  0.00000000000E+00 0.  1.
</event>
<event>
 7    1  0.6176857E-006  0.5788570E+02  0.7818608E-02  0.1432367E+00
          2   -1    0    0  502    0  0.00000000000E+00  0.00000000000E+00  0.23663025868E+04  0.23663025868E+04  0.00000000000E+00 0. -1.
          1   -1    0    0  501    0 -0.00000000000E+00 -0.00000000000E+00 -0.82786257934E+03  0.82786257934E+03  0.00000000000E+00 0. -1.
         25    2    1    2    0    0 -0.66687762315E+02  0.72310960494E+02  0.13744542080E+03  0.21023369507E+03  0.12502331860E+03 0.  0.
          2    1    1    2  501    0  0.16201690371E+02 -0.44750693968E+02 -0.79037524939E+03  0.79180689201E+03  0.00000000000E+00 0. -1.
          1    1    1    2  502    0  0.50486071944E+02 -0.27560266526E+02  0.21913698360E+04  0.21921245790E+04  0.00000000000E+00 0. -1.
         22    1    3    3    0    0 -0.10109619397E+03  0.52815134966E+02  0.12395579388E+03  0.16844856115E+03  0.00000000000E+00 0.  1.
         22    1    3    3    0    0  0.34408431659E+02  0.19495825528E+02  0.13489626916E+02  0.41785133919E+02  0.00000000000E+00 0.  1.
</event>
<event>
 7    1  0.6176857E-006  0.7620229E+02  0.7818608E-02  0.1457500E+00
          2   -1    0    0  502    0  0.00000000000E+00  0.00000000000E+00  0.21321756960E+04  0.21321756960E+04  0.00000000000E+00 0. -1.
          1   -1    0    0  501    0 -0.00000000000E+00 -0.00000000000E+00 -0.17071992069E+02  0.17071992069E+02  0.00000000000E+00 0. -1.
         25    2    1    2    0    0 -0.76893959306E+02  0.58917302826E+02  0.83127086827E+03  0.84617973743E+03  0.12499984821E+03 0.  0.
          2    1    1    2  501    0  0.66170828948E+02 -0.30897104166E+02  0.13208412422E+03  0.15092854442E+03  0.00000000000E+00 0. -1.
          1    1    1    2  502    0  0.10723130357E+02 -0.28020198659E+02  0.11517487114E+04  0.11521394062E+04  0.00000000000E+00 0. -1.
         22    1    3    3    0    0 -0.16334501370E+02 -0.38908909461E+02  0.26500235473E+03  0.26834113956E+03  0.00000000000E+00 0.  1.
         22    1    3    3    0    0 -0.60559457935E+02  0.97826212287E+02  0.56626851354E+03  0.57783859786E+03  0.00000000000E+00 0.  1.
</event>
<event>
 7    1  0.6176857E-006  0.9085851E+02  0.7818608E-02  0.1429205E+00
          2   -1    0    0  502    0  0.00000000000E+00  0.00000000000E+00  0.46428082645E+03  0.46428082645E+03  0.00000000000E+00 0. -1.
          1   -1    0    0  501    0 -0.00000000000E+00 -0.00000000000E+00 -0.89013982019E+03  0.89013982019E+03  0.00000000000E+00 0. -1.
         25    2    1    2    0    0  0.20154471594E+02 -0.56673587487E+02  0.23395673287E+03  0.27199126543E+03  0.12500158946E+03 0.  0.
          2    1    1    2  501    0 -0.28322983254E+02  0.86636354250E+02 -0.86758095296E+03  0.87235586729E+03  0.00000000000E+00 0. -1.
          1    1    1    2  502    0  0.81685116604E+01 -0.29962766763E+02  0.20776522634E+03  0.21007351392E+03  0.00000000000E+00 0. -1.
         22    1    3    3    0    0  0.19596883318E+02 -0.15181038459E+02  0.22884225914E+03  0.23018097517E+03  0.00000000000E+00 0. -1.
         22    1    3    3    0    0  0.55758827548E+00 -0.41492549028E+02  0.51144737350E+01  0.41810290254E+02  0.00000000000E+00 0. -1.
</event>
<event>
 7    1  0.6176857E-006  0.1712869E+03  0.7818608E-02  0.1268219E+00
          2   -1    0    0  502    0  0.00000000000E+00  0.00000000000E+00  0.33227108991E+03  0.33227108991E+03  0.00000000000E+00 0. -1.
          1   -1    0    0  501    0 -0.00000000000E+00 -0.00000000000E+00 -0.21072668487E+04  0.21072668487E+04  0.00000000000E+00 0. -1.
         25    2    1    2    0    0 -0.59110883930E+02 -0.21521213499E+03 -0.62565587082E+03  0.67592940989E+03  0.12499975525E+03 0.  0.
          2    1    1    2  501    0 -0.16509993077E+02  0.63448199541E+02 -0.14322645978E+04  0.14337643223E+04  0.00000000000E+00 0. -1.
          1    1    1    2  502    0  0.75620877006E+02  0.15176393545E+03  0.28292470976E+03  0.32984420646E+03  0.00000000000E+00 0. -1.
         22    1    3    3    0    0 -0.38642485946E+02 -0.13266458702E+03 -0.20807981329E+03  0.24978058986E+03  0.00000000000E+00 0.  1.
         22    1    3    3    0    0 -0.20468397984E+02 -0.82547547963E+02 -0.41757605753E+03  0.42614882003E+03  0.00000000000E+00 0.  1.
</event>
<event>
 7    1  0.6176857E-006  0.4154428E+02  0.7818608E-02  0.1577801E+00
          2   -1    0    0  502    0  0.00000000000E+00  0.00000000000E+00  0.28583144098E+04  0.28583144098E+04  0.00000000000E+00 0. -1.
          1   -1    0    0  501    0 -0.00000000000E+00 -0.00000000000E+00 -0.15382489940E+03  0.15382489940E+03  0.00000000000E+00 0. -1.
         25    2    1    2    0    0 -0.26800196544E+02 -0.17062988773E+02 -0.64578292594E+02  0.14423798911E+03  0.12499938202E+03 0.  0.
          2    1    1    2  501    0 -0.14687527821E+02  0.19638101394E+02 -0.46211474078E+02  0.52315187435E+02  0.00000000000E+00 0. -1.
          1    1    1    2  502    0  0.41487724366E+02 -0.25751126211E+01  0.28152792771E+04  0.28155861327E+04  0.00000000000E+00 0. -1.
         22    1    3    3    0    0 -0.24227546447E+02 -0.49819710815E+02 -0.87930990677E+02  0.10392707402E+03  0.00000000000E+00 0.  1.
         22    1    3    3    0    0 -0.25726500976E+01  0.32756722041E+02  0.23352698083E+02  0.40310915087E+02  0.00000000000E+00 0.  1.
</event>
<event>
 7    1  0.6176857E-006  0.1681764E+03  0.7818608E-02  0.1360389E+00
          2   -1    0    0  502    0  0.00000000000E+00  0.00000000000E+00  0.12153314095E+04  0.12153314095E+04  0.00000000000E+00 0. -1.
          1   -1    0    0  501    0 -0.00000000000E+00 -0.00000000000E+00 -0.82664311214E+02  0.82664311214E+02  0.00000000000E+00 0. -1.
         25    2    1    2    0    0 -0.18101836137E+03 -0.96340206816E+01  0.75605405868E+03  0.78746628231E+03  0.12499977853E+03 0.  0.
          2    1    1    2  501    0  0.25847363885E+02 -0.13289708735E+02 -0.48978668372E+02  0.56952721916E+02  0.00000000000E+00 0. -1.
          1    1    1    2  502    0  0.15517099749E+03  0.22923729417E+02  0.42559170794E+03  0.45357671644E+03  0.00000000000E+00 0. -1.
         22    1    3    3    0    0 -0.18278862238E+03 -0.22038764117E+02  0.53005340362E+03  0.56111852428E+03  0.00000000000E+00 0. -1.
         22    1    3    3    0    0  0.17702610058E+01  0.12404743435E+02  0.22600065505E+03  0.22634775804E+03  0.00000000000E+00 0. -1.
</event>
<event>
 7    1  0.6176857E-006  0.4233279E+02  0.7818608E-02  0.1553516E+00
          2   -1    0    0  502    0  0.00000000000E+00  0.00000000000E+00  0.10683028524E+03  0.10683028524E+03  0.00000000000E+00 0. -1.
          1   -1    0    0  501    0 -0.00000000000E+00 -0.00000000000E+00 -0.13695213289E+04  0.13695213289E+04  0.00000000000E+00 0. -1.
         25    2    1    2    0    0 -0.93483740619E+01 -0.29649985751E+02 -0.37035477308E+02  0.13402784618E+03  0.12500129287E+03 0.  0.
          2    1    1    2  501    0  0.25664734522E+02 -0.11292805743E+02 -0.12754884953E+04  0.12757966561E+04  0.00000000000E+00 0. -1.
          1    1    1    2  502    0 -0.16316360460E+02  0.40942791494E+02  0.49832928995E+02  0.66527111813E+02  0.00000000000E+00 0. -1.
         22    1    3    3    0    0  0.13751443214E+02  0.20051059354E+02 -0.67203610452E+02  0.71466582607E+02  0.00000000000E+00 0.  1.
         22    1    3    3    0    0 -0.23099817276E+02 -0.49701045105E+02  0.30168133145E+02  0.62561263575E+02  0.00000000000E+00 0.  1.
</event>
<event>
 7    1  0.6176857E-006  0.6128315E+02  0.7818608E-02  0.1506350E+00
          2   -1    0    0  502    0  0.00000000000E+00  0.00000000000E+00  0.11498292665E+04  0.11498292665E+04  0.00000000000E+00 0. -1.
          1   -1    0    0  501    0 -0.00000000000E+00 -0.00000000000E+00 -0.30462985156E+03  0.30462985156E+03  0.00000000000E+00 0. -1.
         25    2    1    2    0    0  0.62821701998E+02  0.68836881208E+01  0.64584425191E+02  0.15423980802E+03  0.12499927599E+03 0.  0.
          2    1    1    2  501    0 -0.52795361558E+02 -0.31349945505E+02 -0.25600330141E+03  0.26326385931E+03  0.00000000000E+00 0. -1.
          1    1    1    2  502    0 -0.10026340441E+02  0.24466257385E+02  0.10366182912E+04  0.10369554507E+04  0.00000000000E+00 0. -1.
         22    1    3    3    0    0  0.10496541333E+02  0.41672667032E+02 -0.21188538160E+02  0.47913909325E+02  0.00000000000E+00 0.  1.
         22    1    3    3    0    0  0.52325160666E+02 -0.34788978911E+02  0.85772963351E+02  0.10632589870E+03  0.00000000000E+00 0.  1.
</event>
<event>
 7    1  0.6176857E-006  0.1704420E+03  0.7818608E-02  0.1302692E+00
          2   -1    0    0  502    0  0.00000000000E+00  0.00000000000E+00  0.13946036043E+04  0.13946036043E+04  0.00000000000E+00 0. -1.
          1   -1    0    0  501    0 -0.00000000000E+00 -0.00000000000E+00 -0.68497370943E+03  0.68497370943E+03  0.00000000000E+00 0. -1.
         25    2    1    2    0    0 -0.16484133330E+03  0.12322473964E+03  0.17227045700E+03  0.29607355638E+03  0.12500175523E+03 0.  0.
          2    1    1    2  501    0  0.17453943531E+02 -0.44277087927E+02 -0.61612696093E+03  0.61796240390E+03  0.00000000000E+00 0. -1.
          1    1    1    2  502    0  0.14738738977E+03 -0.78947651713E+02  0.11534863988E+04  0.11655413534E+04  0.00000000000E+00 0. -1.
         22    1    3    3    0    0 -0.14082643590E+03  0.13766154101E+03  0.10494669089E+03  0.22315150201E+03  0.00000000000E+00 0. -1.
         22    1    3    3    0    0 -0.24014897402E+02 -0.14436801365E+02  0.67323766107E+02  0.72922054371E+02  0.00000000000E+00 0. -1.
</event>
<event>
 7    1  0.6176857E-006  0.1982922E+03  0.7818608E-02  0.1236344E+00
          2   -1    0    0  502    0  0.00000000000E+00  0.00000000000E+00  0.11351242473E+04  0.11351242473E+04  0.00000000000E+00 0. -1.
          1   -1    0    0  501    0 -0.00000000000E+00 -0.00000000000E+00 -0.20661339547E+03  0.20661339547E+03  0.00000000000E+00 0. -1.
         25    2    1    2    0    0  0.15211052567E+03  0.10675172612E+03  0.29112624402E+03  0.36729624341E+03  0.12497398695E+03 0.  0.
          2    1    1    2  501    0 -0.10874481990E+03 -0.17131738094E+03 -0.10466998107E+03  0.22832189077E+03  0.00000000000E+00 0. -1.
          1    1    1    2  502    0 -0.43365705767E+02  0.64565654822E+02  0.74205458889E+03  0.74611950860E+03  0.00000000000E+00 0. -1.
         22    1    3    3    0    0  0.15650296408E+02 -0.14141897301E+02 -0.29454899655E+01  0.21297909476E+02  0.00000000000E+00 0.  1.
         22    1    3    3    0    0  0.13646022926E+03  0.12089362342E+03  0.29407173399E+03  0.34599833393E+03  0.00000000000E+00 0.  1.
</event>
<event>
 7    1  0.6176857E-006  0.1155059E+03  0.7818608E-02  0.1449844E+00
          2   -1    0    0  502    0  0.00000000000E+00  0.00000000000E+00  0.42992852213E+03  0.42992852213E+03  0.00000000000E+00 0. -1.
          1   -1    0    0  501    0 -0.00000000000E+00 -0.00000000000E+00 -0.21696256189E+03  0.21696256189E+03  0.00000000000E+00 0. -1.
         25    2    1    2    0    0 -0.39741786262E+02 -0.97933269231E+02  0.19160614810E+03  0.25200801479E+03  0.12499915492E+03 0.  0.
          2    1    1    2  501    0 -0.19157349365E+02 -0.84432866507E+01 -0.16829738004E+03  0.16959452012E+03  0.00000000000E+00 0. -1.
          1    1    1    2  502    0  0.58899135627E+02  0.10637655588E+03  0.18965719218E+03  0.22528854912E+03  0.00000000000E+00 0. -1.
         22    1    3    3    0    0 -0.42066642813E+02  0.11138291661E+02  0.18267050544E+02  0.47194799652E+02  0.00000000000E+00 0. -1.
         22    1    3    3    0    0  0.23248565510E+01 -0.10907156089E+03  0.17333909756E+03  0.20481321514E+03  0.00000000000E+00 0. -1.
</event>
<event>
 7    1  0.6176857E-006  0.1032165E+03  0.7818608E-02  0.1281487E+00
          2   -1    0    0  502    0  0.00000000000E+00  0.00000000000E+00  0.47894415474E+03  0.47894415474E+03  0.00000000000E+00 0. -1.
          1   -1    0    0  501    0 -0.00000000000E+00 -0.00000000000E+00 -0.14482490240E+04  0.14482490240E+04  0.00000000000E+00 0. -1.
         25    2    1    2    0    0  0.12531794184E+03  0.14196916954E+03 -0.59914681480E+02  0.23467584940E+03  0.12499261412E+03 0.  0.
          2    1    1    2  501    0 -0.43097963871E+02 -0.85550981812E+02 -0.12928044572E+04  0.12963486296E+04  0.00000000000E+00 0. -1.
          1    1    1    2  502    0 -0.82219977971E+02 -0.56418187732E+02  0.38341426939E+03  0.39616869975E+03  0.00000000000E+00 0. -1.
         22    1    3    3    0    0  0.83406550451E+02  0.93022960256E+02 -0.98914237369E+02  0.15935479330E+03  0.00000000000E+00 0.  1.
         22    1    3    3    0    0  0.41911391392E+02  0.48946209287E+02  0.38999555889E+02  0.75321056097E+02  0.00000000000E+00 0.  1.
</event>
<event>
 7    1  0.6176857E-006  0.1029158E+03  0.7818608E-02  0.1420274E+00
          2   -1    0    0  502    0  0.00000000000E+00  0.00000000000E+00  0.96797406640E+03  0.96797406640E+03  0.00000000000E+00 0. -1.
          1   -1    0    0  501    0 -0.00000000000E+00 -0.00000000000E+00 -0.10916504928E+03  0.10916504928E+03  0.00000000000E+00 0. -1.
         25    2    1    2    0    0  0.10805007740E+03  0.53635648977E+02  0.91744713560E+02  0.19644876184E+03  0.12499368582E+03 0.  0.
          2    1    1    2  501    0 -0.93885524841E+01 -0.27811430539E+02 -0.49625810833E+02  0.57657104395E+02  0.00000000000E+00 0. -1.
          1    1    1    2  502    0 -0.98661524917E+02 -0.25824218437E+02  0.81669011438E+03  0.82303324944E+03  0.00000000000E+00 0. -1.
         22    1    3    3    0    0  0.11132990220E+02  0.17273210048E+01  0.85596015757E+02  0.86334263318E+02  0.00000000000E+00 0. -1.
         22    1    3    3    0    0  0.96917087181E+02  0.51908327972E+02  0.61486978028E+01  0.11011449852E+03  0.00000000000E+00 0. -1.
</event>
<event>
 7    1  0.6176857E-006  0.2862354E+03  0.7818608E-02  0.1127974E+00
          2   -1    0    0  502    0  0.00000000000E+00  0.00000000000E+00  0.28053629100E+04  0.28053629100E+04  0.00000000000E+00 0. -1.
          1   -1    0    0  501    0 -0.00000000000E+00 -0.00000000000E+00 -0.37521351654E+04  0.37521351654E+04  0.00000000000E+00 0. -1.
         25    2    1    2    0    0 -0.65640299852E+02  0.10373588598E+03  0.25666623870E+03  0.31076063354E+03  0.12499932107E+03 0.  0.
          2    1    1    2  501    0  0.23539521410E+03 -0.16879475998E+03 -0.37161681832E+04  0.37274399450E+04  0.00000000000E+00 0. -1.
          1    1    1    2  502    0 -0.16975491425E+03  0.65058873998E+02  0.25127296890E+04  0.25192974969E+04  0.00000000000E+00 0. -1.
         22    1    3    3    0    0 -0.30605829299E+02  0.10993272141E+03  0.10531584334E+03  0.15528472843E+03  0.00000000000E+00 0. -1.
         22    1    3    3    0    0 -0.35034470552E+02 -0.61968354320E+01  0.15135039536E+03  0.15547590512E+03  0.00000000000E+00 0. -1.
</event>
<event>
 7    1  0.6176857E-006  0.1863893E+03  0.7818608E-02  0.1164212E+00
          2   -1    0    0  502    0  0.00000000000E+00  0.00000000000E+00  0.16413020656E+04  0.16413020656E+04  0.00000000000E+00 0. -1.
          1   -1    0    0  501    0 -0.00000000000E+00 -0.00000000000E+00 -0.83747832264E+03  0.83747832264E+03  0.00000000000E+00 0. -1.
         25    2    1    2    0    0  0.22153384826E+02  0.46701080841E+02  0.26541838739E+03  0.29789934881E+03  0.12500135298E+03 0.  0.
          2    1    1    2  501    0  0.13315216367E+03 -0.13998860691E+03 -0.80370382880E+03  0.82659914903E+03  0.00000000000E+00 0. -1.
          1    1    1    2  502    0 -0.15530554850E+03  0.93287526070E+02  0.13421091843E+04  0.13542818904E+04  0.00000000000E+00 0. -1.
         22    1    3    3    0    0 -0.20053859778E+02 -0.25386232626E+02  0.16080133910E+03  0.16402343965E+03  0.00000000000E+00 0.  1.
         22    1    3    3    0    0  0.42207244605E+02  0.72087313467E+02  0.10461704829E+03  0.13387590916E+03  0.00000000000E+00 0.  1.
</event>
<event>
 7    1  0.6176857E-006  0.9832511E+02  0.7818608E-02  0.1370387E+00
          2   -1    0    0  502    0  0.00000000000E+00  0.00000000000E+00  0.78215392829E+03  0.78215392829E+03  0.00000000000E+00 0. -1.
          1   -1    0    0  501    0 -0.00000000000E+00 -0.00000000000E+00 -0.15311750933E+04  0.15311750933E+04  0.00000000000E+00 0. -1.
         25    2    1    2    0    0 -0.91473193484E+02  0.10825148645E+03 -0.25057059035E+03  0.31383989049E+03  0.12499650662E+03 0.  0.
          2    1    1    2  501    0  0.20528075994E+02 -0.40870371601E+02 -0.12453593595E+04  0.12461989101E+04  0.00000000000E+00 0. -1.
          1    1    1    2  502    0  0.70945117490E+02 -0.67381114853E+02  0.74690878480E+03  0.75329022106E+03  0.00000000000E+00 0. -1.
         22    1    3    3    0    0 -0.21425328286E+02  0.98677653721E+02 -0.78787942990E+02  0.12807757023E+03  0.00000000000E+00 0. -1.
         22    1    3    3    0    0 -0.70047865198E+02  0.95738327331E+01 -0.17178264736E+03  0.18576232025E+03  0.00000000000E+00 0. -1.
</event>
<event>
 7    1  0.6176857E-006  0.2651941E+03  0.7818608E-02  0.1115732E+00
          2   -1    0    0  502    0  0.00000000000E+00  0.00000000000E+00  0.47020546572E+03  0.47020546572E+03  0.00000000000E+00 0. -1.
          1   -1    0    0  501    0 -0.00000000000E+00 -0.00000000000E+00 -0.10121045293E+04  0.10121045293E+04  0.00000000000E+00 0. -1.
         25    2    1    2    0    0 -0.10914931703E+03  0.71696434694E+02  0.22107781304E+03  0.28557701419E+03  0.12499951782E+03 0.  0.
          2    1    1    2  501    0  0.16342688862E+02 -0.28056858932E+03 -0.89133627400E+03  0.93459412053E+03  0.00000000000E+00 0. -1.
          1    1    1    2  502    0  0.92806628172E+02  0.20887215462E+03  0.12835939734E+03  0.26213886033E+03  0.00000000000E+00 0. -1.
         22    1    3    3    0    0 -0.10105876639E+03  0.59653636491E+02  0.23673890592E+03  0.26422857564E+03  0.00000000000E+00 0.  1.
         22    1    3    3    0    0 -0.80905506423E+01  0.12042798203E+02 -0.15661092874E+02  0.21348438544E+02  0.00000000000E+00 0.  1.
</event>
<event>
 7    1  0.6176857E-006  0.3598596E+02  0.7818608E-02  0.1600702E+00
          2   -1    0    0  502    0  0.00000000000E+00  0.00000000000E+00  0.78414125919E+03  0.78414125919E+03  0.00000000000E+00 0. -1.
          1   -1    0    0  501    0 -0.00000000000E+00 -0.00000000000E+00 -0.96822211269E+03  0.96822211269E+03  0.00000000000E+00 0. -1.
         25    2    1    2    0    0 -0.52488246498E+02  0.58557407761E+01  0.10557484275E+03  0.17193058835E+03  0.12499909628E+03 0.  0.
          2    1    1    2  501    0  0.21478769605E+02  0.12032090092E+02 -0.93438554507E+03  0.93470982426E+03  0.00000000000E+00 0. -1.
          1    1    1    2  502    0  0.31009476893E+02 -0.17887830868E+02  0.64472984882E+03  0.64572295926E+03  0.00000000000E+00 0. -1.
         22    1    3    3    0    0  0.19114906462E+02  0.22032806770E+02  0.92982762833E+02  0.97450594700E+02  0.00000000000E+00 0. -1.
         22    1    3    3    0    0 -0.71603152960E+02 -0.16177065994E+02  0.12592079913E+02  0.74479993653E+02  0.00000000000E+00 0. -1.
</event>
<event>
 7    1  0.6176857E-006  0.1559196E+03  0.7818608E-02  0.1307593E+00
          2   -1    0    0  502    0  0.00000000000E+00  0.00000000000E+00  0.35649418737E+04  0.35649418737E+04  0.00000000000E+00 0. -1.
          1   -1    0    0  501    0 -0.00000000000E+00 -0.00000000000E+00 -0.16020887203E+03  0.16020887203E+03  0.00000000000E+00 0. -1.
         25    2    1    2    0    0  0.90960653005E+02  0.12498520889E+03  0.12467249020E+04  0.12624751309E+04  0.12500132878E+03 0.  0.
          2    1    1    2  501    0 -0.47322202005E+02 -0.14886739496E+03 -0.11194436105E+03  0.19217812585E+03  0.00000000000E+00 0. -1.
          1    1    1    2  502    0 -0.43638451000E+02  0.23882186068E+02  0.22699524608E+04  0.22704974890E+04  0.00000000000E+00 0. -1.
         22    1    3    3    0    0  0.49029617467E+02  0.70035661761E+02  0.26784825448E+03  0.28116113661E+03  0.00000000000E+00 0.  1.
         22    1    3    3    0    0  0.41931035538E+02  0.54949547132E+02  0.97887664750E+03  0.98131399434E+03  0.00000000000E+00 0.  1.
</event>
<event>
 7    1  0.6176857E-006  0.4365783E+02  0.7818608E-02  0.1544246E+00
          2   -1    0    0  502    0  0.00000000000E+00  0.00000000000E+00  0.99517161208E+02  0.99517161208E+02  0.00000000000E+00 0. -1.
          1   -1    0    0  501    0 -0.00000000000E+00 -0.00000000000E+00 -0.17339239745E+04  0.17339239745E+04  0.00000000000E+00 0. -1.
         25    2    1    2    0    0 -0.57508644570E+02  0.30107967920E+02 -0.66579502119E+02  0.15579392042E+03  0.12500072642E+03 0.  0.
          2    1    1    2  501    0  0.15561563525E+02 -0.24303725198E+02 -0.16144245972E+04  0.16146825116E+04  0.00000000000E+00 0. -1.
          1    1    1    2  502    0  0.41947081045E+02 -0.58042427222E+01  0.46597286028E+02  0.62964703659E+02  0.00000000000E+00 0. -1.
         22    1    3    3    0    0 -0.84819086365E+02  0.50823937175E+02 -0.70286120204E+02  0.12131565725E+03  0.00000000000E+00 0. -1.
         22    1    3    3    0    0  0.27310441796E+02 -0.20715969254E+02  0.37066180851E+01  0.34478263165E+02  0.00000000000E+00 0. -1.
</event>
<event>
 7    1  0.6176857E-006  0.3897878E+02  0.7818608E-02  0.1554407E+00
          2   -1    0    0  502    0  0.00000000000E+00  0.00000000000E+00  0.17275001312E+04  0.17275001312E+04  0.00000000000E+00 0. -1.
          1   -1    0    0  501    0 -0.00000000000E+00 -0.00000000000E+00 -0.37848550602E+02  0.37848550602E+02  0.00000000000E+00 0. -1.
         25    2    1    2    0    0 -0.50025324145E+02 -0.29589915203E+02  0.74111569358E+03  0.75382726790E+03  0.12499992969E+03 0.  0.
          2    1    1    2  501    0  0.38752298796E+02  0.14874856756E+01 -0.19226654726E+02  0.43285303829E+02  0.00000000000E+00 0. -1.
          1    1    1    2  502    0  0.11273025350E+02  0.28102429527E+02  0.96776254177E+03  0.96823611010E+03  0.00000000000E+00 0. -1.
         22    1    3    3    0    0 -0.18556361821E+02 -0.49712496183E+02  0.68091874402E+03  0.68298316729E+03  0.00000000000E+00 0. -1.
         22    1    3    3    0    0 -0.31468962324E+02  0.20122580980E+02  0.60196949551E+02  0.70844100603E+02  0.00000000000E+00 0. -1.
</event>
<event>
 7    1  0.6176857E-006  0.8557545E+02  0.7818608E-02  0.1395029E+00
          2   -1    0    0  502    0  0.00000000000E+00  0.00000000000E+00  0.16913985648E+04  0.16913985648E+04  0.00000000000E+00 0. -1.
          1   -1    0    0  501    0 -0.00000000000E+00 -0.00000000000E+00 -0.19947682331E+02  0.19947682331E+02  0.00000000000E+00 0. -1.
         25    2    1    2    0    0  0.78831774118E+02 -0.60566685530E+02  0.99314412686E+03  0.10059040798E+04  0.12499995639E+03 0.  0.
          2    1    1    2  501    0 -0.82919976770E+02  0.17744137335E+02  0.12851290663E+03  0.15396799709E+03  0.00000000000E+00 0. -1.
          1    1    1    2  502    0  0.40882026513E+01  0.42822548195E+02  0.54979384897E+03  0.55147417020E+03  0.00000000000E+00 0. -1.
         22    1    3    3    0    0  0.91960151810E+02 -0.44572903491E+02  0.41526341351E+03  0.42765303207E+03  0.00000000000E+00 0.  1.
         22    1    3    3    0    0 -0.13128377691E+02 -0.15993782039E+02  0.57788071335E+03  0.57825104776E+03  0.00000000000E+00 0.  1.
</event>
<event>
 7    1  0.6176857E-006  0.1389389E+03  0.7818608E-02  0.1402982E+00
          2   -1    0    0  502    0  0.00000000000E+00  0.00000000000E+00  0.27375171076E+04  0.27375171076E+04  0.00000000000E+00 0. -1.
          1   -1    0    0  501    0 -0.00000000000E+00 -0.00000000000E+00 -0.48346677856E+02  0.48346677856E+02  0.00000000000E+00 0. -1.
         25    2    1    2    0    0 -0.72349423687E+02  0.13312764732E+03  0.15372380355E+04  0.15497380714E+04  0.12501960931E+03 0.  0.
          2    1    1    2  501    0 -0.27768592548E+01 -0.24720460030E+02 -0.34417717342E+02  0.42466355606E+02  0.00000000000E+00 0. -1.
          1    1    1    2  502    0  0.75126282942E+02 -0.10840718729E+03  0.11863501116E+04  0.11936593584E+04  0.00000000000E+00 0. -1.
         22    1    3    3    0    0  0.18208608262E+02 -0.50074700241E+01  0.41296934922E+03  0.41340090901E+03  0.00000000000E+00 0. -1.
         22    1    3    3    0    0 -0.90558031949E+02  0.13813511735E+03  0.11242686862E+04  0.11363371624E+04  0.00000000000E+00 0. -1.
</event>
<event>
 7    1  0.6176857E-006  0.1420086E+03  0.7818608E-02  0.1279837E+00
          2   -1    0    0  502    0  0.00000000000E+00  0.00000000000E+00  0.30139968823E+03  0.30139968823E+03  0.00000000000E+00 0. -1.
          1   -1    0    0  501    0 -0.00000000000E+00 -0.00000000000E+00 -0.11214271885E+04  0.11214271885E+04  0.00000000000E+00 0. -1.
         25    2    1    2    0    0  0.57410819128E+02  0.76016581228E+02 -0.21096337511E+03  0.26306926627E+03  0.12500148176E+03 0.  0.
          2    1    1    2  501    0 -0.23825804319E+02  0.66592314945E+02 -0.86337265879E+03  0.86626471319E+03  0.00000000000E+00 0. -1.
          1    1    1    2  502    0 -0.33585014810E+02 -0.14260889617E+03  0.25430853362E+03  0.29349289729E+03  0.00000000000E+00 0. -1.
         22    1    3    3    0    0 -0.61474643823E+00 -0.32002831060E+02 -0.26422471788E+02  0.41505495111E+02  0.00000000000E+00 0.  1.
         22    1    3    3    0    0  0.58025565567E+02  0.10801941229E+03 -0.18454090332E+03  0.22156377116E+03  0.00000000000E+00 0.  1.
</event>
<event>
 7    1  0.6176857E-006  0.1403606E+03  0.7818608E-02  0.1355536E+00
          2   -1    0    0  502    0  0.00000000000E+00  0.00000000000E+00  0.90605765169E+03  0.90605765169E+03  0.00000000000E+00 0. -1.
          1   -1    0    0  501    0 -0.00000000000E+00 -0.00000000000E+00 -0.35991378748E+03  0.35991378748E+03  0.00000000000E+00 0. -1.
         25    2    1    2    0    0 -0.75017229513E+01 -0.15119740637E+03 -0.30754976384E+03  0.36486944568E+03  0.12500369438E+03 0.  0.
          2    1    1    2  501    0 -0.32208594567E+02  0.16692825988E+02  0.31743849374E+00  0.36278709605E+02  0.00000000000E+00 0. -1.
          1    1    1    2  502    0  0.39710317518E+02  0.13450458039E+03  0.85337618956E+03  0.86482328390E+03  0.00000000000E+00 0. -1.
         22    1    3    3    0    0 -0.43829299347E+02 -0.13378946598E+03 -0.16581179534E+03  0.21751822950E+03  0.00000000000E+00 0. -1.
         22    1    3    3    0    0  0.36327576396E+02 -0.17407940394E+02 -0.14173796850E+03  0.14735121618E+03  0.00000000000E+00 0. -1.
</event>
<event>
 7    1  0.6176857E-006  0.1055134E+03  0.7818608E-02  0.1334751E+00
          2   -1    0    0  502    0  0.00000000000E+00  0.00000000000E+00  0.54799428114E+03  0.54799428114E+03  0.00000000000E+00 0. -1.
          1   -1    0    0  501    0 -0.00000000000E+00 -0.00000000000E+00 -0.49249351218E+03  0.49249351218E+03  0.00000000000E+00 0. -1.
         25    2    1    2    0    0 -0.36913677377E+02  0.42653676175E+02 -0.45393645842E+02  0.14445547530E+03  0.12499938237E+03 0.  0.
          2    1    1    2  501    0  0.81950164847E+02 -0.78720388091E+02 -0.38771688293E+03  0.40402612580E+03  0.00000000000E+00 0. -1.
          1    1    1    2  502    0 -0.45036487470E+02  0.36066711916E+02  0.48861129773E+03  0.49200619222E+03  0.00000000000E+00 0. -1.
         22    1    3    3    0    0 -0.22658483570E+02 -0.31226927335E+02 -0.56480137720E+02  0.68399808664E+02  0.00000000000E+00 0. -1.
         22    1    3    3    0    0 -0.14255193807E+02  0.73880603510E+02  0.11086491877E+02  0.76055666637E+02  0.00000000000E+00 0. -1.
</event>
<event>
 7    1  0.6176857E-006  0.4890906E+02  0.7818608E-02  0.1515770E+00
          2   -1    0    0  502    0  0.00000000000E+00  0.00000000000E+00  0.40818476659E+04  0.40818476659E+04  0.00000000000E+00 0. -1.
          1   -1    0    0  501    0 -0.00000000000E+00 -0.00000000000E+00 -0.94010226604E+01  0.94010226604E+01  0.00000000000E+00 0. -1.
         25    2    1    2    0    0 -0.26853293010E+02 -0.33310994557E+02  0.52830226338E+03  0.54457281176E+03  0.12500217645E+03 0.  0.
          2    1    1    2  501    0  0.26684847426E+02 -0.15942115171E+02  0.22191926235E+03  0.22408567808E+03  0.00000000000E+00 0. -1.
          1    1    1    2  502    0  0.16844558327E+00  0.49253109728E+02  0.33222251175E+04  0.33225901987E+04  0.00000000000E+00 0. -1.
         22    1    3    3    0    0 -0.11799453771E+02 -0.62040940443E+02  0.12576326801E+03  0.14072919022E+03  0.00000000000E+00 0. -1.
         22    1    3    3    0    0 -0.15053839238E+02  0.28729945887E+02  0.40253899537E+03  0.40384362154E+03  0.00000000000E+00 0. -1.
</event>
<event>
 7    1  0.6176857E-006  0.1730692E+03  0.7818608E-02  0.1278136E+00
          2   -1    0    0  502    0  0.00000000000E+00  0.00000000000E+00  0.56019507382E+03  0.56019507382E+03  0.00000000000E+00 0. -1.
          1   -1    0    0  501    0 -0.00000000000E+00 -0.00000000000E+00 -0.11962617095E+04  0.11962617095E+04  0.00000000000E+00 0. -1.
         25    2    1    2    0    0  0.21343144396E+03  0.60200535856E+02 -0.42894287807E+03  0.49879338699E+03  0.12500305786E+03 0.  0.
          2    1    1    2  501    0 -0.42891231023E+02 -0.40486507961E+02 -0.71712308055E+03  0.71954452793E+03  0.00000000000E+00 0. -1.
          1    1    1    2  502    0 -0.17054021294E+03 -0.19714027894E+02  0.50999932293E+03  0.53811886839E+03  0.00000000000E+00 0. -1.
         22    1    3    3    0    0  0.13316011289E+02 -0.30626203026E+02 -0.40496011491E+02  0.52490069681E+02  0.00000000000E+00 0. -1.
         22    1    3    3    0    0  0.20011543267E+03  0.90826738881E+02 -0.38844686658E+03  0.44630331731E+03  0.00000000000E+00 0. -1.
</event>
<event>
 7    1  0.6176857E-006  0.1722681E+03  0.7818608E-02  0.1260783E+00
          2   -1    0    0  502    0  0.00000000000E+00  0.00000000000E+00  0.18501887521E+03  0.18501887521E+03  0.00000000000E+00 0. -1.
          1   -1    0    0  501    0 -0.00000000000E+00 -0.00000000000E+00 -0.32597717068E+04  0.32597717068E+04  0.00000000000E+00 0. -1.
         25    2    1    2    0    0  0.97582450689E+01 -0.11944119878E+03 -0.50805525312E+03  0.53675479351E+03  0.12499657924E+03 0.  0.
          2    1    1    2  501    0 -0.49389540020E+02  0.17725389454E+03 -0.27269363948E+04  0.27331374592E+04  0.00000000000E+00 0. -1.
          1    1    1    2  502    0  0.39631294951E+02 -0.57812695756E+02  0.16023881632E+03  0.17489832928E+03  0.00000000000E+00 0. -1.
         22    1    3    3    0    0  0.21030252693E+02 -0.85836872546E+02 -0.48818670528E+03  0.49612145632E+03  0.00000000000E+00 0.  1.
         22    1    3    3    0    0 -0.11272007624E+02 -0.33604326233E+02 -0.19868547840E+02  0.40633337184E+02  0.00000000000E+00 0.  1.
</event>
<event>
 7    1  0.6176857E-006  0.2120077E+03  0.7818608E-02  0.1231084E+00
          2   -1    0    0  502    0  0.00000000000E+00  0.00000000000E+00  0.35690624967E+03  0.35690624967E+03  0.00000000000E+00 0. -1.
          1   -1    0    0  501    0 -0.00000000000E+00 -0.00000000000E+00 -0.28709702773E+03  0.28709702773E+03  0.00000000000E+00 0. -1.
         25    2    1    2    0    0 -0.99706919392E+01 -0.22384912271E+03  0.32690489697E+02  0.25865397666E+03  0.12500146836E+03 0.  0.
          2    1    1    2  501    0  0.73221852593E+02  0.23101949708E+02 -0.10595485562E+03  0.13084942188E+03  0.00000000000E+00 0. -1.
          1    1    1    2  502    0 -0.63251160654E+02  0.20074717300E+03  0.14307358786E+03  0.25449987885E+03  0.00000000000E+00 0. -1.
         22    1    3    3    0    0  0.56239378969E+02 -0.10757384210E+03  0.28973054211E+02  0.12479758460E+03  0.00000000000E+00 0.  1.
         22    1    3    3    0    0 -0.66210070908E+02 -0.11627528061E+03  0.37174354862E+01  0.13385639206E+03  0.00000000000E+00 0.  1.
</event>
<event>
 7    1  0.6176857E-006  0.1766495E+03  0.7818608E-02  0.1309419E+00
          2   -1    0    0  502    0  0.00000000000E+00  0.00000000000E+00  0.58617350809E+03  0.58617350809E+03  0.00000000000E+00 0. -1.
          1   -1    0    0  501    0 -0.00000000000E+00 -0.00000000000E+00 -0.63403576490E+03  0.63403576490E+03  0.00000000000E+00 0. -1.
         25    2    1    2    0    0  0.12975601979E+03  0.15503392858E+03 -0.42066419654E+01  0.23772777447E+03  0.12499862094E+03 0.  0.
          2    1    1    2  501    0 -0.42928355453E+02 -0.47024274077E+01 -0.49604705775E+03  0.49792332745E+03  0.00000000000E+00 0. -1.
          1    1    1    2  502    0 -0.86827664341E+02 -0.15033150117E+03  0.45239144290E+03  0.48455817106E+03  0.00000000000E+00 0. -1.
         22    1    3    3    0    0 -0.22614347927E+01  0.88391618489E+02 -0.13988311340E+02  0.89520194149E+02  0.00000000000E+00 0. -1.
         22    1    3    3    0    0  0.13201745459E+03  0.66642310090E+02  0.97816693744E+01  0.14820758032E+03  0.00000000000E+00 0. -1.
</event>
<event>
 7    1  0.6176857E-006  0.5039464E+02  0.7818608E-02  0.1463101E+00
          2   -1    0    0  502    0  0.00000000000E+00  0.00000000000E+00  0.86363517599E+03  0.86363517599E+03  0.00000000000E+00 0. -1.
          1   -1    0    0  501    0 -0.00000000000E+00 -0.00000000000E+00 -0.58278146778E+02  0.58278146778E+02  0.00000000000E+00 0. -1.
         25    2    1    2    0    0  0.53617022940E+02 -0.30708230213E+02  0.73554780752E+03  0.74864767869E+03  0.12499995640E+03 0.  0.
          2    1    1    2  501    0 -0.40506456955E+02 -0.16017102327E+02 -0.36225251268E+02  0.56653238667E+02  0.00000000000E+00 0. -1.
          1    1    1    2  502    0 -0.13110565985E+02  0.46725332539E+02  0.10603447296E+03  0.11661240542E+03  0.00000000000E+00 0. -1.
         22    1    3    3    0    0  0.51752474581E+02  0.38846182141E+02  0.45611829931E+03  0.46068562758E+03  0.00000000000E+00 0.  1.
         22    1    3    3    0    0  0.18645483590E+01 -0.69554412354E+02  0.27942950821E+03  0.28796205110E+03  0.00000000000E+00 0.  1.
</event>
<event>
 7    1  0.6176857E-006  0.1988671E+03  0.7818608E-02  0.1157118E+00
          2   -1    0    0  502    0  0.00000000000E+00  0.00000000000E+00  0.27829023307E+04  0.27829023307E+04  0.00000000000E+00 0. -1.
          1   -1    0    0  501    0 -0.00000000000E+00 -0.00000000000E+00 -0.89033122838E+02  0.89033122838E+02  0.00000000000E+00 0. -1.
         25    2    1    2    0    0 -0.19673064920E+03 -0.13237352384E+02  0.13974495890E+04  0.14168163706E+04  0.12500039393E+03 0.  0.
          2    1    1    2  501    0  0.13202981229E+03 -0.15944023327E+03  0.75493242965E+02  0.22034583965E+03  0.00000000000E+00 0. -1.
          1    1    1    2  502    0  0.64700836914E+02  0.17267758565E+03  0.12209263760E+04  0.12347732433E+04  0.00000000000E+00 0. -1.
         22    1    3    3    0    0 -0.98548574418E+02 -0.19928586397E+02  0.33352707127E+03  0.34835223172E+03  0.00000000000E+00 0. -1.
         22    1    3    3    0    0 -0.98182074785E+02  0.66912340134E+01  0.10639225177E+04  0.10684641389E+04  0.00000000000E+00 0. -1.
</event>
<event>
 7    1  0.6176857E-006  0.1292753E+03  0.7818608E-02  0.1258166E+00
          2   -1    0    0  502    0  0.00000000000E+00  0.00000000000E+00  0.70589690797E+03  0.70589690797E+03  0.00000000000E+00 0. -1.
          1   -1    0    0  501    0 -0.00000000000E+00 -0.00000000000E+00 -0.38997755363E+03  0.38997755363E+03  0.00000000000E+00 0. -1.
         25    2    1    2    0    0  0.24460224757E+02 -0.17218976055E+03  0.25304318436E+02  0.21566884852E+03  0.12500050982E+03 0.  0.
          2    1    1    2  501    0  0.52751941306E+02  0.11541505622E+03 -0.27693266308E+03  0.30462288554E+03  0.00000000000E+00 0. -1.
          1    1    1    2  502    0 -0.77212166063E+02  0.56774704335E+02  0.56754769898E+03  0.57558272756E+03  0.00000000000E+00 0. -1.
         22    1    3    3    0    0 -0.13141305784E+02 -0.17515919524E+03  0.27933611615E+02  0.17785871993E+03  0.00000000000E+00 0.  1.
         22    1    3    3    0    0  0.37601530541E+02  0.29694346917E+01 -0.26292931789E+01  0.37810128591E+02  0.00000000000E+00 0.  1.
</event>
<event>
 7    1  0.6176857E-006  0.6363586E+02  0.7818608E-02  0.1420577E+00
          2   -1    0    0  502    0  0.00000000000E+00  0.00000000000E+00  0.44423363524E+03  0.44423363524E+03  0.00000000000E+00 0. -1.
          1   -1    0    0  501    0 -0.00000000000E+00 -0.00000000000E+00 -0.58202572384E+03  0.58202572384E+03  0.00000000000E+00 0. -1.
         25    2    1    2    0    0 -0.15026747751E+02 -0.19117658323E+02  0.29354595846E+02  0.13068306727E+03  0.12500033507E+03 0.  0.
          2    1    1    2  501    0 -0.47244804120E+02 -0.33255598036E+01 -0.52728384480E+03  0.52940663375E+03  0.00000000000E+00 0. -1.
          1    1    1    2  502    0  0.62271551870E+02  0.22443218127E+02  0.36013716036E+03  0.36616965806E+03  0.00000000000E+00 0. -1.
         22    1    3    3    0    0 -0.10493013549E+02 -0.36746841238E+02  0.73550078027E+02  0.82885750597E+02  0.00000000000E+00 0.  1.
         22    1    3    3    0    0 -0.45337342016E+01  0.17629182914E+02 -0.44195482182E+02  0.47797316675E+02  0.00000000000E+00 0.  1.
</event>
<event>
 7    1  0.6176857E-006  0.8941027E+02  0.7818608E-02  0.1357389E+00
          2   -1    0    0  502    0  0.00000000000E+00  0.00000000000E+00  0.16065674712E+04  0.16065674712E+04  0.00000000000E+00 0. -1.
          1   -1    0    0  501    0 -0.00000000000E+00 -0.00000000000E+00 -0.12983872666E+04  0.12983872666E+04  0.00000000000E+00 0. -1.
         25    2    1    2    0    0 -0.43176648423E+02  0.13716974726E+03  0.16870338229E+03  0.25449157830E+03  0.12500147878E+03 0.  0.
          2    1    1    2  501    0  0.35474516794E+02 -0.81635797063E+02 -0.12533508504E+04  0.12565075403E+04  0.00000000000E+00 0. -1.
          1    1    1    2  502    0  0.77021316289E+01 -0.55533950194E+02  0.13928276727E+04  0.13939556192E+04  0.00000000000E+00 0. -1.
         22    1    3    3    0    0 -0.23861098212E+02  0.15789304565E+03  0.12677968656E+03  0.20389373408E+03  0.00000000000E+00 0. -1.
         22    1    3    3    0    0 -0.19315550211E+02 -0.20723298390E+02  0.41923695727E+02  0.50597844218E+02  0.00000000000E+00 0. -1.
</event>
<event>
 7    1  0.6176857E-006  0.3191617E+02  0.7818608E-02  0.1599541E+00
          2   -1    0    0  502    0  0.00000000000E+00  0.00000000000E+00  0.64366023974E+02  0.64366023974E+02  0.00000000000E+00 0. -1.
          1   -1    0    0  501    0 -0.00000000000E+00 -0.00000000000E+00 -0.17436452239E+04  0.17436452239E+04  0.00000000000E+00 0. -1.
         25    2    1    2    0    0  0.37095977344E+02 -0.21216908892E+01 -0.46497171831E+03  0.48291191446E+03  0.12499842077E+03 0.  0.
          2    1    1    2  501    0 -0.23194942658E+02 -0.22129924507E+02 -0.12659611781E+04  0.12663670256E+04  0.00000000000E+00 0. -1.
          1    1    1    2  502    0 -0.13901034686E+02  0.24251615396E+02  0.51653696540E+02  0.58732307812E+02  0.00000000000E+00 0. -1.
         22    1    3    3    0    0 -0.84409753486E+01  0.46063867236E+02 -0.32112847063E+03  0.32452522949E+03  0.00000000000E+00 0. -1.
         22    1    3    3    0    0  0.45536952693E+02 -0.48185558125E+02 -0.14384324768E+03  0.15838668497E+03  0.00000000000E+00 0. -1.
</event>
<event>
 7    1  0.6176857E-006  0.5992940E+02  0.7818608E-02  0.1426508E+00
          2   -1    0    0  502    0  0.00000000000E+00  0.00000000000E+00  0.42009064742E+04  0.42009064742E+04  0.00000000000E+00 0. -1.
          1   -1    0    0  501    0 -0.00000000000E+00 -0.00000000000E+00 -0.66157861956E+02  0.66157861956E+02  0.00000000000E+00 0. -1.
         25    2    1    2    0    0 -0.10160557099E+02  0.91741499341E+02  0.99496652725E+03  0.10070260038E+04  0.12499296965E+03 0.  0.
          2    1    1    2  501    0  0.33145291680E+02 -0.49534552500E+02 -0.45132528586E+02  0.74761135548E+02  0.00000000000E+00 0. -1.
          1    1    1    2  502    0 -0.22984734581E+02 -0.42206946841E+02  0.31849146136E+04  0.31852771968E+04  0.00000000000E+00 0. -1.
         22    1    3    3    0    0 -0.28073390478E+02  0.61199146229E+02  0.19538624777E+03  0.20666213144E+03  0.00000000000E+00 0.  1.
         22    1    3    3    0    0  0.17912833379E+02  0.30542353111E+02  0.79958027947E+03  0.80036387241E+03  0.00000000000E+00 0.  1.
</event>
<event>
 7    1  0.6176857E-006  0.1403646E+03  0.7818608E-02  0.1235418E+00
          2   -1    0    0  502    0  0.00000000000E+00  0.00000000000E+00  0.34096197903E+04  0.34096197903E+04  0.00000000000E+00 0. -1.
          1   -1    0    0  501    0 -0.00000000000E+00 -0.00000000000E+00 -0.14817475106E+03  0.14817475106E+03  0.00000000000E+00 0. -1.
         25    2    1    2    0    0  0.37215146880E+02 -0.18026681256E+03  0.11621696085E+03  0.25102328704E+03  0.12500087112E+03 0.  0.
          2    1    1    2  501    0  0.57288111535E+02  0.12219308977E+03 -0.22743132728E+02  0.13685879218E+03  0.00000000000E+00 0. -1.
          1    1    1    2  502    0 -0.94503258414E+02  0.58073722781E+02  0.31679712111E+04  0.31699124622E+04  0.00000000000E+00 0. -1.
         22    1    3    3    0    0 -0.40818052471E+02 -0.43136326556E+02  0.57531562882E+02  0.82684562065E+02  0.00000000000E+00 0.  1.
         22    1    3    3    0    0  0.78033199350E+02 -0.13713048600E+03  0.58685397965E+02  0.16833872497E+03  0.00000000000E+00 0.  1.
</event>
<event>
 7    1  0.6176857E-006  0.5128133E+02  0.7818608E-02  0.1463669E+00
          2   -1    0    0  502    0  0.00000000000E+00  0.00000000000E+00  0.26495184409E+04  0.26495184409E+04  0.00000000000E+00 0. -1.
          1   -1    0    0  501    0 -0.00000000000E+00 -0.00000000000E+00 -0.10438917472E+03  0.10438917472E+03  0.00000000000E+00 0. -1.
         25    2    1    2    0    0 -0.64082363650E+02  0.21274314845E+02  0.40193468613E+03  0.42630568967E+03  0.12500361327E+03 0.  0.
          2    1    1    2  501    0  0.36547582293E+02  0.21944528067E+02 -0.86966180473E+02  0.96852489021E+02  0.00000000000E+00 0. -1.
          1    1    1    2  502    0  0.27534781357E+02 -0.43218842912E+02  0.22301607605E+04  0.22307494369E+04  0.00000000000E+00 0. -1.
         22    1    3    3    0    0 -0.44848488042E+02  0.63148372927E+02  0.34223759875E+03  0.35089268713E+03  0.00000000000E+00 0.  1.
         22    1    3    3    0    0 -0.19233875608E+02 -0.41874058082E+02  0.59697087381E+02  0.75413002545E+02  0.00000000000E+00 0.  1.
</event>
<event>
 7    1  0.6176857E-006  0.6670166E+02  0.7818608E-02  0.1530770E+00
          2   -1    0    0  502    0  0.00000000000E+00  0.00000000000E+00  0.66935867575E+02  0.66935867575E+02  0.00000000000E+00 0. -1.
          1   -1    0    0  501    0 -0.00000000000E+00 -0.00000000000E+00 -0.40402500030E+03  0.40402500030E+03  0.00000000000E+00 0. -1.
         25    2    1    2    0    0 -0.41186871356E+02  0.49933333607E+02 -0.72916394366E+02  0.15852820398E+03  0.12499877885E+03 0.  0.
          2    1    1    2  501    0 -0.16261580574E+02 -0.12689179808E+02 -0.23837949766E+03  0.23927022212E+03  0.00000000000E+00 0. -1.
          1    1    1    2  502    0  0.57448451930E+02 -0.37244153799E+02 -0.25793240702E+02  0.73162441781E+02  0.00000000000E+00 0. -1.
         22    1    3    3    0    0 -0.48701033127E+02 -0.30589926246E+02 -0.16198795077E+02  0.59748934529E+02  0.00000000000E+00 0.  1.
         22    1    3    3    0    0  0.75141617708E+01  0.80523259853E+02 -0.56717599289E+02  0.98779269453E+02  0.00000000000E+00 0.  1.
</event>
<event>
 7    1  0.6176857E-006  0.8918759E+02  0.7818608E-02  0.1365434E+00
          2   -1    0    0  502    0  0.00000000000E+00  0.00000000000E+00  0.13070949010E+03  0.13070949010E+03  0.00000000000E+00 0. -1.
          1   -1    0    0  501    0 -0.00000000000E+00 -0.00000000000E+00 -0.75443812576E+03  0.75443812576E+03  0.00000000000E+00 0. -1.
         25    2    1    2    0    0 -0.40565791551E+02  0.13039305487E+03 -0.22003281653E+03  0.28755317502E+03  0.12499782364E+03 0.  0.
          2    1    1    2  501    0  0.22109904999E+02 -0.81202361687E+02 -0.48966365355E+03  0.49684319966E+03  0.00000000000E+00 0. -1.
          1    1    1    2  502    0  0.18455886552E+02 -0.49190693184E+02  0.85967834414E+02  0.10075124117E+03  0.00000000000E+00 0. -1.
         22    1    3    3    0    0  0.40982407725E+02  0.35747573816E+02 -0.36355691509E+02  0.65415465158E+02  0.00000000000E+00 0. -1.
         22    1    3    3    0    0 -0.81548199276E+02  0.94645481055E+02 -0.18367712502E+03  0.22213770986E+03  0.00000000000E+00 0. -1.
</event>
<event>
 7    1  0.6176857E-006  0.6069866E+02  0.7818608E-02  0.1405786E+00
          2   -1    0    0  502    0  0.00000000000E+00  0.00000000000E+00  0.27031846449E+04  0.27031846449E+04  0.00000000000E+00 0. -1.
          1   -1    0    0  501    0 -0.00000000000E+00 -0.00000000000E+00 -0.14294203194E+02  0.14294203194E+02  0.00000000000E+00 0. -1.
         25    2    1    2    0    0 -0.79131154415E+02 -0.46903543576E+02  0.16245006949E+04  0.16318973205E+04  0.12499870011E+03 0.  0.
          2    1    1    2  501    0  0.59611133325E+02 -0.52623197556E+01  0.81479655922E+02  0.10109457728E+03  0.00000000000E+00 0. -1.
          1    1    1    2  502    0  0.19520021090E+02  0.52165863331E+02  0.98291009092E+03  0.98448695033E+03  0.00000000000E+00 0. -1.
         22    1    3    3    0    0 -0.90703378880E+02  0.15023910551E+02  0.10097661458E+04  0.10139430408E+04  0.00000000000E+00 0.  1.
         22    1    3    3    0    0  0.11572224465E+02 -0.61927454127E+02  0.61473454910E+03  0.61795427971E+03  0.00000000000E+00 0.  1.
</event>
<event>
 7    1  0.6176857E-006  0.1647410E+03  0.7818608E-02  0.1255532E+00
          2   -1    0    0  502    0  0.00000000000E+00  0.00000000000E+00  0.11784595949E+04  0.11784595949E+04  0.00000000000E+00 0. -1.
          1   -1    0    0  501    0 -0.00000000000E+00 -0.00000000000E+00 -0.56652435486E+03  0.56652435486E+03  0.00000000000E+00 0. -1.
         25    2    1    2    0    0  0.12175084923E+03  0.19705896970E+03  0.32282901812E+03  0.41652829744E+03  0.12498696250E+03 0.  0.
          2    1    1    2  501    0 -0.59654179122E+02 -0.15121069453E+03 -0.50504612575E+03  0.53056091485E+03  0.00000000000E+00 0. -1.
          1    1    1    2  502    0 -0.62096670112E+02 -0.45848275166E+02  0.79415234763E+03  0.79789473743E+03  0.00000000000E+00 0. -1.
         22    1    3    3    0    0 -0.14528099391E+02  0.85745922795E+02  0.11586791900E+03  0.14487513106E+03  0.00000000000E+00 0.  1.
         22    1    3    3    0    0  0.13627894862E+03  0.11131304691E+03  0.20696109912E+03  0.27165316637E+03  0.00000000000E+00 0.  1.
</event>
<event>
 7    1  0.6176857E-006  0.8953006E+02  0.7818608E-02  0.1392490E+00
          2   -1    0    0  502    0  0.00000000000E+00  0.00000000000E+00  0.12310514734E+04  0.12310514734E+04  0.00000000000E+00 0. -1.
          1   -1    0    0  501    0 -0.00000000000E+00 -0.00000000000E+00 -0.20278635751E+03  0.20278635751E+03  0.00000000000E+00 0. -1.
         25    2    1    2    0    0 -0.12087563262E+03  0.29049567768E+01  0.57401080168E+03  0.59977719027E+03  0.12499968075E+03 0.  0.
          2    1    1    2  501    0  0.86494897505E+02  0.21148627600E+02 -0.17873251992E+03  0.19968461489E+03  0.00000000000E+00 0. -1.
          1    1    1    2  502    0  0.34380735117E+02 -0.24053584377E+02  0.63298683409E+03  0.63437602571E+03  0.00000000000E+00 0. -1.
         22    1    3    3    0    0 -0.89188065315E+02  0.33686213762E+02  0.18362260717E+03  0.20689739935E+03  0.00000000000E+00 0. -1.
         22    1    3    3    0    0 -0.31687567308E+02 -0.30781256986E+02  0.39038819451E+03  0.39287979092E+03  0.00000000000E+00 0. -1.
</event>
<event>
 7    1  0.6176857E-006  0.4869596E+02  0.7818608E-02  0.1506764E+00
          2   -1    0    0  502    0  0.00000000000E+00  0.00000000000E+00  0.20502733348E+03  0.20502733348E+03  0.00000000000E+00 0. -1.
          1   -1    0    0  501    0 -0.00000000000E+00 -0.00000000000E+00 -0.73988243712E+03  0.73988243712E+03  0.00000000000E+00 0. -1.
         25    2    1    2    0    0  0.38888495425E+02 -0.51076393391E+02  0.11783437454E+03  0.18338684683E+03  0.12499873091E+03 0.  0.
          2    1    1    2  501    0 -0.58220226788E+01  0.48308741235E+02 -0.70112494883E+03  0.70281137178E+03  0.00000000000E+00 0. -1.
          1    1    1    2  502    0 -0.33066472746E+02  0.27676521563E+01  0.48435470659E+02  0.58711551983E+02  0.00000000000E+00 0. -1.
         22    1    3    3    0    0  0.43724426440E+02  0.24998260900E+02  0.10030747189E+02  0.51355178947E+02  0.00000000000E+00 0.  1.
         22    1    3    3    0    0 -0.48359310152E+01 -0.76074654291E+02  0.10780362735E+03  0.13203166788E+03  0.00000000000E+00 0.  1.
</event>
<event>
 7    1  0.6176857E-006  0.7078420E+02  0.7818608E-02  0.1470101E+00
          2   -1    0    0  502    0  0.00000000000E+00  0.00000000000E+00  0.17005293238E+04  0.17005293238E+04  0.00000000000E+00 0. -1.
          1   -1    0    0  501    0 -0.00000000000E+00 -0.00000000000E+00 -0.43998557330E+03  0.43998557330E+03  0.00000000000E+00 0. -1.
         25    2    1    2    0    0 -0.95330641080E+02 -0.28492823380E+02  0.30401864432E+03  0.34344227822E+03  0.12500196103E+03 0.  0.
          2    1    1    2  501    0  0.66105247748E+02  0.24569831249E+02 -0.41715587901E+03  0.42307517982E+03  0.00000000000E+00 0. -1.
          1    1    1    2  502    0  0.29225393332E+02  0.39229921307E+01  0.13736809852E+04  0.13739974391E+04  0.00000000000E+00 0. -1.
         22    1    3    3    0    0  0.90730912265E+01 -0.23049647937E+02  0.32027866820E+01  0.24977291626E+02  0.00000000000E+00 0. -1.
         22    1    3    3    0    0 -0.10440373231E+03 -0.54431754431E+01  0.30081585764E+03  0.31846498659E+03  0.00000000000E+00 0. -1.
</event>
<event>
 7    1  0.6176857E-006  0.9927570E+02  0.7818608E-02  0.1311810E+00
          2   -1    0    0  502    0  0.00000000000E+00  0.00000000000E+00  0.32381487460E+04  0.32381487460E+04  0.00000000000E+00 0. -1.
          1   -1    0    0  501    0 -0.00000000000E+00 -0.00000000000E+00 -0.19706376742E+03  0.19706376742E+03  0.00000000000E+00 0. -1.
         25    2    1    2    0    0  0.12028339839E+03  0.69641502946E+02  0.17095830080E+04  0.17197718006E+04  0.12499179959E+03 0.  0.
          2    1    1    2  501    0 -0.99098431944E+02  0.25079672367E+01 -0.17817357233E+03  0.20389362666E+03  0.00000000000E+00 0. -1.
          1    1    1    2  502    0 -0.21184966443E+02 -0.72149470183E+02  0.15096755429E+04  0.15115470862E+04  0.00000000000E+00 0. -1.
         22    1    3    3    0    0  0.33122388659E+02  0.24487951558E+02  0.11472572545E+03  0.12189644984E+03  0.00000000000E+00 0. -1.
         22    1    3    3    0    0  0.87161009728E+02  0.45153551389E+02  0.15948572825E+04  0.15978753507E+04  0.00000000000E+00 0. -1.
</event>
<event>
 7    1  0.6176857E-006  0.9419768E+02  0.7818608E-02  0.1334401E+00
          2   -1    0    0  502    0  0.00000000000E+00  0.00000000000E+00  0.54936924431E+03  0.54936924431E+03  0.00000000000E+00 0. -1.
          1   -1    0    0  501    0 -0.00000000000E+00 -0.00000000000E+00 -0.30839511954E+03  0.30839511954E+03  0.00000000000E+00 0. -1.
         25    2    1    2    0    0 -0.42220722044E+02  0.13524025370E+03  0.13163566520E+03  0.23027255104E+03  0.12499993528E+03 0.  0.
          2    1    1    2  501    0  0.46038830434E+02 -0.45640024087E+02 -0.24941327537E+03  0.25770053868E+03  0.00000000000E+00 0. -1.
          1    1    1    2  502    0 -0.38181083908E+01 -0.89600229609E+02  0.35875173494E+03  0.36979127412E+03  0.00000000000E+00 0. -1.
         22    1    3    3    0    0 -0.77949996791E+02  0.10742931677E+03  0.12873058436E+03  0.18490219969E+03  0.00000000000E+00 0. -1.
         22    1    3    3    0    0  0.35729274747E+02  0.27810936929E+02  0.29050808400E+01  0.45370351349E+02  0.00000000000E+00 0. -1.
</event>
<event>
 7    1  0.6176857E-006  0.1433326E+03  0.7818608E-02  0.1264168E+00
          2   -1    0    0  502    0  0.00000000000E+00  0.00000000000E+00  0.30867400439E+03  0.30867400439E+03  0.00000000000E+00 0. -1.
          1   -1    0    0  501    0 -0.00000000000E+00 -0.00000000000E+00 -0.12145986942E+04  0.12145986942E+04  0.00000000000E+00 0. -1.
         25    2    1    2    0    0 -0.15709749552E+03 -0.77579450749E+02  0.88957624018E+02  0.23288910253E+03  0.12500272369E+03 0.  0.
          2    1    1    2  501    0  0.22321739429E+02  0.78380810595E+02 -0.11100891070E+04  0.11130766537E+04  0.00000000000E+00 0. -1.
          1    1    1    2  502    0  0.13477575609E+03 -0.80135984668E+00  0.11520679318E+03  0.17730694235E+03  0.00000000000E+00 0. -1.
         22    1    3    3    0    0 -0.97871894304E+02  0.20315958156E+02  0.51847589122E+02  0.11260469949E+03  0.00000000000E+00 0. -1.
         22    1    3    3    0    0 -0.59225601220E+02 -0.97895408904E+02  0.37110034896E+02  0.12028440304E+03  0.00000000000E+00 0. -1.
</event>
<event>
 7    1  0.6176857E-006  0.5753160E+02  0.7818608E-02  0.1462137E+00
          2   -1    0    0  502    0  0.00000000000E+00  0.00000000000E+00  0.17910941307E+04  0.17910941307E+04  0.00000000000E+00 0. -1.
          1   -1    0    0  501    0 -0.00000000000E+00 -0.00000000000E+00 -0.15700583359E+03  0.15700583359E+03  0.00000000000E+00 0. -1.
         25    2    1    2    0    0  0.39319772535E+02  0.13838561037E+02  0.33841465300E+03  0.36316389707E+03  0.12500395388E+03 0.  0.
          2    1    1    2  501    0 -0.28232476798E+02 -0.50625851611E+02 -0.13855562550E+03  0.15019224665E+03  0.00000000000E+00 0. -1.
          1    1    1    2  502    0 -0.11087295737E+02  0.36787290573E+02  0.14342292696E+04  0.14347438206E+04  0.00000000000E+00 0. -1.
         22    1    3    3    0    0 -0.75276953114E+01  0.57556406239E+02  0.93903865754E+02  0.11039629568E+03  0.00000000000E+00 0.  1.
         22    1    3    3    0    0  0.46847467847E+02 -0.43717845202E+02  0.24451078725E+03  0.25276760139E+03  0.00000000000E+00 0.  1.
</event>
<event>
 7    1  0.6176857E-006  0.5694794E+02  0.7818608E-02  0.1440602E+00
          2   -1    0    0  502    0  0.00000000000E+00  0.00000000000E+00  0.99796445733E+03  0.99796445733E+03  0.00000000000E+00 0. -1.
          1   -1    0    0  501    0 -0.00000000000E+00 -0.00000000000E+00 -0.88925202754E+03  0.88925202754E+03  0.00000000000E+00 0. -1.
         25    2    1    2    0    0 -0.88963013396E+01 -0.25580911519E+02  0.60428045808E+03  0.61766755039E+03  0.12499921431E+03 0.  0.
          2    1    1    2  501    0 -0.43024840707E+01 -0.45271775784E+02 -0.87860974481E+03  0.87978584254E+03  0.00000000000E+00 0. -1.
          1    1    1    2  502    0  0.13198785410E+02  0.70852687304E+02  0.38304171653E+03  0.38976309194E+03  0.00000000000E+00 0. -1.
         22    1    3    3    0    0 -0.13670618923E+02 -0.58522596095E+02  0.55472445597E+03  0.55797043123E+03  0.00000000000E+00 0.  1.
         22    1    3    3    0    0  0.47743175836E+01  0.32941684575E+02  0.49556002105E+02  0.59697119158E+02  0.00000000000E+00 0.  1.
</event>
<event>
 7    1  0.6176857E-006  0.1112625E+03  0.7818608E-02  0.1276929E+00
          2   -1    0    0  502    0  0.00000000000E+00  0.00000000000E+00  0.80585411878E+03  0.80585411878E+03  0.00000000000E+00 0. -1.
          1   -1    0    0  501    0 -0.00000000000E+00 -0.00000000000E+00 -0.84047327734E+03  0.84047327734E+03  0.00000000000E+00 0. -1.
         25    2    1    2    0    0  0.64363458726E+02 -0.54696574894E+02  0.55447243439E+03  0.57462931290E+03  0.12499918648E+03 0.  0.
          2    1    1    2  501    0 -0.69337707943E+02 -0.87015107697E+02 -0.80540331320E+03  0.81305217768E+03  0.00000000000E+00 0. -1.
          1    1    1    2  502    0  0.49742492169E+01  0.14171168259E+03  0.21631172025E+03  0.25864590555E+03  0.00000000000E+00 0. -1.
         22    1    3    3    0    0 -0.31381197649E+02 -0.42331996989E+02  0.15727172149E+03  0.16586492069E+03  0.00000000000E+00 0.  1.
         22    1    3    3    0    0  0.95744656375E+02 -0.12364577905E+02  0.39720071290E+03  0.40876439221E+03  0.00000000000E+00 0.  1.
</event>
<event>
 7    1  0.6176857E-006  0.5659105E+02  0.7818608E-02  0.1418976E+00
          2   -1    0    0  502    0  0.00000000000E+00  0.00000000000E+00  0.23189921357E+04  0.23189921357E+04  0.00000000000E+00 0. -1.
          1   -1    0    0  501    0 -0.00000000000E+00 -0.00000000000E+00 -0.17748791971E+02  0.17748791971E+02  0.00000000000E+00 0. -1.
         25    2    1    2    0    0 -0.35099533495E+02 -0.46545853031E+02  0.31072863656E+03  0.33996704973E+03  0.12500726234E+03 0.  0.
          2    1    1    2  501    0 -0.22184436694E+02  0.49142248195E+02  0.27144648092E+03  0.27674952898E+03  0.00000000000E+00 0. -1.
          1    1    1    2  502    0  0.57283970189E+02 -0.25963951638E+01  0.17190682262E+04  0.17200243489E+04  0.00000000000E+00 0. -1.
         22    1    3    3    0    0  0.86353714512E+01 -0.58103768095E+02  0.27798514843E+03  0.28412384669E+03  0.00000000000E+00 0.  1.
         22    1    3    3    0    0 -0.43734904946E+02  0.11557915064E+02  0.32743488129E+02  0.55843203044E+02  0.00000000000E+00 0.  1.
</event>
<event>
 7    1  0.6176857E-006  0.3807172E+02  0.7818608E-02  0.1541871E+00
          2   -1    0    0  502    0  0.00000000000E+00  0.00000000000E+00  0.28985405218E+03  0.28985405218E+03  0.00000000000E+00 0. -1.
          1   -1    0    0  501    0 -0.00000000000E+00 -0.00000000000E+00 -0.67488619696E+03  0.67488619696E+03  0.00000000000E+00 0. -1.
         25    2    1    2    0    0  0.33450420616E+01  0.41449045478E+02 -0.11164559987E+03  0.17267696723E+03  0.12499352929E+03 0.  0.
          2    1    1    2  501    0  0.27057949856E+02 -0.27128961809E+02 -0.53094289008E+03  0.53232364756E+03  0.00000000000E+00 0. -1.
          1    1    1    2  502    0 -0.30402991918E+02 -0.14320083669E+02  0.25755634517E+03  0.25973963435E+03  0.00000000000E+00 0. -1.
         22    1    3    3    0    0 -0.15681314512E+02  0.76559433641E+02 -0.10696159376E+03  0.13246898899E+03  0.00000000000E+00 0. -1.
         22    1    3    3    0    0  0.19026356573E+02 -0.35110388164E+02 -0.46840061166E+01  0.40207978248E+02  0.00000000000E+00 0. -1.
</event>
<event>
 7    1  0.6176857E-006  0.9944988E+02  0.7818608E-02  0.1445602E+00
          2   -1    0    0  502    0  0.00000000000E+00  0.00000000000E+00  0.15624084303E+03  0.15624084303E+03  0.00000000000E+00 0. -1.
          1   -1    0    0  501    0 -0.00000000000E+00 -0.00000000000E+00 -0.43918597803E+03  0.43918597803E+03  0.00000000000E+00 0. -1.
         25    2    1    2    0    0  0.84691535696E+02  0.67232631331E+02 -0.25960204019E+02  0.16730883005E+03  0.12500171793E+03 0.  0.
          2    1    1    2  501    0 -0.89190496646E+02 -0.42549480951E+02 -0.33337509729E+03  0.34771304047E+03  0.00000000000E+00 0. -1.
          1    1    1    2  502    0  0.44989609501E+01 -0.24683150380E+02  0.76390166306E+02  0.80404950535E+02  0.00000000000E+00 0. -1.
         22    1    3    3    0    0  0.53591238277E+02 -0.82281171063E+01  0.35787082201E+02  0.64964898088E+02  0.00000000000E+00 0.  1.
         22    1    3    3    0    0  0.31100297419E+02  0.75460748437E+02 -0.61747286220E+02  0.10234393196E+03  0.00000000000E+00 0.  1.
</event>
<event>
 7    1  0.6176857E-006  0.5435112E+02  0.7818608E-02  0.1467914E+00
          2   -1    0    0  502    0  0.00000000000E+00  0.00000000000E+00  0.57727351603E+03  0.57727351603E+03  0.00000000000E+00 0. -1.
          1   -1    0    0  501    0 -0.00000000000E+00 -0.00000000000E+00 -0.11314809612E+03  0.11314809612E+03  0.00000000000E+00 0. -1.
         25    2    1    2    0    0  0.11454751172E+02 -0.18314757286E+02  0.11678887436E+02  0.12738880820E+03  0.12499948153E+03 0.  0.
          2    1    1    2  501    0 -0.12409326480E+02 -0.36983925913E+02 -0.46689657002E+02  0.60841813176E+02  0.00000000000E+00 0. -1.
          1    1    1    2  502    0  0.95457530781E+00  0.55298683200E+02  0.49913618947E+03  0.50219099077E+03  0.00000000000E+00 0. -1.
         22    1    3    3    0    0  0.15735860692E+02  0.47445012220E+02  0.30872390806E+02  0.58751604322E+02  0.00000000000E+00 0. -1.
         22    1    3    3    0    0 -0.42811095199E+01 -0.65759769507E+02 -0.19193503370E+02  0.68637203876E+02  0.00000000000E+00 0. -1.
</event>
<event>
 7    1  0.6176857E-006  0.1641228E+03  0.7818608E-02  0.1379210E+00
          2   -1    0    0  502    0  0.00000000000E+00  0.00000000000E+00  0.42333954901E+03  0.42333954901E+03  0.00000000000E+00 0. -1.
          1   -1    0    0  501    0 -0.00000000000E+00 -0.00000000000E+00 -0.17310099841E+04  0.17310099841E+04  0.00000000000E+00 0. -1.
         25    2    1    2    0    0  0.13552323162E+03 -0.49951709889E+02 -0.19125285591E+03  0.27030306205E+03  0.12499748329E+03 0.  0.
          2    1    1    2  501    0 -0.15092579013E+03  0.70254036930E+02 -0.14951842244E+04  0.15044235071E+04  0.00000000000E+00 0. -1.
          1    1    1    2  502    0  0.15402558511E+02 -0.20302327041E+02  0.37876664518E+03  0.37962296400E+03  0.00000000000E+00 0. -1.
         22    1    3    3    0    0  0.15642406596E+03 -0.58656709755E+02 -0.15708011134E+03  0.22931039965E+03  0.00000000000E+00 0. -1.
         22    1    3    3    0    0 -0.20900834340E+02  0.87049998660E+01 -0.34172744569E+02  0.40992662394E+02  0.00000000000E+00 0. -1.
</event>
<event>
 7    1  0.6176857E-006  0.5558145E+02  0.7818608E-02  0.1434889E+00
          2   -1    0    0  502    0  0.00000000000E+00  0.00000000000E+00  0.15367590573E+04  0.15367590573E+04  0.00000000000E+00 0. -1.
          1   -1    0    0  501    0 -0.00000000000E+00 -0.00000000000E+00 -0.12087578028E+03  0.12087578028E+03  0.00000000000E+00 0. -1.
         25    2    1    2    0    0 -0.27051595937E+02  0.11401542824E+02  0.17100272956E+03  0.21384347752E+03  0.12500126136E+03 0.  0.
          2    1    1    2  501    0  0.46815596199E+02  0.33033761239E+02 -0.90723698414E+02  0.10730199850E+03  0.00000000000E+00 0. -1.
          1    1    1    2  502    0 -0.19764000262E+02 -0.44435304063E+02  0.13356042459E+04  0.13364893616E+04  0.00000000000E+00 0. -1.
         22    1    3    3    0    0 -0.23123708880E+02 -0.18991382316E+02 -0.90028208284E+01  0.31247868687E+02  0.00000000000E+00 0.  1.
         22    1    3    3    0    0 -0.39278870573E+01  0.30392925140E+02  0.18000555039E+03  0.18259560883E+03  0.00000000000E+00 0.  1.
</event>
<event>
 7    1  0.6176857E-006  0.4700882E+02  0.7818608E-02  0.1547209E+00
          2   -1    0    0  502    0  0.00000000000E+00  0.00000000000E+00  0.13774626749E+04  0.13774626749E+04  0.00000000000E+00 0. -1.
          1   -1    0    0  501    0 -0.00000000000E+00 -0.00000000000E+00 -0.74439945185E+03  0.74439945185E+03  0.00000000000E+00 0. -1.
         25    2    1    2    0    0  0.44915533720E+02  0.15168154577E+02 -0.62960034615E+03  0.64363682523E+03  0.12499715528E+03 0.  0.
          2    1    1    2  501    0  0.76505112408E+00 -0.26282430814E+02 -0.10576756089E+03  0.10898682677E+03  0.00000000000E+00 0. -1.
          1    1    1    2  502    0 -0.45680584844E+02  0.11114276237E+02  0.13684311301E+04  0.13692384748E+04  0.00000000000E+00 0. -1.
         22    1    3    3    0    0 -0.53906748197E+01  0.19721895655E+02 -0.54297800772E+03  0.54336279723E+03  0.00000000000E+00 0.  1.
         22    1    3    3    0    0  0.50306208540E+02 -0.45537410781E+01 -0.86622338429E+02  0.10027402800E+03  0.00000000000E+00 0.  1.
</event>
<event>
 7    1  0.6176857E-006  0.9821115E+02  0.7818608E-02  0.1325382E+00
          2   -1    0    0  502    0  0.00000000000E+00  0.00000000000E+00  0.12740843310E+04  0.12740843310E+04  0.00000000000E+00 0. -1.
          1   -1    0    0  501    0 -0.00000000000E+00 -0.00000000000E+00 -0.89045046687E+03  0.89045046687E+03  0.00000000000E+00 0. -1.
         25    2    1    2    0    0 -0.39014298741E+02  0.26593489994E+02  0.35720979907E+03  0.38138313321E+03  0.12499969812E+03 0.  0.
          2    1    1    2  501    0 -0.64050048164E+02  0.20702275834E+02 -0.87351076661E+03  0.87610048070E+03  0.00000000000E+00 0. -1.
          1    1    1    2  502    0  0.10306434690E+03 -0.47295765829E+02  0.89993483168E+03  0.90705118397E+03  0.00000000000E+00 0. -1.
         22    1    3    3    0    0 -0.34038572065E+02  0.74162820479E+02  0.26817136224E+03  0.28031166200E+03  0.00000000000E+00 0. -1.
         22    1    3    3    0    0 -0.49757266760E+01 -0.47569330484E+02  0.89038436831E+02  0.10107147121E+03  0.00000000000E+00 0. -1.
</event>
<event>
 7    1  0.6176857E-006  0.8607119E+02  0.7818608E-02  0.1414486E+00
          2   -1    0    0  502    0  0.00000000000E+00  0.00000000000E+00  0.11684782987E+04  0.11684782987E+04  0.00000000000E+00 0. -1.
          1   -1    0    0  501    0 -0.00000000000E+00 -0.00000000000E+00 -0.12175348280E+03  0.12175348280E+03  0.00000000000E+00 0. -1.
         25    2    1    2    0    0  0.30546701932E+02 -0.61372636658E+02  0.60822839422E+03  0.62471336365E+03  0.12500122260E+03 0.  0.
          2    1    1    2  501    0  0.35754847963E+02 -0.82830094339E+01 -0.10621819777E+03  0.11238026044E+03  0.00000000000E+00 0. -1.
          1    1    1    2  502    0 -0.66301549895E+02  0.69655646092E+02  0.54471461942E+03  0.55313815739E+03  0.00000000000E+00 0. -1.
         22    1    3    3    0    0 -0.32062618592E+02 -0.71951584487E+02  0.31659760234E+03  0.32625003269E+03  0.00000000000E+00 0.  1.
         22    1    3    3    0    0  0.62609320524E+02  0.10578947829E+02  0.29163079188E+03  0.29846333096E+03  0.00000000000E+00 0.  1.
</event>
<event>
 7    1  0.6176857E-006  0.7725311E+02  0.7818608E-02  0.1421824E+00
          2   -1    0    0  502    0  0.00000000000E+00  0.00000000000E+00  0.68991881199E+03  0.68991881199E+03  0.00000000000E+00 0. -1.
          1   -1    0    0  501    0 -0.00000000000E+00 -0.00000000000E+00 -0.16404985090E+04  0.16404985090E+04  0.00000000000E+00 0. -1.
         25    2    1    2    0    0  0.75637359833E+01 -0.10614635760E+03 -0.16905602700E+03  0.23564720211E+03  0.12500161704E+03 0.  0.
          2    1    1    2  501    0 -0.23328204832E+02  0.30805400660E+02 -0.14356302512E+04  0.14361501997E+04  0.00000000000E+00 0. -1.
          1    1    1    2  502    0  0.15764468849E+02  0.75340956937E+02  0.65410658125E+03  0.65861991915E+03  0.00000000000E+00 0. -1.
         22    1    3    3    0    0 -0.78928029000E+01 -0.97368105090E+02 -0.40306122998E+02  0.10567605111E+03  0.00000000000E+00 0.  1.
         22    1    3    3    0    0  0.15456538883E+02 -0.87782525071E+01 -0.12874990401E+03  0.12997115100E+03  0.00000000000E+00 0.  1.
</event>
<event>
 7    1  0.6176857E-006  0.3723791E+02  0.7818608E-02  0.1599718E+00
          2   -1    0    0  502    0  0.00000000000E+00  0.00000000000E+00  0.80087449436E+03  0.80087449436E+03  0.00000000000E+00 0. -1.
          1   -1    0    0  501    0 -0.00000000000E+00 -0.00000000000E+00 -0.51219894082E+02  0.51219894082E+02  0.00000000000E+00 0. -1.
         25    2    1    2    0    0 -0.88127115961E+01  0.27987907243E+02  0.34265771203E+03  0.36592934653E+03  0.12501596779E+03 0.  0.
          2    1    1    2  501    0  0.31538383872E+02 -0.20483025460E+02 -0.30250601335E+02  0.48263059066E+02  0.00000000000E+00 0. -1.
          1    1    1    2  502    0 -0.22725672276E+02 -0.75048817826E+01  0.43724748959E+03  0.43790198285E+03  0.00000000000E+00 0. -1.
         22    1    3    3    0    0  0.10710520191E+02 -0.42323302689E+02  0.61263802276E+02  0.75227858288E+02  0.00000000000E+00 0. -1.
         22    1    3    3    0    0 -0.19523231787E+02  0.70311209932E+02  0.28139390975E+03  0.29070148825E+03  0.00000000000E+00 0. -1.
</event>
<event>
 7    1  0.6176857E-006  0.4645169E+02  0.7818608E-02  0.1529115E+00
          2   -1    0    0  502    0  0.00000000000E+00  0.00000000000E+00  0.44619321291E+03  0.44619321291E+03  0.00000000000E+00 0. -1.
          1   -1    0    0  501    0 -0.00000000000E+00 -0.00000000000E+00 -0.49901784282E+03  0.49901784282E+03  0.00000000000E+00 0. -1.
         25    2    1    2    0    0  0.37708774343E+02 -0.64444814500E+02 -0.16486841331E+03  0.21995932894E+03  0.12500170759E+03 0.  0.
          2    1    1    2  501    0 -0.21409106514E+02  0.39326278833E+02 -0.30442880322E+03  0.30770408232E+03  0.00000000000E+00 0. -1.
          1    1    1    2  502    0 -0.16299667828E+02  0.25118535667E+02  0.41647258662E+03  0.41754764448E+03  0.00000000000E+00 0. -1.
         22    1    3    3    0    0  0.48211969474E+02  0.22911918198E+02 -0.37823132042E+02  0.65421245123E+02  0.00000000000E+00 0.  1.
         22    1    3    3    0    0 -0.10503195131E+02 -0.87356732698E+02 -0.12704528127E+03  0.15453808381E+03  0.00000000000E+00 0.  1.
</event>
<event>
 7    1  0.6176857E-006  0.1422869E+03  0.7818608E-02  0.1240131E+00
          2   -1    0    0  502    0  0.00000000000E+00  0.00000000000E+00  0.15706610709E+04  0.15706610709E+04  0.00000000000E+00 0. -1.
          1   -1    0    0  501    0 -0.00000000000E+00 -0.00000000000E+00 -0.19739986799E+04  0.19739986799E+04  0.00000000000E+00 0. -1.
         25    2    1    2    0    0  0.11672164307E+03 -0.15182445372E+03  0.28035141786E+03  0.36179597272E+03  0.12499920667E+03 0.  0.
          2    1    1    2  501    0 -0.12940323617E+02  0.14153500918E+03 -0.19284807887E+04  0.19337108789E+04  0.00000000000E+00 0. -1.
          1    1    1    2  502    0 -0.10378131945E+03  0.10289444539E+02  0.12447917619E+04  0.12491528991E+04  0.00000000000E+00 0. -1.
         22    1    3    3    0    0  0.80503341928E+02 -0.13003851880E+02  0.13393043181E+03  0.15680321678E+03  0.00000000000E+00 0.  1.
         22    1    3    3    0    0  0.36218301142E+02 -0.13882060184E+03  0.14642098605E+03  0.20499275594E+03  0.00000000000E+00 0.  1.
</event>
<event>
 7    1  0.6176857E-006  0.6985258E+02  0.7818608E-02  0.1446788E+00
          2   -1    0    0  502    0  0.00000000000E+00  0.00000000000E+00  0.23254076425E+04  0.23254076425E+04  0.00000000000E+00 0. -1.
          1   -1    0    0  501    0 -0.00000000000E+00 -0.00000000000E+00 -0.56409899082E+03  0.56409899082E+03  0.00000000000E+00 0. -1.
         25    2    1    2    0    0  0.90098166778E+02  0.32959940097E+02 -0.25532530891E+03  0.30003447733E+03  0.12500254761E+03 0.  0.
          2    1    1    2  501    0 -0.54851816908E+02 -0.36340439720E+02 -0.28250212102E+03  0.29006343747E+03  0.00000000000E+00 0. -1.
          1    1    1    2  502    0 -0.35246349870E+02  0.33804996227E+01  0.22991360817E+04  0.22994087185E+04  0.00000000000E+00 0. -1.
         22    1    3    3    0    0 -0.29805415413E+02 -0.80052209975E+01 -0.50885363409E+02  0.59512742841E+02  0.00000000000E+00 0.  1.
         22    1    3    3    0    0  0.11990358219E+03  0.40965161094E+02 -0.20443994550E+03  0.24052173449E+03  0.00000000000E+00 0.  1.
</event>
<event>
 7    1  0.6176857E-006  0.5386730E+02  0.7818608E-02  0.1452119E+00
          2   -1    0    0  502    0  0.00000000000E+00  0.00000000000E+00  0.11818205205E+04  0.11818205205E+04  0.00000000000E+00 0. -1.
          1   -1    0    0  501    0 -0.00000000000E+00 -0.00000000000E+00 -0.35981486905E+02  0.35981486905E+02  0.00000000000E+00 0. -1.
         25    2    1    2    0    0 -0.84631461363E+02 -0.15677615839E+02  0.53068204292E+03  0.55195694516E+03  0.12499906700E+03 0.  0.
          2    1    1    2  501    0  0.34689583862E+02  0.27303769040E+02 -0.42217800794E+01  0.44347338808E+02  0.00000000000E+00 0. -1.
          1    1    1    2  502    0  0.49941877501E+02 -0.11626153201E+02  0.61937877078E+03  0.62149772346E+03  0.00000000000E+00 0. -1.
         22    1    3    3    0    0  0.32279671491E+02 -0.27864407622E+01  0.83512163131E+02  0.89576910164E+02  0.00000000000E+00 0. -1.
         22    1    3    3    0    0 -0.11691113285E+03 -0.12891175077E+02  0.44716987978E+03  0.46238003500E+03  0.00000000000E+00 0. -1.
</event>
<event>
 7    1  0.6176857E-006  0.7997785E+02  0.7818608E-02  0.1373656E+00
          2   -1    0    0  502    0  0.00000000000E+00  0.00000000000E+00  0.12265630653E+04  0.12265630653E+04  0.00000000000E+00 0. -1.
          1   -1    0    0  501    0 -0.00000000000E+00 -0.00000000000E+00 -0.45807679484E+03  0.45807679484E+03  0.00000000000E+00 0. -1.
         25    2    1    2    0    0 -0.13487212922E+02  0.12291176609E+03 -0.10068784672E+03  0.20261693703E+03  0.12500549403E+03 0.  0.
          2    1    1    2  501    0  0.29211128826E+02 -0.70487675187E+02 -0.30102506968E+03  0.31054451368E+03  0.00000000000E+00 0. -1.
          1    1    1    2  502    0 -0.15723915904E+02 -0.52424090906E+02  0.11701991869E+04  0.11714784094E+04  0.00000000000E+00 0. -1.
         22    1    3    3    0    0  0.33020261741E+02  0.86877119686E+02 -0.85979706168E+01  0.93337541799E+02  0.00000000000E+00 0.  1.
         22    1    3    3    0    0 -0.46507474663E+02  0.36034646408E+02 -0.92089876099E+02  0.10927939523E+03  0.00000000000E+00 0.  1.
</event>
<event>
 7    1  0.6176857E-006  0.5035481E+02  0.7818608E-02  0.1449631E+00
          2   -1    0    0  502    0  0.00000000000E+00  0.00000000000E+00  0.72439475192E+03  0.72439475192E+03  0.00000000000E+00 0. -1.
          1   -1    0    0  501    0 -0.00000000000E+00 -0.00000000000E+00 -0.43767739875E+03  0.43767739875E+03  0.00000000000E+00 0. -1.
         25    2    1    2    0    0 -0.11840481748E+02 -0.38221589152E+01 -0.74565116259E+02  0.14607253493E+03  0.12498969154E+03 0.  0.
          2    1    1    2  501    0  0.22393844547E+02 -0.45414343883E+02 -0.32447183565E+03  0.32839902410E+03  0.00000000000E+00 0. -1.
          1    1    1    2  502    0 -0.10553362799E+02  0.49236502798E+02  0.68575430508E+03  0.68760059163E+03  0.00000000000E+00 0. -1.
         22    1    3    3    0    0 -0.45170680005E+02  0.19675184300E+02  0.11712471357E+02  0.50642721043E+02  0.00000000000E+00 0. -1.
         22    1    3    3    0    0  0.33330198256E+02 -0.23497343215E+02 -0.86277587617E+02  0.95429813889E+02  0.00000000000E+00 0. -1.
</event>
<event>
 7    1  0.6176857E-006  0.1117493E+03  0.7818608E-02  0.1303795E+00
          2   -1    0    0  502    0  0.00000000000E+00  0.00000000000E+00  0.14184387301E+03  0.14184387301E+03  0.00000000000E+00 0. -1.
          1   -1    0    0  501    0 -0.00000000000E+00 -0.00000000000E+00 -0.48630281124E+03  0.48630281124E+03  0.00000000000E+00 0. -1.
         25    2    1    2    0    0  0.13552171893E+03 -0.76887748998E+02 -0.28043850151E+03  0.34430804453E+03  0.12499765658E+03 0.  0.
          2    1    1    2  501    0 -0.92451923701E+02  0.19365771305E+02 -0.14658433460E+03  0.17438279286E+03  0.00000000000E+00 0. -1.
          1    1    1    2  502    0 -0.43069795229E+02  0.57521977693E+02  0.82563897881E+02  0.10945584686E+03  0.00000000000E+00 0. -1.
         22    1    3    3    0    0  0.64415539982E+02  0.17837741707E+02 -0.44470850709E+02  0.80282024035E+02  0.00000000000E+00 0. -1.
         22    1    3    3    0    0  0.71106178948E+02 -0.94725490705E+02 -0.23596765080E+03  0.26402602050E+03  0.00000000000E+00 0. -1.
</event>
<event>
 7    1  0.6176857E-006  0.1172349E+03  0.7818608E-02  0.1387708E+00
          2   -1    0    0  502    0  0.00000000000E+00  0.00000000000E+00  0.10303533057E+04  0.10303533057E+04  0.00000000000E+00 0. -1.
          1   -1    0    0  501    0 -0.00000000000E+00 -0.00000000000E+00 -0.21514613626E+03  0.21514613626E+03  0.00000000000E+00 0. -1.
         25    2    1    2    0    0 -0.81164964668E+02 -0.46145121096E+02  0.18900271799E+03  0.24507966351E+03  0.12499956148E+03 0.  0.
          2    1    1    2  501    0 -0.32923703696E+02  0.49839176517E+01 -0.18105915480E+03  0.18409570130E+03  0.00000000000E+00 0. -1.
          1    1    1    2  502    0  0.11408866836E+03  0.41161203445E+02  0.80726360626E+03  0.81632407714E+03  0.00000000000E+00 0. -1.
         22    1    3    3    0    0 -0.90801553773E+01  0.61628054696E+01  0.14558260838E+03  0.14599563437E+03  0.00000000000E+00 0. -1.
         22    1    3    3    0    0 -0.72084809291E+02 -0.52307926566E+02  0.43420109603E+02  0.99084029137E+02  0.00000000000E+00 0. -1.
</event>
<event>
 7    1  0.6176857E-006  0.8113603E+02  0.7818608E-02  0.1365852E+00
          2   -1    0    0  502    0  0.00000000000E+00  0.00000000000E+00  0.25627092619E+04  0.25627092619E+04  0.00000000000E+00 0. -1.
          1   -1    0    0  501    0 -0.00000000000E+00 -0.00000000000E+00 -0.26570156879E+02  0.26570156879E+02  0.00000000000E+00 0. -1.
         25    2    1    2    0    0 -0.25818309965E+02 -0.18417941566E+02  0.14246014634E+04  0.14304265713E+04  0.12500016215E+03 0.  0.
          2    1    1    2  501    0 -0.39252836048E+02  0.71008944368E+02  0.52775394446E+02  0.96789966303E+02  0.00000000000E+00 0. -1.
          1    1    1    2  502    0  0.65071146013E+02 -0.52591002802E+02  0.10587622472E+04  0.10620628812E+04  0.00000000000E+00 0. -1.
         22    1    3    3    0    0 -0.14065128290E+02  0.52574637006E+02  0.47640561634E+03  0.47950415178E+03  0.00000000000E+00 0. -1.
         22    1    3    3    0    0 -0.11753181675E+02 -0.70992578572E+02  0.94819584707E+03  0.95092241949E+03  0.00000000000E+00 0. -1.
</event>
<event>
 7    1  0.8330277E-006  0.8018005E+02  0.7818608E-02  0.1415796E+00
          2   -1    0    0  502    0  0.00000000000E+00  0.00000000000E+00  0.90487036220E+03  0.90487036220E+03  0.00000000000E+00 0. -1.
          1   -1    0    0  501    0 -0.00000000000E+00 -0.00000000000E+00 -0.14819786337E+04  0.14819786337E+04  0.00000000000E+00 0. -1.
         25    2    1    2    0    0 -0.11204359934E+03  0.21900430004E+02 -0.39480684837E+03  0.42956863030E+03  0.12499345436E+03 0.  0.
          2    1    1    2  501    0  0.38041129359E+02  0.85984297436E+01 -0.10676294294E+04  0.10683415461E+04  0.00000000000E+00 0. -1.
          1    1    1    2  502    0  0.74002469976E+02 -0.30498859747E+02  0.88532800632E+03  0.88893881949E+03  0.00000000000E+00 0. -1.
         22    1    3    3    0    0 -0.44196212697E+02 -0.25968753082E+02 -0.39571525352E+02  0.64757910499E+02  0.00000000000E+00 0.  1.
         22    1    3    3    0    0 -0.67847386639E+02  0.47869183086E+02 -0.35523532302E+03  0.36481071980E+03  0.00000000000E+00 0.  1.
</event>
<event>
 7    1  0.6176857E-006  0.2632495E+02  0.7818608E-02  0.1643351E+00
          2   -1    0    0  502    0  0.00000000000E+00  0.00000000000E+00  0.10236874376E+04  0.10236874376E+04  0.00000000000E+00 0. -1.
          1   -1    0    0  501    0 -0.00000000000E+00 -0.00000000000E+00 -0.10755725988E+02  0.10755725988E+02  0.00000000000E+00 0. -1.
         25    2    1    2    0    0  0.22170763757E+02 -0.68161760792E+01  0.45353017869E+03  0.47101277281E+03  0.12500162458E+03 0.  0.
          2    1    1    2  501    0 -0.77736374990E+01  0.28855358233E+02  0.13757931027E+03  0.14078752698E+03  0.00000000000E+00 0. -1.
          1    1    1    2  502    0 -0.14397126258E+02 -0.22039182154E+02  0.42182222265E+03  0.42264286380E+03  0.00000000000E+00 0. -1.
         22    1    3    3    0    0 -0.35670675558E+02 -0.12840696583E+01  0.40787843895E+02  0.54200499437E+02  0.00000000000E+00 0.  1.
         22    1    3    3    0    0  0.57841439315E+02 -0.55321064209E+01  0.41274233480E+03  0.41681227337E+03  0.00000000000E+00 0.  1.
</event>
<event>
 7    1  0.6176857E-006  0.6322902E+02  0.7818608E-02  0.1426562E+00
          2   -1    0    0  502    0  0.00000000000E+00  0.00000000000E+00  0.39698086288E+03  0.39698086288E+03  0.00000000000E+00 0. -1.
          1   -1    0    0  501    0 -0.00000000000E+00 -0.00000000000E+00 -0.70539714200E+03  0.70539714200E+03  0.00000000000E+00 0. -1.
         25    2    1    2    0    0  0.46086590896E+02 -0.12498944575E+02  0.10534482571E+02  0.13423042839E+03  0.12500654025E+03 0.  0.
          2    1    1    2  501    0  0.10266667266E+02  0.44360590728E+02 -0.63950390403E+03  0.64112285073E+03  0.00000000000E+00 0. -1.
          1    1    1    2  502    0 -0.56353258162E+02 -0.31861646153E+02  0.32055314234E+03  0.32702472577E+03  0.00000000000E+00 0. -1.
         22    1    3    3    0    0  0.73331174283E+02  0.17688595161E+00  0.46907470424E+02  0.87050578355E+02  0.00000000000E+00 0.  1.
         22    1    3    3    0    0 -0.27244583387E+02 -0.12675830527E+02 -0.36372987854E+02  0.47179850031E+02  0.00000000000E+00 0.  1.
</event>
<event>
 7    1  0.6176857E-006  0.1168986E+03  0.7818608E-02  0.1377816E+00
          2   -1    0    0  502    0  0.00000000000E+00  0.00000000000E+00  0.24276944436E+04  0.24276944436E+04  0.00000000000E+00 0. -1.
          1   -1    0    0  501    0 -0.00000000000E+00 -0.00000000000E+00 -0.37033618127E+02  0.37033618127E+02  0.00000000000E+00 0. -1.
         25    2    1    2    0    0  0.76697840735E+02 -0.35270481696E+02  0.14175396932E+04  0.14255417414E+04  0.12499563691E+03 0.  0.
          2    1    1    2  501    0 -0.11260773699E+03  0.39751019784E+02  0.76466841695E+02  0.14180205881E+03  0.00000000000E+00 0. -1.
          1    1    1    2  502    0  0.35909896251E+02 -0.44805380878E+01  0.89665429064E+03  0.89738426151E+03  0.00000000000E+00 0. -1.
         22    1    3    3    0    0  0.46459185213E+02 -0.48304796607E+02  0.13349285976E+04  0.13366099543E+04  0.00000000000E+00 0.  1.
         22    1    3    3    0    0  0.30238655522E+02  0.13034314911E+02  0.82611095599E+02  0.88931787169E+02  0.00000000000E+00 0.  1.
</event>
<event>
 7    1  0.6176857E-006  0.9015314E+02  0.7818608E-02  0.1432738E+00
          2   -1    0    0  502    0  0.00000000000E+00  0.00000000000E+00  0.49788105783E+02  0.49788105783E+02  0.00000000000E+00 0. -1.
          1   -1    0    0  501    0 -0.00000000000E+00 -0.00000000000E+00 -0.68861422022E+03  0.68861422022E+03  0.00000000000E+00 0. -1.
         25    2    1    2    0    0 -0.74010116310E+02 -0.29800991209E+02 -0.16753586136E+03  0.22373209143E+03  0.12498874949E+03 0.  0.
          2    1    1    2  501    0  0.92220978809E+02  0.53676620357E+01 -0.47506583688E+03  0.48396391405E+03  0.00000000000E+00 0. -1.
          1    1    1    2  502    0 -0.18210862499E+02  0.24433329173E+02  0.37755838022E+01  0.30706320530E+02  0.00000000000E+00 0. -1.
         22    1    3    3    0    0 -0.76280675281E+02 -0.72632014769E+02 -0.12197897728E+03  0.16116147768E+03  0.00000000000E+00 0. -1.
         22    1    3    3    0    0  0.22705589714E+01  0.42831023561E+02 -0.45556884084E+02  0.62570613748E+02  0.00000000000E+00 0. -1.
</event>
<event>
 7    1  0.6176857E-006  0.1126035E+03  0.7818608E-02  0.1297676E+00
          2   -1    0    0  502    0  0.00000000000E+00  0.00000000000E+00  0.42528682414E+03  0.42528682414E+03  0.00000000000E+00 0. -1.
          1   -1    0    0  501    0 -0.00000000000E+00 -0.00000000000E+00 -0.78950278511E+03  0.78950278511E+03  0.00000000000E+00 0. -1.
         25    2    1    2    0    0  0.19033921506E+02  0.81281776474E+02 -0.38403944687E+03  0.41240797375E+03  0.12500009080E+03 0.  0.
          2    1    1    2  501    0 -0.73115314013E+02  0.18614621623E+02 -0.37964818441E+03  0.38707247023E+03  0.00000000000E+00 0. -1.
          1    1    1    2  502    0  0.54081392507E+02 -0.99896398098E+02  0.39947167032E+03  0.41530916527E+03  0.00000000000E+00 0. -1.
         22    1    3    3    0    0 -0.37624758399E+02  0.84479239001E+02 -0.21330845816E+03  0.23249271513E+03  0.00000000000E+00 0.  1.
         22    1    3    3    0    0  0.56658679904E+02 -0.31974625268E+01 -0.17073098872E+03  0.17991525862E+03  0.00000000000E+00 0.  1.
</event>
<event>
 7    1  0.6176857E-006  0.1033395E+03  0.7818608E-02  0.1363478E+00
          2   -1    0    0  502    0  0.00000000000E+00  0.00000000000E+00  0.22585232263E+04  0.22585232263E+04  0.00000000000E+00 0. -1.
          1   -1    0    0  501    0 -0.00000000000E+00 -0.00000000000E+00 -0.19704213755E+03  0.19704213755E+03  0.00000000000E+00 0. -1.
         25    2    1    2    0    0  0.12907469300E+03  0.25145067934E+02  0.10416882886E+04  0.10573717146E+04  0.12501160468E+03 0.  0.
          2    1    1    2  501    0 -0.42209379409E+02  0.18511729300E+02 -0.18440508077E+03  0.19007774632E+03  0.00000000000E+00 0. -1.
          1    1    1    2  502    0 -0.86865313586E+02 -0.43656797233E+02  0.12041978809E+04  0.12081159030E+04  0.00000000000E+00 0. -1.
         22    1    3    3    0    0  0.53974480593E+01 -0.31048083007E+02  0.77520857591E+02  0.83681534795E+02  0.00000000000E+00 0. -1.
         22    1    3    3    0    0  0.12367724494E+03  0.56193150941E+02  0.96416743103E+03  0.97369017977E+03  0.00000000000E+00 0. -1.
</event>
<event>
 7    1  0.6176857E-006  0.1031660E+03  0.7818608E-02  0.1383500E+00
          2   -1    0    0  502    0  0.00000000000E+00  0.00000000000E+00  0.18290123594E+04  0.18290123594E+04  0.00000000000E+00 0. -1.
          1   -1    0    0  501    0 -0.00000000000E+00 -0.00000000000E+00 -0.12064251392E+04  0.12064251392E+04  0.00000000000E+00 0. -1.
         25    2    1    2    0    0  0.76548239110E+02 -0.11523739576E+03 -0.12534081486E+03  0.22466898347E+03  0.12500616773E+03 0.  0.
          2    1    1    2  501    0 -0.82941219562E+01  0.38261322442E+02 -0.10295608321E+04  0.10303049200E+04  0.00000000000E+00 0. -1.
          1    1    1    2  502    0 -0.68254117153E+02  0.76976073318E+02  0.17774888672E+04  0.17804635950E+04  0.00000000000E+00 0. -1.
         22    1    3    3    0    0  0.23736284927E+01  0.22553421060E+02  0.22085858161E+01  0.22785275180E+02  0.00000000000E+00 0.  1.
         22    1    3    3    0    0  0.74174610617E+02 -0.13779081682E+03 -0.12754940067E+03  0.20188370829E+03  0.00000000000E+00 0.  1.
</event>
<event>
 7    1  0.6176857E-006  0.6338476E+02  0.7818608E-02  0.1468057E+00
          2   -1    0    0  502    0  0.00000000000E+00  0.00000000000E+00  0.31862286971E+04  0.31862286971E+04  0.00000000000E+00 0. -1.
          1   -1    0    0  501    0 -0.00000000000E+00 -0.00000000000E+00 -0.51068368199E+01  0.51068368199E+01  0.00000000000E+00 0. -1.
         25    2    1    2    0    0  0.44445355267E+02 -0.87894664558E+00  0.16061127735E+04  0.16115829599E+04  0.12500093330E+03 0.  0.
          2    1    1    2  501    0  0.21497407552E+02  0.25583271861E+02  0.18727016579E+03  0.19022817175E+03  0.00000000000E+00 0. -1.
          1    1    1    2  502    0 -0.65942762820E+02 -0.24704325215E+02  0.13877389211E+04  0.13895244023E+04  0.00000000000E+00 0. -1.
         22    1    3    3    0    0  0.45976471066E+01  0.24155871923E+02  0.61221665905E+02  0.65975274789E+02  0.00000000000E+00 0.  1.
         22    1    3    3    0    0  0.39847708161E+02 -0.25034818569E+02  0.15448911075E+04  0.15456076851E+04  0.00000000000E+00 0.  1.
</event>
<event>
 7    1  0.6176857E-006  0.9178004E+02  0.7818608E-02  0.1405042E+00
          2   -1    0    0  502    0  0.00000000000E+00  0.00000000000E+00  0.55768926125E+03  0.55768926125E+03  0.00000000000E+00 0. -1.
          1   -1    0    0  501    0 -0.00000000000E+00 -0.00000000000E+00 -0.19940067552E+04  0.19940067552E+04  0.00000000000E+00 0. -1.
         25    2    1    2    0    0  0.58296312204E+02 -0.14569676859E+02 -0.18555016550E+02  0.13992782497E+03  0.12499908825E+03 0.  0.
          2    1    1    2  501    0 -0.81564994474E+02  0.43404186853E+02 -0.19129582112E+04  0.19151882126E+04  0.00000000000E+00 0. -1.
          1    1    1    2  502    0  0.23268682270E+02 -0.28834509993E+02  0.49519573387E+03  0.49657997884E+03  0.00000000000E+00 0. -1.
         22    1    3    3    0    0  0.62555178487E+02 -0.61847822851E+02  0.24888467070E+01  0.88002828959E+02  0.00000000000E+00 0. -1.
         22    1    3    3    0    0 -0.42588662823E+01  0.47278145991E+02 -0.21043863257E+02  0.51924996015E+02  0.00000000000E+00 0. -1.
</event>
<event>
 7    1  0.6176857E-006  0.4647221E+02  0.7818608E-02  0.1477717E+00
          2   -1    0    0  502    0  0.00000000000E+00  0.00000000000E+00  0.15692053470E+04  0.15692053470E+04  0.00000000000E+00 0. -1.
          1   -1    0    0  501    0 -0.00000000000E+00 -0.00000000000E+00 -0.85516924321E+02  0.85516924321E+02  0.00000000000E+00 0. -1.
         25    2    1    2    0    0 -0.77851082316E+02  0.42512786116E+02  0.11650194403E+04  0.11750586617E+04  0.12499773587E+03 0.  0.
          2    1    1    2  501    0  0.39704760783E+02 -0.23679128838E+02 -0.72610503419E+02  0.86078187587E+02  0.00000000000E+00 0. -1.
          1    1    1    2  502    0  0.38146321533E+02 -0.18833657278E+02  0.39127948573E+03  0.39358542204E+03  0.00000000000E+00 0. -1.
         22    1    3    3    0    0 -0.71058445729E+02  0.66441013610E+02  0.48905022960E+03  0.49863196656E+03  0.00000000000E+00 0.  1.
         22    1    3    3    0    0 -0.67926365863E+01 -0.23928227494E+02  0.67596921074E+03  0.67642669511E+03  0.00000000000E+00 0.  1.
</event>
<event>
 7    1  0.6176857E-006  0.9118590E+02  0.7818608E-02  0.1309124E+00
          2   -1    0    0  502    0  0.00000000000E+00  0.00000000000E+00  0.20832297787E+03  0.20832297787E+03  0.00000000000E+00 0. -1.
          1   -1    0    0  501    0 -0.00000000000E+00 -0.00000000000E+00 -0.96682298054E+03  0.96682298054E+03  0.00000000000E+00 0. -1.
         25    2    1    2    0    0  0.60601869591E+02 -0.44764566683E+02 -0.51447921107E+03  0.53477958177E+03  0.12499555762E+03 0.  0.
          2    1    1    2  501    0 -0.98335115996E+02 -0.38247900043E+02 -0.42489893004E+03  0.43780337784E+03  0.00000000000E+00 0. -1.
          1    1    1    2  502    0  0.37733246405E+02  0.83012466726E+02  0.18087813845E+03  0.20256299880E+03  0.00000000000E+00 0. -1.
         22    1    3    3    0    0 -0.37211860485E+02  0.73759781309E+00 -0.15860064854E+03  0.16290927637E+03  0.00000000000E+00 0. -1.
         22    1    3    3    0    0  0.97813730076E+02 -0.45502164496E+02 -0.35587856254E+03  0.37187030540E+03  0.00000000000E+00 0. -1.
</event>
<event>
 7    1  0.6176857E-006  0.1761526E+03  0.7818608E-02  0.1359340E+00
          2   -1    0    0  502    0  0.00000000000E+00  0.00000000000E+00  0.25787226523E+04  0.25787226523E+04  0.00000000000E+00 0. -1.
          1   -1    0    0  501    0 -0.00000000000E+00 -0.00000000000E+00 -0.13739731653E+03  0.13739731653E+03  0.00000000000E+00 0. -1.
         25    2    1    2    0    0  0.14884444583E+03 -0.70590240068E+02  0.18578980720E+04  0.18693709768E+04  0.12499980782E+03 0.  0.
          2    1    1    2  501    0 -0.14655253784E+03  0.98489609455E+02 -0.72026416873E+02  0.19069780870E+03  0.00000000000E+00 0. -1.
          1    1    1    2  502    0 -0.22919079918E+01 -0.27899369387E+02  0.65545368058E+03  0.65605118325E+03  0.00000000000E+00 0. -1.
         22    1    3    3    0    0  0.11906893435E+03 -0.99859253243E+02  0.11800625913E+04  0.11902508144E+04  0.00000000000E+00 0.  1.
         22    1    3    3    0    0  0.29775511474E+02  0.29269013175E+02  0.67783548069E+03  0.67912016249E+03  0.00000000000E+00 0.  1.
</event>
<event>
 7    1  0.6176857E-006  0.1474659E+03  0.7818608E-02  0.1292737E+00
          2   -1    0    0  502    0  0.00000000000E+00  0.00000000000E+00  0.15136165562E+04  0.15136165562E+04  0.00000000000E+00 0. -1.
          1   -1    0    0  501    0 -0.00000000000E+00 -0.00000000000E+00 -0.88260609160E+03  0.88260609160E+03  0.00000000000E+00 0. -1.
         25    2    1    2    0    0 -0.50904708646E+02  0.88465457189E+02  0.76981901403E+03  0.78655098301E+03  0.12499483206E+03 0.  0.
          2    1    1    2  501    0  0.29578009319E+02 -0.14488450688E+03 -0.86673091829E+03  0.87925472059E+03  0.00000000000E+00 0. -1.
          1    1    1    2  502    0  0.21326699326E+02  0.56419049691E+02  0.72792236883E+03  0.73041694416E+03  0.00000000000E+00 0. -1.
         22    1    3    3    0    0 -0.76547176133E+02  0.19997066952E+02  0.52883104810E+03  0.53471640175E+03  0.00000000000E+00 0.  1.
         22    1    3    3    0    0  0.25642467488E+02  0.68468390237E+02  0.24098796592E+03  0.25183458126E+03  0.00000000000E+00 0.  1.
</event>
<event>
 7    1  0.6176857E-006  0.1774444E+03  0.7818608E-02  0.1225423E+00
          2   -1    0    0  502    0  0.00000000000E+00  0.00000000000E+00  0.60967917529E+03  0.60967917529E+03  0.00000000000E+00 0. -1.
          1   -1    0    0  501    0 -0.00000000000E+00 -0.00000000000E+00 -0.55647497786E+03  0.55647497786E+03  0.00000000000E+00 0. -1.
         25    2    1    2    0    0  0.21707470562E+02 -0.14689815596E+03  0.20988849348E+02  0.19523141238E+03  0.12499796031E+03 0.  0.
          2    1    1    2  501    0 -0.11888935101E+03  0.14268592429E+03 -0.44588932243E+03  0.48302302080E+03  0.00000000000E+00 0. -1.
          1    1    1    2  502    0  0.97181880449E+02  0.42122316722E+01  0.47810467051E+03  0.48789971997E+03  0.00000000000E+00 0. -1.
         22    1    3    3    0    0 -0.79088788450E+01 -0.14508180446E+03  0.50072093208E+02  0.15368309884E+03  0.00000000000E+00 0. -1.
         22    1    3    3    0    0  0.29616349407E+02 -0.18163515004E+01 -0.29083243860E+02  0.41548313544E+02  0.00000000000E+00 0. -1.
</event>
<event>
 7    1  0.6176857E-006  0.5814401E+02  0.7818608E-02  0.1470163E+00
          2   -1    0    0  502    0  0.00000000000E+00  0.00000000000E+00  0.56208254319E+03  0.56208254319E+03  0.00000000000E+00 0. -1.
          1   -1    0    0  501    0 -0.00000000000E+00 -0.00000000000E+00 -0.38239133665E+03  0.38239133665E+03  0.00000000000E+00 0. -1.
         25    2    1    2    0    0  0.31637080429E+02 -0.38769697731E+01  0.28362423916E+03  0.31158166330E+03  0.12499795244E+03 0.  0.
          2    1    1    2  501    0  0.30463270208E+02 -0.18960751175E+02 -0.36337676776E+03  0.36514407603E+03  0.00000000000E+00 0. -1.
          1    1    1    2  502    0 -0.62100350636E+02  0.22837720948E+02  0.25944373513E+03  0.26774814051E+03  0.00000000000E+00 0. -1.
         22    1    3    3    0    0  0.85181428228E+00 -0.24347293769E+02 -0.11773200133E+01  0.24390620817E+02  0.00000000000E+00 0.  1.
         22    1    3    3    0    0  0.30785266147E+02  0.20470323996E+02  0.28480155917E+03  0.28719104248E+03  0.00000000000E+00 0.  1.
</event>
<event>
 7    1  0.6176857E-006  0.1392274E+03  0.7818608E-02  0.1281901E+00
          2   -1    0    0  502    0  0.00000000000E+00  0.00000000000E+00  0.38251035792E+03  0.38251035792E+03  0.00000000000E+00 0. -1.
          1   -1    0    0  501    0 -0.00000000000E+00 -0.00000000000E+00 -0.55133650705E+03  0.55133650705E+03  0.00000000000E+00 0. -1.
         25    2    1    2    0    0 -0.82405028770E+02  0.91114843021E+02 -0.66820460967E+02  0.18757967205E+03  0.12501462306E+03 0.  0.
          2    1    1    2  501    0  0.13762701257E+03 -0.46906350326E+02 -0.40751388211E+03  0.43267651242E+03  0.00000000000E+00 0. -1.
          1    1    1    2  502    0 -0.55221983799E+02 -0.44208492695E+02  0.30550819395E+03  0.31359068049E+03  0.00000000000E+00 0. -1.
         22    1    3    3    0    0 -0.68231382236E+02  0.19156179136E+02  0.20279793888E+02  0.73713979414E+02  0.00000000000E+00 0.  1.
         22    1    3    3    0    0 -0.14173646534E+02  0.71958663885E+02 -0.87100254855E+02  0.11386569264E+03  0.00000000000E+00 0.  1.
</event>
<event>
 7    1  0.6176857E-006  0.8210731E+02  0.7818608E-02  0.1330611E+00
          2   -1    0    0  502    0  0.00000000000E+00  0.00000000000E+00  0.31233232620E+03  0.31233232620E+03  0.00000000000E+00 0. -1.
          1   -1    0    0  501    0 -0.00000000000E+00 -0.00000000000E+00 -0.24849991077E+04  0.24849991077E+04  0.00000000000E+00 0. -1.
         25    2    1    2    0    0 -0.12815704974E+03  0.46027289602E+02 -0.35121407103E+03  0.39688690428E+03  0.12500060125E+03 0.  0.
          2    1    1    2  501    0  0.47849533480E+02 -0.60179781603E+02 -0.21044902982E+04  0.21058942516E+04  0.00000000000E+00 0. -1.
          1    1    1    2  502    0  0.80307516265E+02  0.14152492001E+02  0.28303758771E+03  0.29455027798E+03  0.00000000000E+00 0. -1.
         22    1    3    3    0    0 -0.10944770273E+02  0.59737089607E+02 -0.74905369759E+02  0.96431956788E+02  0.00000000000E+00 0.  1.
         22    1    3    3    0    0 -0.11721227947E+03 -0.13709800005E+02 -0.27630870128E+03  0.30045494750E+03  0.00000000000E+00 0.  1.
</event>
<event>
 7    1  0.6176857E-006  0.8624702E+02  0.7818608E-02  0.1449755E+00
          2   -1    0    0  502    0  0.00000000000E+00  0.00000000000E+00  0.34013019510E+03  0.34013019510E+03  0.00000000000E+00 0. -1.
          1   -1    0    0  501    0 -0.00000000000E+00 -0.00000000000E+00 -0.93122307035E+03  0.93122307035E+03  0.00000000000E+00 0. -1.
         25    2    1    2    0    0 -0.10177985308E+02 -0.10309026300E+03 -0.42009655990E+02  0.16769290815E+03  0.12499962615E+03 0.  0.
          2    1    1    2  501    0  0.27654530210E+02  0.81142497769E+02 -0.82343121449E+03  0.82788153922E+03  0.00000000000E+00 0. -1.
          1    1    1    2  502    0 -0.17476544902E+02  0.21947765229E+02  0.27434799522E+03  0.27577881808E+03  0.00000000000E+00 0. -1.
         22    1    3    3    0    0 -0.50091827568E+02 -0.22999200656E+01  0.31801947097E+01  0.50245342668E+02  0.00000000000E+00 0. -1.
         22    1    3    3    0    0  0.39913842260E+02 -0.10079034293E+03 -0.45189850700E+02  0.11744756549E+03  0.00000000000E+00 0. -1.
</event>
<event>
 7    1  0.6176857E-006  0.1006414E+03  0.7818608E-02  0.1289396E+00
          2   -1    0    0  502    0  0.00000000000E+00  0.00000000000E+00  0.12610763662E+03  0.12610763662E+03  0.00000000000E+00 0. -1.
          1   -1    0    0  501    0 -0.00000000000E+00 -0.00000000000E+00 -0.70180128262E+03  0.70180128262E+03  0.00000000000E+00 0. -1.
         25    2    1    2    0    0 -0.84131528996E+02  0.29581015973E+02 -0.78861118018E+02  0.17261912399E+03  0.12500054141E+03 0.  0.
          2    1    1    2  501    0  0.85958497852E+02  0.61582588581E+02 -0.54292055611E+03  0.55312205598E+03  0.00000000000E+00 0. -1.
          1    1    1    2  502    0 -0.18269688563E+01 -0.91163604554E+02  0.46088028126E+02  0.10216773927E+03  0.00000000000E+00 0. -1.
         22    1    3    3    0    0 -0.70892871295E+02  0.28135771716E+02  0.15071780244E+02  0.77746893251E+02  0.00000000000E+00 0.  1.
         22    1    3    3    0    0 -0.13238657701E+02  0.14452442567E+01 -0.93932898262E+02  0.94872230734E+02  0.00000000000E+00 0.  1.
</event>
<event>
 7    1  0.6176857E-006  0.1229525E+03  0.7818608E-02  0.1353550E+00
          2   -1    0    0  502    0  0.00000000000E+00  0.00000000000E+00  0.20891667232E+03  0.20891667232E+03  0.00000000000E+00 0. -1.
          1   -1    0    0  501    0 -0.00000000000E+00 -0.00000000000E+00 -0.19788759724E+04  0.19788759724E+04  0.00000000000E+00 0. -1.
         25    2    1    2    0    0 -0.67990195918E+02  0.12154033586E+03 -0.28230991163E+03  0.33870146523E+03  0.12500030543E+03 0.  0.
          2    1    1    2  501    0  0.25932509383E+02 -0.11931395200E+03 -0.16636484384E+04  0.16681230293E+04  0.00000000000E+00 0. -1.
          1    1    1    2  502    0  0.42057686535E+02 -0.22263838554E+01  0.17599904999E+03  0.18096815018E+03  0.00000000000E+00 0. -1.
         22    1    3    3    0    0  0.41824793401E+01 -0.17623802593E+02 -0.83904327694E+02  0.85837216620E+02  0.00000000000E+00 0.  1.
         22    1    3    3    0    0 -0.72172675258E+02  0.13916413845E+03 -0.19840558394E+03  0.25286424861E+03  0.00000000000E+00 0.  1.
</event>
<event>
 7    1  0.6176857E-006  0.9955078E+02  0.7818608E-02  0.1433329E+00
          2   -1    0    0  502    0  0.00000000000E+00  0.00000000000E+00  0.16655535271E+04  0.16655535271E+04  0.00000000000E+00 0. -1.
          1   -1    0    0  501    0 -0.00000000000E+00 -0.00000000000E+00 -0.61099790133E+03  0.61099790133E+03  0.00000000000E+00 0. -1.
         25    2    1    2    0    0  0.27220542253E+01 -0.98321902649E+02  0.82632059782E+03  0.84149020694E+03  0.12500172750E+03 0.  0.
          2    1    1    2  501    0  0.24688906892E+02  0.96465947811E+02 -0.59907554258E+03  0.60729459649E+03  0.00000000000E+00 0. -1.
          1    1    1    2  502    0 -0.27410961117E+02  0.18559548376E+01  0.82731057053E+03  0.82776662501E+03  0.00000000000E+00 0. -1.
         22    1    3    3    0    0 -0.29412290313E+02 -0.87040450432E+02  0.29262752005E+03  0.30671157188E+03  0.00000000000E+00 0.  1.
         22    1    3    3    0    0  0.32134344538E+02 -0.11281452217E+02  0.53369307776E+03  0.53477863506E+03  0.00000000000E+00 0.  1.
</event>
<event>
 7    1  0.6176857E-006  0.2631822E+03  0.7818608E-02  0.1329382E+00
          2   -1    0    0  502    0  0.00000000000E+00  0.00000000000E+00  0.13597664197E+04  0.13597664197E+04  0.00000000000E+00 0. -1.
          1   -1    0    0  501    0 -0.00000000000E+00 -0.00000000000E+00 -0.93788292001E+02  0.93788292001E+02  0.00000000000E+00 0. -1.
         25    2    1    2    0    0 -0.22902864242E+03 -0.10132783144E+03  0.19605905627E+03  0.34174129165E+03  0.12500603346E+03 0.  0.
          2    1    1    2  501    0 -0.61588759332E+01 -0.23451799068E+02  0.31185566487E+02  0.39502635221E+02  0.00000000000E+00 0. -1.
          1    1    1    2  502    0  0.23518751835E+03  0.12477963051E+03  0.10387335050E+04  0.10723107849E+04  0.00000000000E+00 0. -1.
         22    1    3    3    0    0 -0.21942854474E+03 -0.12606704221E+03  0.18196743900E+03  0.31169525860E+03  0.00000000000E+00 0. -1.
         22    1    3    3    0    0 -0.96000976731E+01  0.24739210765E+02  0.14091617276E+02  0.30046033050E+02  0.00000000000E+00 0. -1.
</event>
<event>
 7    1  0.6176857E-006  0.8472601E+02  0.7818608E-02  0.1319936E+00
          2   -1    0    0  502    0  0.00000000000E+00  0.00000000000E+00  0.16731673027E+04  0.16731673027E+04  0.00000000000E+00 0. -1.
          1   -1    0    0  501    0 -0.00000000000E+00 -0.00000000000E+00 -0.66836093106E+03  0.66836093106E+03  0.00000000000E+00 0. -1.
         25    2    1    2    0    0 -0.34587908841E+02  0.69719163817E+02  0.47679307695E+03  0.49900659408E+03  0.12497542745E+03 0.  0.
          2    1    1    2  501    0  0.81491644596E+02  0.81706202363E+01 -0.65294855687E+03  0.65806493987E+03  0.00000000000E+00 0. -1.
          1    1    1    2  502    0 -0.46903735755E+02 -0.77889784053E+02  0.11809618516E+04  0.11844566998E+04  0.00000000000E+00 0. -1.
         22    1    3    3    0    0  0.20494409022E+02 -0.24728382458E+02  0.59355128017E+02  0.67487368611E+02  0.00000000000E+00 0. -1.
         22    1    3    3    0    0 -0.55082317863E+02  0.94447546275E+02  0.41743794893E+03  0.43151922547E+03  0.00000000000E+00 0. -1.
</event>
<event>
 7    1  0.6176857E-006  0.5742089E+02  0.7818608E-02  0.1473200E+00
          2   -1    0    0  502    0  0.00000000000E+00  0.00000000000E+00  0.89697631557E+03  0.89697631557E+03  0.00000000000E+00 0. -1.
          1   -1    0    0  501    0 -0.00000000000E+00 -0.00000000000E+00 -0.46291336742E+03  0.46291336742E+03  0.00000000000E+00 0. -1.
         25    2    1    2    0    0 -0.74007802782E+02  0.55377736350E+02  0.26540015521E+03  0.30758105294E+03  0.12500005274E+03 0.  0.
          2    1    1    2  501    0  0.47928020495E+02 -0.31212953808E+02 -0.43945045711E+03  0.44315691114E+03  0.00000000000E+00 0. -1.
          1    1    1    2  502    0  0.26079782287E+02 -0.24164782542E+02  0.60811325005E+03  0.60915171891E+03  0.00000000000E+00 0. -1.
         22    1    3    3    0    0 -0.70368218291E+02 -0.21395031821E+02  0.16885810480E+03  0.18418059911E+03  0.00000000000E+00 0.  1.
         22    1    3    3    0    0 -0.36395844909E+01  0.76772768171E+02  0.96542050412E+02  0.12340045383E+03  0.00000000000E+00 0.  1.
</event>
<event>
 7    1  0.6176857E-006  0.6636412E+02  0.7818608E-02  0.1390251E+00
          2   -1    0    0  502    0  0.00000000000E+00  0.00000000000E+00  0.66608416929E+03  0.66608416929E+03  0.00000000000E+00 0. -1.
          1   -1    0    0  501    0 -0.00000000000E+00 -0.00000000000E+00 -0.13958722730E+04  0.13958722730E+04  0.00000000000E+00 0. -1.
         25    2    1    2    0    0  0.10815418068E+03 -0.43353176255E+02 -0.13035502537E+03  0.21493637503E+03  0.12501355119E+03 0.  0.
          2    1    1    2  501    0 -0.50550283321E+02  0.41548375126E+02 -0.12210175275E+04  0.12227695617E+04  0.00000000000E+00 0. -1.
          1    1    1    2  502    0 -0.57603897354E+02  0.18048011297E+01  0.62158444913E+03  0.62425050557E+03  0.00000000000E+00 0. -1.
         22    1    3    3    0    0  0.82930440059E+02  0.22095476146E+02 -0.11438183949E+03  0.14299955650E+03  0.00000000000E+00 0.  1.
         22    1    3    3    0    0  0.25223740617E+02 -0.65448652401E+02 -0.15973185880E+02  0.71936818522E+02  0.00000000000E+00 0.  1.
</event>
<event>
 7    1  0.6176857E-006  0.1183422E+03  0.7818608E-02  0.1350058E+00
          2   -1    0    0  502    0  0.00000000000E+00  0.00000000000E+00  0.61281011507E+03  0.61281011507E+03  0.00000000000E+00 0. -1.
          1   -1    0    0  501    0 -0.00000000000E+00 -0.00000000000E+00 -0.47433832269E+03  0.47433832269E+03  0.00000000000E+00 0. -1.
         25    2    1    2    0    0 -0.95166705567E+02 -0.73447639408E+02 -0.34850440807E+02  0.17688773054E+03  0.12499383348E+03 0.  0.
          2    1    1    2  501    0  0.11452295628E+03  0.32738437559E+02 -0.35786379889E+03  0.37716549599E+03  0.00000000000E+00 0. -1.
          1    1    1    2  502    0 -0.19356250716E+02  0.40709201850E+02  0.53118603208E+03  0.53309521123E+03  0.00000000000E+00 0. -1.
         22    1    3    3    0    0  0.35645436567E+01 -0.24291177149E+01  0.35918247699E+02  0.36176333453E+02  0.00000000000E+00 0. -1.
         22    1    3    3    0    0 -0.98731249224E+02 -0.71018521694E+02 -0.70768688506E+02  0.14071139708E+03  0.00000000000E+00 0. -1.
</event>
<event>
 7    1  0.6176857E-006  0.5411597E+02  0.7818608E-02  0.1464738E+00
          2   -1    0    0  502    0  0.00000000000E+00  0.00000000000E+00  0.17550687556E+04  0.17550687556E+04  0.00000000000E+00 0. -1.
          1   -1    0    0  501    0 -0.00000000000E+00 -0.00000000000E+00 -0.25891083362E+02  0.25891083362E+02  0.00000000000E+00 0. -1.
         25    2    1    2    0    0 -0.13024272568E+02  0.17893026657E+02  0.87758370829E+03  0.88671756839E+03  0.12500035588E+03 0.  0.
          2    1    1    2  501    0 -0.28359537656E+02  0.28330785498E+02 -0.30479440844E+00  0.40087275820E+02  0.00000000000E+00 0. -1.
          1    1    1    2  502    0  0.41383810224E+02 -0.46223812155E+02  0.85189875832E+03  0.85415499471E+03  0.00000000000E+00 0. -1.
         22    1    3    3    0    0 -0.63671565640E+02  0.35854789204E+02  0.48545573731E+03  0.49092454315E+03  0.00000000000E+00 0.  1.
         22    1    3    3    0    0  0.50647293072E+02 -0.17961762547E+02  0.39212797097E+03  0.39579302524E+03  0.00000000000E+00 0.  1.
</event>
<event>
 7    1  0.6176857E-006  0.9442022E+02  0.7818608E-02  0.1360369E+00
          2   -1    0    0  502    0  0.00000000000E+00  0.00000000000E+00  0.29737263142E+04  0.29737263142E+04  0.00000000000E+00 0. -1.
          1   -1    0    0  501    0 -0.00000000000E+00 -0.00000000000E+00 -0.38588302777E+03  0.38588302777E+03  0.00000000000E+00 0. -1.
         25    2    1    2    0    0  0.81655418673E+01 -0.90999293966E+02  0.20852529490E+03  0.25972157794E+03  0.12499980743E+03 0.  0.
          2    1    1    2  501    0 -0.51373167627E+02  0.64411549757E+01 -0.35759710999E+03  0.36132586940E+03  0.00000000000E+00 0. -1.
          1    1    1    2  502    0  0.43207625760E+02  0.84558138990E+02  0.27369151015E+04  0.27385618946E+04  0.00000000000E+00 0. -1.
         22    1    3    3    0    0 -0.26774730186E+02 -0.58445763143E+02  0.20143283590E+03  0.21144261819E+03  0.00000000000E+00 0. -1.
         22    1    3    3    0    0  0.34940272053E+02 -0.32553530823E+02  0.70924590009E+01  0.48278959753E+02  0.00000000000E+00 0. -1.
</event>
<event>
 7    1  0.6176857E-006  0.7946307E+02  0.7818608E-02  0.1375713E+00
          2   -1    0    0  502    0  0.00000000000E+00  0.00000000000E+00  0.48000996230E+03  0.48000996230E+03  0.00000000000E+00 0. -1.
          1   -1    0    0  501    0 -0.00000000000E+00 -0.00000000000E+00 -0.21110833638E+03  0.21110833638E+03  0.00000000000E+00 0. -1.
         25    2    1    2    0    0  0.48044543432E+02 -0.38774725852E+02  0.64424677608E+00  0.13942313156E+03  0.12500654800E+03 0.  0.
          2    1    1    2  501    0 -0.34766499195E+02 -0.41531677124E+02 -0.13229662809E+03  0.14295449442E+03  0.00000000000E+00 0. -1.
          1    1    1    2  502    0 -0.13278044237E+02  0.80306402976E+02  0.40055400723E+03  0.40874067270E+03  0.00000000000E+00 0. -1.
         22    1    3    3    0    0  0.40978155271E+02 -0.47956761215E+02  0.55095361625E+02  0.83752964295E+02  0.00000000000E+00 0. -1.
         22    1    3    3    0    0  0.70663881610E+01  0.91820353624E+01 -0.54451114849E+02  0.55670167265E+02  0.00000000000E+00 0. -1.
</event>
<event>
 7    1  0.6176857E-006  0.1189470E+03  0.7818608E-02  0.1265529E+00
          2   -1    0    0  502    0  0.00000000000E+00  0.00000000000E+00  0.14658518892E+03  0.14658518892E+03  0.00000000000E+00 0. -1.
          1   -1    0    0  501    0 -0.00000000000E+00 -0.00000000000E+00 -0.65746919247E+03  0.65746919247E+03  0.00000000000E+00 0. -1.
         25    2    1    2    0    0  0.75344902610E+02  0.11888606540E+03 -0.75938298900E+02  0.20298572462E+03  0.12500331302E+03 0.  0.
          2    1    1    2  501    0 -0.96910855469E+02  0.38124178563E-01 -0.46625133502E+03  0.47621636130E+03  0.00000000000E+00 0. -1.
          1    1    1    2  502    0  0.21565952859E+02 -0.11892418958E+03  0.31305630379E+02  0.12485229547E+03  0.00000000000E+00 0. -1.
         22    1    3    3    0    0  0.63050760853E+02  0.20398459193E+02 -0.79713906560E+02  0.10366196255E+03  0.00000000000E+00 0.  1.
         22    1    3    3    0    0  0.12294141757E+02  0.98487606208E+02  0.37756076601E+01  0.99323762068E+02  0.00000000000E+00 0.  1.
</event>
<event>
 7    1  0.6176857E-006  0.8088608E+02  0.7818608E-02  0.1468636E+00
          2   -1    0    0  502    0  0.00000000000E+00  0.00000000000E+00  0.11330258717E+03  0.11330258717E+03  0.00000000000E+00 0. -1.
          1   -1    0    0  501    0 -0.00000000000E+00 -0.00000000000E+00 -0.11263317828E+04  0.11263317828E+04  0.00000000000E+00 0. -1.
         25    2    1    2    0    0  0.62143849231E+01 -0.95556549517E+02 -0.26154882141E+03  0.30529165160E+03  0.12500213526E+03 0.  0.
          2    1    1    2  501    0 -0.23697943171E+02  0.76208405997E+02 -0.83911949009E+03  0.84290618238E+03  0.00000000000E+00 0. -1.
          1    1    1    2  502    0  0.17483558248E+02  0.19348143520E+02  0.87639115912E+02  0.91436535939E+02  0.00000000000E+00 0. -1.
         22    1    3    3    0    0 -0.24402643028E+00 -0.77261040756E+02 -0.48202359531E+02  0.91064787004E+02  0.00000000000E+00 0.  1.
         22    1    3    3    0    0  0.64584113534E+01 -0.18295508761E+02 -0.21334646188E+03  0.21422686459E+03  0.00000000000E+00 0.  1.
</event>
<event>
 7    1  0.6176857E-006  0.3957047E+02  0.7818608E-02  0.1618309E+00
          2   -1    0    0  502    0  0.00000000000E+00  0.00000000000E+00  0.10461423448E+04  0.10461423448E+04  0.00000000000E+00 0. -1.
          1   -1    0    0  501    0 -0.00000000000E+00 -0.00000000000E+00 -0.11278904348E+03  0.11278904348E+03  0.00000000000E+00 0. -1.
         25    2    1    2    0    0 -0.40454833010E+02 -0.40780358119E+02  0.19493706679E+03  0.23859911246E+03  0.12501778008E+03 0.  0.
          2    1    1    2  501    0  0.32242652353E+02  0.22363703063E+02 -0.86597122485E+02  0.95072527410E+02  0.00000000000E+00 0. -1.
          1    1    1    2  502    0  0.82121806570E+01  0.18416655056E+02  0.82501335698E+03  0.82525974837E+03  0.00000000000E+00 0. -1.
         22    1    3    3    0    0 -0.51135306580E+01 -0.24022318952E+02  0.19785845560E+03  0.19937700083E+03  0.00000000000E+00 0. -1.
         22    1    3    3    0    0 -0.35341302352E+02 -0.16758039167E+02 -0.29213888130E+01  0.39222111637E+02  0.00000000000E+00 0. -1.
</event>
<event>
 7    1  0.6176857E-006  0.6767865E+02  0.7818608E-02  0.1411543E+00
          2   -1    0    0  502    0  0.00000000000E+00  0.00000000000E+00  0.60163352874E+02  0.60163352874E+02  0.00000000000E+00 0. -1.
          1   -1    0    0  501    0 -0.00000000000E+00 -0.00000000000E+00 -0.24963002521E+04  0.24963002521E+04  0.00000000000E+00 0. -1.
         25    2    1    2    0    0 -0.16911085930E+01  0.54154010698E+02 -0.57136921039E+03  0.58738817535E+03  0.12500630880E+03 0.  0.
          2    1    1    2  501    0 -0.47382950700E+02 -0.59534236282E+01 -0.18938081142E+04  0.18944101353E+04  0.00000000000E+00 0. -1.
          1    1    1    2  502    0  0.49074059293E+02 -0.48200587070E+02  0.29040425283E+02  0.74665294414E+02  0.00000000000E+00 0. -1.
         22    1    3    3    0    0  0.27022258263E+01 -0.26114048038E+02 -0.29098925205E+02  0.39191746292E+02  0.00000000000E+00 0.  1.
         22    1    3    3    0    0 -0.43933344193E+01  0.80268058735E+02 -0.54227028518E+03  0.54819642906E+03  0.00000000000E+00 0.  1.
</event>
<event>
 7    1  0.6176857E-006  0.1717813E+03  0.7818608E-02  0.1304317E+00
          2   -1    0    0  502    0  0.00000000000E+00  0.00000000000E+00  0.23462240334E+04  0.23462240334E+04  0.00000000000E+00 0. -1.
          1   -1    0    0  501    0 -0.00000000000E+00 -0.00000000000E+00 -0.60659176178E+03  0.60659176178E+03  0.00000000000E+00 0. -1.
         25    2    1    2    0    0 -0.64947563394E+01 -0.12751300540E+03  0.37693953848E+01  0.17871541476E+03  0.12499297070E+03 0.  0.
          2    1    1    2  501    0 -0.11874965373E+02 -0.44982995042E+02 -0.51473186528E+03  0.51683012469E+03  0.00000000000E+00 0. -1.
          1    1    1    2  502    0  0.18369721712E+02  0.17249600044E+03  0.22505947415E+04  0.22572702557E+04  0.00000000000E+00 0. -1.
         22    1    3    3    0    0  0.25953712841E+01 -0.14430899117E+03  0.28853849889E+02  0.14718819769E+03  0.00000000000E+00 0. -1.
         22    1    3    3    0    0 -0.90901276235E+01  0.16795985775E+02 -0.25084454504E+02  0.31527217069E+02  0.00000000000E+00 0. -1.
</event>
<event>
 7    1  0.6176857E-006  0.2327606E+03  0.7818608E-02  0.1130275E+00
          2   -1    0    0  502    0  0.00000000000E+00  0.00000000000E+00  0.78874561830E+03  0.78874561830E+03  0.00000000000E+00 0. -1.
          1   -1    0    0  501    0 -0.00000000000E+00 -0.00000000000E+00 -0.27145964891E+04  0.27145964891E+04  0.00000000000E+00 0. -1.
         25    2    1    2    0    0  0.16846537169E+02 -0.20676149290E+02  0.15767765799E+03  0.20297300943E+03  0.12499795904E+03 0.  0.
          2    1    1    2  501    0 -0.22714145995E+02  0.23791850034E+03 -0.26670269151E+04  0.26777142699E+04  0.00000000000E+00 0. -1.
          1    1    1    2  502    0  0.58676088268E+01 -0.21724235105E+03  0.58349838639E+03  0.62265482801E+03  0.00000000000E+00 0. -1.
         22    1    3    3    0    0  0.68019275303E+02 -0.69478704632E+01  0.11946839436E+03  0.13765025233E+03  0.00000000000E+00 0. -1.
         22    1    3    3    0    0 -0.51172738134E+02 -0.13728278827E+02  0.38209263633E+02  0.65322757100E+02  0.00000000000E+00 0. -1.
</event>
<event>
 7    1  0.6176857E-006  0.1911193E+03  0.7818608E-02  0.1266550E+00
          2   -1    0    0  502    0  0.00000000000E+00  0.00000000000E+00  0.65619935063E+03  0.65619935063E+03  0.00000000000E+00 0. -1.
          1   -1    0    0  501    0 -0.00000000000E+00 -0.00000000000E+00 -0.37869751703E+04  0.37869751703E+04  0.00000000000E+00 0. -1.
         25    2    1    2    0    0 -0.17822572200E+03  0.16127187869E+03 -0.13216383789E+02  0.27124271283E+03  0.12499963849E+03 0.  0.
          2    1    1    2  501    0  0.12011728672E+03 -0.14750198848E+03 -0.36405633151E+04  0.36455296255E+04  0.00000000000E+00 0. -1.
          1    1    1    2  502    0  0.58108435284E+02 -0.13769890207E+02  0.52300387924E+03  0.52640218258E+03  0.00000000000E+00 0. -1.
         22    1    3    3    0    0 -0.11417684561E+03  0.11577584454E+03  0.50309090384E+02  0.17020987876E+03  0.00000000000E+00 0.  1.
         22    1    3    3    0    0 -0.64048876393E+02  0.45496034141E+02 -0.63525474173E+02  0.10103283406E+03  0.00000000000E+00 0.  1.
</event>
<event>
 7    1  0.6176857E-006  0.5523288E+02  0.7818608E-02  0.1478421E+00
          2   -1    0    0  502    0  0.00000000000E+00  0.00000000000E+00  0.84878309363E+03  0.84878309363E+03  0.00000000000E+00 0. -1.
          1   -1    0    0  501    0 -0.00000000000E+00 -0.00000000000E+00 -0.12180899168E+04  0.12180899168E+04  0.00000000000E+00 0. -1.
         25    2    1    2    0    0  0.18684678538E+02 -0.16547631264E+02  0.25411277618E+03  0.28429046213E+03  0.12499929011E+03 0.  0.
          2    1    1    2  501    0  0.35125683791E+02 -0.58915468037E+01 -0.12012702923E+04  0.12017981690E+04  0.00000000000E+00 0. -1.
          1    1    1    2  502    0 -0.53810362329E+02  0.22439178067E+02  0.57785069296E+03  0.58078437923E+03  0.00000000000E+00 0. -1.
         22    1    3    3    0    0 -0.10983327151E+02  0.36339902247E+02  0.19821307740E+03  0.20181587158E+03  0.00000000000E+00 0.  1.
         22    1    3    3    0    0  0.29668005689E+02 -0.52887533511E+02  0.55899698786E+02  0.82474590552E+02  0.00000000000E+00 0.  1.
</event>
<event>
 7    1  0.6176857E-006  0.4232996E+02  0.7818608E-02  0.1537944E+00
          2   -1    0    0  502    0  0.00000000000E+00  0.00000000000E+00  0.67580225064E+03  0.67580225064E+03  0.00000000000E+00 0. -1.
          1   -1    0    0  501    0 -0.00000000000E+00 -0.00000000000E+00 -0.36052917031E+03  0.36052917031E+03  0.00000000000E+00 0. -1.
         25    2    1    2    0    0  0.29258635976E+02  0.13653685503E+02  0.30324109825E+03  0.32957836397E+03  0.12499697365E+03 0.  0.
          2    1    1    2  501    0 -0.13728404319E+02  0.27803926416E+02 -0.34529978327E+03  0.34668929567E+03  0.00000000000E+00 0. -1.
          1    1    1    2  502    0 -0.15530231657E+02 -0.41457611919E+02  0.35733176535E+03  0.36006376131E+03  0.00000000000E+00 0. -1.
         22    1    3    3    0    0 -0.21837540105E+01 -0.54228932586E+02  0.13005627598E+03  0.14092615382E+03  0.00000000000E+00 0. -1.
         22    1    3    3    0    0  0.31442389986E+02  0.67882618089E+02  0.17318482227E+03  0.18865221014E+03  0.00000000000E+00 0. -1.
</event>
<event>
 7    1  0.6176857E-006  0.8127691E+02  0.7818608E-02  0.1445971E+00
          2   -1    0    0  502    0  0.00000000000E+00  0.00000000000E+00  0.13077614198E+04  0.13077614198E+04  0.00000000000E+00 0. -1.
          1   -1    0    0  501    0 -0.00000000000E+00 -0.00000000000E+00 -0.18737096986E+03  0.18737096986E+03  0.00000000000E+00 0. -1.
         25    2    1    2    0    0  0.10592817564E+03  0.32051442035E+02 -0.46076229364E+02  0.17319474012E+03  0.12500130304E+03 0.  0.
          2    1    1    2  501    0 -0.30492075331E+02 -0.27498042664E+01 -0.73349772714E+02  0.79482810963E+02  0.00000000000E+00 0. -1.
          1    1    1    2  502    0 -0.75436100312E+02 -0.29301637769E+02  0.12398164520E+04  0.12424548385E+04  0.00000000000E+00 0. -1.
         22    1    3    3    0    0  0.67416749546E+02  0.50310148692E+02 -0.81985154453E+02  0.11746358896E+03  0.00000000000E+00 0. -1.
         22    1    3    3    0    0  0.38511426096E+02 -0.18258706657E+02  0.35908925089E+02  0.55731151162E+02  0.00000000000E+00 0. -1.
</event>
<event>
 7    1  0.6176857E-006  0.6443829E+02  0.7818608E-02  0.1424239E+00
          2   -1    0    0  502    0  0.00000000000E+00  0.00000000000E+00  0.41630322487E+03  0.41630322487E+03  0.00000000000E+00 0. -1.
          1   -1    0    0  501    0 -0.00000000000E+00 -0.00000000000E+00 -0.46613646988E+03  0.46613646988E+03  0.00000000000E+00 0. -1.
         25    2    1    2    0    0  0.35222277494E+02  0.32314422585E+02 -0.27126619014E+02  0.13654899488E+03  0.12499977522E+03 0.  0.
          2    1    1    2  501    0 -0.44652555680E+01 -0.65813731744E+02 -0.38001602452E+03  0.38569880047E+03  0.00000000000E+00 0. -1.
          1    1    1    2  502    0 -0.30757021926E+02  0.33499309160E+02  0.35730939853E+03  0.36019189940E+03  0.00000000000E+00 0. -1.
         22    1    3    3    0    0  0.37451710536E+02  0.57399512445E+02 -0.62749000868E+02  0.92923472605E+02  0.00000000000E+00 0. -1.
         22    1    3    3    0    0 -0.22294330422E+01 -0.25085089860E+02  0.35622381855E+02  0.43625522277E+02  0.00000000000E+00 0. -1.
</event>
<event>
 7    1  0.6176857E-006  0.1338958E+03  0.7818608E-02  0.1319059E+00
          2   -1    0    0  502    0  0.00000000000E+00  0.00000000000E+00  0.12839398369E+04  0.12839398369E+04  0.00000000000E+00 0. -1.
          1   -1    0    0  501    0 -0.00000000000E+00 -0.00000000000E+00 -0.33971873882E+03  0.33971873882E+03  0.00000000000E+00 0. -1.
         25    2    1    2    0    0 -0.17572338784E+03  0.16854108104E+02  0.16417356198E+03  0.27155283513E+03  0.12500085528E+03 0.  0.
          2    1    1    2  501    0  0.12652038242E+03 -0.34384447124E+02 -0.27032155254E+03  0.30043874440E+03  0.00000000000E+00 0. -1.
          1    1    1    2  502    0  0.49203005420E+02  0.17530339020E+02  0.10503690886E+04  0.10516669962E+04  0.00000000000E+00 0. -1.
         22    1    3    3    0    0 -0.10029935773E+03  0.71490047947E+02  0.92916632973E+02  0.15428638566E+03  0.00000000000E+00 0.  1.
         22    1    3    3    0    0 -0.75424030102E+02 -0.54635939842E+02  0.71256929011E+02  0.11726644947E+03  0.00000000000E+00 0.  1.
</event>
<event>
 7    1  0.6176857E-006  0.7948721E+02  0.7818608E-02  0.1367439E+00
          2   -1    0    0  502    0  0.00000000000E+00  0.00000000000E+00  0.80177491208E+03  0.80177491208E+03  0.00000000000E+00 0. -1.
          1   -1    0    0  501    0 -0.00000000000E+00 -0.00000000000E+00 -0.36893865503E+03  0.36893865503E+03  0.00000000000E+00 0. -1.
         25    2    1    2    0    0  0.50408095713E+02 -0.12679635998E+03  0.32924856934E+03  0.37768892811E+03  0.12500405187E+03 0.  0.
          2    1    1    2  501    0 -0.24986278242E+02  0.74692425264E+02 -0.33830140020E+03  0.34734868629E+03  0.00000000000E+00 0. -1.
          1    1    1    2  502    0 -0.25421817471E+02  0.52103934720E+02  0.44188908791E+03  0.44567595271E+03  0.00000000000E+00 0. -1.
         22    1    3    3    0    0 -0.57722637392E+01 -0.38930827254E+02  0.23126456892E+03  0.23458949076E+03  0.00000000000E+00 0. -1.
         22    1    3    3    0    0  0.56180359452E+02 -0.87865532730E+02  0.97984000424E+02  0.14309943735E+03  0.00000000000E+00 0. -1.
</event>
<event>
 7    1  0.6176857E-006  0.5432153E+02  0.7818608E-02  0.1425981E+00
          2   -1    0    0  502    0  0.00000000000E+00  0.00000000000E+00  0.69989157583E+03  0.69989157583E+03  0.00000000000E+00 0. -1.
          1   -1    0    0  501    0 -0.00000000000E+00 -0.00000000000E+00 -0.10818292457E+04  0.10818292457E+04  0.00000000000E+00 0. -1.
         25    2    1    2    0    0  0.47835005080E+02  0.42771901460E+02  0.62777089302E+02  0.15389696915E+03  0.12500276359E+03 0.  0.
          2    1    1    2  501    0 -0.51909465470E+02  0.11803408901E+02 -0.10343175602E+04  0.10356865975E+04  0.00000000000E+00 0. -1.
          1    1    1    2  502    0  0.40744603905E+01 -0.54575310361E+02  0.58960280095E+03  0.59213725488E+03  0.00000000000E+00 0. -1.
         22    1    3    3    0    0  0.80771310345E+02  0.54671498876E+02  0.21702377671E+02  0.99919820660E+02  0.00000000000E+00 0. -1.
         22    1    3    3    0    0 -0.32936305265E+02 -0.11899597417E+02  0.41074711631E+02  0.53977148487E+02  0.00000000000E+00 0. -1.
</event>
<event>
 7    1  0.6176857E-006  0.5110362E+02  0.7818608E-02  0.1439921E+00
          2   -1    0    0  502    0  0.00000000000E+00  0.00000000000E+00  0.30431832037E+04  0.30431832037E+04  0.00000000000E+00 0. -1.
          1   -1    0    0  501    0 -0.00000000000E+00 -0.00000000000E+00 -0.34385488762E+02  0.34385488762E+02  0.00000000000E+00 0. -1.
         25    2    1    2    0    0  0.64853919659E+02  0.22491748791E+02  0.12721058305E+04  0.12800756526E+04  0.12501408983E+03 0.  0.
          2    1    1    2  501    0 -0.19947186049E+02 -0.47049869061E+02 -0.82805284208E+01  0.51770141596E+02  0.00000000000E+00 0. -1.
          1    1    1    2  502    0 -0.44906733609E+02  0.24558120270E+02  0.17449724128E+04  0.17457228982E+04  0.00000000000E+00 0. -1.
         22    1    3    3    0    0  0.94458588597E+02  0.33331173788E-01  0.10976164653E+04  0.11016734230E+04  0.00000000000E+00 0.  1.
         22    1    3    3    0    0 -0.29604668938E+02  0.22458417617E+02  0.17448936528E+03  0.17840222964E+03  0.00000000000E+00 0.  1.
</event>
<event>
 7    1  0.6176857E-006  0.6663113E+02  0.7818608E-02  0.1483466E+00
          2   -1    0    0  502    0  0.00000000000E+00  0.00000000000E+00  0.63722542999E+03  0.63722542999E+03  0.00000000000E+00 0. -1.
          1   -1    0    0  501    0 -0.00000000000E+00 -0.00000000000E+00 -0.94965618736E+03  0.94965618736E+03  0.00000000000E+00 0. -1.
         25    2    1    2    0    0  0.32870796619E+02  0.56255571443E+02 -0.53202857876E+03  0.55038621139E+03  0.12500157793E+03 0.  0.
          2    1    1    2  501    0  0.21884246532E+02 -0.18244058732E+02 -0.40617978952E+03  0.40717783258E+03  0.00000000000E+00 0. -1.
          1    1    1    2  502    0 -0.54755043151E+02 -0.38011512711E+02  0.62577761091E+03  0.62931757338E+03  0.00000000000E+00 0. -1.
         22    1    3    3    0    0 -0.40998388157E+01 -0.13556423137E+02 -0.17671051134E+01  0.14272629298E+02  0.00000000000E+00 0.  1.
         22    1    3    3    0    0  0.36970635435E+02  0.69811994581E+02 -0.53026147365E+03  0.53611358209E+03  0.00000000000E+00 0.  1.
</event>
<event>
 7    1  0.6176857E-006  0.5484794E+02  0.7818608E-02  0.1458150E+00
          2   -1    0    0  502    0  0.00000000000E+00  0.00000000000E+00  0.23863275607E+03  0.23863275607E+03  0.00000000000E+00 0. -1.
          1   -1    0    0  501    0 -0.00000000000E+00 -0.00000000000E+00 -0.58594201149E+03  0.58594201149E+03  0.00000000000E+00 0. -1.
         25    2    1    2    0    0  0.28926116586E+02 -0.84398127936E+02  0.12519125265E+03  0.19813258643E+03  0.12499563130E+03 0.  0.
          2    1    1    2  501    0 -0.11898078102E+02  0.39742920122E+02 -0.54118161772E+03  0.54276938686E+03  0.00000000000E+00 0. -1.
          1    1    1    2  502    0 -0.17028038485E+02  0.44655207813E+02  0.68681109643E+02  0.83672794272E+02  0.00000000000E+00 0. -1.
         22    1    3    3    0    0  0.51137960381E+01 -0.51776707936E+02  0.14434319009E+03  0.15343381283E+03  0.00000000000E+00 0.  1.
         22    1    3    3    0    0  0.23812320548E+02 -0.32621420000E+02 -0.19151937444E+02  0.44698773591E+02  0.00000000000E+00 0.  1.
</event>
<event>
 7    1  0.6176857E-006  0.6431969E+02  0.7818608E-02  0.1426183E+00
          2   -1    0    0  502    0  0.00000000000E+00  0.00000000000E+00  0.50616633097E+02  0.50616633097E+02  0.00000000000E+00 0. -1.
          1   -1    0    0  501    0 -0.00000000000E+00 -0.00000000000E+00 -0.90667844120E+03  0.90667844120E+03  0.00000000000E+00 0. -1.
         25    2    1    2    0    0 -0.25771907572E+02  0.76426808348E+02 -0.20065609995E+03  0.24978563636E+03  0.12499898171E+03 0.  0.
          2    1    1    2  501    0  0.42242138545E+02 -0.15190133662E+02 -0.64088500260E+03  0.64245523189E+03  0.00000000000E+00 0. -1.
          1    1    1    2  502    0 -0.16470230973E+02 -0.61236674686E+02 -0.14520705554E+02  0.65054206049E+02  0.00000000000E+00 0. -1.
         22    1    3    3    0    0 -0.32731049935E+02 -0.28289473502E+02 -0.49098423268E+02  0.65439064085E+02  0.00000000000E+00 0.  1.
         22    1    3    3    0    0  0.69591423623E+01  0.10471628185E+03 -0.15155767668E+03  0.18434657227E+03  0.00000000000E+00 0.  1.
</event>
<event>
 7    1  0.6176857E-006  0.5681505E+02  0.7818608E-02  0.1519949E+00
          2   -1    0    0  502    0  0.00000000000E+00  0.00000000000E+00  0.37499469923E+03  0.37499469923E+03  0.00000000000E+00 0. -1.
          1   -1    0    0  501    0 -0.00000000000E+00 -0.00000000000E+00 -0.34546215586E+03  0.34546215586E+03  0.00000000000E+00 0. -1.
         25    2    1    2    0    0 -0.54681899433E+02  0.51933941102E+02  0.82657726332E+02  0.16776251223E+03  0.12499886569E+03 0.  0.
          2    1    1    2  501    0  0.28885326966E+02 -0.48535877018E+02 -0.29958609379E+03  0.30486377460E+03  0.00000000000E+00 0. -1.
          1    1    1    2  502    0  0.25796572466E+02 -0.33980640841E+01  0.24646091083E+03  0.24783056825E+03  0.00000000000E+00 0. -1.
         22    1    3    3    0    0  0.97905583257E+01  0.19684787811E+02  0.92435685195E+02  0.95014218941E+02  0.00000000000E+00 0.  1.
         22    1    3    3    0    0 -0.64472457758E+02  0.32249153291E+02 -0.97779588630E+01  0.72748293292E+02  0.00000000000E+00 0.  1.
</event>
<event>
 7    1  0.6176857E-006  0.1891749E+03  0.7818608E-02  0.1331124E+00
          2   -1    0    0  502    0  0.00000000000E+00  0.00000000000E+00  0.91768692335E+03  0.91768692335E+03  0.00000000000E+00 0. -1.
          1   -1    0    0  501    0 -0.00000000000E+00 -0.00000000000E+00 -0.18642659499E+03  0.18642659499E+03  0.00000000000E+00 0. -1.
         25    2    1    2    0    0 -0.67578795579E+02 -0.18638801533E+03  0.39914174145E+03  0.46286797216E+03  0.12500097607E+03 0.  0.
          2    1    1    2  501    0  0.92239746395E+02  0.16413040992E+03 -0.96347063796E+02  0.21149401641E+03  0.00000000000E+00 0. -1.
          1    1    1    2  502    0 -0.24660950816E+02  0.22257605413E+02  0.42846565072E+03  0.42975152977E+03  0.00000000000E+00 0. -1.
         22    1    3    3    0    0 -0.38508437963E+02  0.67049183076E+01  0.68869217023E+02  0.79188539432E+02  0.00000000000E+00 0.  1.
         22    1    3    3    0    0 -0.29070357616E+02 -0.19309293364E+03  0.33027252442E+03  0.38367943273E+03  0.00000000000E+00 0.  1.
</event>
<event>
 7    1  0.6176857E-006  0.2459244E+03  0.7818608E-02  0.1196578E+00
          2   -1    0    0  502    0  0.00000000000E+00  0.00000000000E+00  0.74824902404E+03  0.74824902404E+03  0.00000000000E+00 0. -1.
          1   -1    0    0  501    0 -0.00000000000E+00 -0.00000000000E+00 -0.67411556495E+03  0.67411556495E+03  0.00000000000E+00 0. -1.
         25    2    1    2    0    0 -0.13516484873E+03 -0.11378549993E+03  0.42308070854E+02  0.22052735600E+03  0.12500266220E+03 0.  0.
          2    1    1    2  501    0 -0.88275182234E+02 -0.36318473051E+02 -0.55134187017E+03  0.55954391882E+03  0.00000000000E+00 0. -1.
          1    1    1    2  502    0  0.22344003097E+03  0.15010397298E+03  0.58316725841E+03  0.64229331416E+03  0.00000000000E+00 0. -1.
         22    1    3    3    0    0 -0.45752688993E+02 -0.26064041445E+02  0.74470696339E+02  0.91205961536E+02  0.00000000000E+00 0.  1.
         22    1    3    3    0    0 -0.89412159741E+02 -0.87721458485E+02 -0.32162625485E+02  0.12932139447E+03  0.00000000000E+00 0.  1.
</event>
<event>
 7    1  0.6176857E-006  0.8875683E+02  0.7818608E-02  0.1314477E+00
          2   -1    0    0  502    0  0.00000000000E+00  0.00000000000E+00  0.71174020817E+03  0.71174020817E+03  0.00000000000E+00 0. -1.
          1   -1    0    0  501    0 -0.00000000000E+00 -0.00000000000E+00 -0.12407940601E+04  0.12407940601E+04  0.00000000000E+00 0. -1.
         25    2    1    2    0    0  0.17419840414E+02  0.97058469744E+02  0.74073887734E+02  0.17559275461E+03  0.12498830841E+03 0.  0.
          2    1    1    2  501    0 -0.78499751557E+02 -0.42189553747E+02 -0.11854823382E+04  0.11888273818E+04  0.00000000000E+00 0. -1.
          1    1    1    2  502    0  0.61079911143E+02 -0.54868915997E+02  0.58235459863E+03  0.58811413181E+03  0.00000000000E+00 0. -1.
         22    1    3    3    0    0  0.36600073858E+02 -0.12311458429E+02  0.47870505132E+02  0.61503842780E+02  0.00000000000E+00 0.  1.
         22    1    3    3    0    0 -0.19180233444E+02  0.10936992817E+03  0.26203382602E+02  0.11408891183E+03  0.00000000000E+00 0.  1.
</event>
<event>
 7    1  0.6176857E-006  0.1066924E+03  0.7818608E-02  0.1444036E+00
          2   -1    0    0  502    0  0.00000000000E+00  0.00000000000E+00  0.85726770182E+03  0.85726770182E+03  0.00000000000E+00 0. -1.
          1   -1    0    0  501    0 -0.00000000000E+00 -0.00000000000E+00 -0.14691220981E+03  0.14691220981E+03  0.00000000000E+00 0. -1.
         25    2    1    2    0    0 -0.12762617177E+03  0.16198650226E+02  0.33832185671E+03  0.38293530180E+03  0.12500772236E+03 0.  0.
          2    1    1    2  501    0  0.10489740280E+03 -0.96260644143E+01 -0.10199508277E+03  0.14662579289E+03  0.00000000000E+00 0. -1.
          1    1    1    2  502    0  0.22728768966E+02 -0.65725858113E+01  0.47402871808E+03  0.47461881693E+03  0.00000000000E+00 0. -1.
         22    1    3    3    0    0 -0.11008493750E+03 -0.42319840115E+02  0.21130375700E+03  0.24198954534E+03  0.00000000000E+00 0.  1.
         22    1    3    3    0    0 -0.17541234274E+02  0.58518490341E+02  0.12701809971E+03  0.14094575646E+03  0.00000000000E+00 0.  1.
</event>
<event>
 7    1  0.6176857E-006  0.3277171E+02  0.7818608E-02  0.1637518E+00
          2   -1    0    0  502    0  0.00000000000E+00  0.00000000000E+00  0.22379976530E+03  0.22379976530E+03  0.00000000000E+00 0. -1.
          1   -1    0    0  501    0 -0.00000000000E+00 -0.00000000000E+00 -0.78881613646E+03  0.78881613646E+03  0.00000000000E+00 0. -1.
         25    2    1    2    0    0  0.21902296608E+02  0.99341992440E+01 -0.58221175957E+02  0.13997730185E+03  0.12500216315E+03 0.  0.
          2    1    1    2  501    0  0.96676083490E+01 -0.19515077321E+02 -0.68805561153E+03  0.68840019281E+03  0.00000000000E+00 0. -1.
          1    1    1    2  502    0 -0.31569904957E+02  0.95808780773E+01  0.18126041633E+03  0.18423840710E+03  0.00000000000E+00 0. -1.
         22    1    3    3    0    0  0.26493820375E+02  0.99045251121E+01  0.35922668806E+02  0.45721551482E+02  0.00000000000E+00 0.  1.
         22    1    3    3    0    0 -0.45915237669E+01  0.29674131923E-01 -0.94143844764E+02  0.94255750371E+02  0.00000000000E+00 0.  1.
</event>
<event>
 7    1  0.6176857E-006  0.3635877E+02  0.7818608E-02  0.1615540E+00
          2   -1    0    0  502    0  0.00000000000E+00  0.00000000000E+00  0.73531166496E+03  0.73531166496E+03  0.00000000000E+00 0. -1.
          1   -1    0    0  501    0 -0.00000000000E+00 -0.00000000000E+00 -0.12591041541E+04  0.12591041541E+04  0.00000000000E+00 0. -1.
         25    2    1    2    0    0  0.73969000593E+01  0.31514979243E+02 -0.63930088951E+03  0.65221047074E+03  0.12499985108E+03 0.  0.
          2    1    1    2  501    0 -0.28417532304E+02 -0.24051008474E+02 -0.61261257889E+03  0.61374276286E+03  0.00000000000E+00 0. -1.
          1    1    1    2  502    0  0.21020632244E+02 -0.74639707686E+01  0.72812097930E+03  0.72846258541E+03  0.00000000000E+00 0. -1.
         22    1    3    3    0    0 -0.50107180740E+01 -0.36125700926E+02 -0.71543816907E+02  0.80303744001E+02  0.00000000000E+00 0. -1.
         22    1    3    3    0    0  0.12407618133E+02  0.67640680168E+02 -0.56775707260E+03  0.57190672674E+03  0.00000000000E+00 0. -1.
</event>
<event>
 7    1  0.6176857E-006  0.8098742E+02  0.7818608E-02  0.1432965E+00
          2   -1    0    0  502    0  0.00000000000E+00  0.00000000000E+00  0.30506779194E+03  0.30506779194E+03  0.00000000000E+00 0. -1.
          1   -1    0    0  501    0 -0.00000000000E+00 -0.00000000000E+00 -0.19529247161E+04  0.19529247161E+04  0.00000000000E+00 0. -1.
         25    2    1    2    0    0 -0.69014739110E+02  0.56342326549E+02 -0.13172299955E+00  0.15349904800E+03  0.12499779362E+03 0.  0.
          2    1    1    2  501    0  0.38578756735E+02 -0.71188850223E+02 -0.18739749738E+04  0.18757234272E+04  0.00000000000E+00 0. -1.
          1    1    1    2  502    0  0.30435982375E+02  0.14846523674E+02  0.22624977266E+03  0.22877003282E+03  0.00000000000E+00 0. -1.
         22    1    3    3    0    0  0.35432404978E+02  0.61415298152E+01 -0.96231145990E+01  0.37226039886E+02  0.00000000000E+00 0. -1.
         22    1    3    3    0    0 -0.10444714409E+03  0.50200796734E+02  0.94913915995E+01  0.11627300811E+03  0.00000000000E+00 0. -1.
</event>
<event>
 7    1  0.6176857E-006  0.8671171E+02  0.7818608E-02  0.1338153E+00
          2   -1    0    0  502    0  0.00000000000E+00  0.00000000000E+00  0.19952812986E+04  0.19952812986E+04  0.00000000000E+00 0. -1.
          1   -1    0    0  501    0 -0.00000000000E+00 -0.00000000000E+00 -0.12541865473E+04  0.12541865473E+04  0.00000000000E+00 0. -1.
         25    2    1    2    0    0 -0.33025355766E+02  0.46878017092E+02  0.46720509842E+02  0.14526332362E+03  0.12502161629E+03 0.  0.
          2    1    1    2  501    0 -0.54518937163E+02 -0.40905975903E+02 -0.12029364321E+04  0.12048658320E+04  0.00000000000E+00 0. -1.
          1    1    1    2  502    0  0.87544292929E+02 -0.59720411888E+01  0.18973106735E+04  0.18993386903E+04  0.00000000000E+00 0. -1.
         22    1    3    3    0    0  0.33272574093E+02  0.31495980130E+01 -0.22187968238E+02  0.40115958033E+02  0.00000000000E+00 0. -1.
         22    1    3    3    0    0 -0.66297929859E+02  0.43728419079E+02  0.68908478080E+02  0.10514736559E+03  0.00000000000E+00 0. -1.
</event>
<event>
 7    1  0.6176857E-006  0.7851653E+02  0.7818608E-02  0.1340873E+00
          2   -1    0    0  502    0  0.00000000000E+00  0.00000000000E+00  0.12448002666E+04  0.12448002666E+04  0.00000000000E+00 0. -1.
          1   -1    0    0  501    0 -0.00000000000E+00 -0.00000000000E+00 -0.39168103290E+03  0.39168103290E+03  0.00000000000E+00 0. -1.
         25    2    1    2    0    0 -0.69282338101E+02 -0.78962507008E+02  0.23894630570E+02  0.16499691112E+03  0.12497162647E+03 0.  0.
          2    1    1    2  501    0 -0.90571599464E+01  0.72958972117E+02 -0.31555782669E+03  0.32400892850E+03  0.00000000000E+00 0. -1.
          1    1    1    2  502    0  0.78339498047E+02  0.60035348913E+01  0.11447824298E+04  0.11474754599E+04  0.00000000000E+00 0. -1.
         22    1    3    3    0    0 -0.32546957013E+01 -0.14570880820E+02 -0.46587150329E+02  0.48921019898E+02  0.00000000000E+00 0.  1.
         22    1    3    3    0    0 -0.66027642400E+02 -0.64391626188E+02  0.70481780900E+02  0.11607589122E+03  0.00000000000E+00 0.  1.
</event>
<event>
 7    1  0.6176857E-006  0.2967618E+03  0.7818608E-02  0.1301379E+00
          2   -1    0    0  502    0  0.00000000000E+00  0.00000000000E+00  0.19127482215E+04  0.19127482215E+04  0.00000000000E+00 0. -1.
          1   -1    0    0  501    0 -0.00000000000E+00 -0.00000000000E+00 -0.17154982735E+04  0.17154982735E+04  0.00000000000E+00 0. -1.
         25    2    1    2    0    0  0.22958143548E+03 -0.22831295508E+03  0.79720953528E+03  0.86948418732E+03  0.12500107160E+03 0.  0.
          2    1    1    2  501    0 -0.21247467692E+03  0.20656919435E+03 -0.16661072175E+04  0.16922557669E+04  0.00000000000E+00 0. -1.
          1    1    1    2  502    0 -0.17106758552E+02  0.21743760724E+02  0.10661476302E+04  0.10665065409E+04  0.00000000000E+00 0. -1.
         22    1    3    3    0    0 -0.82442995920E+01 -0.38764633118E+02  0.13659590402E+03  0.14222906262E+03  0.00000000000E+00 0.  1.
         22    1    3    3    0    0  0.23782573507E+03 -0.18954832196E+03  0.66061363125E+03  0.72725512471E+03  0.00000000000E+00 0.  1.
</event>
<event>
 7    1  0.6176857E-006  0.1486388E+03  0.7818608E-02  0.1251043E+00
          2   -1    0    0  502    0  0.00000000000E+00  0.00000000000E+00  0.59421232879E+03  0.59421232879E+03  0.00000000000E+00 0. -1.
          1   -1    0    0  501    0 -0.00000000000E+00 -0.00000000000E+00 -0.12507065702E+04  0.12507065702E+04  0.00000000000E+00 0. -1.
         25    2    1    2    0    0  0.79803102661E+02 -0.12937058927E+03 -0.34663709265E+03  0.39860523780E+03  0.12499430802E+03 0.  0.
          2    1    1    2  501    0 -0.13969504249E+03  0.62927522831E+02 -0.86781217874E+03  0.88123354203E+03  0.00000000000E+00 0. -1.
          1    1    1    2  502    0  0.59891939826E+02  0.66443066440E+02  0.55795503001E+03  0.56508011914E+03  0.00000000000E+00 0. -1.
         22    1    3    3    0    0  0.18584906804E+02 -0.11648212133E+03 -0.14190330994E+03  0.18452650954E+03  0.00000000000E+00 0. -1.
         22    1    3    3    0    0  0.61218195857E+02 -0.12888467936E+02 -0.20473378271E+03  0.21407872826E+03  0.00000000000E+00 0. -1.
</event>
<event>
 7    1  0.6176857E-006  0.5581060E+02  0.7818608E-02  0.1486226E+00
          2   -1    0    0  502    0  0.00000000000E+00  0.00000000000E+00  0.10106211966E+04  0.10106211966E+04  0.00000000000E+00 0. -1.
          1   -1    0    0  501    0 -0.00000000000E+00 -0.00000000000E+00 -0.67679780583E+03  0.67679780583E+03  0.00000000000E+00 0. -1.
         25    2    1    2    0    0  0.80207398509E+00  0.65134818698E+02  0.16574251318E+03  0.21757670986E+03  0.12500342424E+03 0.  0.
          2    1    1    2  501    0  0.28361194470E+02 -0.17570947108E+02 -0.64950181740E+03  0.65035813699E+03  0.00000000000E+00 0. -1.
          1    1    1    2  502    0 -0.29163268455E+02 -0.47563871589E+02  0.81758269498E+03  0.81948415558E+03  0.00000000000E+00 0. -1.
         22    1    3    3    0    0  0.24272425053E+02  0.97167531975E+02  0.13034841060E+03  0.16438183608E+03  0.00000000000E+00 0. -1.
         22    1    3    3    0    0 -0.23470351068E+02 -0.32032713277E+02  0.35394102578E+02  0.53194873780E+02  0.00000000000E+00 0. -1.
</event>
<event>
 7    1  0.6176857E-006  0.1269087E+03  0.7818608E-02  0.1250637E+00
          2   -1    0    0  502    0  0.00000000000E+00  0.00000000000E+00  0.75813440495E+02  0.75813440495E+02  0.00000000000E+00 0. -1.
          1   -1    0    0  501    0 -0.00000000000E+00 -0.00000000000E+00 -0.15763991329E+04  0.15763991329E+04  0.00000000000E+00 0. -1.
         25    2    1    2    0    0 -0.12545717577E+03 -0.42060025899E+02 -0.36361882762E+03  0.40663757261E+03  0.12500765949E+03 0.  0.
          2    1    1    2  501    0  0.69396575493E+02 -0.79056387861E+02 -0.11028048946E+04  0.11078106484E+04  0.00000000000E+00 0. -1.
          1    1    1    2  502    0  0.56060600274E+02  0.12111641376E+03 -0.34161970210E+02  0.13776435241E+03  0.00000000000E+00 0. -1.
         22    1    3    3    0    0 -0.10067829075E+03 -0.82750342059E+02 -0.30062548283E+03  0.32765747095E+03  0.00000000000E+00 0. -1.
         22    1    3    3    0    0 -0.24778885018E+02  0.40690316160E+02 -0.62993344787E+02  0.78980101668E+02  0.00000000000E+00 0. -1.
</event>
<event>
 7    1  0.6176857E-006  0.7915191E+02  0.7818608E-02  0.1349198E+00
          2   -1    0    0  502    0  0.00000000000E+00  0.00000000000E+00  0.35157609060E+04  0.35157609060E+04  0.00000000000E+00 0. -1.
          1   -1    0    0  501    0 -0.00000000000E+00 -0.00000000000E+00 -0.20499799968E+02  0.20499799968E+02  0.00000000000E+00 0. -1.
         25    2    1    2    0    0  0.15081255430E+02 -0.75308431894E+02  0.11531470598E+04  0.11624420252E+04  0.12499806531E+03 0.  0.
          2    1    1    2  501    0 -0.72173789757E+02  0.38568818758E+02  0.93797215740E+02  0.12447701550E+03  0.00000000000E+00 0. -1.
          1    1    1    2  502    0  0.57092534327E+02  0.36739613137E+02  0.22483168306E+04  0.22493416653E+04  0.00000000000E+00 0. -1.
         22    1    3    3    0    0 -0.30117877296E+02 -0.32394672463E+02  0.12847386521E+03  0.13587507269E+03  0.00000000000E+00 0.  1.
         22    1    3    3    0    0  0.45199132726E+02 -0.42913759432E+02  0.10246731946E+04  0.10265669525E+04  0.00000000000E+00 0.  1.
</event>
<event>
 7    1  0.6176857E-006  0.1268168E+03  0.7818608E-02  0.1308728E+00
          2   -1    0    0  502    0  0.00000000000E+00  0.00000000000E+00  0.29157769416E+04  0.29157769416E+04  0.00000000000E+00 0. -1.
          1   -1    0    0  501    0 -0.00000000000E+00 -0.00000000000E+00 -0.52741611105E+02  0.52741611105E+02  0.00000000000E+00 0. -1.
         25    2    1    2    0    0 -0.36301452137E+02 -0.71091058055E+02  0.63641127788E+03  0.65346440142E+03  0.12499870137E+03 0.  0.
          2    1    1    2  501    0 -0.42427127951E+02 -0.43177143528E+02 -0.20301910725E+02  0.63847431338E+02  0.00000000000E+00 0. -1.
          1    1    1    2  502    0  0.78728580088E+02  0.11426820158E+03  0.22469259633E+04  0.22512067199E+04  0.00000000000E+00 0. -1.
         22    1    3    3    0    0 -0.27665990306E+02 -0.21546994951E+02  0.56519068791E+03  0.56627748827E+03  0.00000000000E+00 0. -1.
         22    1    3    3    0    0 -0.86354618308E+01 -0.49544063105E+02  0.71220589969E+02  0.87186913155E+02  0.00000000000E+00 0. -1.
</event>
<event>
 7    1  0.6176857E-006  0.2305300E+03  0.7818608E-02  0.1222080E+00
          2   -1    0    0  502    0  0.00000000000E+00  0.00000000000E+00  0.19783580435E+04  0.19783580435E+04  0.00000000000E+00 0. -1.
          1   -1    0    0  501    0 -0.00000000000E+00 -0.00000000000E+00 -0.11705554006E+03  0.11705554006E+03  0.00000000000E+00 0. -1.
         25    2    1    2    0    0  0.84919745591E+02  0.21331295568E+03  0.51972127419E+03  0.58176569173E+03  0.12500934759E+03 0.  0.
          2    1    1    2  501    0 -0.10066288724E+02 -0.23351231321E+03  0.76117458713E+02  0.24581130591E+03  0.00000000000E+00 0. -1.
          1    1    1    2  502    0 -0.74853456868E+02  0.20199357527E+02  0.12654637705E+04  0.12678365859E+04  0.00000000000E+00 0. -1.
         22    1    3    3    0    0  0.52163393277E+02  0.11384770701E+03  0.41573715072E+03  0.43418855176E+03  0.00000000000E+00 0. -1.
         22    1    3    3    0    0  0.32756352314E+02  0.99465248669E+02  0.10398412346E+03  0.14757713997E+03  0.00000000000E+00 0. -1.
</event>
<event>
 7    1  0.6176857E-006  0.1545570E+03  0.7818608E-02  0.1284085E+00
          2   -1    0    0  502    0  0.00000000000E+00  0.00000000000E+00  0.61691820678E+02  0.61691820678E+02  0.00000000000E+00 0. -1.
          1   -1    0    0  501    0 -0.00000000000E+00 -0.00000000000E+00 -0.16439657018E+04  0.16439657018E+04  0.00000000000E+00 0. -1.
         25    2    1    2    0    0  0.20138873518E+03 -0.45261701808E+01 -0.57590626206E+03  0.62279607000E+03  0.12501605199E+03 0.  0.
          2    1    1    2  501    0 -0.58434535479E+02  0.21940135296E+02 -0.90405310247E+03  0.90620526182E+03  0.00000000000E+00 0. -1.
          1    1    1    2  502    0 -0.14295419970E+03 -0.17413965115E+02 -0.10231451661E+03  0.17665619067E+03  0.00000000000E+00 0. -1.
         22    1    3    3    0    0  0.16509770153E+03  0.49175011846E+02 -0.41896613329E+03  0.45299895550E+03  0.00000000000E+00 0. -1.
         22    1    3    3    0    0  0.36291033648E+02 -0.53701182027E+02 -0.15694012877E+03  0.16979711450E+03  0.00000000000E+00 0. -1.
</event>
<event>
 7    1  0.6176857E-006  0.9286224E+02  0.7818608E-02  0.1474090E+00
          2   -1    0    0  502    0  0.00000000000E+00  0.00000000000E+00  0.18082251444E+04  0.18082251444E+04  0.00000000000E+00 0. -1.
          1   -1    0    0  501    0 -0.00000000000E+00 -0.00000000000E+00 -0.37888216272E+02  0.37888216272E+02  0.00000000000E+00 0. -1.
         25    2    1    2    0    0 -0.43372894117E+02  0.65147829958E+02  0.27524869931E+03  0.31226913388E+03  0.12499887122E+03 0.  0.
          2    1    1    2  501    0  0.56949249921E+01  0.21090281183E+02 -0.11247827022E+02  0.24571238141E+02  0.00000000000E+00 0. -1.
          1    1    1    2  502    0  0.37677969125E+02 -0.86238111142E+02  0.15063360558E+04  0.15092729887E+04  0.00000000000E+00 0. -1.
         22    1    3    3    0    0  0.28873933389E+01  0.18751098206E+02  0.23417116425E+03  0.23493844915E+03  0.00000000000E+00 0.  1.
         22    1    3    3    0    0 -0.46260287456E+02  0.46396731752E+02  0.41077535064E+02  0.77330684723E+02  0.00000000000E+00 0.  1.
</event>
<event>
 7    1  0.6176857E-006  0.7735321E+02  0.7818608E-02  0.1388282E+00
          2   -1    0    0  502    0  0.00000000000E+00  0.00000000000E+00  0.61097981052E+03  0.61097981052E+03  0.00000000000E+00 0. -1.
          1   -1    0    0  501    0 -0.00000000000E+00 -0.00000000000E+00 -0.76446753222E+03  0.76446753222E+03  0.00000000000E+00 0. -1.
         25    2    1    2    0    0 -0.47489885778E+02  0.14287827110E+02  0.19829233646E+02  0.13593135303E+03  0.12499881190E+03 0.  0.
          2    1    1    2  501    0  0.13997754781E+01  0.50214649952E+02 -0.70256738083E+03  0.70436098347E+03  0.00000000000E+00 0. -1.
          1    1    1    2  502    0  0.46090110299E+02 -0.64502477062E+02  0.52925042549E+03  0.53515500623E+03  0.00000000000E+00 0. -1.
         22    1    3    3    0    0  0.20203717745E+02  0.32103728406E+02  0.47390752944E+02  0.60701919680E+02  0.00000000000E+00 0. -1.
         22    1    3    3    0    0 -0.67693603522E+02 -0.17815901296E+02 -0.27561519298E+02  0.75229433355E+02  0.00000000000E+00 0. -1.
</event>
<event>
 7    1  0.6176857E-006  0.4919744E+03  0.7818608E-02  0.1178025E+00
          2   -1    0    0  502    0  0.00000000000E+00  0.00000000000E+00  0.13572262154E+04  0.13572262154E+04  0.00000000000E+00 0. -1.
          1   -1    0    0  501    0 -0.00000000000E+00 -0.00000000000E+00 -0.17601981102E+04  0.17601981102E+04  0.00000000000E+00 0. -1.
         25    2    1    2    0    0  0.30398876471E+03 -0.31572446674E+03  0.29855847007E+03  0.54484281366E+03  0.12500169428E+03 0.  0.
          2    1    1    2  501    0 -0.34155051144E+03  0.36073631823E+03 -0.15983891692E+04  0.16738086448E+04  0.00000000000E+00 0. -1.
          1    1    1    2  502    0  0.37561746732E+02 -0.45011851483E+02  0.89685880442E+03  0.89877286711E+03  0.00000000000E+00 0. -1.
         22    1    3    3    0    0  0.14798436527E+03 -0.70963563235E+02  0.12851805649E+03  0.20845165030E+03  0.00000000000E+00 0.  1.
         22    1    3    3    0    0  0.15600439945E+03 -0.24476090351E+03  0.17004041358E+03  0.33639116336E+03  0.00000000000E+00 0.  1.
</event>
<event>
 7    1  0.6176857E-006  0.6700762E+02  0.7818608E-02  0.1482061E+00
          2   -1    0    0  502    0  0.00000000000E+00  0.00000000000E+00  0.30735011452E+02  0.30735011452E+02  0.00000000000E+00 0. -1.
          1   -1    0    0  501    0 -0.00000000000E+00 -0.00000000000E+00 -0.20286357468E+04  0.20286357468E+04  0.00000000000E+00 0. -1.
         25    2    1    2    0    0  0.32220473515E+02 -0.25036976357E+02 -0.71698103219E+03  0.72893843332E+03  0.12499771977E+03 0.  0.
          2    1    1    2  501    0  0.16900076095E+02 -0.23088631097E+02 -0.12574427316E+04  0.12577682301E+04  0.00000000000E+00 0. -1.
          1    1    1    2  502    0 -0.49120549610E+02  0.48125607454E+02 -0.23476971616E+02  0.72664094869E+02  0.00000000000E+00 0. -1.
         22    1    3    3    0    0  0.58338716342E+02  0.14644960991E+02 -0.59501030673E+03  0.59804276254E+03  0.00000000000E+00 0. -1.
         22    1    3    3    0    0 -0.26118242826E+02 -0.39681937348E+02 -0.12197072546E+03  0.13089567078E+03  0.00000000000E+00 0. -1.
</event>
<event>
 7    1  0.6176857E-006  0.8096372E+02  0.7818608E-02  0.1411868E+00
          2   -1    0    0  502    0  0.00000000000E+00  0.00000000000E+00  0.84063493212E+03  0.84063493212E+03  0.00000000000E+00 0. -1.
          1   -1    0    0  501    0 -0.00000000000E+00 -0.00000000000E+00 -0.32091728939E+03  0.32091728939E+03  0.00000000000E+00 0. -1.
         25    2    1    2    0    0  0.11928146448E+03  0.10148166679E+02  0.11100771738E+02  0.17343710954E+03  0.12500460302E+03 0.  0.
          2    1    1    2  501    0 -0.39779366929E+02 -0.17649235833E+01 -0.23594121953E+03  0.23927760460E+03  0.00000000000E+00 0. -1.
          1    1    1    2  502    0 -0.79502097555E+02 -0.83832430958E+01  0.74455809052E+03  0.74883750737E+03  0.00000000000E+00 0. -1.
         22    1    3    3    0    0  0.77938369474E+02  0.54212192228E+02 -0.30911421066E+02  0.99844214528E+02  0.00000000000E+00 0.  1.
         22    1    3    3    0    0  0.41343095011E+02 -0.44064025549E+02  0.42012192805E+02  0.73592895016E+02  0.00000000000E+00 0.  1.
</event>
<event>
 7    1  0.6176857E-006  0.7141739E+02  0.7818608E-02  0.1500120E+00
          2   -1    0    0  502    0  0.00000000000E+00  0.00000000000E+00  0.19286186786E+04  0.19286186786E+04  0.00000000000E+00 0. -1.
          1   -1    0    0  501    0 -0.00000000000E+00 -0.00000000000E+00 -0.12524805398E+03  0.12524805398E+03  0.00000000000E+00 0. -1.
         25    2    1    2    0    0 -0.44028571757E+02 -0.45296665619E+02 -0.22309530095E+02  0.14182050335E+03  0.12500014796E+03 0.  0.
          2    1    1    2  501    0  0.13565637543E+02 -0.19405475975E+02 -0.39199852555E+02  0.45795496067E+02  0.00000000000E+00 0. -1.
          1    1    1    2  502    0  0.30462934214E+02  0.64702141593E+02  0.18648800073E+04  0.18662507332E+04  0.00000000000E+00 0. -1.
         22    1    3    3    0    0 -0.22185939454E+02  0.43311818684E+02 -0.10679255205E+02  0.49821441558E+02  0.00000000000E+00 0.  1.
         22    1    3    3    0    0 -0.21842632303E+02 -0.88608484303E+02 -0.11630274890E+02  0.91999061791E+02  0.00000000000E+00 0.  1.
</event>
<event>
 7    1  0.6176857E-006  0.9565526E+02  0.7818608E-02  0.1378780E+00
          2   -1    0    0  502    0  0.00000000000E+00  0.00000000000E+00  0.13059630326E+04  0.13059630326E+04  0.00000000000E+00 0. -1.
          1   -1    0    0  501    0 -0.00000000000E+00 -0.00000000000E+00 -0.10657776789E+04  0.10657776789E+04  0.00000000000E+00 0. -1.
         25    2    1    2    0    0  0.89366302897E+02 -0.70386072589E+02  0.44653177893E+03  0.47744782504E+03  0.12500104292E+03 0.  0.
          2    1    1    2  501    0 -0.47357500326E+02  0.83056388238E+02 -0.10475709053E+04  0.10519248539E+04  0.00000000000E+00 0. -1.
          1    1    1    2  502    0 -0.42008802571E+02 -0.12670315649E+02  0.84122448011E+03  0.84236803259E+03  0.00000000000E+00 0. -1.
         22    1    3    3    0    0  0.20934714240E+02  0.28345344151E+02  0.20144774392E+03  0.20450651414E+03  0.00000000000E+00 0.  1.
         22    1    3    3    0    0  0.68431588657E+02 -0.98731416740E+02  0.24508403502E+03  0.27294131090E+03  0.00000000000E+00 0.  1.
</event>
<event>
 7    1  0.6176857E-006  0.5249364E+02  0.7818608E-02  0.1439350E+00
          2   -1    0    0  502    0  0.00000000000E+00  0.00000000000E+00  0.99668949304E+01  0.99668949304E+01  0.00000000000E+00 0. -1.
          1   -1    0    0  501    0 -0.00000000000E+00 -0.00000000000E+00 -0.20592734552E+04  0.20592734552E+04  0.00000000000E+00 0. -1.
         25    2    1    2    0    0  0.28931748534E+02  0.36162530196E+02 -0.12474537519E+04  0.12545550208E+04  0.12499064974E+03 0.  0.
          2    1    1    2  501    0  0.20567000379E+02 -0.53639841054E+02 -0.67444450038E+03  0.67688670998E+03  0.00000000000E+00 0. -1.
          1    1    1    2  502    0 -0.49498748913E+02  0.17477310858E+02 -0.12740830796E+03  0.13779861928E+03  0.00000000000E+00 0. -1.
         22    1    3    3    0    0  0.21469741121E+02 -0.16647029302E+02 -0.10400113749E+04  0.10403661535E+04  0.00000000000E+00 0. -1.
         22    1    3    3    0    0  0.74620074133E+01  0.52809559499E+02 -0.20744237700E+03  0.21418886737E+03  0.00000000000E+00 0. -1.
</event>
<event>
 7    1  0.6176857E-006  0.6098328E+02  0.7818608E-02  0.1457594E+00
          2   -1    0    0  502    0  0.00000000000E+00  0.00000000000E+00  0.68375550431E+03  0.68375550431E+03  0.00000000000E+00 0. -1.
          1   -1    0    0  501    0 -0.00000000000E+00 -0.00000000000E+00 -0.11531067719E+03  0.11531067719E+03  0.00000000000E+00 0. -1.
         25    2    1    2    0    0  0.49067527848E+01 -0.68712886652E+02  0.14322270978E+03  0.20219462120E+03  0.12499753289E+03 0.  0.
          2    1    1    2  501    0 -0.36699373373E+02  0.48895221915E+02 -0.74146054712E+02  0.96100073680E+02  0.00000000000E+00 0. -1.
          1    1    1    2  502    0  0.31792620588E+02  0.19817664737E+02  0.49936817205E+03  0.50077148662E+03  0.00000000000E+00 0. -1.
         22    1    3    3    0    0  0.17307824295E+02  0.21366029982E+02  0.95749131758E+02  0.99619095817E+02  0.00000000000E+00 0.  1.
         22    1    3    3    0    0 -0.12401071511E+02 -0.90078916634E+02  0.47473578023E+02  0.10257552538E+03  0.00000000000E+00 0.  1.
</event>
<event>
 7    1  0.6176857E-006  0.5075669E+02  0.7818608E-02  0.1442811E+00
          2   -1    0    0  502    0  0.00000000000E+00  0.00000000000E+00  0.55482706490E+03  0.55482706490E+03  0.00000000000E+00 0. -1.
          1   -1    0    0  501    0 -0.00000000000E+00 -0.00000000000E+00 -0.68246870983E+03  0.68246870983E+03  0.00000000000E+00 0. -1.
         25    2    1    2    0    0 -0.55602169311E+02 -0.42519368392E+02 -0.92858677952E+02  0.17072840638E+03  0.12500382695E+03 0.  0.
          2    1    1    2  501    0  0.49564806095E+02 -0.78931915576E+01 -0.54827696447E+03  0.55056934372E+03  0.00000000000E+00 0. -1.
          1    1    1    2  502    0  0.60373632159E+01  0.50412559950E+02  0.51349399750E+03  0.51599802463E+03  0.00000000000E+00 0. -1.
         22    1    3    3    0    0 -0.87433086625E+01 -0.64460405368E+02 -0.99172366617E+02  0.11860332039E+03  0.00000000000E+00 0. -1.
         22    1    3    3    0    0 -0.46858860649E+02  0.21941036976E+02  0.63136886653E+01  0.52125085990E+02  0.00000000000E+00 0. -1.
</event>
<event>
 7    1  0.6176857E-006  0.3157687E+03  0.7818608E-02  0.1159869E+00
          2   -1    0    0  502    0  0.00000000000E+00  0.00000000000E+00  0.12827031820E+03  0.12827031820E+03  0.00000000000E+00 0. -1.
          1   -1    0    0  501    0 -0.00000000000E+00 -0.00000000000E+00 -0.16611432125E+04  0.16611432125E+04  0.00000000000E+00 0. -1.
         25    2    1    2    0    0 -0.96606191635E+02  0.28051631184E+03 -0.34229993465E+03  0.46991115106E+03  0.12500034863E+03 0.  0.
          2    1    1    2  501    0  0.20601131677E+03 -0.25446690517E+03 -0.11565588110E+04  0.12020076338E+04  0.00000000000E+00 0. -1.
          1    1    1    2  502    0 -0.10940512514E+03 -0.26049406674E+02 -0.34014148701E+02  0.11749474587E+03  0.00000000000E+00 0. -1.
         22    1    3    3    0    0  0.37666523560E+01  0.16164043326E+03 -0.21423522666E+03  0.26839998077E+03  0.00000000000E+00 0. -1.
         22    1    3    3    0    0 -0.10037284399E+03  0.11887587859E+03 -0.12806470799E+03  0.20151117029E+03  0.00000000000E+00 0. -1.
</event>
<event>
 7    1  0.6176857E-006  0.3204773E+03  0.7818608E-02  0.1173849E+00
          2   -1    0    0  502    0  0.00000000000E+00  0.00000000000E+00  0.35562041985E+04  0.35562041985E+04  0.00000000000E+00 0. -1.
          1   -1    0    0  501    0 -0.00000000000E+00 -0.00000000000E+00 -0.76039975436E+03  0.76039975436E+03  0.00000000000E+00 0. -1.
         25    2    1    2    0    0 -0.11911170583E+03 -0.22606484543E+03  0.65793446547E+03  0.71679522989E+03  0.12499891173E+03 0.  0.
          2    1    1    2  501    0  0.21137485284E+03  0.24582102681E+03 -0.69419710125E+03  0.76617029505E+03  0.00000000000E+00 0. -1.
          1    1    1    2  502    0 -0.92263147012E+02 -0.19756181378E+02  0.28320670800E+04  0.28336384280E+04  0.00000000000E+00 0. -1.
         22    1    3    3    0    0 -0.59181304057E+02 -0.18100098197E+03  0.33569470500E+03  0.38594652115E+03  0.00000000000E+00 0.  1.
         22    1    3    3    0    0 -0.59930401768E+02 -0.45063863462E+02  0.32223976047E+03  0.33084870874E+03  0.00000000000E+00 0.  1.
</event>
<event>
 7    1  0.6176857E-006  0.1417966E+03  0.7818608E-02  0.1263930E+00
          2   -1    0    0  502    0  0.00000000000E+00  0.00000000000E+00  0.18314044836E+04  0.18314044836E+04  0.00000000000E+00 0. -1.
          1   -1    0    0  501    0 -0.00000000000E+00 -0.00000000000E+00 -0.21812080499E+03  0.21812080499E+03  0.00000000000E+00 0. -1.
         25    2    1    2    0    0  0.12438244375E+03  0.11200499033E+03 -0.34315505169E+02  0.21170470160E+03  0.12500086645E+03 0.  0.
          2    1    1    2  501    0 -0.79479402281E+02  0.22384081388E+02 -0.73712621111E+02  0.11068682396E+03  0.00000000000E+00 0. -1.
          1    1    1    2  502    0 -0.44903041468E+02 -0.13438907172E+03  0.17213118049E+04  0.17271337630E+04  0.00000000000E+00 0. -1.
         22    1    3    3    0    0  0.13398020631E+03  0.13107090596E+03 -0.28534718044E+02  0.18959036949E+03  0.00000000000E+00 0.  1.
         22    1    3    3    0    0 -0.95977625588E+01 -0.19065915625E+02 -0.57807871253E+01  0.22114332107E+02  0.00000000000E+00 0.  1.
</event>
<event>
 7    1  0.8700163E-006  0.1762809E+03  0.7818608E-02  0.1260328E+00
          2   -1    0    0  502    0  0.00000000000E+00  0.00000000000E+00  0.19709668267E+04  0.19709668267E+04  0.00000000000E+00 0. -1.
          1   -1    0    0  501    0 -0.00000000000E+00 -0.00000000000E+00 -0.10468124901E+04  0.10468124901E+04  0.00000000000E+00 0. -1.
         25    2    1    2    0    0  0.73017772508E+02 -0.21748485622E+03 -0.23977560315E+03  0.35460861932E+03  0.12499470086E+03 0.  0.
          2    1    1    2  501    0 -0.53782070021E+02  0.42911756678E+02 -0.74399980217E+03  0.74717443449E+03  0.00000000000E+00 0. -1.
          1    1    1    2  502    0 -0.19235702486E+02  0.17457309954E+03  0.19079297420E+04  0.19159962630E+04  0.00000000000E+00 0. -1.
         22    1    3    3    0    0  0.36100938154E+02 -0.19682660885E+03 -0.23977129987E+03  0.31230476770E+03  0.00000000000E+00 0. -1.
         22    1    3    3    0    0  0.36916834353E+02 -0.20658247370E+02 -0.43032763127E-02  0.42303851617E+02  0.00000000000E+00 0. -1.
</event>
<event>
 7    1  0.6176857E-006  0.2705649E+03  0.7818608E-02  0.1215219E+00
          2   -1    0    0  502    0  0.00000000000E+00  0.00000000000E+00  0.14681693930E+04  0.14681693930E+04  0.00000000000E+00 0. -1.
          1   -1    0    0  501    0 -0.00000000000E+00 -0.00000000000E+00 -0.22252580938E+03  0.22252580938E+03  0.00000000000E+00 0. -1.
         25    2    1    2    0    0 -0.18418086025E+03  0.12671472501E+03  0.31344019632E+03  0.40478332381E+03  0.12500228698E+03 0.  0.
          2    1    1    2  501    0  0.25510623416E+03 -0.13005213016E+03 -0.58841254072E+02  0.29232694102E+03  0.00000000000E+00 0. -1.
          1    1    1    2  502    0 -0.70925373909E+02  0.33374051439E+01  0.99104464140E+03  0.99358493758E+03  0.00000000000E+00 0. -1.
         22    1    3    3    0    0 -0.41422950981E+02  0.76604634909E+02  0.19182230046E+03  0.21066543597E+03  0.00000000000E+00 0. -1.
         22    1    3    3    0    0 -0.14275790927E+03  0.50110090103E+02  0.12161789586E+03  0.19411788785E+03  0.00000000000E+00 0. -1.
</event>
<event>
 7    1  0.6176857E-006  0.1696003E+03  0.7818608E-02  0.1235738E+00
          2   -1    0    0  502    0  0.00000000000E+00  0.00000000000E+00  0.38122441610E+04  0.38122441610E+04  0.00000000000E+00 0. -1.
          1   -1    0    0  501    0 -0.00000000000E+00 -0.00000000000E+00 -0.14777905197E+03  0.14777905197E+03  0.00000000000E+00 0. -1.
         25    2    1    2    0    0 -0.12536824276E+03 -0.36874654143E+02  0.70038351006E+03  0.72335166182E+03  0.12499451623E+03 0.  0.
          2    1    1    2  501    0 -0.35277576919E+01 -0.91432412677E+02 -0.11794915014E+03  0.14927937962E+03  0.00000000000E+00 0. -1.
          1    1    1    2  502    0  0.12889600046E+03  0.12830706682E+03  0.30820307491E+04  0.30873921715E+04  0.00000000000E+00 0. -1.
         22    1    3    3    0    0 -0.94456169570E+02  0.22926091329E+02  0.55090854675E+03  0.55941737595E+03  0.00000000000E+00 0.  1.
         22    1    3    3    0    0 -0.30912073193E+02 -0.59800745472E+02  0.14947496331E+03  0.16393428587E+03  0.00000000000E+00 0.  1.
</event>
<event>
 7    1  0.6176857E-006  0.1118498E+03  0.7818608E-02  0.1405506E+00
          2   -1    0    0  502    0  0.00000000000E+00  0.00000000000E+00  0.10442059833E+04  0.10442059833E+04  0.00000000000E+00 0. -1.
          1   -1    0    0  501    0 -0.00000000000E+00 -0.00000000000E+00 -0.25349149179E+03  0.25349149179E+03  0.00000000000E+00 0. -1.
         25    2    1    2    0    0 -0.37748137705E+02  0.78962972496E+02  0.33215716896E+03  0.36552944768E+03  0.12499327704E+03 0.  0.
          2    1    1    2  501    0  0.30995655393E+02 -0.10849370805E+03 -0.22300878246E+03  0.24992905472E+03  0.00000000000E+00 0. -1.
          1    1    1    2  502    0  0.67524823118E+01  0.29530735558E+02  0.68156610498E+03  0.68223897266E+03  0.00000000000E+00 0. -1.
         22    1    3    3    0    0 -0.36510363544E+02 -0.67521308866E+01  0.20740650879E+02  0.42529666311E+02  0.00000000000E+00 0. -1.
         22    1    3    3    0    0 -0.12377741614E+01  0.85715103383E+02  0.31141651808E+03  0.32299978137E+03  0.00000000000E+00 0. -1.
</event>
<event>
 7    1  0.6176857E-006  0.8331536E+02  0.7818608E-02  0.1453061E+00
          2   -1    0    0  502    0  0.00000000000E+00  0.00000000000E+00  0.20965021486E+04  0.20965021486E+04  0.00000000000E+00 0. -1.
          1   -1    0    0  501    0 -0.00000000000E+00 -0.00000000000E+00 -0.57046948161E+03  0.57046948161E+03  0.00000000000E+00 0. -1.
         25    2    1    2    0    0 -0.16534755453E+01  0.58032426562E+02  0.13840650673E+03  0.19532852206E+03  0.12500549552E+03 0.  0.
          2    1    1    2  501    0  0.16492908265E+02 -0.82183384517E+02 -0.53866279634E+03  0.54514560704E+03  0.00000000000E+00 0. -1.
          1    1    1    2  502    0 -0.14839432720E+02  0.24150957955E+02  0.19262889566E+04  0.19264975011E+04  0.00000000000E+00 0. -1.
         22    1    3    3    0    0  0.58615732475E+02  0.29450468892E+02  0.96051263965E+02  0.11631414153E+03  0.00000000000E+00 0.  1.
         22    1    3    3    0    0 -0.60269208021E+02  0.28581957670E+02  0.42355242764E+02  0.79014380522E+02  0.00000000000E+00 0.  1.
</event>
<event>
 7    1  0.6176857E-006  0.9765948E+02  0.7818608E-02  0.1474969E+00
          2   -1    0    0  502    0  0.00000000000E+00  0.00000000000E+00  0.80761612040E+03  0.80761612040E+03  0.00000000000E+00 0. -1.
          1   -1    0    0  501    0 -0.00000000000E+00 -0.00000000000E+00 -0.17782631140E+03  0.17782631140E+03  0.00000000000E+00 0. -1.
         25    2    1    2    0    0  0.11445272779E+03  0.26796850898E+02  0.40423265328E+03  0.43914695376E+03  0.12501404284E+03 0.  0.
          2    1    1    2  501    0 -0.94735623582E+02 -0.20684112385E+02 -0.14539806967E+03  0.17476632841E+03  0.00000000000E+00 0. -1.
          1    1    1    2  502    0 -0.19717104208E+02 -0.61127385123E+01  0.37095522540E+03  0.37152914962E+03  0.00000000000E+00 0. -1.
         22    1    3    3    0    0 -0.22345642217E+02  0.16930010815E+02  0.32508524806E+02  0.42927347662E+02  0.00000000000E+00 0.  1.
         22    1    3    3    0    0  0.13679837001E+03  0.98668400824E+01  0.37172412847E+03  0.39621960610E+03  0.00000000000E+00 0.  1.
</event>
<event>
 7    1  0.6176857E-006  0.4862330E+02  0.7818608E-02  0.1566080E+00
          2   -1    0    0  502    0  0.00000000000E+00  0.00000000000E+00  0.24121073772E+03  0.24121073772E+03  0.00000000000E+00 0. -1.
          1   -1    0    0  501    0 -0.00000000000E+00 -0.00000000000E+00 -0.45509645259E+03  0.45509645259E+03  0.00000000000E+00 0. -1.
         25    2    1    2    0    0 -0.37533085472E+02 -0.31925518639E+02 -0.31664999035E+03  0.34397698156E+03  0.12499990484E+03 0.  0.
          2    1    1    2  501    0  0.48272792781E+02  0.12105658101E+02 -0.11922711210E+03  0.12919718937E+03  0.00000000000E+00 0. -1.
          1    1    1    2  502    0 -0.10739707309E+02  0.19819860538E+02  0.22199138757E+03  0.22313301939E+03  0.00000000000E+00 0. -1.
         22    1    3    3    0    0 -0.13414107424E+02 -0.61333731135E+02 -0.68460988078E+02  0.92890643993E+02  0.00000000000E+00 0.  1.
         22    1    3    3    0    0 -0.24118978048E+02  0.29408212496E+02 -0.24818900227E+03  0.25108633757E+03  0.00000000000E+00 0.  1.
</event>
<event>
 7    1  0.6176857E-006  0.5611085E+02  0.7818608E-02  0.1502467E+00
          2   -1    0    0  502    0  0.00000000000E+00  0.00000000000E+00  0.32860934403E+03  0.32860934403E+03  0.00000000000E+00 0. -1.
          1   -1    0    0  501    0 -0.00000000000E+00 -0.00000000000E+00 -0.25602958522E+03  0.25602958522E+03  0.00000000000E+00 0. -1.
         25    2    1    2    0    0 -0.42045875857E+02  0.33050577266E+02 -0.11400335645E+02  0.13643918106E+03  0.12500194455E+03 0.  0.
          2    1    1    2  501    0  0.22059137504E+02  0.19818912543E+02 -0.17786688002E+03  0.18032199491E+03  0.00000000000E+00 0. -1.
          1    1    1    2  502    0  0.19986738353E+02 -0.52869489809E+02  0.26184697447E+03  0.26787775328E+03  0.00000000000E+00 0. -1.
         22    1    3    3    0    0 -0.61216648485E+01  0.15617731922E+02  0.55802012539E+02  0.58268798977E+02  0.00000000000E+00 0. -1.
         22    1    3    3    0    0 -0.35924211008E+02  0.17432845344E+02 -0.67202348184E+02  0.78170382081E+02  0.00000000000E+00 0. -1.
</event>
<event>
 7    1  0.6176857E-006  0.4583626E+02  0.7818608E-02  0.1487094E+00
          2   -1    0    0  502    0  0.00000000000E+00  0.00000000000E+00  0.16970105439E+03  0.16970105439E+03  0.00000000000E+00 0. -1.
          1   -1    0    0  501    0 -0.00000000000E+00 -0.00000000000E+00 -0.16880829676E+03  0.16880829676E+03  0.00000000000E+00 0. -1.
         25    2    1    2    0    0 -0.41291397990E+02 -0.14779425013E+02 -0.43814679381E+01  0.13253674697E+03  0.12499352417E+03 0.  0.
          2    1    1    2  501    0  0.26765862850E+02 -0.30230731463E+02 -0.90532105327E+02  0.99128051700E+02  0.00000000000E+00 0. -1.
          1    1    1    2  502    0  0.14525535140E+02  0.45010156476E+02  0.95806330886E+02  0.10684455248E+03  0.00000000000E+00 0. -1.
         22    1    3    3    0    0 -0.54280185047E+02  0.12401989480E+02  0.47073714470E+02  0.72911469782E+02  0.00000000000E+00 0.  1.
         22    1    3    3    0    0  0.12988787057E+02 -0.27181414493E+02 -0.51455182408E+02  0.59625277187E+02  0.00000000000E+00 0.  1.
</event>
<event>
 7    1  0.6176857E-006  0.1925430E+03  0.7818608E-02  0.1344228E+00
          2   -1    0    0  502    0  0.00000000000E+00  0.00000000000E+00  0.21506574153E+04  0.21506574153E+04  0.00000000000E+00 0. -1.
          1   -1    0    0  501    0 -0.00000000000E+00 -0.00000000000E+00 -0.37834903458E+03  0.37834903458E+03  0.00000000000E+00 0. -1.
         25    2    1    2    0    0 -0.15399552974E+03  0.13315960291E+03 -0.83207644285E+02  0.25297247141E+03  0.12500182476E+03 0.  0.
          2    1    1    2  501    0  0.15606785657E+03 -0.10410893367E+03 -0.16828512685E+03  0.25202327242E+03  0.00000000000E+00 0. -1.
          1    1    1    2  502    0 -0.20723268293E+01 -0.29050669246E+02  0.20238011519E+04  0.20240107060E+04  0.00000000000E+00 0. -1.
         22    1    3    3    0    0 -0.80625512438E+02 -0.66694820446E+01 -0.31417482658E+02  0.86787173379E+02  0.00000000000E+00 0. -1.
         22    1    3    3    0    0 -0.73370017306E+02  0.13982908496E+03 -0.51790161628E+02  0.16618529803E+03  0.00000000000E+00 0. -1.
</event>
<event>
 7    1  0.6176857E-006  0.1662957E+03  0.7818608E-02  0.1217847E+00
          2   -1    0    0  502    0  0.00000000000E+00  0.00000000000E+00  0.14603288085E+04  0.14603288085E+04  0.00000000000E+00 0. -1.
          1   -1    0    0  501    0 -0.00000000000E+00 -0.00000000000E+00 -0.57871699049E+03  0.57871699049E+03  0.00000000000E+00 0. -1.
         25    2    1    2    0    0 -0.54156282093E+02 -0.19054393625E+03  0.40078466261E+03  0.46421394708E+03  0.12500539329E+03 0.  0.
          2    1    1    2  501    0  0.12819317562E+03  0.10602234303E+03 -0.53117254974E+03  0.55661342518E+03  0.00000000000E+00 0. -1.
          1    1    1    2  502    0 -0.74036893523E+02  0.84521593211E+02  0.10119997051E+04  0.10182184267E+04  0.00000000000E+00 0. -1.
         22    1    3    3    0    0 -0.86220251465E+02 -0.17584632732E+03  0.36341403364E+03  0.41282638293E+03  0.00000000000E+00 0.  1.
         22    1    3    3    0    0  0.32063969373E+02 -0.14697608921E+02  0.37370628968E+02  0.51387564151E+02  0.00000000000E+00 0.  1.
</event>
<event>
 7    1  0.6176857E-006  0.2806044E+03  0.7818608E-02  0.1243324E+00
          2   -1    0    0  502    0  0.00000000000E+00  0.00000000000E+00  0.13838414656E+04  0.13838414656E+04  0.00000000000E+00 0. -1.
          1   -1    0    0  501    0 -0.00000000000E+00 -0.00000000000E+00 -0.40001992071E+03  0.40001992071E+03  0.00000000000E+00 0. -1.
         25    2    1    2    0    0  0.11561295305E+03  0.21056304629E+03  0.39990199120E+03  0.48296366859E+03  0.12501660384E+03 0.  0.
          2    1    1    2  501    0 -0.11508040260E+03 -0.26176041047E+03 -0.30061231574E+03  0.41488525634E+03  0.00000000000E+00 0. -1.
          1    1    1    2  502    0 -0.53255044431E+00  0.51197364179E+02  0.88453186941E+03  0.88601246137E+03  0.00000000000E+00 0. -1.
         22    1    3    3    0    0  0.60270700904E+02  0.82182297145E+01  0.97691585724E+02  0.11508146075E+03  0.00000000000E+00 0. -1.
         22    1    3    3    0    0  0.55342252143E+02  0.20234481657E+03  0.30221040547E+03  0.36788220784E+03  0.00000000000E+00 0. -1.
</event>
<event>
 7    1  0.6176857E-006  0.7626379E+02  0.7818608E-02  0.1343988E+00
          2   -1    0    0  502    0  0.00000000000E+00  0.00000000000E+00  0.18071087311E+04  0.18071087311E+04  0.00000000000E+00 0. -1.
          1   -1    0    0  501    0 -0.00000000000E+00 -0.00000000000E+00 -0.35052716208E+03  0.35052716208E+03  0.00000000000E+00 0. -1.
         25    2    1    2    0    0 -0.19840828715E+02  0.14630010200E+02  0.15221556168E+03  0.19850383552E+03  0.12500599913E+03 0.  0.
          2    1    1    2  501    0 -0.22925443465E+02 -0.74631970120E+02 -0.32188222221E+03  0.33121544635E+03  0.00000000000E+00 0. -1.
          1    1    1    2  502    0  0.42766272180E+02  0.60001959920E+02  0.16262482295E+04  0.16279166113E+04  0.00000000000E+00 0. -1.
         22    1    3    3    0    0  0.10439598685E+02  0.44163016439E+02  0.14936897550E+03  0.15611037148E+03  0.00000000000E+00 0.  1.
         22    1    3    3    0    0 -0.30280427400E+02 -0.29533006239E+02  0.28465861816E+01  0.42393464048E+02  0.00000000000E+00 0.  1.
</event>
<event>
 7    1  0.6176857E-006  0.1031646E+03  0.7818608E-02  0.1309702E+00
          2   -1    0    0  502    0  0.00000000000E+00  0.00000000000E+00  0.19301604306E+04  0.19301604306E+04  0.00000000000E+00 0. -1.
          1   -1    0    0  501    0 -0.00000000000E+00 -0.00000000000E+00 -0.50315752003E+03  0.50315752003E+03  0.00000000000E+00 0. -1.
         25    2    1    2    0    0 -0.53483657317E+02  0.21868496448E+02  0.88883044998E+03  0.89943504717E+03  0.12500041015E+03 0.  0.
          2    1    1    2  501    0  0.96210536421E+02  0.38251880837E+02 -0.49113839675E+03  0.50193286251E+03  0.00000000000E+00 0. -1.
          1    1    1    2  502    0 -0.42726879104E+02 -0.60120377285E+02  0.10293108573E+04  0.10319500409E+04  0.00000000000E+00 0. -1.
         22    1    3    3    0    0 -0.43891820332E+02  0.23806911301E+02  0.88822840581E+03  0.88963080084E+03  0.00000000000E+00 0. -1.
         22    1    3    3    0    0 -0.95918369849E+01 -0.19384148531E+01  0.60204416460E+00  0.98042463282E+01  0.00000000000E+00 0. -1.
</event>
<event>
 7    1  0.6176857E-006  0.9891276E+02  0.7818608E-02  0.1399279E+00
          2   -1    0    0  502    0  0.00000000000E+00  0.00000000000E+00  0.30110038148E+04  0.30110038148E+04  0.00000000000E+00 0. -1.
          1   -1    0    0  501    0 -0.00000000000E+00 -0.00000000000E+00 -0.52223467176E+03  0.52223467176E+03  0.00000000000E+00 0. -1.
         25    2    1    2    0    0  0.54591964430E+02  0.38370329827E+02  0.12285512185E+03  0.18753998773E+03  0.12500120495E+03 0.  0.
          2    1    1    2  501    0  0.35751168838E+02  0.40516428880E+01 -0.48835818262E+03  0.48968181140E+03  0.00000000000E+00 0. -1.
          1    1    1    2  502    0 -0.90343133268E+02 -0.42421972715E+02  0.28542722038E+04  0.28560166874E+04  0.00000000000E+00 0. -1.
         22    1    3    3    0    0  0.27678157799E+02 -0.16283057873E+02 -0.16022564166E+02  0.35887894272E+02  0.00000000000E+00 0.  1.
         22    1    3    3    0    0  0.26913806631E+02  0.54653387699E+02  0.13887768602E+03  0.15165209345E+03  0.00000000000E+00 0.  1.
</event>
<event>
 7    1  0.6176857E-006  0.8554400E+02  0.7818608E-02  0.1314514E+00
          2   -1    0    0  502    0  0.00000000000E+00  0.00000000000E+00  0.33656261158E+04  0.33656261158E+04  0.00000000000E+00 0. -1.
          1   -1    0    0  501    0 -0.00000000000E+00 -0.00000000000E+00 -0.56167964623E+03  0.56167964623E+03  0.00000000000E+00 0. -1.
         25    2    1    2    0    0  0.11495027448E+01  0.82170235468E+02  0.76778053807E+03  0.78221857882E+03  0.12500272583E+03 0.  0.
          2    1    1    2  501    0 -0.77669108476E+02 -0.34926375661E+02 -0.55040459230E+03  0.55695381977E+03  0.00000000000E+00 0. -1.
          1    1    1    2  502    0  0.76519605731E+02 -0.47243859807E+02  0.25865705238E+04  0.25881333635E+04  0.00000000000E+00 0. -1.
         22    1    3    3    0    0 -0.15669364885E+02  0.11313005894E+03  0.60135146391E+03  0.61210090866E+03  0.00000000000E+00 0.  1.
         22    1    3    3    0    0  0.16818867630E+02 -0.30959823469E+02  0.16642907416E+03  0.17011767017E+03  0.00000000000E+00 0.  1.
</event>
<event>
 7    1  0.6176857E-006  0.3643309E+02  0.7818608E-02  0.1554519E+00
          2   -1    0    0  502    0  0.00000000000E+00  0.00000000000E+00  0.41771354753E+03  0.41771354753E+03  0.00000000000E+00 0. -1.
          1   -1    0    0  501    0 -0.00000000000E+00 -0.00000000000E+00 -0.53759264562E+03  0.53759264562E+03  0.00000000000E+00 0. -1.
         25    2    1    2    0    0 -0.41950927495E+02  0.59230005710E+01 -0.11237328351E+03  0.17334532528E+03  0.12500353873E+03 0.  0.
          2    1    1    2  501    0  0.28210106725E+02  0.23387616802E+02 -0.39320338976E+03  0.39490719981E+03  0.00000000000E+00 0. -1.
          1    1    1    2  502    0  0.13740820770E+02 -0.29310617373E+02  0.38569757519E+03  0.38705366805E+03  0.00000000000E+00 0. -1.
         22    1    3    3    0    0 -0.86677459492E+02  0.80778587855E+01 -0.78159772091E+02  0.11699223803E+03  0.00000000000E+00 0. -1.
         22    1    3    3    0    0  0.44726531997E+02 -0.21548582145E+01 -0.34213511423E+02  0.56353087247E+02  0.00000000000E+00 0. -1.
</event>
<event>
 7    1  0.6176857E-006  0.1108538E+03  0.7818608E-02  0.1434986E+00
          2   -1    0    0  502    0  0.00000000000E+00  0.00000000000E+00  0.13131296133E+04  0.13131296133E+04  0.00000000000E+00 0. -1.
          1   -1    0    0  501    0 -0.00000000000E+00 -0.00000000000E+00 -0.30595679121E+04  0.30595679121E+04  0.00000000000E+00 0. -1.
         25    2    1    2    0    0 -0.11633907383E+03  0.53674721179E+02 -0.29732714534E+03  0.34705035740E+03  0.12499905370E+03 0.  0.
          2    1    1    2  501    0  0.92679710560E+02 -0.59501661681E+02 -0.27361559891E+04  0.27383717011E+04  0.00000000000E+00 0. -1.
          1    1    1    2  502    0  0.23659363266E+02  0.58269405026E+01  0.12870448357E+04  0.12872754669E+04  0.00000000000E+00 0. -1.
         22    1    3    3    0    0 -0.69970773046E+02  0.88642175056E+02 -0.14338162313E+03  0.18251475045E+03  0.00000000000E+00 0.  1.
         22    1    3    3    0    0 -0.46368300779E+02 -0.34967453878E+02 -0.15394552221E+03  0.16453560696E+03  0.00000000000E+00 0.  1.
</event>
<event>
 7    1  0.6176857E-006  0.5419930E+02  0.7818608E-02  0.1482979E+00
          2   -1    0    0  502    0  0.00000000000E+00  0.00000000000E+00  0.54804406990E+03  0.54804406990E+03  0.00000000000E+00 0. -1.
          1   -1    0    0  501    0 -0.00000000000E+00 -0.00000000000E+00 -0.16574335423E+03  0.16574335423E+03  0.00000000000E+00 0. -1.
         25    2    1    2    0    0  0.85128813167E+02  0.45746487110E+01  0.27787721873E+03  0.31639971031E+03  0.12500074301E+03 0.  0.
          2    1    1    2  501    0 -0.35027410265E+02 -0.28927379817E+01 -0.14181136357E+03  0.14610184886E+03  0.00000000000E+00 0. -1.
          1    1    1    2  502    0 -0.50101402902E+02 -0.16819107293E+01  0.24623486051E+03  0.25128586496E+03  0.00000000000E+00 0. -1.
         22    1    3    3    0    0  0.22394407514E+02 -0.51761299347E+01 -0.73974162018E+01  0.24145881129E+02  0.00000000000E+00 0.  1.
         22    1    3    3    0    0  0.62734405653E+02  0.97507786458E+01  0.28527463493E+03  0.29225382918E+03  0.00000000000E+00 0.  1.
</event>
<event>
 7    1  0.6176857E-006  0.6936407E+02  0.7818608E-02  0.1399201E+00
          2   -1    0    0  502    0  0.00000000000E+00  0.00000000000E+00  0.10902280442E+03  0.10902280442E+03  0.00000000000E+00 0. -1.
          1   -1    0    0  501    0 -0.00000000000E+00 -0.00000000000E+00 -0.71448908080E+03  0.71448908080E+03  0.00000000000E+00 0. -1.
         25    2    1    2    0    0 -0.91657084911E+02  0.35565909487E+02 -0.53886619911E+03  0.56184415910E+03  0.12500449370E+03 0.  0.
          2    1    1    2  501    0  0.40665801843E+02 -0.41531329553E+02 -0.15160317020E+03  0.16236403539E+03  0.00000000000E+00 0. -1.
          1    1    1    2  502    0  0.50991283068E+02  0.59654200655E+01  0.85003092920E+02  0.99303690724E+02  0.00000000000E+00 0. -1.
         22    1    3    3    0    0 -0.44733443005E+02 -0.46389892953E+02 -0.20660747812E+03  0.21642493643E+03  0.00000000000E+00 0.  1.
         22    1    3    3    0    0 -0.46923641906E+02  0.81955802440E+02 -0.33225872098E+03  0.34541922267E+03  0.00000000000E+00 0.  1.
</event>
<event>
 7    1  0.6176857E-006  0.4777400E+02  0.7818608E-02  0.1489936E+00
          2   -1    0    0  502    0  0.00000000000E+00  0.00000000000E+00  0.16093416708E+04  0.16093416708E+04  0.00000000000E+00 0. -1.
          1   -1    0    0  501    0 -0.00000000000E+00 -0.00000000000E+00 -0.83297868693E+02  0.83297868693E+02  0.00000000000E+00 0. -1.
         25    2    1    2    0    0 -0.93496309884E+01  0.81010528736E+02  0.26290274328E+03  0.30231455002E+03  0.12500445338E+03 0.  0.
          2    1    1    2  501    0  0.16116637703E+02 -0.34388970667E+02 -0.57463937262E+02  0.68879978223E+02  0.00000000000E+00 0. -1.
          1    1    1    2  502    0 -0.67670067143E+01 -0.46621558069E+02  0.13206049961E+04  0.13214450113E+04  0.00000000000E+00 0. -1.
         22    1    3    3    0    0  0.33710178397E+02  0.93076608461E+02  0.13946814674E+03  0.17102922302E+03  0.00000000000E+00 0. -1.
         22    1    3    3    0    0 -0.43059809386E+02 -0.12066079725E+02  0.12343459654E+03  0.13128532701E+03  0.00000000000E+00 0. -1.
</event>
<event>
 7    1  0.6176857E-006  0.2068342E+03  0.7818608E-02  0.1282160E+00
          2   -1    0    0  502    0  0.00000000000E+00  0.00000000000E+00  0.16562549260E+04  0.16562549260E+04  0.00000000000E+00 0. -1.
          1   -1    0    0  501    0 -0.00000000000E+00 -0.00000000000E+00 -0.94720251733E+03  0.94720251733E+03  0.00000000000E+00 0. -1.
         25    2    1    2    0    0 -0.62318115103E+02  0.19045609360E+03  0.82787817624E+03  0.86091213810E+03  0.12502145330E+03 0.  0.
          2    1    1    2  501    0 -0.47143572349E+02 -0.58028105098E+01 -0.91587008482E+03  0.91710097661E+03  0.00000000000E+00 0. -1.
          1    1    1    2  502    0  0.10946168745E+03 -0.18465328309E+03  0.79704431726E+03  0.82544432862E+03  0.00000000000E+00 0. -1.
         22    1    3    3    0    0 -0.38077916965E+02  0.20420244455E+03  0.74828913652E+03  0.77658560246E+03  0.00000000000E+00 0. -1.
         22    1    3    3    0    0 -0.24240198138E+02 -0.13746350944E+02  0.79589039719E+02  0.84326535643E+02  0.00000000000E+00 0. -1.
</event>
<event>
 7    1  0.6176857E-006  0.1167606E+03  0.7818608E-02  0.1301904E+00
          2   -1    0    0  502    0  0.00000000000E+00  0.00000000000E+00  0.32107023641E+02  0.32107023641E+02  0.00000000000E+00 0. -1.
          1   -1    0    0  501    0 -0.00000000000E+00 -0.00000000000E+00 -0.10984278606E+04  0.10984278606E+04  0.00000000000E+00 0. -1.
         25    2    1    2    0    0  0.77693649454E+01  0.11099634998E+03 -0.55542180350E+03  0.58008570279E+03  0.12500196013E+03 0.  0.
          2    1    1    2  501    0 -0.69960602836E+02  0.16045004086E+01 -0.11982295255E+03  0.13876094670E+03  0.00000000000E+00 0. -1.
          1    1    1    2  502    0  0.62191237891E+02 -0.11260085038E+03 -0.39107608093E+03  0.41168823478E+03  0.00000000000E+00 0. -1.
         22    1    3    3    0    0 -0.33097897244E+02 -0.10469275733E+02 -0.18209793557E+03  0.18537727658E+03  0.00000000000E+00 0. -1.
         22    1    3    3    0    0  0.40867262190E+02  0.12146562571E+03 -0.37332386794E+03  0.39470842621E+03  0.00000000000E+00 0. -1.
</event>
<event>
 7    1  0.6176857E-006  0.1309137E+03  0.7818608E-02  0.1386186E+00
          2   -1    0    0  502    0  0.00000000000E+00  0.00000000000E+00  0.18345385867E+04  0.18345385867E+04  0.00000000000E+00 0. -1.
          1   -1    0    0  501    0 -0.00000000000E+00 -0.00000000000E+00 -0.41055833653E+03  0.41055833653E+03  0.00000000000E+00 0. -1.
         25    2    1    2    0    0  0.95138662101E+02 -0.91593497940E+02 -0.20042159090E+03  0.27061990199E+03  0.12500233343E+03 0.  0.
          2    1    1    2  501    0 -0.71519851141E+02  0.11039462862E+03 -0.15017914999E+03  0.19963927526E+03  0.00000000000E+00 0. -1.
          1    1    1    2  502    0 -0.23618810961E+02 -0.18801130675E+02  0.17745809910E+04  0.17748377460E+04  0.00000000000E+00 0. -1.
         22    1    3    3    0    0  0.89415709685E+02 -0.21168246135E+01 -0.76686197215E+02  0.11781520669E+03  0.00000000000E+00 0.  1.
         22    1    3    3    0    0  0.57229524165E+01 -0.89476673327E+02 -0.12373539368E+03  0.15280469529E+03  0.00000000000E+00 0.  1.
</event>
<event>
 7    1  0.6176857E-006  0.7482006E+02  0.7818608E-02  0.1465303E+00
          2   -1    0    0  502    0  0.00000000000E+00  0.00000000000E+00  0.12772060666E+04  0.12772060666E+04  0.00000000000E+00 0. -1.
          1   -1    0    0  501    0 -0.00000000000E+00 -0.00000000000E+00 -0.73175587392E+03  0.73175587392E+03  0.00000000000E+00 0. -1.
         25    2    1    2    0    0  0.23339589087E+02  0.78673162352E+02 -0.98479622997E+02  0.17904590678E+03  0.12499999078E+03 0.  0.
          2    1    1    2  501    0 -0.28589543615E+02 -0.40544039193E+01 -0.59150965748E+03  0.59221404499E+03  0.00000000000E+00 0. -1.
          1    1    1    2  502    0  0.52499545280E+01 -0.74618758433E+02  0.12354394732E+04  0.12377019888E+04  0.00000000000E+00 0. -1.
         22    1    3    3    0    0  0.66707916454E+02  0.26028204021E+02 -0.82021857867E+02  0.10888066261E+03  0.00000000000E+00 0. -1.
         22    1    3    3    0    0 -0.43368327367E+02  0.52644958332E+02 -0.16457765130E+02  0.70165244170E+02  0.00000000000E+00 0. -1.
</event>
<event>
 7    1  0.6176857E-006  0.1168166E+03  0.7818608E-02  0.1255155E+00
          2   -1    0    0  502    0  0.00000000000E+00  0.00000000000E+00  0.99440254512E+02  0.99440254512E+02  0.00000000000E+00 0. -1.
          1   -1    0    0  501    0 -0.00000000000E+00 -0.00000000000E+00 -0.40937294190E+04  0.40937294190E+04  0.00000000000E+00 0. -1.
         25    2    1    2    0    0  0.12998496053E+03  0.32914235772E+02 -0.79834025915E+03  0.81911942689E+03  0.12502011541E+03 0.  0.
          2    1    1    2  501    0 -0.35055720809E+02 -0.10348611024E+03 -0.32443891528E+04  0.32462284660E+04  0.00000000000E+00 0. -1.
          1    1    1    2  502    0 -0.94929239726E+02  0.70571874472E+02  0.48440247483E+02  0.12782178061E+03  0.00000000000E+00 0. -1.
         22    1    3    3    0    0  0.15192224009E+03  0.14356281612E+02 -0.71036276745E+03  0.72656846287E+03  0.00000000000E+00 0. -1.
         22    1    3    3    0    0 -0.21937279551E+02  0.18557954160E+02 -0.87977491698E+02  0.92550964026E+02  0.00000000000E+00 0. -1.
</event>
<event>
 7    1  0.6176857E-006  0.9735929E+02  0.7818608E-02  0.1299800E+00
          2   -1    0    0  502    0  0.00000000000E+00  0.00000000000E+00  0.24148923980E+03  0.24148923980E+03  0.00000000000E+00 0. -1.
          1   -1    0    0  501    0 -0.00000000000E+00 -0.00000000000E+00 -0.11318456626E+04  0.11318456626E+04  0.00000000000E+00 0. -1.
         25    2    1    2    0    0  0.54865850151E+02  0.42089369076E+02  0.26773214380E+02  0.14534017603E+03  0.12500074103E+03 0.  0.
          2    1    1    2  501    0 -0.92711869382E+02  0.34650952193E+02 -0.10582996643E+04  0.10629178514E+04  0.00000000000E+00 0. -1.
          1    1    1    2  502    0  0.37846019231E+02 -0.76740321270E+02  0.14117002719E+03  0.16507687499E+03  0.00000000000E+00 0. -1.
         22    1    3    3    0    0 -0.19464420126E+02  0.61439886231E+02  0.14503195754E+01  0.64465701716E+02  0.00000000000E+00 0. -1.
         22    1    3    3    0    0  0.74330270277E+02 -0.19350517154E+02  0.25322894805E+02  0.80874474310E+02  0.00000000000E+00 0. -1.
</event>
<event>
 7    1  0.6875842E-006  0.7675844E+02  0.7818608E-02  0.1350209E+00
          2   -1    0    0  502    0  0.00000000000E+00  0.00000000000E+00  0.74943532532E+03  0.74943532532E+03  0.00000000000E+00 0. -1.
          1   -1    0    0  501    0 -0.00000000000E+00 -0.00000000000E+00 -0.26213643483E+04  0.26213643483E+04  0.00000000000E+00 0. -1.
         25    2    1    2    0    0 -0.18409590854E+02 -0.10460294368E+03 -0.40305178383E+03  0.43515163558E+03  0.12500206654E+03 0.  0.
          2    1    1    2  501    0  0.57648442818E+02  0.38653558720E+02 -0.21997062917E+04  0.22008010383E+04  0.00000000000E+00 0. -1.
          1    1    1    2  502    0 -0.39238851965E+02  0.65949384962E+02  0.73082905257E+03  0.73484699969E+03  0.00000000000E+00 0. -1.
         22    1    3    3    0    0  0.50373361017E+02 -0.19682401308E+02 -0.11552775701E+03  0.12755992733E+03  0.00000000000E+00 0.  1.
         22    1    3    3    0    0 -0.68782951870E+02 -0.84920542374E+02 -0.28752402682E+03  0.30759170825E+03  0.00000000000E+00 0.  1.
</event>
<event>
 7    1  0.6176857E-006  0.4912256E+02  0.7818608E-02  0.1489462E+00
          2   -1    0    0  502    0  0.00000000000E+00  0.00000000000E+00  0.19333330707E+02  0.19333330707E+02  0.00000000000E+00 0. -1.
          1   -1    0    0  501    0 -0.00000000000E+00 -0.00000000000E+00 -0.14335927874E+04  0.14335927874E+04  0.00000000000E+00 0. -1.
         25    2    1    2    0    0  0.49013683777E+02 -0.46497804991E+02 -0.75627271320E+03  0.76950520872E+03  0.12500184975E+03 0.  0.
          2    1    1    2  501    0 -0.46861884794E+02  0.95024404193E+01 -0.64078272470E+03  0.64256426363E+03  0.00000000000E+00 0. -1.
          1    1    1    2  502    0 -0.21517989826E+01  0.36995364571E+02 -0.17204018759E+02  0.40856645727E+02  0.00000000000E+00 0. -1.
         22    1    3    3    0    0  0.74430888101E+02 -0.55093075850E+02 -0.34049490081E+03  0.35286255339E+03  0.00000000000E+00 0.  1.
         22    1    3    3    0    0 -0.25417204324E+02  0.85952708596E+01 -0.41577781239E+03  0.41664265532E+03  0.00000000000E+00 0.  1.
</event>
<event>
 7    1  0.6176857E-006  0.7386215E+02  0.7818608E-02  0.1404389E+00
          2   -1    0    0  502    0  0.00000000000E+00  0.00000000000E+00  0.57909089065E+03  0.57909089065E+03  0.00000000000E+00 0. -1.
          1   -1    0    0  501    0 -0.00000000000E+00 -0.00000000000E+00 -0.58317408439E+03  0.58317408439E+03  0.00000000000E+00 0. -1.
         25    2    1    2    0    0  0.83556771652E+02  0.47486204823E+02  0.31150506260E+02  0.16072219349E+03  0.12499838281E+03 0.  0.
          2    1    1    2  501    0 -0.39605662529E+02 -0.61974053631E+02 -0.51465970499E+03  0.51988845320E+03  0.00000000000E+00 0. -1.
          1    1    1    2  502    0 -0.43951109123E+02  0.14487848808E+02  0.47942600499E+03  0.48165432835E+03  0.00000000000E+00 0. -1.
         22    1    3    3    0    0  0.13716307557E+02  0.83786435948E+01  0.69947984436E+02  0.71770880502E+02  0.00000000000E+00 0. -1.
         22    1    3    3    0    0  0.69840464096E+02  0.39107561228E+02 -0.38797478176E+02  0.88951312993E+02  0.00000000000E+00 0. -1.
</event>
<event>
 7    1  0.6176857E-006  0.6721222E+02  0.7818608E-02  0.1461048E+00
          2   -1    0    0  502    0  0.00000000000E+00  0.00000000000E+00  0.32951767256E+02  0.32951767256E+02  0.00000000000E+00 0. -1.
          1   -1    0    0  501    0 -0.00000000000E+00 -0.00000000000E+00 -0.14145474993E+04  0.14145474993E+04  0.00000000000E+00 0. -1.
         25    2    1    2    0    0 -0.81440068543E+02 -0.16171526840E+02 -0.12593044132E+04  0.12682147605E+04  0.12500828260E+03 0.  0.
          2    1    1    2  501    0  0.50818065911E+02  0.34785587721E+01 -0.13460692337E+03  0.14392220125E+03  0.00000000000E+00 0. -1.
          1    1    1    2  502    0  0.30622002632E+02  0.12692968067E+02  0.12315604520E+02  0.35362304764E+02  0.00000000000E+00 0. -1.
         22    1    3    3    0    0  0.19703281069E+02 -0.32454509159E+02 -0.57861666460E+03  0.57986098248E+03  0.00000000000E+00 0.  1.
         22    1    3    3    0    0 -0.10114334961E+03  0.16282982320E+02 -0.68068774858E+03  0.68835377805E+03  0.00000000000E+00 0.  1.
</event>
<event>
 7    1  0.6176857E-006  0.1449433E+03  0.7818608E-02  0.1288224E+00
          2   -1    0    0  502    0  0.00000000000E+00  0.00000000000E+00  0.12556830133E+04  0.12556830133E+04  0.00000000000E+00 0. -1.
          1   -1    0    0  501    0 -0.00000000000E+00 -0.00000000000E+00 -0.74128626882E+02  0.74128626882E+02  0.00000000000E+00 0. -1.
         25    2    1    2    0    0 -0.47492110251E+02 -0.84715325115E+02  0.76184604754E+03  0.77811646231E+03  0.12499456754E+03 0.  0.
          2    1    1    2  501    0  0.10807220746E+03  0.10539433853E+03  0.26442778791E+02  0.15325400214E+03  0.00000000000E+00 0. -1.
          1    1    1    2  502    0 -0.60580097213E+02 -0.20679013417E+02  0.39326556012E+03  0.39844117578E+03  0.00000000000E+00 0. -1.
         22    1    3    3    0    0 -0.84328959518E+02 -0.66290089240E+02  0.65274500101E+03  0.66149964904E+03  0.00000000000E+00 0. -1.
         22    1    3    3    0    0  0.36836849267E+02 -0.18425235874E+02  0.10910104654E+03  0.11661681326E+03  0.00000000000E+00 0. -1.
</event>
<event>
 7    1  0.6176857E-006  0.1061380E+03  0.7818608E-02  0.1307678E+00
          2   -1    0    0  502    0  0.00000000000E+00  0.00000000000E+00  0.19538173882E+04  0.19538173882E+04  0.00000000000E+00 0. -1.
          1   -1    0    0  501    0 -0.00000000000E+00 -0.00000000000E+00 -0.19543503302E+02  0.19543503302E+02  0.00000000000E+00 0. -1.
         25    2    1    2    0    0 -0.20759360139E+02 -0.26721536066E+02  0.78784958186E+03  0.79841691444E+03  0.12497045294E+03 0.  0.
          2    1    1    2  501    0 -0.85539008627E+02  0.62835927660E+02  0.25112726570E+03  0.27263561649E+03  0.00000000000E+00 0. -1.
          1    1    1    2  502    0  0.10629836877E+03 -0.36114391594E+02  0.89529703733E+03  0.90230836056E+03  0.00000000000E+00 0. -1.
         22    1    3    3    0    0  0.23625275410E+02  0.31459748961E+02  0.11384609169E+03  0.12045248871E+03  0.00000000000E+00 0. -1.
         22    1    3    3    0    0 -0.44384635550E+02 -0.58181285027E+02  0.67400349017E+03  0.67796442574E+03  0.00000000000E+00 0. -1.
</event>
<event>
 7    1  0.6176857E-006  0.8566611E+02  0.7818608E-02  0.1395499E+00
          2   -1    0    0  502    0  0.00000000000E+00  0.00000000000E+00  0.92980862925E+03  0.92980862925E+03  0.00000000000E+00 0. -1.
          1   -1    0    0  501    0 -0.00000000000E+00 -0.00000000000E+00 -0.48154630959E+03  0.48154630959E+03  0.00000000000E+00 0. -1.
         25    2    1    2    0    0 -0.12570420565E+03  0.18795471578E+02 -0.21498321470E+03  0.27928077272E+03  0.12500060137E+03 0.  0.
          2    1    1    2  501    0  0.42789254676E+02  0.13600206133E+01 -0.23041032165E+03  0.23435376313E+03  0.00000000000E+00 0. -1.
          1    1    1    2  502    0  0.82914950975E+02 -0.20155492191E+02  0.89365585601E+03  0.89772040299E+03  0.00000000000E+00 0. -1.
         22    1    3    3    0    0 -0.60985566281E+01  0.42492690937E+02 -0.15805615759E+02  0.45745367695E+02  0.00000000000E+00 0.  1.
         22    1    3    3    0    0 -0.11960564902E+03 -0.23697219359E+02 -0.19917759894E+03  0.23353540503E+03  0.00000000000E+00 0.  1.
</event>
<event>
 7    1  0.6176857E-006  0.1068099E+03  0.7818608E-02  0.1394468E+00
          2   -1    0    0  502    0  0.00000000000E+00  0.00000000000E+00  0.35265593938E+03  0.35265593938E+03  0.00000000000E+00 0. -1.
          1   -1    0    0  501    0 -0.00000000000E+00 -0.00000000000E+00 -0.21889441374E+04  0.21889441374E+04  0.00000000000E+00 0. -1.
         25    2    1    2    0    0  0.61961063232E+02 -0.12528603911E+03 -0.15102123454E+03  0.24076512572E+03  0.12499867009E+03 0.  0.
          2    1    1    2  501    0 -0.51966148464E+02  0.92140497492E+02 -0.19906686231E+04  0.19934773435E+04  0.00000000000E+00 0. -1.
          1    1    1    2  502    0 -0.99949147676E+01  0.33145541622E+02  0.30540165963E+03  0.30735760761E+03  0.00000000000E+00 0. -1.
         22    1    3    3    0    0  0.95660086529E+02 -0.11868146484E+03 -0.11459781799E+03  0.19070606215E+03  0.00000000000E+00 0. -1.
         22    1    3    3    0    0 -0.33699023297E+02 -0.66045742790E+01 -0.36423416548E+02  0.50059063571E+02  0.00000000000E+00 0. -1.
</event>
<event>
 7    1  0.6176857E-006  0.1206829E+03  0.7818608E-02  0.1397928E+00
          2   -1    0    0  502    0  0.00000000000E+00  0.00000000000E+00  0.22347705713E+03  0.22347705713E+03  0.00000000000E+00 0. -1.
          1   -1    0    0  501    0 -0.00000000000E+00 -0.00000000000E+00 -0.45479767793E+03  0.45479767793E+03  0.00000000000E+00 0. -1.
         25    2    1    2    0    0  0.10494897190E+03 -0.97234223251E+02 -0.83723103774E+02  0.20758244413E+03  0.12494851791E+03 0.  0.
          2    1    1    2  501    0 -0.99255304190E+01  0.28106380484E+02 -0.28690163399E+03  0.28844589157E+03  0.00000000000E+00 0. -1.
          1    1    1    2  502    0 -0.95023441486E+02  0.69127842767E+02  0.13930411697E+03  0.18224639937E+03  0.00000000000E+00 0. -1.
         22    1    3    3    0    0  0.18580353940E+02 -0.96468038700E+02 -0.68785798090E+02  0.11992830384E+03  0.00000000000E+00 0. -1.
         22    1    3    3    0    0  0.86368617965E+02 -0.76618455033E+00 -0.14937305683E+02  0.87654140284E+02  0.00000000000E+00 0. -1.
</event>
<event>
 7    1  0.6176857E-006  0.1292135E+03  0.7818608E-02  0.1323192E+00
          2   -1    0    0  502    0  0.00000000000E+00  0.00000000000E+00  0.18727733960E+03  0.18727733960E+03  0.00000000000E+00 0. -1.
          1   -1    0    0  501    0 -0.00000000000E+00 -0.00000000000E+00 -0.99712161552E+03  0.99712161552E+03  0.00000000000E+00 0. -1.
         25    2    1    2    0    0  0.32953466005E+02 -0.16951267623E+03 -0.89036120266E+02  0.23102833222E+03  0.12500472492E+03 0.  0.
          2    1    1    2  501    0 -0.13052846305E+02  0.50507238353E+02 -0.80471601572E+03  0.80640512392E+03  0.00000000000E+00 0. -1.
          1    1    1    2  502    0 -0.19900619700E+02  0.11900543788E+03  0.83907860069E+02  0.14696549898E+03  0.00000000000E+00 0. -1.
         22    1    3    3    0    0 -0.39079082154E+02 -0.47780647786E+02  0.37884919032E+01  0.61842684577E+02  0.00000000000E+00 0. -1.
         22    1    3    3    0    0  0.72032548159E+02 -0.12173202845E+03 -0.92824612169E+02  0.16918564764E+03  0.00000000000E+00 0. -1.
</event>
<event>
 7    1  0.6176857E-006  0.4484092E+02  0.7818608E-02  0.1565624E+00
          2   -1    0    0  502    0  0.00000000000E+00  0.00000000000E+00  0.39859136208E+03  0.39859136208E+03  0.00000000000E+00 0. -1.
          1   -1    0    0  501    0 -0.00000000000E+00 -0.00000000000E+00 -0.36144072371E+02  0.36144072371E+02  0.00000000000E+00 0. -1.
         25    2    1    2    0    0  0.16892396828E+01  0.37264294478E+02  0.19233466998E+03  0.23239834641E+03  0.12499953986E+03 0.  0.
          2    1    1    2  501    0 -0.24228355976E+02  0.37336610685E+01 -0.14035732247E+01  0.24554500118E+02  0.00000000000E+00 0. -1.
          1    1    1    2  502    0  0.22539116293E+02 -0.40997955547E+02  0.17151619295E+03  0.17778258792E+03  0.00000000000E+00 0. -1.
         22    1    3    3    0    0  0.36326678854E+02  0.15464433681E+02  0.40174797955E+01  0.39685217015E+02  0.00000000000E+00 0. -1.
         22    1    3    3    0    0 -0.34637439171E+02  0.21799860797E+02  0.18831719018E+03  0.19271312940E+03  0.00000000000E+00 0. -1.
</event>
<event>
 7    1  0.6176857E-006  0.6999418E+02  0.7818608E-02  0.1524828E+00
          2   -1    0    0  502    0  0.00000000000E+00  0.00000000000E+00  0.32394626186E+03  0.32394626186E+03  0.00000000000E+00 0. -1.
          1   -1    0    0  501    0 -0.00000000000E+00 -0.00000000000E+00 -0.59784449076E+02  0.59784449076E+02  0.00000000000E+00 0. -1.
         25    2    1    2    0    0 -0.66859807511E+02 -0.36571195777E+01  0.11641654940E+03  0.18347176064E+03  0.12500186237E+03 0.  0.
          2    1    1    2  501    0  0.69786701454E+02 -0.16576685255E+02  0.25209730132E+02  0.76029604019E+02  0.00000000000E+00 0. -1.
          1    1    1    2  502    0 -0.29268939436E+01  0.20233804832E+02  0.12253553326E+03  0.12422934628E+03  0.00000000000E+00 0. -1.
         22    1    3    3    0    0 -0.20166923172E+02  0.53514708253E+02  0.86777775012E+02  0.10392743154E+03  0.00000000000E+00 0. -1.
         22    1    3    3    0    0 -0.46692884339E+02 -0.57171827831E+02  0.29638774384E+02  0.79544329103E+02  0.00000000000E+00 0. -1.
</event>
<event>
 7    1  0.6176857E-006  0.3644271E+03  0.7818608E-02  0.1100337E+00
          2   -1    0    0  502    0  0.00000000000E+00  0.00000000000E+00  0.12694489602E+04  0.12694489602E+04  0.00000000000E+00 0. -1.
          1   -1    0    0  501    0 -0.00000000000E+00 -0.00000000000E+00 -0.46892524225E+03  0.46892524225E+03  0.00000000000E+00 0. -1.
         25    2    1    2    0    0 -0.21632389415E+03  0.20067363045E+03  0.18321990356E+03  0.36913502381E+03  0.12500079842E+03 0.  0.
          2    1    1    2  501    0 -0.17877110968E+03 -0.95111208089E+02 -0.30169655801E+03  0.36335391105E+03  0.00000000000E+00 0. -1.
          1    1    1    2  502    0  0.39509500383E+03 -0.10556242236E+03  0.91900037239E+03  0.10058852676E+04  0.00000000000E+00 0. -1.
         22    1    3    3    0    0 -0.14576923729E+02 -0.17417395966E+02  0.72732530346E+01  0.23848534491E+02  0.00000000000E+00 0. -1.
         22    1    3    3    0    0 -0.20174697042E+03  0.21809102642E+03  0.17594665053E+03  0.34528648932E+03  0.00000000000E+00 0. -1.
</event>
<event>
 7    1  0.6176857E-006  0.2905390E+03  0.7818608E-02  0.1271046E+00
          2   -1    0    0  502    0  0.00000000000E+00  0.00000000000E+00  0.16871814776E+04  0.16871814776E+04  0.00000000000E+00 0. -1.
          1   -1    0    0  501    0 -0.00000000000E+00 -0.00000000000E+00 -0.95023458347E+03  0.95023458347E+03  0.00000000000E+00 0. -1.
         25    2    1    2    0    0  0.30594698206E+03  0.11616266300E+03 -0.49882940245E+03  0.60955143101E+03  0.12499941675E+03 0.  0.
          2    1    1    2  501    0 -0.35693974678E+02 -0.11846994454E+02 -0.38225751318E+03  0.38410313392E+03  0.00000000000E+00 0. -1.
          1    1    1    2  502    0 -0.27025300738E+03 -0.10431566855E+03  0.16180338098E+04  0.16437614962E+04  0.00000000000E+00 0. -1.
         22    1    3    3    0    0  0.31215000174E+03  0.10014523768E+03 -0.49168314573E+03  0.59094755098E+03  0.00000000000E+00 0.  1.
         22    1    3    3    0    0 -0.62030196757E+01  0.16017425323E+02 -0.71462567218E+01  0.18603880031E+02  0.00000000000E+00 0.  1.
</event>
<event>
 7    1  0.6176857E-006  0.1435075E+03  0.7818608E-02  0.1313961E+00
          2   -1    0    0  502    0  0.00000000000E+00  0.00000000000E+00  0.13899316229E+04  0.13899316229E+04  0.00000000000E+00 0. -1.
          1   -1    0    0  501    0 -0.00000000000E+00 -0.00000000000E+00 -0.21852349398E+03  0.21852349398E+03  0.00000000000E+00 0. -1.
         25    2    1    2    0    0 -0.17911559896E+03  0.20559679936E+01  0.80212997268E+02  0.23269051995E+03  0.12499651335E+03 0.  0.
          2    1    1    2  501    0  0.13457778689E+03  0.22827287845E+02 -0.10887994592E+03  0.17460557958E+03  0.00000000000E+00 0. -1.
          1    1    1    2  502    0  0.44537812069E+02 -0.24883255839E+02  0.12000750776E+04  0.12011590173E+04  0.00000000000E+00 0. -1.
         22    1    3    3    0    0 -0.87348511995E+02  0.56328107448E+02  0.70594105222E+02  0.12564293028E+03  0.00000000000E+00 0. -1.
         22    1    3    3    0    0 -0.91767086965E+02 -0.54272139455E+02  0.96188920454E+01  0.10704758967E+03  0.00000000000E+00 0. -1.
</event>
<event>
 7    1  0.6176857E-006  0.6733703E+02  0.7818608E-02  0.1411554E+00
          2   -1    0    0  502    0  0.00000000000E+00  0.00000000000E+00  0.12776694177E+04  0.12776694177E+04  0.00000000000E+00 0. -1.
          1   -1    0    0  501    0 -0.00000000000E+00 -0.00000000000E+00 -0.88203491039E+03  0.88203491039E+03  0.00000000000E+00 0. -1.
         25    2    1    2    0    0 -0.46408607554E+02  0.44596655346E+02  0.28756818047E+03  0.32009945513E+03  0.12500232890E+03 0.  0.
          2    1    1    2  501    0  0.67407778921E+02 -0.14409155227E+01 -0.86386358661E+03  0.86649072769E+03  0.00000000000E+00 0. -1.
          1    1    1    2  502    0 -0.20999171367E+02 -0.43155739824E+02  0.97192991347E+03  0.97311414530E+03  0.00000000000E+00 0. -1.
         22    1    3    3    0    0  0.15034309289E+02  0.56612188812E+02  0.22135711522E+03  0.22897585645E+03  0.00000000000E+00 0.  1.
         22    1    3    3    0    0 -0.61442916843E+02 -0.12015533466E+02  0.66211065249E+02  0.91123598679E+02  0.00000000000E+00 0.  1.
</event>
<event>
 7    1  0.6176857E-006  0.4214985E+02  0.7818608E-02  0.1498349E+00
          2   -1    0    0  502    0  0.00000000000E+00  0.00000000000E+00  0.26576268967E+04  0.26576268967E+04  0.00000000000E+00 0. -1.
          1   -1    0    0  501    0 -0.00000000000E+00 -0.00000000000E+00 -0.22407096100E+03  0.22407096100E+03  0.00000000000E+00 0. -1.
         25    2    1    2    0    0  0.20650373668E+02 -0.53614031519E+02 -0.44367820234E+02  0.14454879152E+03  0.12499978939E+03 0.  0.
          2    1    1    2  501    0 -0.37710155167E+02  0.15068033900E+02 -0.12625707377E+03  0.13262710931E+03  0.00000000000E+00 0. -1.
          1    1    1    2  502    0  0.17059781499E+02  0.38545997619E+02  0.26041808297E+04  0.26045219569E+04  0.00000000000E+00 0. -1.
         22    1    3    3    0    0  0.15074758384E+02 -0.89144171928E+02 -0.56476874281E+02  0.10660004248E+03  0.00000000000E+00 0.  1.
         22    1    3    3    0    0  0.55756152842E+01  0.35530140409E+02  0.12109054047E+02  0.37948749034E+02  0.00000000000E+00 0.  1.
</event>
<event>
 7    1  0.6176857E-006  0.3602173E+02  0.7818608E-02  0.1549621E+00
          2   -1    0    0  502    0  0.00000000000E+00  0.00000000000E+00  0.45712335655E+03  0.45712335655E+03  0.00000000000E+00 0. -1.
          1   -1    0    0  501    0 -0.00000000000E+00 -0.00000000000E+00 -0.43013201453E+03  0.43013201453E+03  0.00000000000E+00 0. -1.
         25    2    1    2    0    0 -0.61974011976E+01 -0.39082160705E+02 -0.86114770036E+02  0.15686476691E+03  0.12499991365E+03 0.  0.
          2    1    1    2  501    0 -0.25090371257E+02  0.26334905563E+02 -0.30688988686E+03  0.30903795339E+03  0.00000000000E+00 0. -1.
          1    1    1    2  502    0  0.31287772454E+02  0.12747255142E+02  0.41999599891E+03  0.42135265078E+03  0.00000000000E+00 0. -1.
         22    1    3    3    0    0 -0.51408807676E+02  0.17387690221E+00  0.68855411690E+00  0.51413712632E+02  0.00000000000E+00 0. -1.
         22    1    3    3    0    0  0.45211406478E+02 -0.39256037607E+02 -0.86803324153E+02  0.10545105428E+03  0.00000000000E+00 0. -1.
</event>
<event>
 7    1  0.6176857E-006  0.9700167E+02  0.7818608E-02  0.1365824E+00
          2   -1    0    0  502    0  0.00000000000E+00  0.00000000000E+00  0.79515212780E+03  0.79515212780E+03  0.00000000000E+00 0. -1.
          1   -1    0    0  501    0 -0.00000000000E+00 -0.00000000000E+00 -0.38054260289E+03  0.38054260289E+03  0.00000000000E+00 0. -1.
         25    2    1    2    0    0  0.26822217717E+02 -0.54862689895E+02 -0.13294831466E+02  0.13975631461E+03  0.12500291526E+03 0.  0.
          2    1    1    2  501    0 -0.20254915861E+02 -0.43682270482E+02 -0.29874885341E+03  0.30260416353E+03  0.00000000000E+00 0. -1.
          1    1    1    2  502    0 -0.65673018560E+01  0.98544960377E+02  0.72665320979E+03  0.73333425255E+03  0.00000000000E+00 0. -1.
         22    1    3    3    0    0 -0.19398366661E+02 -0.30867955629E+02  0.47388974459E+02  0.59789984229E+02  0.00000000000E+00 0. -1.
         22    1    3    3    0    0  0.46220584378E+02 -0.23994734266E+02 -0.60683805926E+02  0.79966330379E+02  0.00000000000E+00 0. -1.
</event>
<event>
 7    1  0.6176857E-006  0.9105786E+02  0.7818608E-02  0.1345899E+00
          2   -1    0    0  502    0  0.00000000000E+00  0.00000000000E+00  0.29901879540E+03  0.29901879540E+03  0.00000000000E+00 0. -1.
          1   -1    0    0  501    0 -0.00000000000E+00 -0.00000000000E+00 -0.32678285100E+03  0.32678285100E+03  0.00000000000E+00 0. -1.
         25    2    1    2    0    0 -0.17878338591E+02  0.58796385728E+02 -0.55414307364E+02  0.14991027978E+03  0.12500278620E+03 0.  0.
          2    1    1    2  501    0  0.53230475034E+02  0.29184674420E+02 -0.21075443024E+03  0.21932318290E+03  0.00000000000E+00 0. -1.
          1    1    1    2  502    0 -0.35352136443E+02 -0.87981060148E+02  0.23840468200E+03  0.25656818372E+03  0.00000000000E+00 0. -1.
         22    1    3    3    0    0  0.43805454282E+02  0.19296452320E+02  0.13085818283E+02  0.49623679197E+02  0.00000000000E+00 0.  1.
         22    1    3    3    0    0 -0.61683792873E+02  0.39499933408E+02 -0.68500125647E+02  0.10028660058E+03  0.00000000000E+00 0.  1.
</event>
<event>
 7    1  0.6176857E-006  0.9282623E+02  0.7818608E-02  0.1411205E+00
          2   -1    0    0  502    0  0.00000000000E+00  0.00000000000E+00  0.21235970782E+03  0.21235970782E+03  0.00000000000E+00 0. -1.
          1   -1    0    0  501    0 -0.00000000000E+00 -0.00000000000E+00 -0.74116926920E+03  0.74116926920E+03  0.00000000000E+00 0. -1.
         25    2    1    2    0    0  0.43578212296E+02 -0.51021877823E+02  0.89509315820E+02  0.16775011680E+03  0.12500356580E+03 0.  0.
          2    1    1    2  501    0 -0.78487524162E+02  0.50848168794E+02 -0.69513749880E+03  0.70140000710E+03  0.00000000000E+00 0. -1.
          1    1    1    2  502    0  0.34909311866E+02  0.17370902818E+00  0.76818621601E+02  0.84378853124E+02  0.00000000000E+00 0. -1.
         22    1    3    3    0    0  0.61578015261E+02  0.52841568200E+01  0.16134242187E+01  0.61825378401E+02  0.00000000000E+00 0.  1.
         22    1    3    3    0    0 -0.17999802965E+02 -0.56306034643E+02  0.87895891602E+02  0.10592473840E+03  0.00000000000E+00 0.  1.
</event>
<event>
 7    1  0.6176857E-006  0.9137011E+02  0.7818608E-02  0.1307209E+00
          2   -1    0    0  502    0  0.00000000000E+00  0.00000000000E+00  0.37653699750E+03  0.37653699750E+03  0.00000000000E+00 0. -1.
          1   -1    0    0  501    0 -0.00000000000E+00 -0.00000000000E+00 -0.16592637067E+03  0.16592637067E+03  0.00000000000E+00 0. -1.
         25    2    1    2    0    0 -0.48203927029E+02  0.35552313828E+02  0.10364326670E+03  0.17307286546E+03  0.12499881770E+03 0.  0.
          2    1    1    2  501    0 -0.59881971398E+02 -0.60589177507E+02 -0.10194068813E+03  0.13284879686E+03  0.00000000000E+00 0. -1.
          1    1    1    2  502    0  0.10808589843E+03  0.25036863679E+02  0.20890804825E+03  0.23654170585E+03  0.00000000000E+00 0. -1.
         22    1    3    3    0    0 -0.35579934468E+02  0.13038936652E+02  0.13046032516E+03  0.13585228024E+03  0.00000000000E+00 0. -1.
         22    1    3    3    0    0 -0.12623992562E+02  0.22513377176E+02 -0.26817058453E+02  0.37220585221E+02  0.00000000000E+00 0. -1.
</event>
<event>
 7    1  0.6176857E-006  0.8801039E+02  0.7818608E-02  0.1408664E+00
          2   -1    0    0  502    0  0.00000000000E+00  0.00000000000E+00  0.10243909880E+04  0.10243909880E+04  0.00000000000E+00 0. -1.
          1   -1    0    0  501    0 -0.00000000000E+00 -0.00000000000E+00 -0.10785567813E+03  0.10785567813E+03  0.00000000000E+00 0. -1.
         25    2    1    2    0    0 -0.79744929742E+02  0.50590010911E+02  0.29359635458E+03  0.33278042468E+03  0.12500155440E+03 0.  0.
          2    1    1    2  501    0  0.86990288884E+02 -0.13738117824E+02 -0.65655391421E+02  0.10984842586E+03  0.00000000000E+00 0. -1.
          1    1    1    2  502    0 -0.72453591425E+01 -0.36851893087E+02  0.68859434674E+03  0.68961781562E+03  0.00000000000E+00 0. -1.
         22    1    3    3    0    0 -0.27436950588E+02 -0.16182867087E+02  0.53337647957E+01  0.32297375924E+02  0.00000000000E+00 0.  1.
         22    1    3    3    0    0 -0.52307979154E+02  0.66772877998E+02  0.28826258978E+03  0.30048304875E+03  0.00000000000E+00 0.  1.
</event>
<event>
 7    1  0.1337666E-005  0.7501439E+02  0.7818608E-02  0.1355909E+00
          2   -1    0    0  502    0  0.00000000000E+00  0.00000000000E+00  0.12170945830E+04  0.12170945830E+04  0.00000000000E+00 0. -1.
          1   -1    0    0  501    0 -0.00000000000E+00 -0.00000000000E+00 -0.19224509065E+04  0.19224509065E+04  0.00000000000E+00 0. -1.
         25    2    1    2    0    0 -0.60731032129E+01 -0.99493488932E+00 -0.65027735796E+03  0.66221139452E+03  0.12500166509E+03 0.  0.
          2    1    1    2  501    0  0.76691449741E+02  0.26297259857E+02 -0.12637447379E+04  0.12663427210E+04  0.00000000000E+00 0. -1.
          1    1    1    2  502    0 -0.70618346528E+02 -0.25302324968E+02  0.12086657724E+04  0.12109913740E+04  0.00000000000E+00 0. -1.
         22    1    3    3    0    0 -0.25578786907E+02 -0.28154275612E+02 -0.60353360449E+02  0.71340491254E+02  0.00000000000E+00 0.  1.
         22    1    3    3    0    0  0.19505683694E+02  0.27159340722E+02 -0.58992399751E+03  0.59087090326E+03  0.00000000000E+00 0.  1.
</event>
<event>
 7    1  0.6176857E-006  0.1149161E+03  0.7818608E-02  0.1328666E+00
          2   -1    0    0  502    0  0.00000000000E+00  0.00000000000E+00  0.13633877962E+03  0.13633877962E+03  0.00000000000E+00 0. -1.
          1   -1    0    0  501    0 -0.00000000000E+00 -0.00000000000E+00 -0.37855615001E+03  0.37855615001E+03  0.00000000000E+00 0. -1.
         25    2    1    2    0    0  0.63000088938E+02  0.61034555121E+02 -0.50616220956E+02  0.16087841340E+03  0.12500253578E+03 0.  0.
          2    1    1    2  501    0 -0.11599468211E+03 -0.43302834170E+02 -0.24639410953E+03  0.27575343866E+03  0.00000000000E+00 0. -1.
          1    1    1    2  502    0  0.52994593175E+02 -0.17731720951E+02  0.54792960095E+02  0.78263077563E+02  0.00000000000E+00 0. -1.
         22    1    3    3    0    0 -0.16069737871E+02 -0.28765949842E+02 -0.13439832698E+02  0.35585747828E+02  0.00000000000E+00 0.  1.
         22    1    3    3    0    0  0.79069826809E+02  0.89800504963E+02 -0.37176388258E+02  0.12529266558E+03  0.00000000000E+00 0.  1.
</event>
<event>
 7    1  0.6176857E-006  0.7897046E+02  0.7818608E-02  0.1476865E+00
          2   -1    0    0  502    0  0.00000000000E+00  0.00000000000E+00  0.49301201305E+03  0.49301201305E+03  0.00000000000E+00 0. -1.
          1   -1    0    0  501    0 -0.00000000000E+00 -0.00000000000E+00 -0.59262579158E+02  0.59262579158E+02  0.00000000000E+00 0. -1.
         25    2    1    2    0    0  0.57284374637E+02 -0.62805527195E+02  0.13818224378E+03  0.20480710916E+03  0.12500234255E+03 0.  0.
          2    1    1    2  501    0  0.10408094951E+02  0.22935561691E+02 -0.13496762333E+02  0.28575006982E+02  0.00000000000E+00 0. -1.
          1    1    1    2  502    0 -0.67692469587E+02  0.39869965504E+02  0.30906395245E+03  0.31889247607E+03  0.00000000000E+00 0. -1.
         22    1    3    3    0    0  0.64790613546E+02 -0.81631280523E+02  0.52375005073E+02  0.11663889025E+03  0.00000000000E+00 0. -1.
         22    1    3    3    0    0 -0.75062389094E+01  0.18825753328E+02  0.85807238704E+02  0.88168218905E+02  0.00000000000E+00 0. -1.
</event>
<event>
 7    1  0.6176857E-006  0.8696429E+02  0.7818608E-02  0.1428811E+00
          2   -1    0    0  502    0  0.00000000000E+00  0.00000000000E+00  0.64885538016E+03  0.64885538016E+03  0.00000000000E+00 0. -1.
          1   -1    0    0  501    0 -0.00000000000E+00 -0.00000000000E+00 -0.47882885324E+03  0.47882885324E+03  0.00000000000E+00 0. -1.
         25    2    1    2    0    0  0.30966706076E+02  0.10371924059E+03  0.27246264364E+03  0.31871332730E+03  0.12500270025E+03 0.  0.
          2    1    1    2  501    0 -0.24820124928E+02 -0.21049468943E+02 -0.45024487719E+03  0.45141950354E+03  0.00000000000E+00 0. -1.
          1    1    1    2  502    0 -0.61465811478E+01 -0.82669771652E+02  0.34780876048E+03  0.35755140256E+03  0.00000000000E+00 0. -1.
         22    1    3    3    0    0 -0.23892633170E+02  0.82845041234E+01  0.47293987860E+00  0.25292579949E+02  0.00000000000E+00 0. -1.
         22    1    3    3    0    0  0.54859339246E+02  0.95434736471E+02  0.27198970376E+03  0.29342074736E+03  0.00000000000E+00 0. -1.
</event>
<event>
 7    1  0.6176857E-006  0.5161407E+02  0.7818608E-02  0.1437459E+00
          2   -1    0    0  502    0  0.00000000000E+00  0.00000000000E+00  0.71863631521E+03  0.71863631521E+03  0.00000000000E+00 0. -1.
          1   -1    0    0  501    0 -0.00000000000E+00 -0.00000000000E+00 -0.39855942321E+03  0.39855942321E+03  0.00000000000E+00 0. -1.
         25    2    1    2    0    0  0.98576317312E+01  0.64632286617E+02  0.14880751787E+02  0.14185044549E+03  0.12500242692E+03 0.  0.
          2    1    1    2  501    0 -0.44467104695E+02 -0.26672039517E+02 -0.33202871522E+03  0.33605325296E+03  0.00000000000E+00 0. -1.
          1    1    1    2  502    0  0.34609472964E+02 -0.37960247100E+02  0.63722485544E+03  0.63929203997E+03  0.00000000000E+00 0. -1.
         22    1    3    3    0    0 -0.50371714403E+02  0.39715857486E+02 -0.20939013967E+02  0.67476671922E+02  0.00000000000E+00 0.  1.
         22    1    3    3    0    0  0.60229346135E+02  0.24916429131E+02  0.35819765754E+02  0.74373773570E+02  0.00000000000E+00 0.  1.
</event>
<event>
 7    1  0.6176857E-006  0.1383709E+03  0.7818608E-02  0.1314898E+00
          2   -1    0    0  502    0  0.00000000000E+00  0.00000000000E+00  0.13676042039E+04  0.13676042039E+04  0.00000000000E+00 0. -1.
          1   -1    0    0  501    0 -0.00000000000E+00 -0.00000000000E+00 -0.74033613331E+03  0.74033613331E+03  0.00000000000E+00 0. -1.
         25    2    1    2    0    0  0.37385468960E+02 -0.15723629086E+03 -0.25088062588E+03  0.32355382921E+03  0.12500027002E+03 0.  0.
          2    1    1    2  501    0 -0.68260330047E+02  0.11481599207E+03 -0.44274268713E+03  0.46245353464E+03  0.00000000000E+00 0. -1.
          1    1    1    2  502    0  0.30874861087E+02  0.42420298786E+02  0.13208913836E+04  0.13219329733E+04  0.00000000000E+00 0. -1.
         22    1    3    3    0    0  0.44656991227E+02 -0.13877442097E+03 -0.11352262551E+03  0.18477005516E+03  0.00000000000E+00 0. -1.
         22    1    3    3    0    0 -0.72715222675E+01 -0.18461869889E+02 -0.13735800037E+03  0.13878377405E+03  0.00000000000E+00 0. -1.
</event>
<event>
 7    1  0.6176857E-006  0.1127606E+03  0.7818608E-02  0.1400032E+00
          2   -1    0    0  502    0  0.00000000000E+00  0.00000000000E+00  0.62112310595E+03  0.62112310595E+03  0.00000000000E+00 0. -1.
          1   -1    0    0  501    0 -0.00000000000E+00 -0.00000000000E+00 -0.91495117169E+02  0.91495117169E+02  0.00000000000E+00 0. -1.
         25    2    1    2    0    0 -0.76719945207E+02 -0.53720333372E+02  0.34676860720E+03  0.38032203436E+03  0.12499823467E+03 0.  0.
          2    1    1    2  501    0  0.10660314836E+03  0.44164480162E+02 -0.28307816129E+02  0.11881104747E+03  0.00000000000E+00 0. -1.
          1    1    1    2  502    0 -0.29883203150E+02  0.95558532096E+01  0.21116719771E+03  0.21348514129E+03  0.00000000000E+00 0. -1.
         22    1    3    3    0    0 -0.21042574361E+02 -0.88019742473E+02  0.21280759003E+03  0.23125167107E+03  0.00000000000E+00 0.  1.
         22    1    3    3    0    0 -0.55677370845E+02  0.34299409101E+02  0.13396101717E+03  0.14907036328E+03  0.00000000000E+00 0.  1.
</event>
<event>
 7    1  0.6176857E-006  0.8673506E+02  0.7818608E-02  0.1323105E+00
          2   -1    0    0  502    0  0.00000000000E+00  0.00000000000E+00  0.46624304263E+03  0.46624304263E+03  0.00000000000E+00 0. -1.
          1   -1    0    0  501    0 -0.00000000000E+00 -0.00000000000E+00 -0.17740975684E+04  0.17740975684E+04  0.00000000000E+00 0. -1.
         25    2    1    2    0    0 -0.65462352831E+02  0.16308192042E+01  0.38391032756E+02  0.14622737757E+03  0.12498238014E+03 0.  0.
          2    1    1    2  501    0  0.42962420103E+02 -0.76080094495E+02 -0.17150111148E+04  0.17172352996E+04  0.00000000000E+00 0. -1.
          1    1    1    2  502    0  0.22499932728E+02  0.74449275291E+02  0.36876555626E+03  0.37687793388E+03  0.00000000000E+00 0. -1.
         22    1    3    3    0    0 -0.42308478470E+02 -0.18992251590E+01 -0.43703415022E+02  0.60857233681E+02  0.00000000000E+00 0. -1.
         22    1    3    3    0    0 -0.23153874361E+02  0.35300443631E+01  0.82094447778E+02  0.85370143886E+02  0.00000000000E+00 0. -1.
</event>
<event>
 7    1  0.6176857E-006  0.4274866E+02  0.7818608E-02  0.1549730E+00
          2   -1    0    0  502    0  0.00000000000E+00  0.00000000000E+00  0.10860816605E+02  0.10860816605E+02  0.00000000000E+00 0. -1.
          1   -1    0    0  501    0 -0.00000000000E+00 -0.00000000000E+00 -0.20491093032E+04  0.20491093032E+04  0.00000000000E+00 0. -1.
         25    2    1    2    0    0 -0.38835945917E+02  0.14938529374E+02 -0.69784729317E+03  0.71017511888E+03  0.12500585798E+03 0.  0.
          2    1    1    2  501    0  0.16522213686E+02  0.23158981868E+02 -0.12374371800E+04  0.12377641522E+04  0.00000000000E+00 0. -1.
          1    1    1    2  502    0  0.22313732231E+02 -0.38097511242E+02 -0.10296401336E+03  0.11203084868E+03  0.00000000000E+00 0. -1.
         22    1    3    3    0    0  0.72102641770E+01 -0.15700624098E+01  0.27479452420E+01  0.78742751112E+01  0.00000000000E+00 0.  1.
         22    1    3    3    0    0 -0.46046210094E+02  0.16508591784E+02 -0.70059523842E+03  0.70230084377E+03  0.00000000000E+00 0.  1.
</event>
<event>
 7    1  0.6176857E-006  0.1329747E+03  0.7818608E-02  0.1309547E+00
          2   -1    0    0  502    0  0.00000000000E+00  0.00000000000E+00  0.20441649430E+04  0.20441649430E+04  0.00000000000E+00 0. -1.
          1   -1    0    0  501    0 -0.00000000000E+00 -0.00000000000E+00 -0.22422769170E+03  0.22422769170E+03  0.00000000000E+00 0. -1.
         25    2    1    2    0    0 -0.82274828948E+02  0.65059285923E+02  0.60169315764E+03  0.62342772276E+03  0.12500244556E+03 0.  0.
          2    1    1    2  501    0  0.13003089109E+03 -0.33390115175E+02 -0.19160268339E+03  0.23395409958E+03  0.00000000000E+00 0. -1.
          1    1    1    2  502    0 -0.47756062144E+02 -0.31669170748E+02  0.14098467770E+04  0.14110108123E+04  0.00000000000E+00 0. -1.
         22    1    3    3    0    0  0.14912934105E+02  0.53153065092E+02  0.33095642987E+03  0.33552913793E+03  0.00000000000E+00 0.  1.
         22    1    3    3    0    0 -0.97187763053E+02  0.11906220832E+02  0.27073672777E+03  0.28789858483E+03  0.00000000000E+00 0.  1.
</event>
<event>
 7    1  0.6176857E-006  0.5043309E+02  0.7818608E-02  0.1575073E+00
          2   -1    0    0  502    0  0.00000000000E+00  0.00000000000E+00  0.44366973097E+02  0.44366973097E+02  0.00000000000E+00 0. -1.
          1   -1    0    0  501    0 -0.00000000000E+00 -0.00000000000E+00 -0.43224990471E+03  0.43224990471E+03  0.00000000000E+00 0. -1.
         25    2    1    2    0    0 -0.80820932166E+01 -0.36006878177E+02 -0.25524997135E+03  0.28659970401E+03  0.12500010784E+03 0.  0.
          2    1    1    2  501    0 -0.22504064765E+00  0.54798167724E+02 -0.15212661753E+03  0.16169538519E+03  0.00000000000E+00 0. -1.
          1    1    1    2  502    0  0.83071338643E+01 -0.18791289547E+02  0.19493657271E+02  0.28321788603E+02  0.00000000000E+00 0. -1.
         22    1    3    3    0    0  0.10899866259E+02  0.23493481580E+02 -0.22402722103E+01  0.25995568483E+02  0.00000000000E+00 0. -1.
         22    1    3    3    0    0 -0.18981959475E+02 -0.59500359757E+02 -0.25300969914E+03  0.26060413553E+03  0.00000000000E+00 0. -1.
</event>
<event>
 7    1  0.6176857E-006  0.8425991E+02  0.7818608E-02  0.1442495E+00
          2   -1    0    0  502    0  0.00000000000E+00  0.00000000000E+00  0.29805564030E+04  0.29805564030E+04  0.00000000000E+00 0. -1.
          1   -1    0    0  501    0 -0.00000000000E+00 -0.00000000000E+00 -0.13887613976E+04  0.13887613976E+04  0.00000000000E+00 0. -1.
         25    2    1    2    0    0 -0.70962923062E+02  0.73741664269E+02  0.16242636080E+04  0.16322776256E+04  0.12499763693E+03 0.  0.
          2    1    1    2  501    0  0.45886562835E+01 -0.29954908521E+02 -0.13834193943E+04  0.13837512684E+04  0.00000000000E+00 0. -1.
          1    1    1    2  502    0  0.66374266779E+02 -0.43786755748E+02  0.13509507916E+04  0.13532889066E+04  0.00000000000E+00 0. -1.
         22    1    3    3    0    0 -0.14718490316E+02  0.30249573105E+02  0.12944758633E+04  0.12949129049E+04  0.00000000000E+00 0. -1.
         22    1    3    3    0    0 -0.56244432746E+02  0.43492091164E+02  0.32978774471E+03  0.33736472070E+03  0.00000000000E+00 0. -1.
</event>
<event>
 7    1  0.6176857E-006  0.6260090E+02  0.7818608E-02  0.1422981E+00
          2   -1    0    0  502    0  0.00000000000E+00  0.00000000000E+00  0.99599579771E+03  0.99599579771E+03  0.00000000000E+00 0. -1.
          1   -1    0    0  501    0 -0.00000000000E+00 -0.00000000000E+00 -0.78659610591E+03  0.78659610591E+03  0.00000000000E+00 0. -1.
         25    2    1    2    0    0 -0.82622526845E+02 -0.49681481188E+02  0.54688650392E+03  0.56921398732E+03  0.12499993473E+03 0.  0.
          2    1    1    2  501    0  0.35394989421E+02  0.51564950246E+02 -0.77289017487E+03  0.77541664399E+03  0.00000000000E+00 0. -1.
          1    1    1    2  502    0  0.47227537424E+02 -0.18834690579E+01  0.43540336275E+03  0.43796127231E+03  0.00000000000E+00 0. -1.
         22    1    3    3    0    0  0.66140058477E+01 -0.65380121604E+02  0.19159430427E+03  0.20255044508E+03  0.00000000000E+00 0. -1.
         22    1    3    3    0    0 -0.89236532693E+02  0.15698640416E+02  0.35529219965E+03  0.36666354224E+03  0.00000000000E+00 0. -1.
</event>
<event>
 7    1  0.6176857E-006  0.7322082E+02  0.7818608E-02  0.1447316E+00
          2   -1    0    0  502    0  0.00000000000E+00  0.00000000000E+00  0.30478047293E+03  0.30478047293E+03  0.00000000000E+00 0. -1.
          1   -1    0    0  501    0 -0.00000000000E+00 -0.00000000000E+00 -0.94431838770E+03  0.94431838770E+03  0.00000000000E+00 0. -1.
         25    2    1    2    0    0  0.51809918053E+01  0.40559033525E+02 -0.96293223471E+02  0.16300853165E+03  0.12501007411E+03 0.  0.
          2    1    1    2  501    0  0.21010780782E+01  0.33582137914E+02 -0.80919938867E+03  0.80989865116E+03  0.00000000000E+00 0. -1.
          1    1    1    2  502    0 -0.72820698835E+01 -0.74141171439E+02  0.26595469737E+03  0.27619167782E+03  0.00000000000E+00 0. -1.
         22    1    3    3    0    0  0.34422600364E+02 -0.24059500327E+02  0.17101646428E+01  0.42032126224E+02  0.00000000000E+00 0. -1.
         22    1    3    3    0    0 -0.29241608559E+02  0.64618533852E+02 -0.98003388114E+02  0.12097640543E+03  0.00000000000E+00 0. -1.
</event>
<event>
 7    1  0.6176857E-006  0.2800591E+02  0.7818608E-02  0.1644612E+00
          2   -1    0    0  502    0  0.00000000000E+00  0.00000000000E+00  0.21301157887E+02  0.21301157887E+02  0.00000000000E+00 0. -1.
          1   -1    0    0  501    0 -0.00000000000E+00 -0.00000000000E+00 -0.10605753827E+04  0.10605753827E+04  0.00000000000E+00 0. -1.
         25    2    1    2    0    0 -0.95136221619E+01  0.30879607596E+02 -0.28776008675E+03  0.31539796618E+03  0.12500380141E+03 0.  0.
          2    1    1    2  501    0 -0.14070708357E+02 -0.24345389027E+02 -0.73797456034E+03  0.73851007746E+03  0.00000000000E+00 0. -1.
          1    1    1    2  502    0  0.23584330519E+02 -0.65342185690E+01 -0.13539577768E+02  0.27968497001E+02  0.00000000000E+00 0. -1.
         22    1    3    3    0    0  0.67596984508E+01  0.77644717413E+02 -0.19972310781E+03  0.21439150044E+03  0.00000000000E+00 0.  1.
         22    1    3    3    0    0 -0.16273320613E+02 -0.46765109817E+02 -0.88036978939E+02  0.10100646574E+03  0.00000000000E+00 0.  1.
</event>
<event>
 7    1  0.6176857E-006  0.2049943E+03  0.7818608E-02  0.1236743E+00
          2   -1    0    0  502    0  0.00000000000E+00  0.00000000000E+00  0.22697509125E+04  0.22697509125E+04  0.00000000000E+00 0. -1.
          1   -1    0    0  501    0 -0.00000000000E+00 -0.00000000000E+00 -0.20715809366E+04  0.20715809366E+04  0.00000000000E+00 0. -1.
         25    2    1    2    0    0 -0.25508553843E+03 -0.68315125761E+02 -0.18757871407E+02  0.29276533488E+03  0.12499638091E+03 0.  0.
          2    1    1    2  501    0  0.20228274618E+03  0.15153955119E+02 -0.19097882240E+04  0.19205309194E+04  0.00000000000E+00 0. -1.
          1    1    1    2  502    0  0.52802792251E+02  0.53161170642E+02  0.21267160713E+04  0.21280355948E+04  0.00000000000E+00 0. -1.
         22    1    3    3    0    0 -0.17116398441E+02 -0.38530424931E+02 -0.31457298190E+02  0.52603482303E+02  0.00000000000E+00 0.  1.
         22    1    3    3    0    0 -0.23796913999E+03 -0.29784700829E+02  0.12699426784E+02  0.24016185258E+03  0.00000000000E+00 0.  1.
</event>
<event>
 7    1  0.6176857E-006  0.1445351E+03  0.7818608E-02  0.1235294E+00
          2   -1    0    0  502    0  0.00000000000E+00  0.00000000000E+00  0.22469472709E+04  0.22469472709E+04  0.00000000000E+00 0. -1.
          1   -1    0    0  501    0 -0.00000000000E+00 -0.00000000000E+00 -0.10753409817E+04  0.10753409817E+04  0.00000000000E+00 0. -1.
         25    2    1    2    0    0 -0.11344974011E+03  0.15209253206E+03  0.27537725292E+03  0.35701647269E+03  0.12500059403E+03 0.  0.
          2    1    1    2  501    0 -0.22366072800E+02 -0.10551186582E+03 -0.10290295952E+04  0.10346665660E+04  0.00000000000E+00 0. -1.
          1    1    1    2  502    0  0.13581581291E+03 -0.46580666243E+02  0.19252586315E+04  0.19306052139E+04  0.00000000000E+00 0. -1.
         22    1    3    3    0    0 -0.12110152311E+03  0.11801105009E+03  0.14727286227E+03  0.22423532908E+03  0.00000000000E+00 0.  1.
         22    1    3    3    0    0  0.76517830040E+01  0.34081481967E+02  0.12810439064E+03  0.13278114361E+03  0.00000000000E+00 0.  1.
</event>
<event>
 7    1  0.6176857E-006  0.1438608E+03  0.7818608E-02  0.1392607E+00
          2   -1    0    0  502    0  0.00000000000E+00  0.00000000000E+00  0.13074942765E+04  0.13074942765E+04  0.00000000000E+00 0. -1.
          1   -1    0    0  501    0 -0.00000000000E+00 -0.00000000000E+00 -0.11154420066E+04  0.11154420066E+04  0.00000000000E+00 0. -1.
         25    2    1    2    0    0 -0.16586605227E+03 -0.31633704156E+02 -0.61192132616E+03  0.64698116251E+03  0.12499870678E+03 0.  0.
          2    1    1    2  501    0  0.23650357049E+02  0.11012930935E+02 -0.48163448743E+03  0.48234054725E+03  0.00000000000E+00 0. -1.
          1    1    1    2  502    0  0.14221569523E+03  0.20620773221E+02  0.12856080834E+04  0.12936145734E+04  0.00000000000E+00 0. -1.
         22    1    3    3    0    0 -0.11664830963E+03  0.39560415710E+02 -0.37792978176E+03  0.39749562837E+03  0.00000000000E+00 0. -1.
         22    1    3    3    0    0 -0.49217742644E+02 -0.71194119866E+02 -0.23399154440E+03  0.24948553414E+03  0.00000000000E+00 0. -1.
</event>
<event>
 7    1  0.6176857E-006  0.9253658E+02  0.7818608E-02  0.1321009E+00
          2   -1    0    0  502    0  0.00000000000E+00  0.00000000000E+00  0.27668067416E+03  0.27668067416E+03  0.00000000000E+00 0. -1.
          1   -1    0    0  501    0 -0.00000000000E+00 -0.00000000000E+00 -0.10420618496E+04  0.10420618496E+04  0.00000000000E+00 0. -1.
         25    2    1    2    0    0 -0.10427347684E+03  0.12573105508E+03 -0.21926229949E+03  0.30063619269E+03  0.12499963278E+03 0.  0.
          2    1    1    2  501    0  0.54385525950E+02 -0.50582906152E+02 -0.77164495158E+03  0.77521116292E+03  0.00000000000E+00 0. -1.
          1    1    1    2  502    0  0.49887950892E+02 -0.75148148924E+02  0.22552607561E+03  0.24289516815E+03  0.00000000000E+00 0. -1.
         22    1    3    3    0    0 -0.98127293437E+02  0.99453604553E+02 -0.23197935917E+03  0.27080326486E+03  0.00000000000E+00 0. -1.
         22    1    3    3    0    0 -0.61461834050E+01  0.26277450522E+02  0.12717059680E+02  0.29832927837E+02  0.00000000000E+00 0. -1.
</event>
<event>
 7    1  0.6176857E-006  0.5035096E+02  0.7818608E-02  0.1544657E+00
          2   -1    0    0  502    0  0.00000000000E+00  0.00000000000E+00  0.84091515573E+03  0.84091515573E+03  0.00000000000E+00 0. -1.
          1   -1    0    0  501    0 -0.00000000000E+00 -0.00000000000E+00 -0.35752936917E+02  0.35752936917E+02  0.00000000000E+00 0. -1.
         25    2    1    2    0    0  0.66654299500E+02 -0.27430969230E+01  0.24608636660E+03  0.28396471495E+03  0.12500855686E+03 0.  0.
          2    1    1    2  501    0 -0.46866647061E+02 -0.12464184421E+02  0.19053148924E+02  0.52104327881E+02  0.00000000000E+00 0. -1.
          1    1    1    2  502    0 -0.19787652439E+02  0.15207281344E+02  0.54002270328E+03  0.54059904981E+03  0.00000000000E+00 0. -1.
         22    1    3    3    0    0 -0.33953540822E+02  0.77124513650E+01  0.10308006042E+03  0.10880176329E+03  0.00000000000E+00 0. -1.
         22    1    3    3    0    0  0.10060784032E+03 -0.10455548288E+02  0.14300630619E+03  0.17516295166E+03  0.00000000000E+00 0. -1.
</event>
<event>
 7    1  0.6176857E-006  0.4994948E+02  0.7818608E-02  0.1457254E+00
          2   -1    0    0  502    0  0.00000000000E+00  0.00000000000E+00  0.45203791469E+03  0.45203791469E+03  0.00000000000E+00 0. -1.
          1   -1    0    0  501    0 -0.00000000000E+00 -0.00000000000E+00 -0.19529733479E+03  0.19529733479E+03  0.00000000000E+00 0. -1.
         25    2    1    2    0    0 -0.37260388097E+02 -0.23892599231E+02  0.23592462842E+03  0.27063730115E+03  0.12499970264E+03 0.  0.
          2    1    1    2  501    0 -0.21035862170E+00  0.50320078760E+02 -0.17163527016E+03  0.17885977899E+03  0.00000000000E+00 0. -1.
          1    1    1    2  502    0  0.37470746718E+02 -0.26427479529E+02  0.19245122165E+03  0.19783816934E+03  0.00000000000E+00 0. -1.
         22    1    3    3    0    0 -0.60043023989E+02 -0.61199723824E+02  0.18228930423E+03  0.20144468562E+03  0.00000000000E+00 0.  1.
         22    1    3    3    0    0  0.22782635892E+02  0.37307124593E+02  0.53635324185E+02  0.69192615531E+02  0.00000000000E+00 0.  1.
</event>
<event>
 7    1  0.6176857E-006  0.3579606E+02  0.7818608E-02  0.1557777E+00
          2   -1    0    0  502    0  0.00000000000E+00  0.00000000000E+00  0.76135639053E+03  0.76135639053E+03  0.00000000000E+00 0. -1.
          1   -1    0    0  501    0 -0.00000000000E+00 -0.00000000000E+00 -0.56600243217E+03  0.56600243217E+03  0.00000000000E+00 0. -1.
         25    2    1    2    0    0  0.38662779590E+02  0.52667524706E+02  0.28838968666E+02  0.14396329323E+03  0.12500026000E+03 0.  0.
          2    1    1    2  501    0 -0.12957966831E+02 -0.33156456728E+02 -0.50743059196E+03  0.50867776164E+03  0.00000000000E+00 0. -1.
          1    1    1    2  502    0 -0.25704812759E+02 -0.19511067978E+02  0.67394558166E+03  0.67471776782E+03  0.00000000000E+00 0. -1.
         22    1    3    3    0    0 -0.75242830319E+01  0.84525761912E+02  0.19676879799E+02  0.87111416362E+02  0.00000000000E+00 0. -1.
         22    1    3    3    0    0  0.46187062622E+02 -0.31858237206E+02  0.91620888666E+01  0.56851876873E+02  0.00000000000E+00 0. -1.
</event>
<event>
 7    1  0.1254154E-005  0.1333983E+03  0.7818608E-02  0.1345003E+00
          2   -1    0    0  502    0  0.00000000000E+00  0.00000000000E+00  0.14430107581E+04  0.14430107581E+04  0.00000000000E+00 0. -1.
          1   -1    0    0  501    0 -0.00000000000E+00 -0.00000000000E+00 -0.21274877659E+04  0.21274877659E+04  0.00000000000E+00 0. -1.
         25    2    1    2    0    0  0.14830217341E+03 -0.19784312043E+02 -0.68417903069E+03  0.71141266191E+03  0.12498830284E+03 0.  0.
          2    1    1    2  501    0 -0.25779062323E+02 -0.32850910963E+02 -0.14262755482E+04  0.14268867095E+04  0.00000000000E+00 0. -1.
          1    1    1    2  502    0 -0.12252311109E+03  0.52635223007E+02  0.14259775711E+04  0.14321991526E+04  0.00000000000E+00 0. -1.
         22    1    3    3    0    0  0.10380493506E+03 -0.65904480356E+02 -0.53680774745E+03  0.55070992619E+03  0.00000000000E+00 0. -1.
         22    1    3    3    0    0  0.44497238348E+02  0.46120168313E+02 -0.14737128323E+03  0.16070273572E+03  0.00000000000E+00 0. -1.
</event>
<event>
 7    1  0.6176857E-006  0.1053657E+03  0.7818608E-02  0.1343050E+00
          2   -1    0    0  502    0  0.00000000000E+00  0.00000000000E+00  0.64134502630E+03  0.64134502630E+03  0.00000000000E+00 0. -1.
          1   -1    0    0  501    0 -0.00000000000E+00 -0.00000000000E+00 -0.98060357977E+03  0.98060357977E+03  0.00000000000E+00 0. -1.
         25    2    1    2    0    0  0.27537983276E+02 -0.49962938056E+02  0.17407734645E+03  0.22177298768E+03  0.12500279923E+03 0.  0.
          2    1    1    2  501    0 -0.23198643502E+02  0.10355213303E+03 -0.95216750729E+03  0.95806272407E+03  0.00000000000E+00 0. -1.
          1    1    1    2  502    0 -0.43393397739E+01 -0.53589194976E+02  0.43883160738E+03  0.44211289431E+03  0.00000000000E+00 0. -1.
         22    1    3    3    0    0  0.43773954856E+02  0.27170315714E+02  0.36242139002E+02  0.62991093174E+02  0.00000000000E+00 0. -1.
         22    1    3    3    0    0 -0.16235971580E+02 -0.77133253770E+02  0.13783520745E+03  0.15878189451E+03  0.00000000000E+00 0. -1.
</event>
<event>
 7    1  0.6176857E-006  0.3713973E+02  0.7818608E-02  0.1558461E+00
          2   -1    0    0  502    0  0.00000000000E+00  0.00000000000E+00  0.39442938862E+03  0.39442938862E+03  0.00000000000E+00 0. -1.
          1   -1    0    0  501    0 -0.00000000000E+00 -0.00000000000E+00 -0.39190999337E+03  0.39190999337E+03  0.00000000000E+00 0. -1.
         25    2    1    2    0    0  0.19456819881E+02 -0.30395753249E+01 -0.16042524001E+03  0.20432503170E+03  0.12499861636E+03 0.  0.
          2    1    1    2  501    0 -0.28937674987E+02 -0.26442080684E+02 -0.20704897609E+03  0.21072695879E+03  0.00000000000E+00 0. -1.
          1    1    1    2  502    0  0.94808551055E+01  0.29481656009E+02  0.36999361134E+03  0.37128739150E+03  0.00000000000E+00 0. -1.
         22    1    3    3    0    0  0.55117326511E+02 -0.37613228745E+02 -0.50448649441E+02  0.83652500792E+02  0.00000000000E+00 0. -1.
         22    1    3    3    0    0 -0.35660506630E+02  0.34573653420E+02 -0.10997659057E+03  0.12067253091E+03  0.00000000000E+00 0. -1.
</event>
<event>
 7    1  0.6176857E-006  0.9510301E+02  0.7818608E-02  0.1357911E+00
          2   -1    0    0  502    0  0.00000000000E+00  0.00000000000E+00  0.34529071764E+03  0.34529071764E+03  0.00000000000E+00 0. -1.
          1   -1    0    0  501    0 -0.00000000000E+00 -0.00000000000E+00 -0.48163604317E+03  0.48163604317E+03  0.00000000000E+00 0. -1.
         25    2    1    2    0    0 -0.85822873067E+02 -0.61682172698E+02  0.14151328050E+02  0.16430391759E+03  0.12500104511E+03 0.  0.
          2    1    1    2  501    0  0.39645971957E+02  0.86614457348E+02 -0.39819307273E+03  0.40942837039E+03  0.00000000000E+00 0. -1.
          1    1    1    2  502    0  0.46176901110E+02 -0.24932284650E+02  0.24769641914E+03  0.25319447283E+03  0.00000000000E+00 0. -1.
         22    1    3    3    0    0  0.30147080746E+02 -0.31330628916E+01  0.16218412074E+02  0.34375855637E+02  0.00000000000E+00 0. -1.
         22    1    3    3    0    0 -0.11596995381E+03 -0.58549109807E+02 -0.20670840237E+01  0.12992806195E+03  0.00000000000E+00 0. -1.
</event>
<event>
 7    1  0.6176857E-006  0.9810660E+02  0.7818608E-02  0.1406062E+00
          2   -1    0    0  502    0  0.00000000000E+00  0.00000000000E+00  0.67021506592E+03  0.67021506592E+03  0.00000000000E+00 0. -1.
          1   -1    0    0  501    0 -0.00000000000E+00 -0.00000000000E+00 -0.13899763761E+03  0.13899763761E+03  0.00000000000E+00 0. -1.
         25    2    1    2    0    0 -0.51227365342E+02  0.46228348002E+02  0.93331564727E+02  0.17057057911E+03  0.12498895298E+03 0.  0.
          2    1    1    2  501    0 -0.32142151106E+02  0.12218526516E+02 -0.92441337935E+02  0.98629667075E+02  0.00000000000E+00 0. -1.
          1    1    1    2  502    0  0.83369516448E+02 -0.58446874518E+02  0.53032720152E+03  0.54001245734E+03  0.00000000000E+00 0. -1.
         22    1    3    3    0    0 -0.83515153547E+02  0.14493940808E+02  0.24586303911E+02  0.88257246343E+02  0.00000000000E+00 0. -1.
         22    1    3    3    0    0  0.32287788205E+02  0.31734407194E+02  0.68745260817E+02  0.82313332771E+02  0.00000000000E+00 0. -1.
</event>
<event>
 7    1  0.6176857E-006  0.4037472E+02  0.7818608E-02  0.1542668E+00
          2   -1    0    0  502    0  0.00000000000E+00  0.00000000000E+00  0.87141757973E+03  0.87141757973E+03  0.00000000000E+00 0. -1.
          1   -1    0    0  501    0 -0.00000000000E+00 -0.00000000000E+00 -0.15164841373E+03  0.15164841373E+03  0.00000000000E+00 0. -1.
         25    2    1    2    0    0  0.29833324901E+01  0.14547802018E+02  0.19042973946E+02  0.12731114065E+03  0.12499981144E+03 0.  0.
          2    1    1    2  501    0  0.17914427558E+02 -0.38152578242E+02 -0.92632013179E+02  0.10177050558E+03  0.00000000000E+00 0. -1.
          1    1    1    2  502    0 -0.20897760048E+02  0.23604776224E+02  0.79335820523E+03  0.79398434723E+03  0.00000000000E+00 0. -1.
         22    1    3    3    0    0 -0.26278590785E+02  0.51415291488E+02  0.45321130606E+02  0.73403687999E+02  0.00000000000E+00 0.  1.
         22    1    3    3    0    0  0.29261923275E+02 -0.36867489470E+02 -0.26278156659E+02  0.53907452648E+02  0.00000000000E+00 0.  1.
</event>
<event>
 7    1  0.6176857E-006  0.3774377E+02  0.7818608E-02  0.1558685E+00
          2   -1    0    0  502    0  0.00000000000E+00  0.00000000000E+00  0.78045783865E+03  0.78045783865E+03  0.00000000000E+00 0. -1.
          1   -1    0    0  501    0 -0.00000000000E+00 -0.00000000000E+00 -0.84327658003E+03  0.84327658003E+03  0.00000000000E+00 0. -1.
         25    2    1    2    0    0 -0.25125370320E+02  0.18778794232E+02  0.41240562498E+03  0.43207271606E+03  0.12499802040E+03 0.  0.
          2    1    1    2  501    0 -0.13533073242E+02 -0.27254694877E+02 -0.83207093939E+03  0.83262717386E+03  0.00000000000E+00 0. -1.
          1    1    1    2  502    0  0.38658443562E+02  0.84759006455E+01  0.35684657303E+03  0.35903452875E+03  0.00000000000E+00 0. -1.
         22    1    3    3    0    0  0.42295224496E+02  0.11499871756E+02  0.66930637903E+02  0.80005270799E+02  0.00000000000E+00 0. -1.
         22    1    3    3    0    0 -0.67420594816E+02  0.72789224755E+01  0.34547498708E+03  0.35206744526E+03  0.00000000000E+00 0. -1.
</event>
<event>
 7    1  0.6176857E-006  0.1079496E+03  0.7818608E-02  0.1371896E+00
          2   -1    0    0  502    0  0.00000000000E+00  0.00000000000E+00  0.33751037084E+04  0.33751037084E+04  0.00000000000E+00 0. -1.
          1   -1    0    0  501    0 -0.00000000000E+00 -0.00000000000E+00 -0.76626766324E+02  0.76626766324E+02  0.00000000000E+00 0. -1.
         25    2    1    2    0    0  0.69427881097E+02 -0.43769743618E+02  0.12644639414E+03  0.19583133219E+03  0.12500079579E+03 0.  0.
          2    1    1    2  501    0 -0.14418630632E+01 -0.41116734901E+02 -0.30693018159E+02  0.51329584274E+02  0.00000000000E+00 0. -1.
          1    1    1    2  502    0 -0.67986018034E+02  0.84886478519E+02  0.32027235661E+04  0.32045695583E+04  0.00000000000E+00 0. -1.
         22    1    3    3    0    0  0.10559195292E+03 -0.34399043248E+02  0.83718232290E+02  0.13907443013E+03  0.00000000000E+00 0.  1.
         22    1    3    3    0    0 -0.36164071826E+02 -0.93707003701E+01  0.42728161847E+02  0.56756902058E+02  0.00000000000E+00 0.  1.
</event>
<event>
 7    1  0.6176857E-006  0.1473415E+03  0.7818608E-02  0.1333843E+00
          2   -1    0    0  502    0  0.00000000000E+00  0.00000000000E+00  0.77779646135E+02  0.77779646135E+02  0.00000000000E+00 0. -1.
          1   -1    0    0  501    0 -0.00000000000E+00 -0.00000000000E+00 -0.10250861056E+04  0.10250861056E+04  0.00000000000E+00 0. -1.
         25    2    1    2    0    0  0.16272688666E+03 -0.17998617143E+02 -0.31708989731E+03  0.37812053141E+03  0.12500057373E+03 0.  0.
          2    1    1    2  501    0 -0.20665954218E+02  0.36158402918E+02 -0.56644133364E+03  0.56797033040E+03  0.00000000000E+00 0. -1.
          1    1    1    2  502    0 -0.14206093244E+03 -0.18159785774E+02 -0.63775228556E+02  0.15677488996E+03  0.00000000000E+00 0. -1.
         22    1    3    3    0    0  0.13137609404E+03 -0.53275955864E+02 -0.15846885234E+03  0.21262733295E+03  0.00000000000E+00 0.  1.
         22    1    3    3    0    0  0.31350792619E+02  0.35277338720E+02 -0.15862104498E+03  0.16549319845E+03  0.00000000000E+00 0.  1.
</event>
<event>
 7    1  0.6176857E-006  0.1630650E+03  0.7818608E-02  0.1243211E+00
          2   -1    0    0  502    0  0.00000000000E+00  0.00000000000E+00  0.99230760847E+03  0.99230760847E+03  0.00000000000E+00 0. -1.
          1   -1    0    0  501    0 -0.00000000000E+00 -0.00000000000E+00 -0.58230604107E+03  0.58230604107E+03  0.00000000000E+00 0. -1.
         25    2    1    2    0    0  0.80158911215E+01 -0.95354444293E+02 -0.80404778972E+02  0.17676733024E+03  0.12500014400E+03 0.  0.
          2    1    1    2  501    0  0.71120486441E+02 -0.52174952490E+02 -0.44190542257E+03  0.45062262677E+03  0.00000000000E+00 0. -1.
          1    1    1    2  502    0 -0.79136377563E+02  0.14752939678E+03  0.93231176894E+03  0.94722369252E+03  0.00000000000E+00 0. -1.
         22    1    3    3    0    0 -0.43314182489E+02  0.56539850545E+01 -0.16562968691E+02  0.46716355632E+02  0.00000000000E+00 0.  1.
         22    1    3    3    0    0  0.51330073610E+02 -0.10100842935E+03 -0.63841810281E+02  0.13005097461E+03  0.00000000000E+00 0.  1.
</event>
<event>
 7    1  0.6176857E-006  0.3739206E+02  0.7818608E-02  0.1605379E+00
          2   -1    0    0  502    0  0.00000000000E+00  0.00000000000E+00  0.10038141832E+04  0.10038141832E+04  0.00000000000E+00 0. -1.
          1   -1    0    0  501    0 -0.00000000000E+00 -0.00000000000E+00 -0.93555381803E+02  0.93555381803E+02  0.00000000000E+00 0. -1.
         25    2    1    2    0    0  0.22465442096E+02 -0.17366081770E+01  0.75473234686E+02  0.14771753304E+03  0.12496618949E+03 0.  0.
          2    1    1    2  501    0  0.66462311206E+01 -0.22059177944E+02 -0.54709560679E+02  0.59362578696E+02  0.00000000000E+00 0. -1.
          1    1    1    2  502    0 -0.29111673217E+02  0.23795786121E+02  0.88949512738E+03  0.89028945326E+03  0.00000000000E+00 0. -1.
         22    1    3    3    0    0 -0.36156714439E+02  0.15900102111E+02 -0.11701319086E+02  0.41195171010E+02  0.00000000000E+00 0. -1.
         22    1    3    3    0    0  0.58622156535E+02 -0.17636710288E+02  0.87174553772E+02  0.10652236203E+03  0.00000000000E+00 0. -1.
</event>
<event>
 7    1  0.6176857E-006  0.2377617E+03  0.7818608E-02  0.1277614E+00
          2   -1    0    0  502    0  0.00000000000E+00  0.00000000000E+00  0.10411753964E+04  0.10411753964E+04  0.00000000000E+00 0. -1.
          1   -1    0    0  501    0 -0.00000000000E+00 -0.00000000000E+00 -0.14765347979E+04  0.14765347979E+04  0.00000000000E+00 0. -1.
         25    2    1    2    0    0 -0.23644620566E+03  0.12977991312E+03 -0.26589725447E+03  0.39884477654E+03  0.12500468717E+03 0.  0.
          2    1    1    2  501    0  0.18037678268E+02 -0.39196508528E+02 -0.11294060871E+04  0.11302299915E+04  0.00000000000E+00 0. -1.
          1    1    1    2  502    0  0.21840852739E+03 -0.90583404594E+02  0.95994394010E+03  0.98863542631E+03  0.00000000000E+00 0. -1.
         22    1    3    3    0    0 -0.19298637300E+03  0.14200545427E+03 -0.25958082414E+03  0.35325839476E+03  0.00000000000E+00 0.  1.
         22    1    3    3    0    0 -0.43459832660E+02 -0.12225541153E+02 -0.63164303299E+01  0.45586381776E+02  0.00000000000E+00 0.  1.
</event>
<event>
 7    1  0.6176857E-006  0.6674945E+02  0.7818608E-02  0.1492961E+00
          2   -1    0    0  502    0  0.00000000000E+00  0.00000000000E+00  0.48908898945E+03  0.48908898945E+03  0.00000000000E+00 0. -1.
          1   -1    0    0  501    0 -0.00000000000E+00 -0.00000000000E+00 -0.61616422827E+02  0.61616422827E+02  0.00000000000E+00 0. -1.
         25    2    1    2    0    0  0.49333048222E+02 -0.74074936086E+02  0.19151805323E+03  0.24540461892E+03  0.12499366572E+03 0.  0.
          2    1    1    2  501    0 -0.41073597738E+02  0.48772586720E+02 -0.39863805019E+01  0.63888159122E+02  0.00000000000E+00 0. -1.
          1    1    1    2  502    0 -0.82594504843E+01  0.25302349366E+02  0.23994089390E+03  0.24141263424E+03  0.00000000000E+00 0. -1.
         22    1    3    3    0    0  0.19799927126E+02  0.27475476507E+02  0.99889256712E+02  0.10547417945E+03  0.00000000000E+00 0.  1.
         22    1    3    3    0    0  0.29533121096E+02 -0.10155041259E+03  0.91628796519E+02  0.13993043947E+03  0.00000000000E+00 0.  1.
</event>
<event>
 7    1  0.6176857E-006  0.1288910E+03  0.7818608E-02  0.1396466E+00
          2   -1    0    0  502    0  0.00000000000E+00  0.00000000000E+00  0.10132320808E+03  0.10132320808E+03  0.00000000000E+00 0. -1.
          1   -1    0    0  501    0 -0.00000000000E+00 -0.00000000000E+00 -0.16420008893E+04  0.16420008893E+04  0.00000000000E+00 0. -1.
         25    2    1    2    0    0  0.89218859661E+02 -0.11111042415E+03 -0.48865004087E+03  0.52413250160E+03  0.12502194013E+03 0.  0.
          2    1    1    2  501    0  0.72246230058E+01  0.27295565358E+02 -0.10864856846E+04  0.10868525134E+04  0.00000000000E+00 0. -1.
          1    1    1    2  502    0 -0.96443482667E+02  0.83814858791E+02  0.34458044268E+02  0.13233908235E+03  0.00000000000E+00 0. -1.
         22    1    3    3    0    0  0.11558702397E+03 -0.11175021948E+03 -0.38591435023E+03  0.41806501573E+03  0.00000000000E+00 0.  1.
         22    1    3    3    0    0 -0.26368164309E+02  0.63979532803E+00 -0.10273569064E+03  0.10606748587E+03  0.00000000000E+00 0.  1.
</event>
<event>
 7    1  0.6176857E-006  0.8790941E+02  0.7818608E-02  0.1434957E+00
          2   -1    0    0  502    0  0.00000000000E+00  0.00000000000E+00  0.22180249786E+04  0.22180249786E+04  0.00000000000E+00 0. -1.
          1   -1    0    0  501    0 -0.00000000000E+00 -0.00000000000E+00 -0.56408962159E+03  0.56408962159E+03  0.00000000000E+00 0. -1.
         25    2    1    2    0    0 -0.88918394499E+02 -0.73045314132E+02  0.65171715831E+01  0.17002854861E+03  0.12500054009E+03 0.  0.
          2    1    1    2  501    0  0.73102340243E+02  0.46694897107E+02 -0.47832198526E+03  0.48612373646E+03  0.00000000000E+00 0. -1.
          1    1    1    2  502    0  0.15816054256E+02  0.26350417025E+02  0.21257401707E+04  0.21259623151E+04  0.00000000000E+00 0. -1.
         22    1    3    3    0    0 -0.12092386002E+03 -0.59629539189E+02  0.97252860898E+01  0.13517708036E+03  0.00000000000E+00 0. -1.
         22    1    3    3    0    0  0.32005465521E+02 -0.13415774943E+02 -0.32081145067E+01  0.34851468251E+02  0.00000000000E+00 0. -1.
</event>
<event>
 7    1  0.6176857E-006  0.1552607E+03  0.7818608E-02  0.1243834E+00
          2   -1    0    0  502    0  0.00000000000E+00  0.00000000000E+00  0.14770006295E+04  0.14770006295E+04  0.00000000000E+00 0. -1.
          1   -1    0    0  501    0 -0.00000000000E+00 -0.00000000000E+00 -0.80481234651E+03  0.80481234651E+03  0.00000000000E+00 0. -1.
         25    2    1    2    0    0 -0.14133021894E+02 -0.11655823411E+03  0.46627688318E+03  0.49681568752E+03  0.12500452521E+03 0.  0.
          2    1    1    2  501    0 -0.75706296013E+02  0.13665549797E+03 -0.77964882462E+03  0.79514681544E+03  0.00000000000E+00 0. -1.
          1    1    1    2  502    0  0.89839317907E+02 -0.20097263856E+02  0.98556022447E+03  0.98985047311E+03  0.00000000000E+00 0. -1.
         22    1    3    3    0    0 -0.59463353858E+02 -0.58147753958E+02  0.14516691627E+03  0.16730357235E+03  0.00000000000E+00 0. -1.
         22    1    3    3    0    0  0.45330331965E+02 -0.58410480152E+02  0.32110996691E+03  0.32951211516E+03  0.00000000000E+00 0. -1.
</event>
<event>
 7    1  0.6176857E-006  0.9483866E+02  0.7818608E-02  0.1426744E+00
          2   -1    0    0  502    0  0.00000000000E+00  0.00000000000E+00  0.10528276529E+03  0.10528276529E+03  0.00000000000E+00 0. -1.
          1   -1    0    0  501    0 -0.00000000000E+00 -0.00000000000E+00 -0.16041917645E+04  0.16041917645E+04  0.00000000000E+00 0. -1.
         25    2    1    2    0    0 -0.62174224275E+02 -0.10273968539E+03 -0.74980524362E+03  0.76957992659E+03  0.12499713174E+03 0.  0.
          2    1    1    2  501    0  0.25771712705E+02  0.15962477765E+02 -0.82094400340E+03  0.82150352318E+03  0.00000000000E+00 0. -1.
          1    1    1    2  502    0  0.36402511570E+02  0.86777207628E+02  0.71840247836E+02  0.11839107999E+03  0.00000000000E+00 0. -1.
         22    1    3    3    0    0  0.14838625613E+02 -0.73356180116E+02 -0.19838319784E+03  0.21203114667E+03  0.00000000000E+00 0.  1.
         22    1    3    3    0    0 -0.77012849888E+02 -0.29383505277E+02 -0.55142204577E+03  0.55754877993E+03  0.00000000000E+00 0.  1.
</event>
<event>
 7    1  0.6176857E-006  0.7461584E+02  0.7818608E-02  0.1418767E+00
          2   -1    0    0  502    0  0.00000000000E+00  0.00000000000E+00  0.22435761648E+04  0.22435761648E+04  0.00000000000E+00 0. -1.
          1   -1    0    0  501    0 -0.00000000000E+00 -0.00000000000E+00 -0.24103647572E+02  0.24103647572E+02  0.00000000000E+00 0. -1.
         25    2    1    2    0    0 -0.45045559071E+02  0.76505634305E+02  0.32962686026E+03  0.36353857080E+03  0.12499684387E+03 0.  0.
          2    1    1    2  501    0  0.59127300704E+02 -0.38043596829E+02  0.17210823791E+03  0.18591556821E+03  0.00000000000E+00 0. -1.
          1    1    1    2  502    0 -0.14081741633E+02 -0.38462037475E+02  0.17177374191E+04  0.17182256734E+04  0.00000000000E+00 0. -1.
         22    1    3    3    0    0  0.13628711908E+02  0.89540580185E+02  0.16407491670E+03  0.18741354161E+03  0.00000000000E+00 0. -1.
         22    1    3    3    0    0 -0.58674270979E+02 -0.13034945881E+02  0.16555194356E+03  0.17612502919E+03  0.00000000000E+00 0. -1.
</event>
<event>
 7    1  0.6176857E-006  0.7635864E+02  0.7818608E-02  0.1430460E+00
          2   -1    0    0  502    0  0.00000000000E+00  0.00000000000E+00  0.21857783310E+04  0.21857783310E+04  0.00000000000E+00 0. -1.
          1   -1    0    0  501    0 -0.00000000000E+00 -0.00000000000E+00 -0.21700734598E+03  0.21700734598E+03  0.00000000000E+00 0. -1.
         25    2    1    2    0    0 -0.14931134633E+02  0.39230864666E+02  0.91756119360E+03  0.92698756237E+03  0.12500158902E+03 0.  0.
          2    1    1    2  501    0  0.11838254834E+02 -0.75703497388E+02 -0.20510496037E+03  0.21895024221E+03  0.00000000000E+00 0. -1.
          1    1    1    2  502    0  0.30928797996E+01  0.36472632722E+02  0.12563147518E+04  0.12568478724E+04  0.00000000000E+00 0. -1.
         22    1    3    3    0    0  0.12578475564E+02  0.26372914318E+02  0.43519103573E+02  0.52418136489E+02  0.00000000000E+00 0.  1.
         22    1    3    3    0    0 -0.27509610198E+02  0.12857950347E+02  0.87404209003E+03  0.87456942588E+03  0.00000000000E+00 0.  1.
</event>
<event>
 7    1  0.6176857E-006  0.7325032E+02  0.7818608E-02  0.1450059E+00
          2   -1    0    0  502    0  0.00000000000E+00  0.00000000000E+00  0.18267990506E+04  0.18267990506E+04  0.00000000000E+00 0. -1.
          1   -1    0    0  501    0 -0.00000000000E+00 -0.00000000000E+00 -0.11203123389E+03  0.11203123389E+03  0.00000000000E+00 0. -1.
         25    2    1    2    0    0 -0.66371230157E+02  0.24623240840E+02  0.23145360531E+03  0.27240747885E+03  0.12499447563E+03 0.  0.
          2    1    1    2  501    0  0.15803351236E+02  0.28924323823E+02 -0.87696898190E+02  0.93686222953E+02  0.00000000000E+00 0. -1.
          1    1    1    2  502    0  0.50567878921E+02 -0.53547564663E+02  0.15710111096E+04  0.15727365826E+04  0.00000000000E+00 0. -1.
         22    1    3    3    0    0 -0.24918865901E+02  0.14489222381E+02  0.22775778187E+03  0.22957459494E+03  0.00000000000E+00 0. -1.
         22    1    3    3    0    0 -0.41452364257E+02  0.10134018459E+02  0.36958234484E+01  0.42832883904E+02  0.00000000000E+00 0. -1.
</event>
<event>
 7    1  0.6176857E-006  0.1403622E+03  0.7818608E-02  0.1325673E+00
          2   -1    0    0  502    0  0.00000000000E+00  0.00000000000E+00  0.15264091098E+03  0.15264091098E+03  0.00000000000E+00 0. -1.
          1   -1    0    0  501    0 -0.00000000000E+00 -0.00000000000E+00 -0.14089691888E+04  0.14089691888E+04  0.00000000000E+00 0. -1.
         25    2    1    2    0    0 -0.15333922710E+03 -0.28838843704E+02 -0.82568285489E+03  0.84954251932E+03  0.12500287116E+03 0.  0.
          2    1    1    2  501    0  0.13187238973E+03 -0.12946780382E+02 -0.55946863006E+03  0.57494616645E+03  0.00000000000E+00 0. -1.
          1    1    1    2  502    0  0.21466837370E+02  0.41785624086E+02  0.12882320712E+03  0.13712141401E+03  0.00000000000E+00 0. -1.
         22    1    3    3    0    0  0.17219869001E+02  0.12981218888E+02 -0.14386640221E+03  0.14547363203E+03  0.00000000000E+00 0.  1.
         22    1    3    3    0    0 -0.17055909611E+03 -0.41820062592E+02 -0.68181645268E+03  0.70406888729E+03  0.00000000000E+00 0.  1.
</event>
<event>
 7    1  0.6176857E-006  0.1814045E+03  0.7818608E-02  0.1189778E+00
          2   -1    0    0  502    0  0.00000000000E+00  0.00000000000E+00  0.93120191488E+03  0.93120191488E+03  0.00000000000E+00 0. -1.
          1   -1    0    0  501    0 -0.00000000000E+00 -0.00000000000E+00 -0.70252735091E+03  0.70252735091E+03  0.00000000000E+00 0. -1.
         25    2    1    2    0    0  0.77666185699E+02  0.20925678277E+02 -0.49597967551E+02  0.15670081773E+03  0.12500106992E+03 0.  0.
          2    1    1    2  501    0 -0.20970756191E+03 -0.65752326685E+02 -0.57336925435E+03  0.61404635967E+03  0.00000000000E+00 0. -1.
          1    1    1    2  502    0  0.13204137621E+03  0.44826648409E+02  0.85164178587E+03  0.86298208839E+03  0.00000000000E+00 0. -1.
         22    1    3    3    0    0 -0.26588910976E+02 -0.13041997960E+02 -0.35371739859E+02  0.46132676904E+02  0.00000000000E+00 0.  1.
         22    1    3    3    0    0  0.10425509667E+03  0.33967676236E+02 -0.14226227692E+02  0.11056814083E+03  0.00000000000E+00 0.  1.
</event>
<event>
 7    1  0.6176857E-006  0.1243068E+03  0.7818608E-02  0.1433386E+00
          2   -1    0    0  502    0  0.00000000000E+00  0.00000000000E+00  0.70483892349E+03  0.70483892349E+03  0.00000000000E+00 0. -1.
          1   -1    0    0  501    0 -0.00000000000E+00 -0.00000000000E+00 -0.94172206332E+03  0.94172206332E+03  0.00000000000E+00 0. -1.
         25    2    1    2    0    0  0.96267789358E+02 -0.92918257123E+02  0.23951023411E+03  0.30148275699E+03  0.12500164297E+03 0.  0.
          2    1    1    2  501    0 -0.75103460831E+02  0.98897785140E+02 -0.90622015539E+03  0.91468916675E+03  0.00000000000E+00 0. -1.
          1    1    1    2  502    0 -0.21164328527E+02 -0.59795280169E+01  0.42982678145E+03  0.43038906307E+03  0.00000000000E+00 0. -1.
         22    1    3    3    0    0  0.12148863412E+03 -0.99457314497E+02  0.20315148578E+03  0.25675235501E+03  0.00000000000E+00 0. -1.
         22    1    3    3    0    0 -0.25220844760E+02  0.65390573742E+01  0.36358748329E+02  0.44730401986E+02  0.00000000000E+00 0. -1.
</event>
<event>
 7    1  0.6176857E-006  0.2079347E+03  0.7818608E-02  0.1356300E+00
          2   -1    0    0  502    0  0.00000000000E+00  0.00000000000E+00  0.83142087346E+03  0.83142087346E+03  0.00000000000E+00 0. -1.
          1   -1    0    0  501    0 -0.00000000000E+00 -0.00000000000E+00 -0.25528854528E+03  0.25528854528E+03  0.00000000000E+00 0. -1.
         25    2    1    2    0    0  0.75801103056E+02  0.17249445632E+03  0.33931864103E+03  0.40775325075E+03  0.12500171462E+03 0.  0.
          2    1    1    2  501    0 -0.74924366083E+02 -0.19680904146E+03 -0.17047507123E+03  0.27094133931E+03  0.00000000000E+00 0. -1.
          1    1    1    2  502    0 -0.87673697353E+00  0.24314585137E+02  0.40728875838E+03  0.40801482868E+03  0.00000000000E+00 0. -1.
         22    1    3    3    0    0  0.80128614450E+02  0.80390219872E+02  0.99947264427E+02  0.15123702579E+03  0.00000000000E+00 0. -1.
         22    1    3    3    0    0 -0.43275113940E+01  0.92104236450E+02  0.23937137661E+03  0.25651622496E+03  0.00000000000E+00 0. -1.
</event>
<event>
 7    1  0.6176857E-006  0.8818384E+02  0.7818608E-02  0.1405246E+00
          2   -1    0    0  502    0  0.00000000000E+00  0.00000000000E+00  0.15811816213E+04  0.15811816213E+04  0.00000000000E+00 0. -1.
          1   -1    0    0  501    0 -0.00000000000E+00 -0.00000000000E+00 -0.23741078348E+03  0.23741078348E+03  0.00000000000E+00 0. -1.
         25    2    1    2    0    0  0.73615173938E+01 -0.99990924293E+02  0.99109898542E+02  0.18841589217E+03  0.12500159820E+03 0.  0.
          2    1    1    2  501    0  0.32084623413E+02  0.21282069301E+02 -0.18947176443E+03  0.19334399150E+03  0.00000000000E+00 0. -1.
          1    1    1    2  502    0 -0.39446140807E+02  0.78708854992E+02  0.14341327037E+04  0.14368325211E+04  0.00000000000E+00 0. -1.
         22    1    3    3    0    0  0.41116300668E+02 -0.95969443268E+02  0.11101541350E+03  0.15239785516E+03  0.00000000000E+00 0.  1.
         22    1    3    3    0    0 -0.33754783274E+02 -0.40214810256E+01 -0.11905514961E+02  0.36018037009E+02  0.00000000000E+00 0.  1.
</event>
