<event>
 7    1  0.5139898E-006  0.1131964E+03  0.7818608E-02  0.1273691E+00
          2   -1    0    0  502    0  0.00000000000E+00  0.00000000000E+00  0.12680893049E+04  0.12680893049E+04  0.00000000000E+00 0. -1.
          1   -1    0    0  501    0 -0.00000000000E+00 -0.00000000000E+00 -0.23696673183E+04  0.23696673183E+04  0.00000000000E+00 0. -1.
         25    2    1    2    0    0  0.60049790488E+02  0.17145604130E+03 -0.11407633771E+03  0.24827915144E+03  0.12500389906E+03 0.  0.
          2    1    1    2  501    0 -0.79209054533E+02 -0.79326449924E+02 -0.21852073411E+04  0.21880808677E+04  0.00000000000E+00 0. -1.
          1    1    1    2  502    0  0.19159264045E+02 -0.92129591372E+02  0.11977056655E+04  0.12013966040E+04  0.00000000000E+00 0. -1.
         22    1    3    3    0    0  0.22547324326E+01  0.16189983295E+03 -0.85408595618E+02  0.18306083124E+03  0.00000000000E+00 0. -1.
         22    1    3    3    0    0  0.57795058055E+02  0.95562083478E+01 -0.28667742095E+02  0.65218320206E+02  0.00000000000E+00 0. -1.
</event>
<event>
 7    1  0.5139898E-006  0.9508280E+02  0.7818608E-02  0.1387546E+00
          2   -1    0    0  502    0  0.00000000000E+00  0.00000000000E+00  0.23444670866E+04  0.23444670866E+04  0.00000000000E+00 0. -1.
          1   -1    0    0  501    0 -0.00000000000E+00 -0.00000000000E+00 -0.96130675815E+03  0.96130675815E+03  0.00000000000E+00 0. -1.
         25    2    1    2    0    0  0.12864433808E+02  0.11630001236E+03  0.53161483002E+03  0.55850819964E+03  0.12500358009E+03 0.  0.
          2    1    1    2  501    0  0.20803582914E+02 -0.92709125494E+02 -0.94524326977E+03  0.95000663684E+03  0.00000000000E+00 0. -1.
          1    1    1    2  502    0 -0.33668016722E+02 -0.23590886865E+02  0.17967887682E+04  0.17972590083E+04  0.00000000000E+00 0. -1.
         22    1    3    3    0    0  0.67667855696E+02  0.58702575670E+02  0.23735782367E+03  0.25369995574E+03  0.00000000000E+00 0. -1.
         22    1    3    3    0    0 -0.54803421888E+02  0.57597436689E+02  0.29425700635E+03  0.30480824390E+03  0.00000000000E+00 0. -1.
</event>
<event>
 7    1  0.5139898E-006  0.1494814E+03  0.7818608E-02  0.1265733E+00
          2   -1    0    0  502    0  0.00000000000E+00  0.00000000000E+00  0.14846968847E+03  0.14846968847E+03  0.00000000000E+00 0. -1.
          1   -1    0    0  501    0 -0.00000000000E+00 -0.00000000000E+00 -0.63036941063E+03  0.63036941063E+03  0.00000000000E+00 0. -1.
         25    2    1    2    0    0 -0.99914133242E+01  0.94362728015E+02 -0.11666036635E+03  0.19551667360E+03  0.12495189394E+03 0.  0.
          2    1    1    2  501    0  0.13514813718E+02 -0.17124382669E+03 -0.44225529427E+03  0.47444372024E+03  0.00000000000E+00 0. -1.
          1    1    1    2  502    0 -0.35234003939E+01  0.76881098676E+02  0.77015938453E+02  0.10887870526E+03  0.00000000000E+00 0. -1.
         22    1    3    3    0    0 -0.41709458229E+02  0.10855292228E+03 -0.11012647107E+03  0.16016009326E+03  0.00000000000E+00 0. -1.
         22    1    3    3    0    0  0.31718044905E+02 -0.14190194263E+02 -0.65338952737E+01  0.35356580339E+02  0.00000000000E+00 0. -1.
</event>
<event>
 7    1  0.5139898E-006  0.6946445E+02  0.7818608E-02  0.1439038E+00
          2   -1    0    0  502    0  0.00000000000E+00  0.00000000000E+00  0.14534510664E+04  0.14534510664E+04  0.00000000000E+00 0. -1.
          1   -1    0    0  501    0 -0.00000000000E+00 -0.00000000000E+00 -0.90524154444E+03  0.90524154444E+03  0.00000000000E+00 0. -1.
         25    2    1    2    0    0 -0.59640321760E+02 -0.22374973595E+02  0.16824459772E+03  0.21906694218E+03  0.12500589214E+03 0.  0.
          2    1    1    2  501    0  0.68071392000E+02 -0.14390541932E+02 -0.87817178377E+03  0.88092365385E+03  0.00000000000E+00 0. -1.
          1    1    1    2  502    0 -0.84310702397E+01  0.36765515527E+02  0.12581367080E+04  0.12587020148E+04  0.00000000000E+00 0. -1.
         22    1    3    3    0    0 -0.22634656578E+01  0.36178610411E+02  0.52636469157E+01  0.36629511421E+02  0.00000000000E+00 0. -1.
         22    1    3    3    0    0 -0.57376856102E+02 -0.58553584006E+02  0.16298095081E+03  0.18243743076E+03  0.00000000000E+00 0. -1.
</event>
<event>
 7    1  0.5139898E-006  0.6091326E+02  0.7818608E-02  0.1418968E+00
          2   -1    0    0  502    0  0.00000000000E+00  0.00000000000E+00  0.40677058881E+03  0.40677058881E+03  0.00000000000E+00 0. -1.
          1   -1    0    0  501    0 -0.00000000000E+00 -0.00000000000E+00 -0.11518959327E+04  0.11518959327E+04  0.00000000000E+00 0. -1.
         25    2    1    2    0    0 -0.64965446916E+02  0.35345687936E+02  0.21170976139E+02  0.14677566001E+03  0.12500022877E+03 0.  0.
          2    1    1    2  501    0  0.44811283116E+02  0.22393141696E+02 -0.10856142804E+04  0.10867694648E+04  0.00000000000E+00 0. -1.
          1    1    1    2  502    0  0.20154163800E+02 -0.57738829633E+02  0.31931796036E+03  0.32512139667E+03  0.00000000000E+00 0. -1.
         22    1    3    3    0    0 -0.22238326891E+02  0.75505190466E+02 -0.11662467038E+02  0.79571289468E+02  0.00000000000E+00 0. -1.
         22    1    3    3    0    0 -0.42727120025E+02 -0.40159502529E+02  0.32833443176E+02  0.67204370541E+02  0.00000000000E+00 0. -1.
</event>
<event>
 7    1  0.5139898E-006  0.1593340E+03  0.7818608E-02  0.1317957E+00
          2   -1    0    0  502    0  0.00000000000E+00  0.00000000000E+00  0.42168014563E+04  0.42168014563E+04  0.00000000000E+00 0. -1.
          1   -1    0    0  501    0 -0.00000000000E+00 -0.00000000000E+00 -0.10264012206E+03  0.10264012206E+03  0.00000000000E+00 0. -1.
         25    2    1    2    0    0  0.80754864200E+02  0.11361099477E+03  0.21409553674E+03  0.28441459392E+03  0.12500382457E+03 0.  0.
          2    1    1    2  501    0  0.42864459019E+02 -0.11298135106E+02 -0.58395414433E+02  0.73314624262E+02  0.00000000000E+00 0. -1.
          1    1    1    2  502    0 -0.12361932322E+03 -0.10231285967E+03  0.39584612119E+04  0.39617123602E+04  0.00000000000E+00 0. -1.
         22    1    3    3    0    0  0.55646047731E+02  0.12949185544E+03  0.21207320414E+03  0.25463634298E+03  0.00000000000E+00 0.  1.
         22    1    3    3    0    0  0.25108816469E+02 -0.15880860666E+02  0.20223326035E+01  0.29778250941E+02  0.00000000000E+00 0.  1.
</event>
<event>
 7    1  0.5139898E-006  0.1635840E+03  0.7818608E-02  0.1280261E+00
          2   -1    0    0  502    0  0.00000000000E+00  0.00000000000E+00  0.92214687441E+03  0.92214687441E+03  0.00000000000E+00 0. -1.
          1   -1    0    0  501    0 -0.00000000000E+00 -0.00000000000E+00 -0.11579657187E+04  0.11579657187E+04  0.00000000000E+00 0. -1.
         25    2    1    2    0    0 -0.34556543494E+02 -0.98320181229E+02 -0.29929110018E+03  0.34066759403E+03  0.12497293404E+03 0.  0.
          2    1    1    2  501    0 -0.28131306254E+02 -0.54296450315E+02 -0.82930184297E+03  0.83155337872E+03  0.00000000000E+00 0. -1.
          1    1    1    2  502    0  0.62687849748E+02  0.15261663154E+03  0.89277409886E+03  0.90789162036E+03  0.00000000000E+00 0. -1.
         22    1    3    3    0    0 -0.72845227058E+01  0.13434952472E+02 -0.15677390014E+03  0.15751704030E+03  0.00000000000E+00 0. -1.
         22    1    3    3    0    0 -0.27272020788E+02 -0.11175513370E+03 -0.14251720003E+03  0.18315055373E+03  0.00000000000E+00 0. -1.
</event>
<event>
 7    1  0.5139898E-006  0.1213778E+03  0.7818608E-02  0.1248450E+00
          2   -1    0    0  502    0  0.00000000000E+00  0.00000000000E+00  0.11701461063E+04  0.11701461063E+04  0.00000000000E+00 0. -1.
          1   -1    0    0  501    0 -0.00000000000E+00 -0.00000000000E+00 -0.22139644070E+03  0.22139644070E+03  0.00000000000E+00 0. -1.
         25    2    1    2    0    0 -0.45928972543E+02 -0.32765371671E+02  0.31208065913E+03  0.34088510777E+03  0.12500111516E+03 0.  0.
          2    1    1    2  501    0  0.11365149244E+03 -0.56966051182E+02 -0.18327067687E+03  0.22304693166E+03  0.00000000000E+00 0. -1.
          1    1    1    2  502    0 -0.67722519901E+02  0.89731422853E+02  0.81993968335E+03  0.82761050759E+03  0.00000000000E+00 0. -1.
         22    1    3    3    0    0  0.72132548611E+01 -0.67626159192E+02  0.20898993141E+03  0.21977743261E+03  0.00000000000E+00 0.  1.
         22    1    3    3    0    0 -0.53142227404E+02  0.34860787521E+02  0.10309072773E+03  0.12110767516E+03  0.00000000000E+00 0.  1.
</event>
<event>
 7    1  0.5139898E-006  0.7778717E+02  0.7818608E-02  0.1426623E+00
          2   -1    0    0  502    0  0.00000000000E+00  0.00000000000E+00  0.99024372762E+03  0.99024372762E+03  0.00000000000E+00 0. -1.
          1   -1    0    0  501    0 -0.00000000000E+00 -0.00000000000E+00 -0.98962854766E+02  0.98962854766E+02  0.00000000000E+00 0. -1.
         25    2    1    2    0    0 -0.79741881477E+02 -0.79381665957E+02  0.61651413570E+03  0.63904233312E+03  0.12500082980E+03 0.  0.
          2    1    1    2  501    0  0.59906773794E+02  0.48154391625E+02 -0.69675107697E+02  0.10374144597E+03  0.00000000000E+00 0. -1.
          1    1    1    2  502    0  0.19835107682E+02  0.31227274332E+02  0.34444184485E+03  0.34642280329E+03  0.00000000000E+00 0. -1.
         22    1    3    3    0    0 -0.58783668492E+02 -0.63450757608E+01  0.47275282105E+03  0.47643573488E+03  0.00000000000E+00 0. -1.
         22    1    3    3    0    0 -0.20958212985E+02 -0.73036590196E+02  0.14376131466E+03  0.16260659824E+03  0.00000000000E+00 0. -1.
</event>
<event>
 7    1  0.5139898E-006  0.1044690E+03  0.7818608E-02  0.1417154E+00
          2   -1    0    0  502    0  0.00000000000E+00  0.00000000000E+00  0.11014100389E+04  0.11014100389E+04  0.00000000000E+00 0. -1.
          1   -1    0    0  501    0 -0.00000000000E+00 -0.00000000000E+00 -0.12650609728E+04  0.12650609728E+04  0.00000000000E+00 0. -1.
         25    2    1    2    0    0 -0.86195335747E+02 -0.39859482456E+01  0.28588281105E+03  0.32373073480E+03  0.12500833297E+03 0.  0.
          2    1    1    2  501    0  0.10019873516E+03  0.30087326029E+02 -0.12436646210E+04  0.12480571794E+04  0.00000000000E+00 0. -1.
          1    1    1    2  502    0 -0.14003399413E+02 -0.26101377784E+02  0.79413087603E+03  0.79468309745E+03  0.00000000000E+00 0. -1.
         22    1    3    3    0    0 -0.75569454323E+02  0.86977287885E+01  0.29513009292E+03  0.30477559722E+03  0.00000000000E+00 0.  1.
         22    1    3    3    0    0 -0.10625881424E+02 -0.12683677034E+02 -0.92472818623E+01  0.18955137588E+02  0.00000000000E+00 0.  1.
</event>
<event>
 7    1  0.5139898E-006  0.8175671E+02  0.7818608E-02  0.1366402E+00
          2   -1    0    0  502    0  0.00000000000E+00  0.00000000000E+00  0.71803442743E+02  0.71803442743E+02  0.00000000000E+00 0. -1.
          1   -1    0    0  501    0 -0.00000000000E+00 -0.00000000000E+00 -0.39178483291E+03  0.39178483291E+03  0.00000000000E+00 0. -1.
         25    2    1    2    0    0  0.62082836109E+02  0.24539289196E+02 -0.60651440536E+02  0.15414149982E+03  0.12499819789E+03 0.  0.
          2    1    1    2  501    0  0.49683825134E+02 -0.27638330215E+02 -0.94096583684E+02  0.10993874130E+03  0.00000000000E+00 0. -1.
          1    1    1    2  502    0 -0.11176666124E+03  0.30990410185E+01 -0.16523336594E+03  0.19950803453E+03  0.00000000000E+00 0. -1.
         22    1    3    3    0    0  0.74819590976E+01 -0.32848907540E+02  0.21543606821E+02  0.39989466530E+02  0.00000000000E+00 0. -1.
         22    1    3    3    0    0  0.54600877011E+02  0.57388196737E+02 -0.82195047356E+02  0.11415203329E+03  0.00000000000E+00 0. -1.
</event>
<event>
 7    1  0.5139898E-006  0.7673811E+02  0.7818608E-02  0.1364083E+00
          2   -1    0    0  502    0  0.00000000000E+00  0.00000000000E+00  0.49608234641E+03  0.49608234641E+03  0.00000000000E+00 0. -1.
          1   -1    0    0  501    0 -0.00000000000E+00 -0.00000000000E+00 -0.54714391661E+03  0.54714391661E+03  0.00000000000E+00 0. -1.
         25    2    1    2    0    0 -0.11825376672E+03  0.28284758130E+02  0.30689133521E+03  0.35297457841E+03  0.12499912195E+03 0.  0.
          2    1    1    2  501    0  0.74837691341E+02  0.15631838660E+02 -0.51544547286E+03  0.52108451322E+03  0.00000000000E+00 0. -1.
          1    1    1    2  502    0  0.43416075384E+02 -0.43916596789E+02  0.15749256745E+03  0.16916717139E+03  0.00000000000E+00 0. -1.
         22    1    3    3    0    0 -0.10172476590E+03  0.56141896176E+02  0.29729222954E+03  0.31919039811E+03  0.00000000000E+00 0. -1.
         22    1    3    3    0    0 -0.16529000829E+02 -0.27857138046E+02  0.95991056711E+01  0.33784180295E+02  0.00000000000E+00 0. -1.
</event>
<event>
 7    1  0.5692858E-006  0.7285375E+02  0.7818608E-02  0.1454713E+00
          2   -1    0    0  502    0  0.00000000000E+00  0.00000000000E+00  0.37029831136E+03  0.37029831136E+03  0.00000000000E+00 0. -1.
          1   -1    0    0  501    0 -0.00000000000E+00 -0.00000000000E+00 -0.23132309834E+04  0.23132309834E+04  0.00000000000E+00 0. -1.
         25    2    1    2    0    0 -0.29713600114E+02  0.70137136178E+02 -0.98118109307E+03  0.99203667328E+03  0.12497322841E+03 0.  0.
          2    1    1    2  501    0  0.31912291943E+02  0.26967867295E+01 -0.13227883366E+04  0.13231759711E+04  0.00000000000E+00 0. -1.
          1    1    1    2  502    0 -0.21986918285E+01 -0.72833922907E+02  0.36103675764E+03  0.36831665037E+03  0.00000000000E+00 0. -1.
         22    1    3    3    0    0 -0.10505316672E+02  0.15011991797E+02 -0.82655743531E+03  0.82676049461E+03  0.00000000000E+00 0. -1.
         22    1    3    3    0    0 -0.19208283443E+02  0.55125144381E+02 -0.15462365776E+03  0.16527617867E+03  0.00000000000E+00 0. -1.
</event>
<event>
 7    1  0.5139898E-006  0.9707830E+02  0.7818608E-02  0.1361920E+00
          2   -1    0    0  502    0  0.00000000000E+00  0.00000000000E+00  0.14184396813E+04  0.14184396813E+04  0.00000000000E+00 0. -1.
          1   -1    0    0  501    0 -0.00000000000E+00 -0.00000000000E+00 -0.10964966558E+04  0.10964966558E+04  0.00000000000E+00 0. -1.
         25    2    1    2    0    0  0.42166676235E+02  0.13492210948E+03  0.13671383111E+03  0.23302351237E+03  0.12500912561E+03 0.  0.
          2    1    1    2  501    0 -0.11374110380E+02 -0.95901684481E+02 -0.10456150006E+04  0.10500653470E+04  0.00000000000E+00 0. -1.
          1    1    1    2  502    0 -0.30792565854E+02 -0.39020425004E+02  0.12308441951E+04  0.12318474777E+04  0.00000000000E+00 0. -1.
         22    1    3    3    0    0  0.67903728640E+01  0.13215855239E+03  0.53828166640E+02  0.14286169416E+03  0.00000000000E+00 0. -1.
         22    1    3    3    0    0  0.35376303371E+02  0.27635570927E+01  0.82885664471E+02  0.90161818209E+02  0.00000000000E+00 0. -1.
</event>
<event>
 7    1  0.5139898E-006  0.1007679E+03  0.7818608E-02  0.1375213E+00
          2   -1    0    0  502    0  0.00000000000E+00  0.00000000000E+00  0.10632352093E+03  0.10632352093E+03  0.00000000000E+00 0. -1.
          1   -1    0    0  501    0 -0.00000000000E+00 -0.00000000000E+00 -0.47661628773E+03  0.47661628773E+03  0.00000000000E+00 0. -1.
         25    2    1    2    0    0  0.90424853821E+02  0.48838591928E+02 -0.21692329457E+03  0.27063291485E+03  0.12499838649E+03 0.  0.
          2    1    1    2  501    0 -0.28712845695E+02  0.31856646057E+02 -0.19709606105E+03  0.20170803328E+03  0.00000000000E+00 0. -1.
          1    1    1    2  502    0 -0.61712008126E+02 -0.80695237985E+02  0.43726588823E+02  0.11059886053E+03  0.00000000000E+00 0. -1.
         22    1    3    3    0    0  0.90337226879E+01 -0.30175397502E+02 -0.11117452401E+03  0.11555058437E+03  0.00000000000E+00 0. -1.
         22    1    3    3    0    0  0.81391131133E+02  0.79013989430E+02 -0.10574877056E+03  0.15508233048E+03  0.00000000000E+00 0. -1.
</event>
<event>
 7    1  0.5139898E-006  0.1133286E+03  0.7818608E-02  0.1254572E+00
          2   -1    0    0  502    0  0.00000000000E+00  0.00000000000E+00  0.10535572574E+04  0.10535572574E+04  0.00000000000E+00 0. -1.
          1   -1    0    0  501    0 -0.00000000000E+00 -0.00000000000E+00 -0.23702268044E+03  0.23702268044E+03  0.00000000000E+00 0. -1.
         25    2    1    2    0    0  0.81590471498E+02  0.19264678838E+02  0.15903476409E+03  0.21896406662E+03  0.12500029356E+03 0.  0.
          2    1    1    2  501    0 -0.75439835888E+02  0.93846169661E+02 -0.18543799604E+03  0.22110070731E+03  0.00000000000E+00 0. -1.
          1    1    1    2  502    0 -0.61506356096E+01 -0.11311084850E+03  0.84293780888E+03  0.85051516389E+03  0.00000000000E+00 0. -1.
         22    1    3    3    0    0  0.26029015503E+02  0.57588590052E+02  0.23268505403E+02  0.67345220290E+02  0.00000000000E+00 0.  1.
         22    1    3    3    0    0  0.55561455995E+02 -0.38323911213E+02  0.13576625869E+03  0.15161884633E+03  0.00000000000E+00 0.  1.
</event>
<event>
 7    1  0.5139898E-006  0.7012188E+02  0.7818608E-02  0.1372378E+00
          2   -1    0    0  502    0  0.00000000000E+00  0.00000000000E+00  0.34809700500E+03  0.34809700500E+03  0.00000000000E+00 0. -1.
          1   -1    0    0  501    0 -0.00000000000E+00 -0.00000000000E+00 -0.19934491807E+04  0.19934491807E+04  0.00000000000E+00 0. -1.
         25    2    1    2    0    0 -0.63450608102E+02 -0.23325134964E+02 -0.54462678955E+03  0.56286243264E+03  0.12500294633E+03 0.  0.
          2    1    1    2  501    0  0.44748805221E+02 -0.44466496427E+02 -0.14353569544E+04  0.14367426044E+04  0.00000000000E+00 0. -1.
          1    1    1    2  502    0  0.18701802881E+02  0.67791631390E+02  0.33463156820E+03  0.34194114867E+03  0.00000000000E+00 0. -1.
         22    1    3    3    0    0 -0.10109449842E+03 -0.20136304509E+02 -0.36322457555E+03  0.37756808745E+03  0.00000000000E+00 0.  1.
         22    1    3    3    0    0  0.37643890320E+02 -0.31888304542E+01 -0.18140221400E+03  0.18529434519E+03  0.00000000000E+00 0.  1.
</event>
<event>
 7    1  0.5139898E-006  0.4923376E+02  0.7818608E-02  0.1575677E+00
          2   -1    0    0  502    0  0.00000000000E+00  0.00000000000E+00  0.59389559490E+03  0.59389559490E+03  0.00000000000E+00 0. -1.
          1   -1    0    0  501    0 -0.00000000000E+00 -0.00000000000E+00 -0.21300483563E+03  0.21300483563E+03  0.00000000000E+00 0. -1.
         25    2    1    2    0    0  0.14335038857E+01  0.53765214776E+02 -0.46278446904E+02  0.14373010401E+03  0.12499557951E+03 0.  0.
          2    1    1    2  501    0 -0.20360387764E+02 -0.44743061866E+02 -0.11266854850E+03  0.12292554168E+03  0.00000000000E+00 0. -1.
          1    1    1    2  502    0  0.18926883879E+02 -0.90221529106E+01  0.53983775468E+03  0.54024478485E+03  0.00000000000E+00 0. -1.
         22    1    3    3    0    0  0.22221231113E+02  0.18399556799E+02 -0.83496487484E+02  0.88340195974E+02  0.00000000000E+00 0.  1.
         22    1    3    3    0    0 -0.20787727227E+02  0.35365657978E+02  0.37218040580E+02  0.55389908034E+02  0.00000000000E+00 0.  1.
</event>
<event>
 7    1  0.5139898E-006  0.1343077E+03  0.7818608E-02  0.1262967E+00
          2   -1    0    0  502    0  0.00000000000E+00  0.00000000000E+00  0.11821174749E+04  0.11821174749E+04  0.00000000000E+00 0. -1.
          1   -1    0    0  501    0 -0.00000000000E+00 -0.00000000000E+00 -0.11516968388E+03  0.11516968388E+03  0.00000000000E+00 0. -1.
         25    2    1    2    0    0  0.13244826068E+03 -0.14937650817E+03  0.46287201030E+03  0.51935668157E+03  0.12499992726E+03 0.  0.
          2    1    1    2  501    0 -0.50028117837E+02  0.11853876984E+03 -0.34588957682E+02  0.13323155978E+03  0.00000000000E+00 0. -1.
          1    1    1    2  502    0 -0.82420142847E+02  0.30837738335E+02  0.63866473840E+03  0.64469891742E+03  0.00000000000E+00 0. -1.
         22    1    3    3    0    0  0.63483042082E+02 -0.14162620272E+03  0.23897797450E+03  0.28495359310E+03  0.00000000000E+00 0. -1.
         22    1    3    3    0    0  0.68965218602E+02 -0.77503054539E+01  0.22389403581E+03  0.23440308846E+03  0.00000000000E+00 0. -1.
</event>
<event>
 7    1  0.5139898E-006  0.7004887E+02  0.7818608E-02  0.1430225E+00
          2   -1    0    0  502    0  0.00000000000E+00  0.00000000000E+00  0.32520780334E+03  0.32520780334E+03  0.00000000000E+00 0. -1.
          1   -1    0    0  501    0 -0.00000000000E+00 -0.00000000000E+00 -0.24803490909E+03  0.24803490909E+03  0.00000000000E+00 0. -1.
         25    2    1    2    0    0  0.15382402281E+02  0.48709642922E+02 -0.18372674152E+03  0.22801186138E+03  0.12499858306E+03 0.  0.
          2    1    1    2  501    0  0.39713484659E+02 -0.45366177894E+01 -0.27365623542E+02  0.48441914873E+02  0.00000000000E+00 0. -1.
          1    1    1    2  502    0 -0.55095886940E+02 -0.44173025133E+02  0.28826525932E+03  0.29678893618E+03  0.00000000000E+00 0. -1.
         22    1    3    3    0    0  0.44419431946E+02  0.13471096094E+02 -0.17560288085E+03  0.18163405002E+03  0.00000000000E+00 0. -1.
         22    1    3    3    0    0 -0.29037029666E+02  0.35238546828E+02 -0.81238606727E+01  0.46377811361E+02  0.00000000000E+00 0. -1.
</event>
<event>
 7    1  0.5139898E-006  0.6621296E+02  0.7818608E-02  0.1442002E+00
          2   -1    0    0  502    0  0.00000000000E+00  0.00000000000E+00  0.29949377632E+03  0.29949377632E+03  0.00000000000E+00 0. -1.
          1   -1    0    0  501    0 -0.00000000000E+00 -0.00000000000E+00 -0.11285314300E+04  0.11285314300E+04  0.00000000000E+00 0. -1.
         25    2    1    2    0    0 -0.10371633328E+03 -0.10114780477E+02 -0.26176958040E+02  0.16482191349E+03  0.12498657313E+03 0.  0.
          2    1    1    2  501    0  0.65533032813E+02  0.37759009296E+01 -0.10303529526E+04  0.10324417866E+04  0.00000000000E+00 0. -1.
          1    1    1    2  502    0  0.38183300465E+02  0.63388795473E+01  0.22749225690E+03  0.23076150628E+03  0.00000000000E+00 0. -1.
         22    1    3    3    0    0 -0.87340410045E+02 -0.41863061511E+02 -0.61381644159E+02  0.11466721147E+03  0.00000000000E+00 0. -1.
         22    1    3    3    0    0 -0.16375923233E+02  0.31748281034E+02  0.35204686119E+02  0.50154702023E+02  0.00000000000E+00 0. -1.
</event>
<event>
 7    1  0.5139898E-006  0.7804868E+02  0.7818608E-02  0.1369650E+00
          2   -1    0    0  502    0  0.00000000000E+00  0.00000000000E+00  0.39507955548E+03  0.39507955548E+03  0.00000000000E+00 0. -1.
          1   -1    0    0  501    0 -0.00000000000E+00 -0.00000000000E+00 -0.95600928540E+02  0.95600928540E+02  0.00000000000E+00 0. -1.
         25    2    1    2    0    0 -0.78818770770E+02 -0.21101387412E+02  0.20293768163E+03  0.25192837626E+03  0.12500614769E+03 0.  0.
          2    1    1    2  501    0  0.32678967289E+02 -0.47881912883E+02 -0.45870188530E+02  0.73923383852E+02  0.00000000000E+00 0. -1.
          1    1    1    2  502    0  0.46139803481E+02  0.68983300296E+02  0.14241113384E+03  0.16482872391E+03  0.00000000000E+00 0. -1.
         22    1    3    3    0    0 -0.71540448928E+01 -0.57310211552E+02  0.13468733720E+03  0.14654801093E+03  0.00000000000E+00 0. -1.
         22    1    3    3    0    0 -0.71664725878E+02  0.36208824140E+02  0.68250344436E+02  0.10538036533E+03  0.00000000000E+00 0. -1.
</event>
<event>
 7    1  0.5139898E-006  0.1336279E+03  0.7818608E-02  0.1280178E+00
          2   -1    0    0  502    0  0.00000000000E+00  0.00000000000E+00  0.75791577777E+02  0.75791577777E+02  0.00000000000E+00 0. -1.
          1   -1    0    0  501    0 -0.00000000000E+00 -0.00000000000E+00 -0.36016051209E+04  0.36016051209E+04  0.00000000000E+00 0. -1.
         25    2    1    2    0    0 -0.84492716933E+01 -0.10137865182E+03 -0.10617223160E+04  0.10738846778E+04  0.12500001423E+03 0.  0.
          2    1    1    2  501    0  0.72373396788E+02 -0.19361813322E+02 -0.24657458347E+04  0.24668837244E+04  0.00000000000E+00 0. -1.
          1    1    1    2  502    0 -0.63924125095E+02  0.12074046514E+03  0.16546075660E+01  0.13662829655E+03  0.00000000000E+00 0. -1.
         22    1    3    3    0    0 -0.54909836421E+02 -0.86866018572E+02 -0.87131815117E+03  0.87735746186E+03  0.00000000000E+00 0. -1.
         22    1    3    3    0    0  0.46460564728E+02 -0.14512633244E+02 -0.19040416484E+03  0.19652721590E+03  0.00000000000E+00 0. -1.
</event>
<event>
 7    1  0.5139898E-006  0.9973032E+02  0.7818608E-02  0.1370032E+00
          2   -1    0    0  502    0  0.00000000000E+00  0.00000000000E+00  0.92077894865E+03  0.92077894865E+03  0.00000000000E+00 0. -1.
          1   -1    0    0  501    0 -0.00000000000E+00 -0.00000000000E+00 -0.84599510727E+03  0.84599510727E+03  0.00000000000E+00 0. -1.
         25    2    1    2    0    0 -0.31356281585E+02  0.13915953855E+03 -0.73968424924E+02  0.20357610797E+03  0.12499324097E+03 0.  0.
          2    1    1    2  501    0  0.23599812191E+02 -0.94605359797E+02 -0.70325956590E+03  0.70998671978E+03  0.00000000000E+00 0. -1.
          1    1    1    2  502    0  0.77564693940E+01 -0.44554178750E+02  0.85201183220E+03  0.85321122817E+03  0.00000000000E+00 0. -1.
         22    1    3    3    0    0  0.27688644879E+01  0.68364235032E+02 -0.99665745840E+02  0.12089084389E+03  0.00000000000E+00 0. -1.
         22    1    3    3    0    0 -0.34125146073E+02  0.70795303514E+02  0.25697320917E+02  0.82685264083E+02  0.00000000000E+00 0. -1.
</event>
<event>
 7    1  0.6813343E-006  0.8810164E+02  0.7818608E-02  0.1385560E+00
          2   -1    0    0  502    0  0.00000000000E+00  0.00000000000E+00  0.59142537961E+03  0.59142537961E+03  0.00000000000E+00 0. -1.
          1   -1    0    0  501    0 -0.00000000000E+00 -0.00000000000E+00 -0.13231768998E+04  0.13231768998E+04  0.00000000000E+00 0. -1.
         25    2    1    2    0    0 -0.31014592679E+02  0.32669469545E+02 -0.25504622739E+03  0.28757518349E+03  0.12498683471E+03 0.  0.
          2    1    1    2  501    0 -0.17417360556E+02  0.41585400917E+02 -0.10479624258E+04  0.10489318166E+04  0.00000000000E+00 0. -1.
          1    1    1    2  502    0  0.48431953236E+02 -0.74254870462E+02  0.57125713303E+03  0.57809527928E+03  0.00000000000E+00 0. -1.
         22    1    3    3    0    0  0.58111203269E+01  0.70484318334E+02 -0.91029662558E+02  0.11527448857E+03  0.00000000000E+00 0. -1.
         22    1    3    3    0    0 -0.36825713006E+02 -0.37814848790E+02 -0.16401656484E+03  0.17230069491E+03  0.00000000000E+00 0. -1.
</event>
<event>
 7    1  0.5139898E-006  0.9089738E+02  0.7818608E-02  0.1462020E+00
          2   -1    0    0  502    0  0.00000000000E+00  0.00000000000E+00  0.84665874771E+03  0.84665874771E+03  0.00000000000E+00 0. -1.
          1   -1    0    0  501    0 -0.00000000000E+00 -0.00000000000E+00 -0.12342984938E+03  0.12342984938E+03  0.00000000000E+00 0. -1.
         25    2    1    2    0    0 -0.97522284528E+02  0.56212748004E+02  0.14779388739E+03  0.22390438336E+03  0.12497868106E+03 0.  0.
          2    1    1    2  501    0  0.76155539185E+02 -0.44557405586E+02 -0.62283625810E+02  0.10800128974E+03  0.00000000000E+00 0. -1.
          1    1    1    2  502    0  0.21366745343E+02 -0.11655342419E+02  0.63771863675E+03  0.63818292399E+03  0.00000000000E+00 0. -1.
         22    1    3    3    0    0 -0.28730507873E+02  0.75288085548E+02  0.12544942298E+03  0.14910162855E+03  0.00000000000E+00 0.  1.
         22    1    3    3    0    0 -0.68791776656E+02 -0.19075337543E+02  0.22344464410E+02  0.74802754813E+02  0.00000000000E+00 0.  1.
</event>
<event>
 7    1  0.5139898E-006  0.1863580E+03  0.7818608E-02  0.1225994E+00
          2   -1    0    0  502    0  0.00000000000E+00  0.00000000000E+00  0.67723096388E+03  0.67723096388E+03  0.00000000000E+00 0. -1.
          1   -1    0    0  501    0 -0.00000000000E+00 -0.00000000000E+00 -0.61862934881E+03  0.61862934881E+03  0.00000000000E+00 0. -1.
         25    2    1    2    0    0 -0.13375002523E+03 -0.41356790935E+02 -0.32553131781E+03  0.37575981288E+03  0.12500137875E+03 0.  0.
          2    1    1    2  501    0 -0.51835216450E+02  0.76094676662E+02 -0.24580107402E+03  0.26247944200E+03  0.00000000000E+00 0. -1.
          1    1    1    2  502    0  0.18558524168E+03 -0.34737885727E+02  0.62993400691E+03  0.65762105782E+03  0.00000000000E+00 0. -1.
         22    1    3    3    0    0 -0.78550484985E+02 -0.53254252168E+02 -0.29837196672E+03  0.31310066207E+03  0.00000000000E+00 0. -1.
         22    1    3    3    0    0 -0.55199540250E+02  0.11897461232E+02 -0.27159351090E+02  0.62659150801E+02  0.00000000000E+00 0. -1.
</event>
<event>
 7    1  0.5139898E-006  0.2848636E+03  0.7818608E-02  0.1200350E+00
          2   -1    0    0  502    0  0.00000000000E+00  0.00000000000E+00  0.77657723609E+03  0.77657723609E+03  0.00000000000E+00 0. -1.
          1   -1    0    0  501    0 -0.00000000000E+00 -0.00000000000E+00 -0.14026020246E+04  0.14026020246E+04  0.00000000000E+00 0. -1.
         25    2    1    2    0    0 -0.15257616127E+03  0.23489339831E+03 -0.68015736868E+03  0.74611864989E+03  0.12499839995E+03 0.  0.
          2    1    1    2  501    0 -0.63012971229E+02 -0.47798562934E+02 -0.65961940861E+03  0.66434411368E+03  0.00000000000E+00 0. -1.
          1    1    1    2  502    0  0.21558913250E+03 -0.18709483538E+03  0.71375198877E+03  0.76871649712E+03  0.00000000000E+00 0. -1.
         22    1    3    3    0    0 -0.11183586871E+03  0.94332529146E+02 -0.22834616402E+03  0.27119708370E+03  0.00000000000E+00 0.  1.
         22    1    3    3    0    0 -0.40740292560E+02  0.14056086916E+03 -0.45181120466E+03  0.47492156619E+03  0.00000000000E+00 0.  1.
</event>
<event>
 7    1  0.5139898E-006  0.8373613E+02  0.7818608E-02  0.1472598E+00
          2   -1    0    0  502    0  0.00000000000E+00  0.00000000000E+00  0.11337628018E+04  0.11337628018E+04  0.00000000000E+00 0. -1.
          1   -1    0    0  501    0 -0.00000000000E+00 -0.00000000000E+00 -0.40090539326E+02  0.40090539326E+02  0.00000000000E+00 0. -1.
         25    2    1    2    0    0  0.42620446566E+02 -0.92811484775E+02  0.32869276246E+03  0.36618906287E+03  0.12500009399E+03 0.  0.
          2    1    1    2  501    0 -0.19879756997E+02  0.14294664457E+02 -0.11388713578E+02  0.27004536048E+02  0.00000000000E+00 0. -1.
          1    1    1    2  502    0 -0.22740689569E+02  0.78516820318E+02  0.77636821363E+03  0.78065974225E+03  0.00000000000E+00 0. -1.
         22    1    3    3    0    0 -0.67540309023E+01  0.22156651875E+02  0.12902712460E+02  0.26514413902E+02  0.00000000000E+00 0. -1.
         22    1    3    3    0    0  0.49374477468E+02 -0.11496813665E+03  0.31579005000E+03  0.33967464897E+03  0.00000000000E+00 0. -1.
</event>
<event>
 7    1  0.5139898E-006  0.4639979E+02  0.7818608E-02  0.1514948E+00
          2   -1    0    0  502    0  0.00000000000E+00  0.00000000000E+00  0.38977302457E+03  0.38977302457E+03  0.00000000000E+00 0. -1.
          1   -1    0    0  501    0 -0.00000000000E+00 -0.00000000000E+00 -0.21941911631E+04  0.21941911631E+04  0.00000000000E+00 0. -1.
         25    2    1    2    0    0 -0.72015185230E+02  0.54388470644E+01 -0.12210791187E+03  0.18908057356E+03  0.12500141277E+03 0.  0.
          2    1    1    2  501    0  0.44470751307E+02  0.12638954427E+02 -0.20375724681E+04  0.20380968951E+04  0.00000000000E+00 0. -1.
          1    1    1    2  502    0  0.27544433923E+02 -0.18077801492E+02  0.35526224140E+03  0.35678671908E+03  0.00000000000E+00 0. -1.
         22    1    3    3    0    0  0.27157715728E+02 -0.10141781864E+01  0.51023417014E+01  0.27651473230E+02  0.00000000000E+00 0.  1.
         22    1    3    3    0    0 -0.99172900958E+02  0.64530252508E+01 -0.12721025357E+03  0.16142910033E+03  0.00000000000E+00 0.  1.
</event>
<event>
 7    1  0.5139898E-006  0.4153512E+02  0.7818608E-02  0.1498282E+00
          2   -1    0    0  502    0  0.00000000000E+00  0.00000000000E+00  0.26259003361E+03  0.26259003361E+03  0.00000000000E+00 0. -1.
          1   -1    0    0  501    0 -0.00000000000E+00 -0.00000000000E+00 -0.25161173224E+03  0.25161173224E+03  0.00000000000E+00 0. -1.
         25    2    1    2    0    0  0.17721642486E+02  0.83511531748E+01  0.12390258203E+03  0.17708441113E+03  0.12499296164E+03 0.  0.
          2    1    1    2  501    0 -0.13437971281E+02  0.38977785605E+02 -0.21796322003E+03  0.22182833933E+03  0.00000000000E+00 0. -1.
          1    1    1    2  502    0 -0.42836712046E+01 -0.47328938780E+02  0.10503893937E+03  0.11528901539E+03  0.00000000000E+00 0. -1.
         22    1    3    3    0    0  0.49230802046E+02 -0.42213274577E+02  0.48478299605E+02  0.80967758727E+02  0.00000000000E+00 0. -1.
         22    1    3    3    0    0 -0.31509159560E+02  0.50564427752E+02  0.75424282426E+02  0.96116652405E+02  0.00000000000E+00 0. -1.
</event>
<event>
 7    1  0.5139898E-006  0.6117306E+02  0.7818608E-02  0.1521971E+00
          2   -1    0    0  502    0  0.00000000000E+00  0.00000000000E+00  0.12499005487E+02  0.12499005487E+02  0.00000000000E+00 0. -1.
          1   -1    0    0  501    0 -0.00000000000E+00 -0.00000000000E+00 -0.16414800582E+04  0.16414800582E+04  0.00000000000E+00 0. -1.
         25    2    1    2    0    0 -0.12927892024E+02 -0.65086556367E+02 -0.12640580998E+04  0.12719556819E+04  0.12499994728E+03 0.  0.
          2    1    1    2  501    0  0.26530023895E+02  0.45505768068E+02 -0.78051551050E+02  0.94162952995E+02  0.00000000000E+00 0. -1.
          1    1    1    2  502    0 -0.13602131871E+02  0.19580788300E+02 -0.28687140183E+03  0.28786042877E+03  0.00000000000E+00 0. -1.
         22    1    3    3    0    0 -0.41584146030E+02 -0.71664798691E+02 -0.46280505212E+03  0.47016337675E+03  0.00000000000E+00 0.  1.
         22    1    3    3    0    0  0.28656254006E+02  0.65782423235E+01 -0.80125304767E+03  0.80179230513E+03  0.00000000000E+00 0.  1.
</event>
<event>
 7    1  0.5139898E-006  0.3939364E+02  0.7818608E-02  0.1557478E+00
          2   -1    0    0  502    0  0.00000000000E+00  0.00000000000E+00  0.11397442201E+03  0.11397442201E+03  0.00000000000E+00 0. -1.
          1   -1    0    0  501    0 -0.00000000000E+00 -0.00000000000E+00 -0.21054324719E+04  0.21054324719E+04  0.00000000000E+00 0. -1.
         25    2    1    2    0    0  0.66665075924E+02  0.15904342156E+02 -0.15321082420E+04  0.15387260787E+04  0.12500039892E+03 0.  0.
          2    1    1    2  501    0 -0.29038646244E+02 -0.44634205051E+01 -0.56612837088E+03  0.56689019872E+03  0.00000000000E+00 0. -1.
          1    1    1    2  502    0 -0.37626429680E+02 -0.11440921651E+02  0.10677856295E+03  0.11379061650E+03  0.00000000000E+00 0. -1.
         22    1    3    3    0    0  0.71414753963E+02 -0.40535993671E+02 -0.10729082536E+04  0.10760461675E+04  0.00000000000E+00 0.  1.
         22    1    3    3    0    0 -0.47496780389E+01  0.56440335827E+02 -0.45919998835E+03  0.46267991122E+03  0.00000000000E+00 0.  1.
</event>
<event>
 7    1  0.5139898E-006  0.5833804E+02  0.7818608E-02  0.1406011E+00
          2   -1    0    0  502    0  0.00000000000E+00  0.00000000000E+00  0.16710424938E+04  0.16710424938E+04  0.00000000000E+00 0. -1.
          1   -1    0    0  501    0 -0.00000000000E+00 -0.00000000000E+00 -0.39267982459E+02  0.39267982459E+02  0.00000000000E+00 0. -1.
         25    2    1    2    0    0 -0.25470068272E+02 -0.33816802638E+02  0.12001780404E+03  0.17839955379E+03  0.12501930646E+03 0.  0.
          2    1    1    2  501    0  0.82502573042E+02  0.21544055871E+02  0.18317754511E+03  0.20205156256E+03  0.00000000000E+00 0. -1.
          1    1    1    2  502    0 -0.57032504770E+02  0.12272746767E+02  0.13285791622E+04  0.13298593599E+04  0.00000000000E+00 0. -1.
         22    1    3    3    0    0 -0.20436760696E+02 -0.36797509794E+02  0.14590733107E+03  0.15185739091E+03  0.00000000000E+00 0. -1.
         22    1    3    3    0    0 -0.50333075753E+01  0.29807071561E+01 -0.25889527032E+02  0.26542162878E+02  0.00000000000E+00 0. -1.
</event>
<event>
 7    1  0.5139898E-006  0.7276489E+02  0.7818608E-02  0.1383764E+00
          2   -1    0    0  502    0  0.00000000000E+00  0.00000000000E+00  0.83486512420E+03  0.83486512420E+03  0.00000000000E+00 0. -1.
          1   -1    0    0  501    0 -0.00000000000E+00 -0.00000000000E+00 -0.46282001898E+03  0.46282001898E+03  0.00000000000E+00 0. -1.
         25    2    1    2    0    0  0.98410602237E+02 -0.15956881876E+02  0.44492437202E+03  0.47277889712E+03  0.12499167983E+03 0.  0.
          2    1    1    2  501    0 -0.46563393470E+02 -0.29994502501E+02 -0.44396609637E+03  0.44740777208E+03  0.00000000000E+00 0. -1.
          1    1    1    2  502    0 -0.51847208767E+02  0.45951384377E+02  0.37108682957E+03  0.37749847399E+03  0.00000000000E+00 0. -1.
         22    1    3    3    0    0  0.32351066343E+02 -0.26170795783E+02  0.37015320481E+03  0.37248476087E+03  0.00000000000E+00 0. -1.
         22    1    3    3    0    0  0.66059535895E+02  0.10213913907E+02  0.74771167210E+02  0.10029413625E+03  0.00000000000E+00 0. -1.
</event>
<event>
 7    1  0.5139898E-006  0.1097556E+03  0.7818608E-02  0.1320613E+00
          2   -1    0    0  502    0  0.00000000000E+00  0.00000000000E+00  0.78126454874E+03  0.78126454874E+03  0.00000000000E+00 0. -1.
          1   -1    0    0  501    0 -0.00000000000E+00 -0.00000000000E+00 -0.94924937502E+03  0.94924937502E+03  0.00000000000E+00 0. -1.
         25    2    1    2    0    0  0.11922518083E+03  0.44401242676E+02 -0.68525826430E+02  0.19106290717E+03  0.12499252583E+03 0.  0.
          2    1    1    2  501    0 -0.70444134268E+02 -0.84018339430E+02 -0.81440305640E+03  0.82175044611E+03  0.00000000000E+00 0. -1.
          1    1    1    2  502    0 -0.48781046565E+02  0.39617096754E+02  0.71494405655E+03  0.71770057048E+03  0.00000000000E+00 0. -1.
         22    1    3    3    0    0  0.30739611437E+02  0.92865767046E+01  0.36966768995E+02  0.48966378548E+02  0.00000000000E+00 0.  1.
         22    1    3    3    0    0  0.88485569396E+02  0.35114665971E+02 -0.10549259543E+03  0.14209652862E+03  0.00000000000E+00 0.  1.
</event>
<event>
 7    1  0.5139898E-006  0.4274611E+02  0.7818608E-02  0.1568060E+00
          2   -1    0    0  502    0  0.00000000000E+00  0.00000000000E+00  0.37121064366E+03  0.37121064366E+03  0.00000000000E+00 0. -1.
          1   -1    0    0  501    0 -0.00000000000E+00 -0.00000000000E+00 -0.11635734272E+04  0.11635734272E+04  0.00000000000E+00 0. -1.
         25    2    1    2    0    0 -0.40834445484E+02 -0.20403628317E+02 -0.35556151089E+02  0.13774579004E+03  0.12500361118E+03 0.  0.
          2    1    1    2  501    0  0.42505372869E+02 -0.48662907801E+01 -0.10759957992E+04  0.10768460184E+04  0.00000000000E+00 0. -1.
          1    1    1    2  502    0 -0.16709273851E+01  0.25269919097E+02  0.31918916668E+03  0.32019226245E+03  0.00000000000E+00 0. -1.
         22    1    3    3    0    0  0.80453898583E+01  0.58555309595E+01  0.41564238021E+02  0.42738757856E+02  0.00000000000E+00 0. -1.
         22    1    3    3    0    0 -0.48879835343E+02 -0.26259159276E+02 -0.77120389109E+02  0.95007032189E+02  0.00000000000E+00 0. -1.
</event>
<event>
 7    1  0.5139898E-006  0.6178069E+02  0.7818608E-02  0.1411044E+00
          2   -1    0    0  502    0  0.00000000000E+00  0.00000000000E+00  0.15438751407E+04  0.15438751407E+04  0.00000000000E+00 0. -1.
          1   -1    0    0  501    0 -0.00000000000E+00 -0.00000000000E+00 -0.18532125504E+02  0.18532125504E+02  0.00000000000E+00 0. -1.
         25    2    1    2    0    0  0.35808131957E+02  0.34607559069E+01  0.46998128768E+03  0.48764976446E+03  0.12500273141E+03 0.  0.
          2    1    1    2  501    0  0.51387618690E+00  0.52515575673E+02  0.71917628377E+02  0.89052203950E+02  0.00000000000E+00 0. -1.
          1    1    1    2  502    0 -0.36322008144E+02 -0.55976331580E+02  0.98344409912E+03  0.98570529778E+03  0.00000000000E+00 0. -1.
         22    1    3    3    0    0  0.17942928674E+02  0.44389130003E+02  0.41043530481E+03  0.41321844464E+03  0.00000000000E+00 0.  1.
         22    1    3    3    0    0  0.17865203282E+02 -0.40928374096E+02  0.59545982867E+02  0.74431319820E+02  0.00000000000E+00 0.  1.
</event>
<event>
 7    1  0.5139898E-006  0.4662972E+02  0.7818608E-02  0.1483514E+00
          2   -1    0    0  502    0  0.00000000000E+00  0.00000000000E+00  0.66682359623E+03  0.66682359623E+03  0.00000000000E+00 0. -1.
          1   -1    0    0  501    0 -0.00000000000E+00 -0.00000000000E+00 -0.80354272126E+03  0.80354272126E+03  0.00000000000E+00 0. -1.
         25    2    1    2    0    0  0.80235751358E+02 -0.14663050838E+02  0.28064809626E+02  0.15187852275E+03  0.12500668493E+03 0.  0.
          2    1    1    2  501    0 -0.40367793098E+02  0.22845017010E+02 -0.74019115615E+03  0.74164304161E+03  0.00000000000E+00 0. -1.
          1    1    1    2  502    0 -0.39867958260E+02 -0.81819661720E+01  0.57540722149E+03  0.57684475313E+03  0.00000000000E+00 0. -1.
         22    1    3    3    0    0 -0.64060335438E+01 -0.20274240616E+02  0.56619525589E+02  0.60480184988E+02  0.00000000000E+00 0.  1.
         22    1    3    3    0    0  0.86641784902E+02  0.56111897783E+01 -0.28554715962E+02  0.91398337760E+02  0.00000000000E+00 0.  1.
</event>
<event>
 7    1  0.7940686E-006  0.6803765E+02  0.7818608E-02  0.1435208E+00
          2   -1    0    0  502    0  0.00000000000E+00  0.00000000000E+00  0.62161013289E+03  0.62161013289E+03  0.00000000000E+00 0. -1.
          1   -1    0    0  501    0 -0.00000000000E+00 -0.00000000000E+00 -0.10427730137E+04  0.10427730137E+04  0.00000000000E+00 0. -1.
         25    2    1    2    0    0 -0.73520125591E+02 -0.32030363713E+02 -0.53872853082E+03  0.55882877729E+03  0.12502007577E+03 0.  0.
          2    1    1    2  501    0  0.32700604445E+02 -0.22394554348E+02 -0.49130184793E+03  0.49289791171E+03  0.00000000000E+00 0. -1.
          1    1    1    2  502    0  0.40819521146E+02  0.54424918061E+02  0.60886749792E+03  0.61265645760E+03  0.00000000000E+00 0. -1.
         22    1    3    3    0    0 -0.40313678045E+02 -0.60823110101E+02 -0.14179434958E+03  0.15946874595E+03  0.00000000000E+00 0. -1.
         22    1    3    3    0    0 -0.33206447546E+02  0.28792746388E+02 -0.39693418123E+03  0.39936003134E+03  0.00000000000E+00 0. -1.
</event>
<event>
 7    1  0.5139898E-006  0.1091643E+03  0.7818608E-02  0.1321291E+00
          2   -1    0    0  502    0  0.00000000000E+00  0.00000000000E+00  0.63241531119E+03  0.63241531119E+03  0.00000000000E+00 0. -1.
          1   -1    0    0  501    0 -0.00000000000E+00 -0.00000000000E+00 -0.16618656310E+03  0.16618656310E+03  0.00000000000E+00 0. -1.
         25    2    1    2    0    0  0.16379994714E+03 -0.31468876366E+02  0.26613018491E+03  0.33803922222E+03  0.12499811029E+03 0.  0.
          2    1    1    2  501    0 -0.10450773359E+03  0.10769398877E+02 -0.10531532390E+03  0.14875874354E+03  0.00000000000E+00 0. -1.
          1    1    1    2  502    0 -0.59292213542E+02  0.20699477489E+02  0.30541388707E+03  0.31180390853E+03  0.00000000000E+00 0. -1.
         22    1    3    3    0    0  0.51732117818E+02  0.33498143080E+02  0.29621344523E+02  0.68379541202E+02  0.00000000000E+00 0.  1.
         22    1    3    3    0    0  0.11206782932E+03 -0.64967019446E+02  0.23650884039E+03  0.26965968102E+03  0.00000000000E+00 0.  1.
</event>
<event>
 7    1  0.5139898E-006  0.1306181E+03  0.7818608E-02  0.1344498E+00
          2   -1    0    0  502    0  0.00000000000E+00  0.00000000000E+00  0.11816593868E+03  0.11816593868E+03  0.00000000000E+00 0. -1.
          1   -1    0    0  501    0 -0.00000000000E+00 -0.00000000000E+00 -0.99716308929E+03  0.99716308929E+03  0.00000000000E+00 0. -1.
         25    2    1    2    0    0  0.10474706663E+02  0.97836833872E+02 -0.62114311666E+03  0.64119054852E+03  0.12499913037E+03 0.  0.
          2    1    1    2  501    0 -0.25851561669E+02  0.34151914713E+02 -0.32322299842E+03  0.32604871296E+03  0.00000000000E+00 0. -1.
          1    1    1    2  502    0  0.15376855005E+02 -0.13198874859E+03  0.65368964464E+02  0.14808976649E+03  0.00000000000E+00 0. -1.
         22    1    3    3    0    0  0.36232832907E+00 -0.30227396801E+02 -0.10165995971E+03  0.10605929571E+03  0.00000000000E+00 0. -1.
         22    1    3    3    0    0  0.10112378334E+02  0.12806423067E+03 -0.51948315695E+03  0.53513125281E+03  0.00000000000E+00 0. -1.
</event>
<event>
 7    1  0.5139898E-006  0.8766782E+02  0.7818608E-02  0.1428744E+00
          2   -1    0    0  502    0  0.00000000000E+00  0.00000000000E+00  0.46154058529E+04  0.46154058529E+04  0.00000000000E+00 0. -1.
          1   -1    0    0  501    0 -0.00000000000E+00 -0.00000000000E+00 -0.13483668112E+03  0.13483668112E+03  0.00000000000E+00 0. -1.
         25    2    1    2    0    0  0.10571126183E+03 -0.55146811478E+02  0.31502916984E+03  0.35928602697E+03  0.12500811827E+03 0.  0.
          2    1    1    2  501    0 -0.29598366163E+02  0.12930262927E+02 -0.10994215175E+03  0.11458853219E+03  0.00000000000E+00 0. -1.
          1    1    1    2  502    0 -0.76112895663E+02  0.42216548552E+02  0.42754821536E+04  0.42763679748E+04  0.00000000000E+00 0. -1.
         22    1    3    3    0    0  0.11915930370E+03 -0.22592468543E+02  0.29455107862E+03  0.31854308532E+03  0.00000000000E+00 0.  1.
         22    1    3    3    0    0 -0.13448041869E+02 -0.32554342935E+02  0.20478091223E+02  0.40742941649E+02  0.00000000000E+00 0.  1.
</event>
<event>
 7    1  0.5139898E-006  0.4808880E+02  0.7818608E-02  0.1582518E+00
          2   -1    0    0  502    0  0.00000000000E+00  0.00000000000E+00  0.22516570419E+04  0.22516570419E+04  0.00000000000E+00 0. -1.
          1   -1    0    0  501    0 -0.00000000000E+00 -0.00000000000E+00 -0.81806044455E+02  0.81806044455E+02  0.00000000000E+00 0. -1.
         25    2    1    2    0    0  0.18123344750E+02 -0.36105331393E+02  0.64302480345E+03  0.65631345309E+03  0.12503759546E+03 0.  0.
          2    1    1    2  501    0 -0.16290510182E+02 -0.12572209924E+02 -0.73375679359E+02  0.76206505666E+02  0.00000000000E+00 0. -1.
          1    1    1    2  502    0 -0.18328345683E+01  0.48677541317E+02  0.16002018733E+04  0.16009431275E+04  0.00000000000E+00 0. -1.
         22    1    3    3    0    0  0.33267256508E+02 -0.15398797214E+02  0.62217967792E+03  0.62325868219E+03  0.00000000000E+00 0. -1.
         22    1    3    3    0    0 -0.15143911757E+02 -0.20706534179E+02  0.20845125533E+02  0.33054770904E+02  0.00000000000E+00 0. -1.
</event>
<event>
 7    1  0.5139898E-006  0.6664872E+02  0.7818608E-02  0.1529770E+00
          2   -1    0    0  502    0  0.00000000000E+00  0.00000000000E+00  0.47825344188E+02  0.47825344188E+02  0.00000000000E+00 0. -1.
          1   -1    0    0  501    0 -0.00000000000E+00 -0.00000000000E+00 -0.28485884538E+04  0.28485884538E+04  0.00000000000E+00 0. -1.
         25    2    1    2    0    0  0.61191041268E+02 -0.34900561661E+02 -0.11574877193E+03  0.18435935477E+03  0.12501280236E+03 0.  0.
          2    1    1    2  501    0 -0.45579926839E+02  0.48614764152E+02 -0.26898861508E+04  0.26907115098E+04  0.00000000000E+00 0. -1.
          1    1    1    2  502    0 -0.15611114429E+02 -0.13714202491E+02  0.48718130717E+01  0.21342933404E+02  0.00000000000E+00 0. -1.
         22    1    3    3    0    0  0.89651158887E+02  0.10100451358E+02 -0.70946491161E+02  0.11477261875E+03  0.00000000000E+00 0. -1.
         22    1    3    3    0    0 -0.28460117619E+02 -0.45001013018E+02 -0.44802280770E+02  0.69586736019E+02  0.00000000000E+00 0. -1.
</event>
<event>
 7    1  0.5139898E-006  0.1638082E+03  0.7818608E-02  0.1244188E+00
          2   -1    0    0  502    0  0.00000000000E+00  0.00000000000E+00  0.91595822442E+03  0.91595822442E+03  0.00000000000E+00 0. -1.
          1   -1    0    0  501    0 -0.00000000000E+00 -0.00000000000E+00 -0.25623632081E+03  0.25623632081E+03  0.00000000000E+00 0. -1.
         25    2    1    2    0    0 -0.61421561083E+02  0.82167245189E+02  0.10363321899E+02  0.16204187312E+03  0.12500442334E+03 0.  0.
          2    1    1    2  501    0 -0.86796623242E+02  0.50758425717E+01 -0.16033648090E+03  0.18239299628E+03  0.00000000000E+00 0. -1.
          1    1    1    2  502    0  0.14821818432E+03 -0.87243087761E+02  0.80969506261E+03  0.82775967584E+03  0.00000000000E+00 0. -1.
         22    1    3    3    0    0  0.21329382414E+02  0.70412615776E+02 -0.14190444715E+02  0.74928283950E+02  0.00000000000E+00 0.  1.
         22    1    3    3    0    0 -0.82750943497E+02  0.11754629413E+02  0.24553766614E+02  0.87113589165E+02  0.00000000000E+00 0.  1.
</event>
<event>
 7    1  0.5139898E-006  0.6348344E+02  0.7818608E-02  0.1414191E+00
          2   -1    0    0  502    0  0.00000000000E+00  0.00000000000E+00  0.31572823529E+03  0.31572823529E+03  0.00000000000E+00 0. -1.
          1   -1    0    0  501    0 -0.00000000000E+00 -0.00000000000E+00 -0.57571462258E+03  0.57571462258E+03  0.00000000000E+00 0. -1.
         25    2    1    2    0    0 -0.29600710406E+02 -0.11288497203E+02  0.47975799799E+02  0.13757210894E+03  0.12498310113E+03 0.  0.
          2    1    1    2  501    0  0.21868127422E+02  0.60559762769E+02 -0.52613995974E+03  0.53006504987E+03  0.00000000000E+00 0. -1.
          1    1    1    2  502    0  0.77325829844E+01 -0.49271265566E+02  0.21817777265E+03  0.22380569905E+03  0.00000000000E+00 0. -1.
         22    1    3    3    0    0  0.47040674244E+02 -0.14309720504E+02  0.44206677660E+01  0.49367351941E+02  0.00000000000E+00 0.  1.
         22    1    3    3    0    0 -0.76641384650E+02  0.30212233017E+01  0.43555132033E+02  0.88204757001E+02  0.00000000000E+00 0.  1.
</event>
<event>
 7    1  0.5139898E-006  0.6410629E+02  0.7818608E-02  0.1421913E+00
          2   -1    0    0  502    0  0.00000000000E+00  0.00000000000E+00  0.46549356172E+02  0.46549356172E+02  0.00000000000E+00 0. -1.
          1   -1    0    0  501    0 -0.00000000000E+00 -0.00000000000E+00 -0.16387600222E+04  0.16387600222E+04  0.00000000000E+00 0. -1.
         25    2    1    2    0    0 -0.64263282865E+02  0.68434768556E+02 -0.13418624341E+04  0.13509376589E+04  0.12499871662E+03 0.  0.
          2    1    1    2  501    0  0.41561372534E+02 -0.27813537885E+02 -0.27650411677E+03  0.28099015493E+03  0.00000000000E+00 0. -1.
          1    1    1    2  502    0  0.22701910331E+02 -0.40621230671E+02  0.26155884877E+02  0.53381564492E+02  0.00000000000E+00 0. -1.
         22    1    3    3    0    0 -0.13619776207E+02  0.77922433349E+02 -0.11350650262E+04  0.11378180952E+04  0.00000000000E+00 0.  1.
         22    1    3    3    0    0 -0.50643506658E+02 -0.94876647931E+01 -0.20679740786E+03  0.21311956373E+03  0.00000000000E+00 0.  1.
</event>
<event>
 7    1  0.5139898E-006  0.2116508E+02  0.7818608E-02  0.1726788E+00
          2   -1    0    0  502    0  0.00000000000E+00  0.00000000000E+00  0.77771091669E+03  0.77771091669E+03  0.00000000000E+00 0. -1.
          1   -1    0    0  501    0 -0.00000000000E+00 -0.00000000000E+00 -0.45796968398E+03  0.45796968398E+03  0.00000000000E+00 0. -1.
         25    2    1    2    0    0  0.10891012975E+02  0.10002752182E+02  0.58051907198E+02  0.13861163392E+03  0.12499796764E+03 0.  0.
          2    1    1    2  501    0 -0.18250290300E+02  0.99099345382E+01 -0.41726568051E+03  0.41778215379E+03  0.00000000000E+00 0. -1.
          1    1    1    2  502    0  0.73592773247E+01 -0.19912686720E+02  0.67895500602E+03  0.67928681295E+03  0.00000000000E+00 0. -1.
         22    1    3    3    0    0 -0.55677989925E+02  0.15708160698E+02  0.36522526382E+02  0.68415493917E+02  0.00000000000E+00 0. -1.
         22    1    3    3    0    0  0.66569002901E+02 -0.57054085158E+01  0.21529380816E+02  0.70196140007E+02  0.00000000000E+00 0. -1.
</event>
<event>
 7    1  0.5139898E-006  0.8638818E+02  0.7818608E-02  0.1450471E+00
          2   -1    0    0  502    0  0.00000000000E+00  0.00000000000E+00  0.27260121526E+03  0.27260121526E+03  0.00000000000E+00 0. -1.
          1   -1    0    0  501    0 -0.00000000000E+00 -0.00000000000E+00 -0.14584803543E+03  0.14584803543E+03  0.00000000000E+00 0. -1.
         25    2    1    2    0    0 -0.27874986740E+02  0.76651839451E+02  0.43856633254E+02  0.15558301603E+03  0.12502060318E+03 0.  0.
          2    1    1    2  501    0  0.25066384012E+01 -0.88174949319E+02 -0.66767912769E+02  0.11063028111E+03  0.00000000000E+00 0. -1.
          1    1    1    2  502    0  0.25368348339E+02  0.11523109867E+02  0.14966445935E+03  0.15223595354E+03  0.00000000000E+00 0. -1.
         22    1    3    3    0    0 -0.28538548030E+02 -0.13745486008E+02 -0.26285922895E+02  0.41162323206E+02  0.00000000000E+00 0.  1.
         22    1    3    3    0    0  0.66356128999E+00  0.90397325460E+02  0.70142556149E+02  0.11442069283E+03  0.00000000000E+00 0.  1.
</event>
<event>
 7    1  0.5139898E-006  0.4391213E+02  0.7818608E-02  0.1533660E+00
          2   -1    0    0  502    0  0.00000000000E+00  0.00000000000E+00  0.13605436326E+03  0.13605436326E+03  0.00000000000E+00 0. -1.
          1   -1    0    0  501    0 -0.00000000000E+00 -0.00000000000E+00 -0.72688220305E+03  0.72688220305E+03  0.00000000000E+00 0. -1.
         25    2    1    2    0    0 -0.42300813586E+02  0.58730774216E+02 -0.61448361759E+03  0.63123220348E+03  0.12500126302E+03 0.  0.
          2    1    1    2  501    0  0.10215062594E+02 -0.28994492738E+02 -0.97848956420E+02  0.10256435241E+03  0.00000000000E+00 0. -1.
          1    1    1    2  502    0  0.32085750992E+02 -0.29736281479E+02  0.12150473422E+03  0.12914001041E+03  0.00000000000E+00 0. -1.
         22    1    3    3    0    0 -0.75021291151E+02  0.74886609058E+02 -0.49841622849E+03  0.50956347511E+03  0.00000000000E+00 0.  1.
         22    1    3    3    0    0  0.32720477565E+02 -0.16155834841E+02 -0.11606738911E+03  0.12166872838E+03  0.00000000000E+00 0.  1.
</event>
<event>
 7    1  0.5139898E-006  0.2470120E+03  0.7818608E-02  0.1138736E+00
          2   -1    0    0  502    0  0.00000000000E+00  0.00000000000E+00  0.12543642386E+04  0.12543642386E+04  0.00000000000E+00 0. -1.
          1   -1    0    0  501    0 -0.00000000000E+00 -0.00000000000E+00 -0.16090333421E+04  0.16090333421E+04  0.00000000000E+00 0. -1.
         25    2    1    2    0    0 -0.40540322183E+03  0.10570613137E+03 -0.35775179874E+03  0.56492165610E+03  0.12499827821E+03 0.  0.
          2    1    1    2  501    0  0.16388255635E+03 -0.85251310531E+02 -0.11273318839E+04  0.11423670403E+04  0.00000000000E+00 0. -1.
          1    1    1    2  502    0  0.24152066548E+03 -0.20454820842E+02  0.11304145792E+04  0.11561088843E+04  0.00000000000E+00 0. -1.
         22    1    3    3    0    0 -0.31748151512E+03  0.13262838341E+03 -0.29872570113E+03  0.45565540164E+03  0.00000000000E+00 0. -1.
         22    1    3    3    0    0 -0.87921706708E+02 -0.26922252038E+02 -0.59026097614E+02  0.10926625447E+03  0.00000000000E+00 0. -1.
</event>
<event>
 7    1  0.5139898E-006  0.9208414E+02  0.7818608E-02  0.1332074E+00
          2   -1    0    0  502    0  0.00000000000E+00  0.00000000000E+00  0.29255789832E+04  0.29255789832E+04  0.00000000000E+00 0. -1.
          1   -1    0    0  501    0 -0.00000000000E+00 -0.00000000000E+00 -0.31539610657E+04  0.31539610657E+04  0.00000000000E+00 0. -1.
         25    2    1    2    0    0  0.15208257257E+03 -0.36281834471E+02  0.30138617611E+03  0.36180679852E+03  0.12500020764E+03 0.  0.
          2    1    1    2  501    0 -0.67553916357E+02  0.41224851272E+01 -0.31225956646E+04  0.31233290270E+04  0.00000000000E+00 0. -1.
          1    1    1    2  502    0 -0.84528656209E+02  0.32159349344E+02  0.25928274060E+04  0.25944042234E+04  0.00000000000E+00 0. -1.
         22    1    3    3    0    0  0.49349437681E+02 -0.71473082180E+02  0.17356909590E+03  0.19408760786E+03  0.00000000000E+00 0. -1.
         22    1    3    3    0    0  0.10273313489E+03  0.35191247709E+02  0.12781708022E+03  0.16771919065E+03  0.00000000000E+00 0. -1.
</event>
<event>
 7    1  0.5139898E-006  0.1793915E+03  0.7818608E-02  0.1217488E+00
          2   -1    0    0  502    0  0.00000000000E+00  0.00000000000E+00  0.27794638259E+03  0.27794638259E+03  0.00000000000E+00 0. -1.
          1   -1    0    0  501    0 -0.00000000000E+00 -0.00000000000E+00 -0.11612470082E+04  0.11612470082E+04  0.00000000000E+00 0. -1.
         25    2    1    2    0    0  0.22957395384E+03  0.12985587518E+03 -0.16051907151E+03  0.33310795033E+03  0.12501114212E+03 0.  0.
          2    1    1    2  501    0 -0.10238912241E+03 -0.21169859144E+02 -0.87420547408E+03  0.88043563435E+03  0.00000000000E+00 0. -1.
          1    1    1    2  502    0 -0.12718483143E+03 -0.10868601603E+03  0.15142392002E+03  0.22564980608E+03  0.00000000000E+00 0. -1.
         22    1    3    3    0    0  0.14346125411E+03  0.12167954246E+03 -0.53643007000E+02  0.19561343176E+03  0.00000000000E+00 0.  1.
         22    1    3    3    0    0  0.86112699732E+02  0.81763327145E+01 -0.10687606451E+03  0.13749451857E+03  0.00000000000E+00 0.  1.
</event>
<event>
 7    1  0.5139898E-006  0.1231181E+03  0.7818608E-02  0.1256736E+00
          2   -1    0    0  502    0  0.00000000000E+00  0.00000000000E+00  0.16917130064E+04  0.16917130064E+04  0.00000000000E+00 0. -1.
          1   -1    0    0  501    0 -0.00000000000E+00 -0.00000000000E+00 -0.27346596677E+03  0.27346596677E+03  0.00000000000E+00 0. -1.
         25    2    1    2    0    0  0.20945809775E+03 -0.56957543447E+02  0.27212647640E+03  0.36985715602E+03  0.12499856092E+03 0.  0.
          2    1    1    2  501    0 -0.91802884426E+02  0.44595443423E+02 -0.21029705896E+03  0.23375494898E+03  0.00000000000E+00 0. -1.
          1    1    1    2  502    0 -0.11765521332E+03  0.12362100024E+02  0.13564176222E+04  0.13615668682E+04  0.00000000000E+00 0. -1.
         22    1    3    3    0    0  0.42428649529E+02  0.39016999520E+02  0.56538774763E+02  0.80741250944E+02  0.00000000000E+00 0.  1.
         22    1    3    3    0    0  0.16702944822E+03 -0.95974542967E+02  0.21558770164E+03  0.28911590508E+03  0.00000000000E+00 0.  1.
</event>
<event>
 7    1  0.5139898E-006  0.8153169E+02  0.7818608E-02  0.1381435E+00
          2   -1    0    0  502    0  0.00000000000E+00  0.00000000000E+00  0.20075452107E+04  0.20075452107E+04  0.00000000000E+00 0. -1.
          1   -1    0    0  501    0 -0.00000000000E+00 -0.00000000000E+00 -0.78880915836E+02  0.78880915836E+02  0.00000000000E+00 0. -1.
         25    2    1    2    0    0  0.22922136533E+02 -0.48902885473E+02  0.34680291778E+03  0.37257674353E+03  0.12499699792E+03 0.  0.
          2    1    1    2  501    0  0.14053327848E+02  0.83117137047E+02 -0.38522989908E+02  0.92682119343E+02  0.00000000000E+00 0. -1.
          1    1    1    2  502    0 -0.36975464380E+02 -0.34214251574E+02  0.16203843670E+04  0.16211672636E+04  0.00000000000E+00 0. -1.
         22    1    3    3    0    0 -0.19225468625E+02 -0.80380023484E+02  0.23242252558E+03  0.24667954357E+03  0.00000000000E+00 0.  1.
         22    1    3    3    0    0  0.42147605157E+02  0.31477138011E+02  0.11438039219E+03  0.12589719995E+03  0.00000000000E+00 0.  1.
</event>
<event>
 7    1  0.5139898E-006  0.9241962E+02  0.7818608E-02  0.1300068E+00
          2   -1    0    0  502    0  0.00000000000E+00  0.00000000000E+00  0.96323523047E+03  0.96323523047E+03  0.00000000000E+00 0. -1.
          1   -1    0    0  501    0 -0.00000000000E+00 -0.00000000000E+00 -0.86050317544E+02  0.86050317544E+02  0.00000000000E+00 0. -1.
         25    2    1    2    0    0 -0.75584958507E+01 -0.30260651201E+02  0.11836518887E+03  0.17495886947E+03  0.12500980042E+03 0.  0.
          2    1    1    2  501    0  0.54323351449E+02  0.10705962183E+03  0.10375732850E+02  0.12050080901E+03  0.00000000000E+00 0. -1.
          1    1    1    2  502    0 -0.46764855598E+02 -0.76798970630E+02  0.74844399121E+03  0.75382586954E+03  0.00000000000E+00 0. -1.
         22    1    3    3    0    0 -0.45137721977E+02 -0.61372623091E+02  0.50593103773E+02  0.91453129852E+02  0.00000000000E+00 0. -1.
         22    1    3    3    0    0  0.37579226127E+02  0.31111971890E+02  0.67772085098E+02  0.83505739621E+02  0.00000000000E+00 0. -1.
</event>
<event>
 7    1  0.5139898E-006  0.4418819E+02  0.7818608E-02  0.1539473E+00
          2   -1    0    0  502    0  0.00000000000E+00  0.00000000000E+00  0.69455022009E+03  0.69455022009E+03  0.00000000000E+00 0. -1.
          1   -1    0    0  501    0 -0.00000000000E+00 -0.00000000000E+00 -0.46695558588E+03  0.46695558588E+03  0.00000000000E+00 0. -1.
         25    2    1    2    0    0 -0.19333510933E+01 -0.42708474678E+02  0.10857603227E+02  0.13250563757E+03  0.12494840849E+03 0.  0.
          2    1    1    2  501    0  0.29687823540E+02  0.32980849066E+02 -0.40457058413E+03  0.40699688060E+03  0.00000000000E+00 0. -1.
          1    1    1    2  502    0 -0.27754472447E+02  0.97276256128E+01  0.62130761512E+03  0.62200328781E+03  0.00000000000E+00 0. -1.
         22    1    3    3    0    0 -0.58878516393E+02  0.23967590978E+01 -0.79376230294E+00  0.58932624287E+02  0.00000000000E+00 0.  1.
         22    1    3    3    0    0  0.56945165299E+02 -0.45105233776E+02  0.11651365530E+02  0.73573013284E+02  0.00000000000E+00 0.  1.
</event>
<event>
 7    1  0.5139898E-006  0.3654540E+02  0.7818608E-02  0.1575380E+00
          2   -1    0    0  502    0  0.00000000000E+00  0.00000000000E+00  0.16976733221E+04  0.16976733221E+04  0.00000000000E+00 0. -1.
          1   -1    0    0  501    0 -0.00000000000E+00 -0.00000000000E+00 -0.98106030003E+02  0.98106030003E+02  0.00000000000E+00 0. -1.
         25    2    1    2    0    0  0.42403704904E+01 -0.62912550478E+02  0.13664369815E+03  0.19563111111E+03  0.12499624651E+03 0.  0.
          2    1    1    2  501    0  0.33846384738E+01  0.35659878047E+02 -0.63797126716E+02  0.73165265373E+02  0.00000000000E+00 0. -1.
          1    1    1    2  502    0 -0.76250089642E+01  0.27252672431E+02  0.15267207207E+04  0.15269829756E+04  0.00000000000E+00 0. -1.
         22    1    3    3    0    0  0.35041879059E+02 -0.87321703153E+02  0.12112786637E+03  0.15337852894E+03  0.00000000000E+00 0. -1.
         22    1    3    3    0    0 -0.30801508568E+02  0.24409152675E+02  0.15515831780E+02  0.42252582172E+02  0.00000000000E+00 0. -1.
</event>
<event>
 7    1  0.5139898E-006  0.6291755E+02  0.7818608E-02  0.1439047E+00
          2   -1    0    0  502    0  0.00000000000E+00  0.00000000000E+00  0.15261421677E+04  0.15261421677E+04  0.00000000000E+00 0. -1.
          1   -1    0    0  501    0 -0.00000000000E+00 -0.00000000000E+00 -0.22673982536E+02  0.22673982536E+02  0.00000000000E+00 0. -1.
         25    2    1    2    0    0  0.80481591825E+02 -0.46483007940E+02  0.11331849068E+04  0.11438402002E+04  0.12499765531E+03 0.  0.
          2    1    1    2  501    0 -0.32051950355E+02  0.26584357138E+02  0.12636685007E+02  0.43517138853E+02  0.00000000000E+00 0. -1.
          1    1    1    2  502    0 -0.48429641470E+02  0.19898650802E+02  0.35764659328E+03  0.36145881115E+03  0.00000000000E+00 0. -1.
         22    1    3    3    0    0  0.41811937510E+02 -0.84986989215E+01  0.98712376226E+03  0.98804543823E+03  0.00000000000E+00 0.  1.
         22    1    3    3    0    0  0.38669654315E+02 -0.37984309019E+02  0.14606114459E+03  0.15579476197E+03  0.00000000000E+00 0.  1.
</event>
<event>
 7    1  0.5139898E-006  0.5045374E+02  0.7818608E-02  0.1452026E+00
          2   -1    0    0  502    0  0.00000000000E+00  0.00000000000E+00  0.93133668571E+02  0.93133668571E+02  0.00000000000E+00 0. -1.
          1   -1    0    0  501    0 -0.00000000000E+00 -0.00000000000E+00 -0.77957593163E+03  0.77957593163E+03  0.00000000000E+00 0. -1.
         25    2    1    2    0    0 -0.18496099731E+02 -0.23522097198E+02 -0.34570430978E+03  0.36882548219E+03  0.12500148699E+03 0.  0.
          2    1    1    2  501    0 -0.27380897194E+02  0.44519265616E+02 -0.41270044782E+03  0.41599680068E+03  0.00000000000E+00 0. -1.
          1    1    1    2  502    0  0.45876996925E+02 -0.20997168418E+02  0.71962494539E+02  0.87887317337E+02  0.00000000000E+00 0. -1.
         22    1    3    3    0    0  0.12177176436E+02 -0.70980369805E+02 -0.19167262951E+03  0.20475569205E+03  0.00000000000E+00 0. -1.
         22    1    3    3    0    0 -0.30673276167E+02  0.47458272607E+02 -0.15403168027E+03  0.16406979014E+03  0.00000000000E+00 0. -1.
</event>
<event>
 7    1  0.5139898E-006  0.6169231E+02  0.7818608E-02  0.1444319E+00
          2   -1    0    0  502    0  0.00000000000E+00  0.00000000000E+00  0.44421565191E+03  0.44421565191E+03  0.00000000000E+00 0. -1.
          1   -1    0    0  501    0 -0.00000000000E+00 -0.00000000000E+00 -0.13504297731E+03  0.13504297731E+03  0.00000000000E+00 0. -1.
         25    2    1    2    0    0 -0.18867315213E+02  0.85036318284E+02  0.34974468258E+03  0.38148833428E+03  0.12499942076E+03 0.  0.
          2    1    1    2  501    0  0.37330631525E+02 -0.48616548413E+02 -0.10494785610E+03  0.12153681471E+03  0.00000000000E+00 0. -1.
          1    1    1    2  502    0 -0.18463316312E+02 -0.36419769871E+02  0.64375848119E+02  0.76233480228E+02  0.00000000000E+00 0. -1.
         22    1    3    3    0    0  0.81284661290E+01  0.30176279984E+02  0.53478344060E+01  0.31706137704E+02  0.00000000000E+00 0.  1.
         22    1    3    3    0    0 -0.26995781342E+02  0.54860038300E+02  0.34439684817E+03  0.34978219658E+03  0.00000000000E+00 0.  1.
</event>
<event>
 7    1  0.5139898E-006  0.7095903E+02  0.7818608E-02  0.1403344E+00
          2   -1    0    0  502    0  0.00000000000E+00  0.00000000000E+00  0.19828339034E+04  0.19828339034E+04  0.00000000000E+00 0. -1.
          1   -1    0    0  501    0 -0.00000000000E+00 -0.00000000000E+00 -0.36846609773E+03  0.36846609773E+03  0.00000000000E+00 0. -1.
         25    2    1    2    0    0 -0.85213514744E+02 -0.65370326749E+02  0.97232216312E+02  0.19135137754E+03  0.12500649216E+03 0.  0.
          2    1    1    2  501    0  0.17604850427E+02  0.45265863611E+02 -0.31889061370E+03  0.32256805898E+03  0.00000000000E+00 0. -1.
          1    1    1    2  502    0  0.67608664318E+02  0.20104463138E+02  0.18360262030E+04  0.18373805646E+04  0.00000000000E+00 0. -1.
         22    1    3    3    0    0  0.47194276661E+01  0.11230502254E+02 -0.20960415252E+02  0.24243270941E+02  0.00000000000E+00 0. -1.
         22    1    3    3    0    0 -0.89932942410E+02 -0.76600829003E+02  0.11819263156E+03  0.16710810660E+03  0.00000000000E+00 0. -1.
</event>
<event>
 7    1  0.5139898E-006  0.6593902E+02  0.7818608E-02  0.1517671E+00
          2   -1    0    0  502    0  0.00000000000E+00  0.00000000000E+00  0.95333359029E+03  0.95333359029E+03  0.00000000000E+00 0. -1.
          1   -1    0    0  501    0 -0.00000000000E+00 -0.00000000000E+00 -0.16585309155E+03  0.16585309155E+03  0.00000000000E+00 0. -1.
         25    2    1    2    0    0  0.20271786774E+02 -0.81409491723E+02  0.75444849186E+02  0.16838588335E+03  0.12499371889E+03 0.  0.
          2    1    1    2  501    0 -0.25843931956E+02  0.59338251120E+02 -0.11044142348E+03  0.12800876879E+03  0.00000000000E+00 0. -1.
          1    1    1    2  502    0  0.55721451820E+01  0.22071240603E+02  0.82247707304E+03  0.82279202970E+03  0.00000000000E+00 0. -1.
         22    1    3    3    0    0 -0.20838801070E+02 -0.12596162369E+02  0.84294079862E+02  0.87740588306E+02  0.00000000000E+00 0.  1.
         22    1    3    3    0    0  0.41110587845E+02 -0.68813329354E+02 -0.88492306762E+01  0.80645295047E+02  0.00000000000E+00 0.  1.
</event>
<event>
 7    1  0.5139898E-006  0.6990272E+02  0.7818608E-02  0.1377891E+00
          2   -1    0    0  502    0  0.00000000000E+00  0.00000000000E+00  0.76959702197E+03  0.76959702197E+03  0.00000000000E+00 0. -1.
          1   -1    0    0  501    0 -0.00000000000E+00 -0.00000000000E+00 -0.32058184791E+02  0.32058184791E+02  0.00000000000E+00 0. -1.
         25    2    1    2    0    0 -0.93687451811E+01 -0.23270800082E+02  0.40816161536E+03  0.42760452180E+03  0.12498167578E+03 0.  0.
          2    1    1    2  501    0  0.65837489444E+02  0.44931833890E+02  0.65022982851E+02  0.10286609262E+03  0.00000000000E+00 0. -1.
          1    1    1    2  502    0 -0.56468744263E+02 -0.21661033807E+02  0.26435423896E+03  0.27118459234E+03  0.00000000000E+00 0. -1.
         22    1    3    3    0    0  0.18242378842E+02 -0.32357365272E+02  0.39312833454E+03  0.39487931180E+03  0.00000000000E+00 0.  1.
         22    1    3    3    0    0 -0.27611124023E+02  0.90865651893E+01  0.15033280826E+02  0.32725209994E+02  0.00000000000E+00 0.  1.
</event>
<event>
 7    1  0.5139898E-006  0.1035980E+03  0.7818608E-02  0.1407474E+00
          2   -1    0    0  502    0  0.00000000000E+00  0.00000000000E+00  0.76482761272E+03  0.76482761272E+03  0.00000000000E+00 0. -1.
          1   -1    0    0  501    0 -0.00000000000E+00 -0.00000000000E+00 -0.82086901915E+03  0.82086901915E+03  0.00000000000E+00 0. -1.
         25    2    1    2    0    0 -0.69478604770E+02 -0.35528441965E+02  0.45338972815E+02  0.15417519273E+03  0.12499928355E+03 0.  0.
          2    1    1    2  501    0  0.10077174296E+03  0.27919758512E+02 -0.76249052800E+03  0.76962735294E+03  0.00000000000E+00 0. -1.
          1    1    1    2  502    0 -0.31293138192E+02  0.76086834531E+01  0.66111014876E+03  0.66189408620E+03  0.00000000000E+00 0. -1.
         22    1    3    3    0    0  0.32659818653E+02 -0.11411873149E+02  0.34186100976E+02  0.48637270721E+02  0.00000000000E+00 0. -1.
         22    1    3    3    0    0 -0.10213842342E+03 -0.24116568815E+02  0.11152871838E+02  0.10553792200E+03  0.00000000000E+00 0. -1.
</event>
<event>
 7    1  0.5139898E-006  0.1084563E+03  0.7818608E-02  0.1367454E+00
          2   -1    0    0  502    0  0.00000000000E+00  0.00000000000E+00  0.13145999695E+04  0.13145999695E+04  0.00000000000E+00 0. -1.
          1   -1    0    0  501    0 -0.00000000000E+00 -0.00000000000E+00 -0.66272463730E+03  0.66272463730E+03  0.00000000000E+00 0. -1.
         25    2    1    2    0    0 -0.14380772478E+03 -0.80261117994E+01  0.81237714262E+02  0.20729276934E+03  0.12500258327E+03 0.  0.
          2    1    1    2  501    0  0.10455646130E+03  0.24282708155E+02 -0.59450372221E+03  0.60411619680E+03  0.00000000000E+00 0. -1.
          1    1    1    2  502    0  0.39251263488E+02 -0.16256596356E+02  0.11651413401E+04  0.11659156406E+04  0.00000000000E+00 0. -1.
         22    1    3    3    0    0 -0.85188619123E+02  0.51774516420E+02  0.72156937167E+02  0.12306228082E+03  0.00000000000E+00 0. -1.
         22    1    3    3    0    0 -0.58619105660E+02 -0.59800628219E+02  0.90807770946E+01  0.84230488521E+02  0.00000000000E+00 0. -1.
</event>
<event>
 7    1  0.5139898E-006  0.3893452E+02  0.7818608E-02  0.1517550E+00
          2   -1    0    0  502    0  0.00000000000E+00  0.00000000000E+00  0.31493691126E+03  0.31493691126E+03  0.00000000000E+00 0. -1.
          1   -1    0    0  501    0 -0.00000000000E+00 -0.00000000000E+00 -0.43661789974E+03  0.43661789974E+03  0.00000000000E+00 0. -1.
         25    2    1    2    0    0  0.36775508898E+02 -0.57715633732E+02  0.22212127628E+02  0.14423391071E+03  0.12500603966E+03 0.  0.
          2    1    1    2  501    0 -0.32995373784E+01  0.38530891746E+02 -0.37299417737E+03  0.37499356384E+03  0.00000000000E+00 0. -1.
          1    1    1    2  502    0 -0.33475971519E+02  0.19184741985E+02  0.22910106127E+03  0.23232733646E+03  0.00000000000E+00 0. -1.
         22    1    3    3    0    0 -0.42927198574E+02  0.18907032575E+01  0.56346422391E+01  0.43336685722E+02  0.00000000000E+00 0.  1.
         22    1    3    3    0    0  0.79702707472E+02 -0.59606336989E+02  0.16577485389E+02  0.10089722498E+03  0.00000000000E+00 0.  1.
</event>
<event>
 7    1  0.5139898E-006  0.1201462E+03  0.7818608E-02  0.1281720E+00
          2   -1    0    0  502    0  0.00000000000E+00  0.00000000000E+00  0.16391998965E+04  0.16391998965E+04  0.00000000000E+00 0. -1.
          1   -1    0    0  501    0 -0.00000000000E+00 -0.00000000000E+00 -0.12379300162E+03  0.12379300162E+03  0.00000000000E+00 0. -1.
         25    2    1    2    0    0 -0.18208898905E+03  0.73955345741E+01  0.15640779458E+03  0.27074381117E+03  0.12501087640E+03 0.  0.
          2    1    1    2  501    0  0.10347927392E+03 -0.31126260716E+02 -0.20771264105E+02  0.11003749202E+03  0.00000000000E+00 0. -1.
          1    1    1    2  502    0  0.78609715133E+02  0.23730726142E+02  0.13797703644E+04  0.13822115949E+04  0.00000000000E+00 0. -1.
         22    1    3    3    0    0 -0.69624792401E+02 -0.25176033041E+02 -0.16347800140E+01  0.74054823356E+02  0.00000000000E+00 0.  1.
         22    1    3    3    0    0 -0.11246419665E+03  0.32571567615E+02  0.15804257459E+03  0.19668898782E+03  0.00000000000E+00 0.  1.
</event>
<event>
 7    1  0.1174675E-005  0.7810242E+02  0.7818608E-02  0.1365041E+00
          2   -1    0    0  502    0  0.00000000000E+00  0.00000000000E+00  0.15869888787E+04  0.15869888787E+04  0.00000000000E+00 0. -1.
          1   -1    0    0  501    0 -0.00000000000E+00 -0.00000000000E+00 -0.11024600810E+04  0.11024600810E+04  0.00000000000E+00 0. -1.
         25    2    1    2    0    0  0.13471601472E+03  0.14816438753E+02 -0.21028212764E+03  0.27965414670E+03  0.12497974668E+03 0.  0.
          2    1    1    2  501    0 -0.75037695768E+02 -0.69642072043E+01 -0.85525093189E+03  0.85856468158E+03  0.00000000000E+00 0. -1.
          1    1    1    2  502    0 -0.59678318952E+02 -0.78522315483E+01  0.15500618572E+04  0.15512301314E+04  0.00000000000E+00 0. -1.
         22    1    3    3    0    0  0.61237987807E+02  0.26947143259E+02 -0.12164373272E+02  0.68001556288E+02  0.00000000000E+00 0. -1.
         22    1    3    3    0    0  0.73478026914E+02 -0.12130704507E+02 -0.19811775437E+03  0.21165259041E+03  0.00000000000E+00 0. -1.
</event>
<event>
 7    1  0.5139898E-006  0.1114483E+03  0.7818608E-02  0.1454819E+00
          2   -1    0    0  502    0  0.00000000000E+00  0.00000000000E+00  0.82266090873E+03  0.82266090873E+03  0.00000000000E+00 0. -1.
          1   -1    0    0  501    0 -0.00000000000E+00 -0.00000000000E+00 -0.20912950588E+03  0.20912950588E+03  0.00000000000E+00 0. -1.
         25    2    1    2    0    0  0.71748359358E+02  0.67647860833E+02  0.32836270438E+03  0.36493369531E+03  0.12502190288E+03 0.  0.
          2    1    1    2  501    0  0.47378657254E+01  0.20375734808E+02 -0.18309770963E+03  0.18428887436E+03  0.00000000000E+00 0. -1.
          1    1    1    2  502    0 -0.76486225084E+02 -0.88023595641E+02  0.46826640810E+03  0.48256784495E+03  0.00000000000E+00 0. -1.
         22    1    3    3    0    0  0.39889025943E+02  0.19510562282E+02  0.29487166068E+03  0.29819639955E+03  0.00000000000E+00 0. -1.
         22    1    3    3    0    0  0.31859333415E+02  0.48137298551E+02  0.33491043698E+02  0.66737295760E+02  0.00000000000E+00 0. -1.
</event>
<event>
 7    1  0.6021140E-006  0.9422916E+02  0.7818608E-02  0.1411580E+00
          2   -1    0    0  502    0  0.00000000000E+00  0.00000000000E+00  0.14940922784E+04  0.14940922784E+04  0.00000000000E+00 0. -1.
          1   -1    0    0  501    0 -0.00000000000E+00 -0.00000000000E+00 -0.48821488457E+03  0.48821488457E+03  0.00000000000E+00 0. -1.
         25    2    1    2    0    0 -0.31556427969E+02  0.98291451648E+02 -0.19235631388E+03  0.25156270067E+03  0.12500329303E+03 0.  0.
          2    1    1    2  501    0  0.34041811586E+02 -0.41172012369E+01 -0.26362886548E+03  0.26584953450E+03  0.00000000000E+00 0. -1.
          1    1    1    2  502    0 -0.24853836171E+01 -0.94174250411E+02  0.14618625732E+04  0.14648949278E+04  0.00000000000E+00 0. -1.
         22    1    3    3    0    0 -0.49113319253E+02  0.25253624404E+01 -0.12171046080E+03  0.13127045308E+03  0.00000000000E+00 0.  1.
         22    1    3    3    0    0  0.17556891284E+02  0.95766089207E+02 -0.70645853079E+02  0.12029224759E+03  0.00000000000E+00 0.  1.
</event>
<event>
 7    1  0.5139898E-006  0.5596520E+02  0.7818608E-02  0.1458567E+00
          2   -1    0    0  502    0  0.00000000000E+00  0.00000000000E+00  0.27119843046E+04  0.27119843046E+04  0.00000000000E+00 0. -1.
          1   -1    0    0  501    0 -0.00000000000E+00 -0.00000000000E+00 -0.23543040399E+03  0.23543040399E+03  0.00000000000E+00 0. -1.
         25    2    1    2    0    0  0.29410055767E+02 -0.63876844146E+02  0.88914323035E+02  0.16874982692E+03  0.12500217857E+03 0.  0.
          2    1    1    2  501    0 -0.48360614393E+02  0.28045296417E+02 -0.19135386119E+03  0.19935292290E+03  0.00000000000E+00 0. -1.
          1    1    1    2  502    0  0.18950558626E+02  0.35831547729E+02  0.25789934388E+04  0.25793119588E+04  0.00000000000E+00 0. -1.
         22    1    3    3    0    0 -0.46657521699E+02 -0.43997726427E+01  0.29305813679E+02  0.55273077043E+02  0.00000000000E+00 0. -1.
         22    1    3    3    0    0  0.76067577466E+02 -0.59477071503E+02  0.59608509356E+02  0.11347674988E+03  0.00000000000E+00 0. -1.
</event>
<event>
 7    1  0.5139898E-006  0.2004218E+03  0.7818608E-02  0.1290334E+00
          2   -1    0    0  502    0  0.00000000000E+00  0.00000000000E+00  0.10219296625E+04  0.10219296625E+04  0.00000000000E+00 0. -1.
          1   -1    0    0  501    0 -0.00000000000E+00 -0.00000000000E+00 -0.41878103512E+03  0.41878103512E+03  0.00000000000E+00 0. -1.
         25    2    1    2    0    0  0.16367892593E+03 -0.39588384197E+02  0.21040211597E+03  0.29707283382E+03  0.12500074893E+03 0.  0.
          2    1    1    2  501    0 -0.18891549176E+03  0.77311239355E+02 -0.34695422287E+03  0.40254605144E+03  0.00000000000E+00 0. -1.
          1    1    1    2  502    0  0.25236565830E+02 -0.37722855158E+02  0.73970073430E+03  0.74109181238E+03  0.00000000000E+00 0. -1.
         22    1    3    3    0    0  0.15752111508E+02  0.28427840437E+02  0.19322122932E+01  0.32557711425E+02  0.00000000000E+00 0.  1.
         22    1    3    3    0    0  0.14792681442E+03 -0.68016224634E+02  0.20846990367E+03  0.26451512240E+03  0.00000000000E+00 0.  1.
</event>
<event>
 7    1  0.5139898E-006  0.4804481E+02  0.7818608E-02  0.1527211E+00
          2   -1    0    0  502    0  0.00000000000E+00  0.00000000000E+00  0.81714448378E+03  0.81714448378E+03  0.00000000000E+00 0. -1.
          1   -1    0    0  501    0 -0.00000000000E+00 -0.00000000000E+00 -0.38819951600E+03  0.38819951600E+03  0.00000000000E+00 0. -1.
         25    2    1    2    0    0 -0.54607919755E+02  0.54001770944E+02  0.78651047824E+02  0.16644539469E+03  0.12497946201E+03 0.  0.
          2    1    1    2  501    0  0.20098656027E+02 -0.21343811845E+02 -0.34286353634E+03  0.34411468848E+03  0.00000000000E+00 0. -1.
          1    1    1    2  502    0  0.34509263728E+02 -0.32657959099E+02  0.69315745629E+03  0.69478391661E+03  0.00000000000E+00 0. -1.
         22    1    3    3    0    0 -0.36472210174E+02  0.59736109019E+02 -0.14411888351E+02  0.71458570945E+02  0.00000000000E+00 0.  1.
         22    1    3    3    0    0 -0.18135709581E+02 -0.57343380748E+01  0.93062936175E+02  0.94986823743E+02  0.00000000000E+00 0.  1.
</event>
<event>
 7    1  0.5139898E-006  0.9817018E+02  0.7818608E-02  0.1391769E+00
          2   -1    0    0  502    0  0.00000000000E+00  0.00000000000E+00  0.36730506800E+03  0.36730506800E+03  0.00000000000E+00 0. -1.
          1   -1    0    0  501    0 -0.00000000000E+00 -0.00000000000E+00 -0.11714973924E+03  0.11714973924E+03  0.00000000000E+00 0. -1.
         25    2    1    2    0    0 -0.10080817547E+03  0.54133398738E+02  0.63654780753E+02  0.18102335069E+03  0.12499923712E+03 0.  0.
          2    1    1    2  501    0  0.92831600206E+02 -0.16480425178E+02 -0.17447091345E+02  0.95883843306E+02  0.00000000000E+00 0. -1.
          1    1    1    2  502    0  0.79765752657E+01 -0.37652973560E+02  0.20394763934E+03  0.20754761325E+03  0.00000000000E+00 0. -1.
         22    1    3    3    0    0 -0.80523549954E+02  0.49207477636E+02  0.10100888902E+03  0.13823246223E+03  0.00000000000E+00 0.  1.
         22    1    3    3    0    0 -0.20284625517E+02  0.49259211017E+01 -0.37354108265E+02  0.42790888461E+02  0.00000000000E+00 0.  1.
</event>
<event>
 7    1  0.5139898E-006  0.6562081E+02  0.7818608E-02  0.1385201E+00
          2   -1    0    0  502    0  0.00000000000E+00  0.00000000000E+00  0.90967356461E+03  0.90967356461E+03  0.00000000000E+00 0. -1.
          1   -1    0    0  501    0 -0.00000000000E+00 -0.00000000000E+00 -0.15578369695E+03  0.15578369695E+03  0.00000000000E+00 0. -1.
         25    2    1    2    0    0 -0.23729410363E+01 -0.12365115072E+03  0.73888805137E+02  0.19073466950E+03  0.12499968280E+03 0.  0.
          2    1    1    2  501    0 -0.79819364835E+01  0.60179951858E+02 -0.86418231219E+02  0.10560988875E+03  0.00000000000E+00 0. -1.
          1    1    1    2  502    0  0.10354877520E+02  0.63471198859E+02  0.76641929374E+03  0.76911270331E+03  0.00000000000E+00 0. -1.
         22    1    3    3    0    0  0.25078861839E+01 -0.11922658551E+03  0.10502616736E+03  0.15890803635E+03  0.00000000000E+00 0.  1.
         22    1    3    3    0    0 -0.48808272203E+01 -0.44245652035E+01 -0.31137362220E+02  0.31826633149E+02  0.00000000000E+00 0.  1.
</event>
<event>
 7    1  0.5139898E-006  0.7549854E+02  0.7818608E-02  0.1500493E+00
          2   -1    0    0  502    0  0.00000000000E+00  0.00000000000E+00  0.15265896596E+04  0.15265896596E+04  0.00000000000E+00 0. -1.
          1   -1    0    0  501    0 -0.00000000000E+00 -0.00000000000E+00 -0.40819830794E+03  0.40819830794E+03  0.00000000000E+00 0. -1.
         25    2    1    2    0    0 -0.57037186819E+02 -0.60968563367E+01  0.21543638458E+03  0.25560236529E+03  0.12501728281E+03 0.  0.
          2    1    1    2  501    0  0.72457400168E+02  0.22261010053E+02 -0.38431649833E+03  0.39172030621E+03  0.00000000000E+00 0. -1.
          1    1    1    2  502    0 -0.15420213348E+02 -0.16164153716E+02  0.12872714654E+04  0.12874652960E+04  0.00000000000E+00 0. -1.
         22    1    3    3    0    0 -0.74423400697E+02 -0.32676614744E+02  0.20751905560E+03  0.22286938363E+03  0.00000000000E+00 0. -1.
         22    1    3    3    0    0  0.17386213877E+02  0.26579758407E+02  0.79173289806E+01  0.32732981657E+02  0.00000000000E+00 0. -1.
</event>
<event>
 7    1  0.5139898E-006  0.2710592E+03  0.7818608E-02  0.1261001E+00
          2   -1    0    0  502    0  0.00000000000E+00  0.00000000000E+00  0.46383105292E+03  0.46383105292E+03  0.00000000000E+00 0. -1.
          1   -1    0    0  501    0 -0.00000000000E+00 -0.00000000000E+00 -0.11549004725E+04  0.11549004725E+04  0.00000000000E+00 0. -1.
         25    2    1    2    0    0  0.15027475633E+02 -0.27954925467E+03  0.27712370638E+03  0.41327425929E+03  0.12499781574E+03 0.  0.
          2    1    1    2  501    0 -0.36287422300E+02  0.25673727451E+02 -0.94892495870E+03  0.94996552282E+03  0.00000000000E+00 0. -1.
          1    1    1    2  502    0  0.21259946667E+02  0.25387552722E+03 -0.19268167310E+02  0.25549174336E+03  0.00000000000E+00 0. -1.
         22    1    3    3    0    0  0.62021211292E+02 -0.18920004464E+03  0.14428096792E+03  0.24588673255E+03  0.00000000000E+00 0. -1.
         22    1    3    3    0    0 -0.46993735659E+02 -0.90349210032E+02  0.13284273846E+03  0.16738752674E+03  0.00000000000E+00 0. -1.
</event>
<event>
 7    1  0.5139898E-006  0.1207364E+03  0.7818608E-02  0.1327343E+00
          2   -1    0    0  502    0  0.00000000000E+00  0.00000000000E+00  0.34005862585E+03  0.34005862585E+03  0.00000000000E+00 0. -1.
          1   -1    0    0  501    0 -0.00000000000E+00 -0.00000000000E+00 -0.34502824481E+03  0.34502824481E+03  0.00000000000E+00 0. -1.
         25    2    1    2    0    0  0.21849127732E+02  0.12949140270E+03  0.16218139596E+03  0.24323765264E+03  0.12496536604E+03 0.  0.
          2    1    1    2  501    0  0.43897643607E+02 -0.31125799306E+02 -0.27592977561E+03  0.28112819062E+03  0.00000000000E+00 0. -1.
          1    1    1    2  502    0 -0.65746771338E+02 -0.98365603390E+02  0.10877876069E+03  0.16072102740E+03  0.00000000000E+00 0. -1.
         22    1    3    3    0    0 -0.77504444780E+01 -0.23521280073E+02  0.15487125948E+02  0.29209092351E+02  0.00000000000E+00 0. -1.
         22    1    3    3    0    0  0.29599572210E+02  0.15301268277E+03  0.14669427002E+03  0.21402856029E+03  0.00000000000E+00 0. -1.
</event>
<event>
 7    1  0.5139898E-006  0.1502895E+03  0.7818608E-02  0.1377292E+00
          2   -1    0    0  502    0  0.00000000000E+00  0.00000000000E+00  0.12019483460E+04  0.12019483460E+04  0.00000000000E+00 0. -1.
          1   -1    0    0  501    0 -0.00000000000E+00 -0.00000000000E+00 -0.17866067543E+03  0.17866067543E+03  0.00000000000E+00 0. -1.
         25    2    1    2    0    0  0.14443835941E+03  0.90026476448E+02  0.48613222588E+03  0.53001567127E+03  0.12499945851E+03 0.  0.
          2    1    1    2  501    0 -0.11633262368E+03 -0.93061044054E+02 -0.12094326879E+03  0.19188775760E+03  0.00000000000E+00 0. -1.
          1    1    1    2  502    0 -0.28105735726E+02  0.30345676057E+01  0.65809871348E+03  0.65870559256E+03  0.00000000000E+00 0. -1.
         22    1    3    3    0    0  0.83326259021E+02 -0.18259016497E+02  0.16721371264E+03  0.18771543043E+03  0.00000000000E+00 0. -1.
         22    1    3    3    0    0  0.61112100386E+02  0.10828549295E+03  0.31891851323E+03  0.34230024084E+03  0.00000000000E+00 0. -1.
</event>
<event>
 7    1  0.5139898E-006  0.9583351E+02  0.7818608E-02  0.1461260E+00
          2   -1    0    0  502    0  0.00000000000E+00  0.00000000000E+00  0.12158696344E+04  0.12158696344E+04  0.00000000000E+00 0. -1.
          1   -1    0    0  501    0 -0.00000000000E+00 -0.00000000000E+00 -0.32745567696E+03  0.32745567696E+03  0.00000000000E+00 0. -1.
         25    2    1    2    0    0 -0.53698418086E+02  0.92924242776E+02  0.84432769860E+03  0.86025143558E+03  0.12499933915E+03 0.  0.
          2    1    1    2  501    0  0.30588936148E+02 -0.90737021550E+02 -0.31193279447E+03  0.32629887888E+03  0.00000000000E+00 0. -1.
          1    1    1    2  502    0  0.23109481938E+02 -0.21872212260E+01  0.35601905335E+03  0.35677499693E+03  0.00000000000E+00 0. -1.
         22    1    3    3    0    0 -0.16992281306E+02  0.10744947855E+03  0.41181458350E+03  0.42594058183E+03  0.00000000000E+00 0. -1.
         22    1    3    3    0    0 -0.36706136780E+02 -0.14525235770E+02  0.43251311510E+03  0.43431085375E+03  0.00000000000E+00 0. -1.
</event>
<event>
 7    1  0.5139898E-006  0.1030989E+03  0.7818608E-02  0.1277202E+00
          2   -1    0    0  502    0  0.00000000000E+00  0.00000000000E+00  0.17839560469E+03  0.17839560469E+03  0.00000000000E+00 0. -1.
          1   -1    0    0  501    0 -0.00000000000E+00 -0.00000000000E+00 -0.39857113968E+03  0.39857113968E+03  0.00000000000E+00 0. -1.
         25    2    1    2    0    0  0.11887359559E+03 -0.69042765116E+02 -0.48643441773E+02  0.19206301394E+03  0.12499672697E+03 0.  0.
          2    1    1    2  501    0 -0.24077705367E+02  0.10056172663E+03 -0.24165625527E+03  0.26285003799E+03  0.00000000000E+00 0. -1.
          1    1    1    2  502    0 -0.94795890219E+02 -0.31518961509E+02  0.70124162052E+02  0.12205369245E+03  0.00000000000E+00 0. -1.
         22    1    3    3    0    0  0.68653538616E+02 -0.98190951787E+02 -0.58227721447E+02  0.13321125674E+03  0.00000000000E+00 0.  1.
         22    1    3    3    0    0  0.50220056970E+02  0.29148186671E+02  0.95842796736E+01  0.58851757197E+02  0.00000000000E+00 0.  1.
</event>
<event>
 7    1  0.5139898E-006  0.5476974E+02  0.7818608E-02  0.1422969E+00
          2   -1    0    0  502    0  0.00000000000E+00  0.00000000000E+00  0.17954113991E+03  0.17954113991E+03  0.00000000000E+00 0. -1.
          1   -1    0    0  501    0 -0.00000000000E+00 -0.00000000000E+00 -0.74705492052E+03  0.74705492052E+03  0.00000000000E+00 0. -1.
         25    2    1    2    0    0 -0.55573985758E+02 -0.34598100519E+02 -0.18800879030E+03  0.23507078989E+03  0.12500189830E+03 0.  0.
          2    1    1    2  501    0  0.46042424817E+01  0.54643302448E+02 -0.52924747846E+03  0.53208080496E+03  0.00000000000E+00 0. -1.
          1    1    1    2  502    0  0.50969743276E+02 -0.20045201929E+02  0.14974248814E+03  0.15944446558E+03  0.00000000000E+00 0. -1.
         22    1    3    3    0    0 -0.60571796223E+02  0.35912020945E+02 -0.94414695079E+02  0.11778264046E+03  0.00000000000E+00 0. -1.
         22    1    3    3    0    0  0.49978104653E+01 -0.70510121464E+02 -0.93594095217E+02  0.11728814943E+03  0.00000000000E+00 0. -1.
</event>
<event>
 7    1  0.5139898E-006  0.9803530E+02  0.7818608E-02  0.1476974E+00
          2   -1    0    0  502    0  0.00000000000E+00  0.00000000000E+00  0.15744940276E+04  0.15744940276E+04  0.00000000000E+00 0. -1.
          1   -1    0    0  501    0 -0.00000000000E+00 -0.00000000000E+00 -0.11215553159E+03  0.11215553159E+03  0.00000000000E+00 0. -1.
         25    2    1    2    0    0 -0.38593378190E+02 -0.92245315410E+02  0.96041447867E+02  0.18667081372E+03  0.12499354356E+03 0.  0.
          2    1    1    2  501    0 -0.16795066158E+02  0.11354281928E+02 -0.63585587872E+02  0.66739201002E+02  0.00000000000E+00 0. -1.
          1    1    1    2  502    0  0.55388444347E+02  0.80891033481E+02  0.14298826360E+04  0.14332395445E+04  0.00000000000E+00 0. -1.
         22    1    3    3    0    0 -0.91721640474E+01  0.30839025283E+02  0.29689455601E+02  0.43779422650E+02  0.00000000000E+00 0.  1.
         22    1    3    3    0    0 -0.29421214142E+02 -0.12308434069E+03  0.66351992266E+02  0.14289139107E+03  0.00000000000E+00 0.  1.
</event>
<event>
 7    1  0.5139898E-006  0.6665391E+02  0.7818608E-02  0.1400419E+00
          2   -1    0    0  502    0  0.00000000000E+00  0.00000000000E+00  0.16771766123E+04  0.16771766123E+04  0.00000000000E+00 0. -1.
          1   -1    0    0  501    0 -0.00000000000E+00 -0.00000000000E+00 -0.44082430881E+03  0.44082430881E+03  0.00000000000E+00 0. -1.
         25    2    1    2    0    0 -0.14205772680E+02  0.10735875551E+02  0.12094092609E+03  0.17483863586E+03  0.12499911194E+03 0.  0.
          2    1    1    2  501    0  0.26496723459E+02 -0.62202549052E+02 -0.41065261405E+03  0.41618121400E+03  0.00000000000E+00 0. -1.
          1    1    1    2  502    0 -0.12290950780E+02  0.51466673501E+02  0.15260639914E+04  0.15269810712E+04  0.00000000000E+00 0. -1.
         22    1    3    3    0    0 -0.49635781710E+02 -0.16689347408E+02  0.11897682784E+03  0.12999127166E+03  0.00000000000E+00 0. -1.
         22    1    3    3    0    0  0.35430009030E+02  0.27425222959E+02  0.19640982447E+01  0.44847364205E+02  0.00000000000E+00 0. -1.
</event>
<event>
 7    1  0.5139898E-006  0.3976533E+02  0.7818608E-02  0.1601227E+00
          2   -1    0    0  502    0  0.00000000000E+00  0.00000000000E+00  0.16684270861E+04  0.16684270861E+04  0.00000000000E+00 0. -1.
          1   -1    0    0  501    0 -0.00000000000E+00 -0.00000000000E+00 -0.12366874871E+04  0.12366874871E+04  0.00000000000E+00 0. -1.
         25    2    1    2    0    0 -0.58841023889E+02 -0.13037648783E+02  0.49911663130E+02  0.14748042017E+03  0.12500821509E+03 0.  0.
          2    1    1    2  501    0  0.19222785735E+02  0.11123791570E+02 -0.11875486991E+04  0.11877563584E+04  0.00000000000E+00 0. -1.
          1    1    1    2  502    0  0.39618238154E+02  0.19138572128E+01  0.15693766350E+04  0.15698777946E+04  0.00000000000E+00 0. -1.
         22    1    3    3    0    0 -0.20085832550E+02  0.52022586086E+02 -0.17762659359E+01  0.55793774321E+02  0.00000000000E+00 0. -1.
         22    1    3    3    0    0 -0.38755191339E+02 -0.65060234869E+02  0.51687929066E+02  0.91686645854E+02  0.00000000000E+00 0. -1.
</event>
<event>
 7    1  0.5139898E-006  0.4823207E+02  0.7818608E-02  0.1498000E+00
          2   -1    0    0  502    0  0.00000000000E+00  0.00000000000E+00  0.30120314880E+04  0.30120314880E+04  0.00000000000E+00 0. -1.
          1   -1    0    0  501    0 -0.00000000000E+00 -0.00000000000E+00 -0.15389021412E+03  0.15389021412E+03  0.00000000000E+00 0. -1.
         25    2    1    2    0    0 -0.33943237352E+02 -0.75497214757E+02  0.66211811492E+03  0.67887995961E+03  0.12500251458E+03 0.  0.
          2    1    1    2  501    0  0.13322488596E+02  0.32984721228E+02 -0.14309291095E+03  0.14744850525E+03  0.00000000000E+00 0. -1.
          1    1    1    2  502    0  0.20620748757E+02  0.42512493529E+02  0.23391160699E+04  0.23395932372E+04  0.00000000000E+00 0. -1.
         22    1    3    3    0    0 -0.11054450433E+02 -0.10343375130E+03  0.57876683320E+03  0.58804063550E+03  0.00000000000E+00 0.  1.
         22    1    3    3    0    0 -0.22888786919E+02  0.27936536541E+02  0.83351281717E+02  0.90839324108E+02  0.00000000000E+00 0.  1.
</event>
<event>
 7    1  0.5139898E-006  0.1268719E+03  0.7818608E-02  0.1247862E+00
          2   -1    0    0  502    0  0.00000000000E+00  0.00000000000E+00  0.37625103760E+03  0.37625103760E+03  0.00000000000E+00 0. -1.
          1   -1    0    0  501    0 -0.00000000000E+00 -0.00000000000E+00 -0.59990011928E+03  0.59990011928E+03  0.00000000000E+00 0. -1.
         25    2    1    2    0    0  0.21563638777E+03  0.39306818687E+02 -0.35791335529E+03  0.43791677916E+03  0.12500023139E+03 0.  0.
          2    1    1    2  501    0 -0.10631469289E+03  0.20035060264E+02 -0.17452272157E+03  0.20533484338E+03  0.00000000000E+00 0. -1.
          1    1    1    2  502    0 -0.10932169488E+03 -0.59341878951E+02  0.30878699518E+03  0.33289953433E+03  0.00000000000E+00 0. -1.
         22    1    3    3    0    0  0.13294381482E+03  0.31484576042E+02 -0.31728897416E+03  0.34545278918E+03  0.00000000000E+00 0. -1.
         22    1    3    3    0    0  0.82692572946E+02  0.78222426449E+01 -0.40624381130E+02  0.92463989978E+02  0.00000000000E+00 0. -1.
</event>
<event>
 7    1  0.5139898E-006  0.1179129E+03  0.7818608E-02  0.1262671E+00
          2   -1    0    0  502    0  0.00000000000E+00  0.00000000000E+00  0.15220679380E+04  0.15220679380E+04  0.00000000000E+00 0. -1.
          1   -1    0    0  501    0 -0.00000000000E+00 -0.00000000000E+00 -0.12432009095E+04  0.12432009095E+04  0.00000000000E+00 0. -1.
         25    2    1    2    0    0  0.17541213711E+02 -0.25512871801E+02  0.83306329542E+03  0.84295805194E+03  0.12500088942E+03 0.  0.
          2    1    1    2  501    0 -0.11740812456E+03  0.14019303353E+02 -0.12317137122E+04  0.12373762069E+04  0.00000000000E+00 0. -1.
          1    1    1    2  502    0  0.99866910845E+02  0.11493568448E+02  0.67751744533E+03  0.68493458865E+03  0.00000000000E+00 0. -1.
         22    1    3    3    0    0  0.53445192356E+02 -0.42999599584E+02  0.71583233035E+03  0.71911145125E+03  0.00000000000E+00 0. -1.
         22    1    3    3    0    0 -0.35903978645E+02  0.17486727784E+02  0.11723096507E+03  0.12384660069E+03  0.00000000000E+00 0. -1.
</event>
<event>
 7    1  0.5139898E-006  0.9721514E+02  0.7818608E-02  0.1396266E+00
          2   -1    0    0  502    0  0.00000000000E+00  0.00000000000E+00  0.54674412238E+03  0.54674412238E+03  0.00000000000E+00 0. -1.
          1   -1    0    0  501    0 -0.00000000000E+00 -0.00000000000E+00 -0.79661050964E+03  0.79661050964E+03  0.00000000000E+00 0. -1.
         25    2    1    2    0    0 -0.70070763697E+01  0.84592948505E+02 -0.33731742519E+03  0.36961143186E+03  0.12499799664E+03 0.  0.
          2    1    1    2  501    0  0.43364255762E+02 -0.93761124760E+02 -0.43644657024E+03  0.44850553605E+03  0.00000000000E+00 0. -1.
          1    1    1    2  502    0 -0.36357179392E+02  0.91681762550E+01  0.52389760818E+03  0.52523766411E+03  0.00000000000E+00 0. -1.
         22    1    3    3    0    0 -0.53601729641E+02  0.56835211693E+02 -0.28002715948E+03  0.29072082271E+03  0.00000000000E+00 0.  1.
         22    1    3    3    0    0  0.46594653271E+02  0.27757736813E+02 -0.57290265710E+02  0.78890609146E+02  0.00000000000E+00 0.  1.
</event>
<event>
 7    1  0.5139898E-006  0.5939478E+02  0.7818608E-02  0.1466280E+00
          2   -1    0    0  502    0  0.00000000000E+00  0.00000000000E+00  0.30157745887E+03  0.30157745887E+03  0.00000000000E+00 0. -1.
          1   -1    0    0  501    0 -0.00000000000E+00 -0.00000000000E+00 -0.10176392876E+04  0.10176392876E+04  0.00000000000E+00 0. -1.
         25    2    1    2    0    0 -0.26958614669E+02  0.12320718790E+01 -0.19362431953E+03  0.23204243499E+03  0.12500011847E+03 0.  0.
          2    1    1    2  501    0  0.59924752008E+02  0.13527924413E+02 -0.80247199712E+03  0.80482003380E+03  0.00000000000E+00 0. -1.
          1    1    1    2  502    0 -0.32966137340E+02 -0.14759996292E+02  0.28003448792E+03  0.28235427768E+03  0.00000000000E+00 0. -1.
         22    1    3    3    0    0 -0.45579185153E+02  0.54343805745E+02 -0.96047704608E+02  0.11939796021E+03  0.00000000000E+00 0.  1.
         22    1    3    3    0    0  0.18620570484E+02 -0.53111733866E+02 -0.97576614919E+02  0.11264447478E+03  0.00000000000E+00 0.  1.
</event>
<event>
 7    1  0.5139898E-006  0.1056376E+03  0.7818608E-02  0.1390167E+00
          2   -1    0    0  502    0  0.00000000000E+00  0.00000000000E+00  0.10275069075E+04  0.10275069075E+04  0.00000000000E+00 0. -1.
          1   -1    0    0  501    0 -0.00000000000E+00 -0.00000000000E+00 -0.49311386769E+03  0.49311386769E+03  0.00000000000E+00 0. -1.
         25    2    1    2    0    0 -0.91239839853E+02  0.21572991161E+02  0.72508332601E+02  0.17225608418E+03  0.12499839165E+03 0.  0.
          2    1    1    2  501    0  0.10590092001E+03  0.11558533613E+02 -0.43646863411E+03  0.44928106250E+03  0.00000000000E+00 0. -1.
          1    1    1    2  502    0 -0.14661080159E+02 -0.33131524774E+02  0.89835334136E+03  0.89908362855E+03  0.00000000000E+00 0. -1.
         22    1    3    3    0    0 -0.85795621542E+02 -0.14895105163E+02  0.95154277976E+02  0.12898484194E+03  0.00000000000E+00 0.  1.
         22    1    3    3    0    0 -0.54442183109E+01  0.36468096324E+02 -0.22645945375E+02  0.43271242234E+02  0.00000000000E+00 0.  1.
</event>
<event>
 7    1  0.5139898E-006  0.7761971E+02  0.7818608E-02  0.1355472E+00
          2   -1    0    0  502    0  0.00000000000E+00  0.00000000000E+00  0.54206507253E+03  0.54206507253E+03  0.00000000000E+00 0. -1.
          1   -1    0    0  501    0 -0.00000000000E+00 -0.00000000000E+00 -0.36208514174E+03  0.36208514174E+03  0.00000000000E+00 0. -1.
         25    2    1    2    0    0  0.61760122517E+02  0.12783159242E+03 -0.13823921495E+03  0.23428663104E+03  0.12499966472E+03 0.  0.
          2    1    1    2  501    0 -0.24695320210E+02 -0.60813641697E+02 -0.16658404855E+03  0.17904860537E+03  0.00000000000E+00 0. -1.
          1    1    1    2  502    0 -0.37064802307E+02 -0.67017950720E+02  0.48480319429E+03  0.49081497785E+03  0.00000000000E+00 0. -1.
         22    1    3    3    0    0 -0.37881358641E+02  0.23489554108E+02 -0.38414908996E+02  0.58842686189E+02  0.00000000000E+00 0. -1.
         22    1    3    3    0    0  0.99641481159E+02  0.10434203831E+03 -0.99824305958E+02  0.17544394485E+03  0.00000000000E+00 0. -1.
</event>
<event>
 7    1  0.5139898E-006  0.4850581E+02  0.7818608E-02  0.1459935E+00
          2   -1    0    0  502    0  0.00000000000E+00  0.00000000000E+00  0.31476107053E+04  0.31476107053E+04  0.00000000000E+00 0. -1.
          1   -1    0    0  501    0 -0.00000000000E+00 -0.00000000000E+00 -0.13384101085E+03  0.13384101085E+03  0.00000000000E+00 0. -1.
         25    2    1    2    0    0  0.42968960327E+01  0.80113439281E+02  0.11463103800E+03  0.18762190297E+03  0.12500030853E+03 0.  0.
          2    1    1    2  501    0  0.23032443515E+02 -0.40170302493E+02 -0.91632162730E+02  0.10266742377E+03  0.00000000000E+00 0. -1.
          1    1    1    2  502    0 -0.27329339548E+02 -0.39943136788E+02  0.29907708192E+04  0.29911623895E+04  0.00000000000E+00 0. -1.
         22    1    3    3    0    0  0.40646912654E+02  0.97823967101E+02  0.67900273467E+02  0.12582586056E+03  0.00000000000E+00 0. -1.
         22    1    3    3    0    0 -0.36350016622E+02 -0.17710527820E+02  0.46730764536E+02  0.61796042415E+02  0.00000000000E+00 0. -1.
</event>
<event>
 7    1  0.5139898E-006  0.1222695E+03  0.7818608E-02  0.1288072E+00
          2   -1    0    0  502    0  0.00000000000E+00  0.00000000000E+00  0.58449274554E+03  0.58449274554E+03  0.00000000000E+00 0. -1.
          1   -1    0    0  501    0 -0.00000000000E+00 -0.00000000000E+00 -0.60188880301E+03  0.60188880301E+03  0.00000000000E+00 0. -1.
         25    2    1    2    0    0 -0.62961125079E+02  0.41857026083E+02 -0.52188436251E+02  0.15510950432E+03  0.12497684405E+03 0.  0.
          2    1    1    2  501    0  0.59129307843E+02 -0.11775126942E+03 -0.48672629826E+03  0.50424609658E+03  0.00000000000E+00 0. -1.
          1    1    1    2  502    0  0.38318172361E+01  0.75894243339E+02  0.52151867704E+03  0.52702594765E+03  0.00000000000E+00 0. -1.
         22    1    3    3    0    0 -0.12883369987E+02  0.63093376033E+02 -0.72570397314E+02  0.97021739253E+02  0.00000000000E+00 0.  1.
         22    1    3    3    0    0 -0.50077755092E+02 -0.21236349950E+02  0.20381961062E+02  0.58087765072E+02  0.00000000000E+00 0.  1.
</event>
<event>
 7    1  0.5139898E-006  0.1462120E+03  0.7818608E-02  0.1375428E+00
          2   -1    0    0  502    0  0.00000000000E+00  0.00000000000E+00  0.20234119580E+04  0.20234119580E+04  0.00000000000E+00 0. -1.
          1   -1    0    0  501    0 -0.00000000000E+00 -0.00000000000E+00 -0.96277347530E+03  0.96277347530E+03  0.00000000000E+00 0. -1.
         25    2    1    2    0    0  0.68119460716E+02 -0.12018221028E+03  0.10023755102E+04  0.10195413612E+04  0.12499559607E+03 0.  0.
          2    1    1    2  501    0 -0.95955433954E+02  0.11039943567E+03 -0.94836746109E+03  0.95958132639E+03  0.00000000000E+00 0. -1.
          1    1    1    2  502    0  0.27835973238E+02  0.97827746111E+01  0.10066304336E+04  0.10070627457E+04  0.00000000000E+00 0. -1.
         22    1    3    3    0    0  0.37141962072E+02 -0.68472025694E+02  0.87673761461E+03  0.88019133632E+03  0.00000000000E+00 0.  1.
         22    1    3    3    0    0  0.30977498644E+02 -0.51710184584E+02  0.12563789560E+03  0.13935002484E+03  0.00000000000E+00 0.  1.
</event>
<event>
 7    1  0.5139898E-006  0.7546195E+02  0.7818608E-02  0.1344777E+00
          2   -1    0    0  502    0  0.00000000000E+00  0.00000000000E+00  0.49991216024E+03  0.49991216024E+03  0.00000000000E+00 0. -1.
          1   -1    0    0  501    0 -0.00000000000E+00 -0.00000000000E+00 -0.34014924419E+03  0.34014924419E+03  0.00000000000E+00 0. -1.
         25    2    1    2    0    0 -0.16914134408E+02  0.56785000780E+01 -0.10606982703E+03  0.16489895574E+03  0.12499009598E+03 0.  0.
          2    1    1    2  501    0 -0.15936626153E+02 -0.73759952060E+02 -0.19452003928E+03  0.20864455963E+03  0.00000000000E+00 0. -1.
          1    1    1    2  502    0  0.32850760561E+02  0.68081451982E+02  0.46035278237E+03  0.46651788906E+03  0.00000000000E+00 0. -1.
         22    1    3    3    0    0  0.18110484354E+02  0.85984695883E+01 -0.12388419637E+03  0.12549588612E+03  0.00000000000E+00 0. -1.
         22    1    3    3    0    0 -0.35024618761E+02 -0.29199695103E+01  0.17814369334E+02  0.39403069628E+02  0.00000000000E+00 0. -1.
</event>
<event>
 7    1  0.5139898E-006  0.2203061E+03  0.7818608E-02  0.1202786E+00
          2   -1    0    0  502    0  0.00000000000E+00  0.00000000000E+00  0.29823497024E+04  0.29823497024E+04  0.00000000000E+00 0. -1.
          1   -1    0    0  501    0 -0.00000000000E+00 -0.00000000000E+00 -0.21120313263E+03  0.21120313263E+03  0.00000000000E+00 0. -1.
         25    2    1    2    0    0  0.17566033936E+03 -0.10796484199E+03  0.90378309426E+03  0.93539399308E+03  0.12500031553E+03 0.  0.
          2    1    1    2  501    0  0.55270274915E+02  0.82862849727E+02 -0.17568023746E+03  0.20195197693E+03  0.00000000000E+00 0. -1.
          1    1    1    2  502    0 -0.23093061427E+03  0.25101992265E+02  0.20430437130E+04  0.20562068650E+04  0.00000000000E+00 0. -1.
         22    1    3    3    0    0  0.10643126313E+03 -0.90614682035E+02  0.78070650468E+03  0.79312122706E+03  0.00000000000E+00 0.  1.
         22    1    3    3    0    0  0.69229076230E+02 -0.17350159957E+02  0.12307658959E+03  0.14227276602E+03  0.00000000000E+00 0.  1.
</event>
<event>
 7    1  0.5139898E-006  0.3417851E+02  0.7818608E-02  0.1607752E+00
          2   -1    0    0  502    0  0.00000000000E+00  0.00000000000E+00  0.10029513335E+04  0.10029513335E+04  0.00000000000E+00 0. -1.
          1   -1    0    0  501    0 -0.00000000000E+00 -0.00000000000E+00 -0.11323505910E+03  0.11323505910E+03  0.00000000000E+00 0. -1.
         25    2    1    2    0    0 -0.10390596159E+02  0.16925498064E+02  0.31430682894E+03  0.33883504972E+03  0.12500388487E+03 0.  0.
          2    1    1    2  501    0 -0.23430167650E+02 -0.82808115346E+01 -0.98983638502E+02  0.10205540303E+03  0.00000000000E+00 0. -1.
          1    1    1    2  502    0  0.33820763809E+02 -0.86446865299E+01  0.67439308401E+03  0.67529593989E+03  0.00000000000E+00 0. -1.
         22    1    3    3    0    0  0.31889834804E+02  0.95450400396E+01  0.15077192403E+02  0.36543003215E+02  0.00000000000E+00 0. -1.
         22    1    3    3    0    0 -0.42280430963E+02  0.73804580249E+01  0.29922963653E+03  0.30229204651E+03  0.00000000000E+00 0. -1.
</event>
<event>
 7    1  0.5139898E-006  0.9039673E+02  0.7818608E-02  0.1318442E+00
          2   -1    0    0  502    0  0.00000000000E+00  0.00000000000E+00  0.98339400460E+02  0.98339400460E+02  0.00000000000E+00 0. -1.
          1   -1    0    0  501    0 -0.00000000000E+00 -0.00000000000E+00 -0.81429161483E+03  0.81429161483E+03  0.00000000000E+00 0. -1.
         25    2    1    2    0    0 -0.12921061948E+03  0.88667900011E+02 -0.15799602053E+03  0.25523554240E+03  0.12500023570E+03 0.  0.
          2    1    1    2  501    0  0.68193942021E+02 -0.37438620691E+02 -0.57133657855E+03  0.57660866282E+03  0.00000000000E+00 0. -1.
          1    1    1    2  502    0  0.61016677454E+02 -0.51229279320E+02  0.13380384703E+02  0.80786810074E+02  0.00000000000E+00 0. -1.
         22    1    3    3    0    0 -0.15562899560E+02 -0.29878513408E+02 -0.12826557764E+02  0.36047884684E+02  0.00000000000E+00 0.  1.
         22    1    3    3    0    0 -0.11364771992E+03  0.11854641342E+03 -0.14516946276E+03  0.21918765772E+03  0.00000000000E+00 0.  1.
</event>
<event>
 7    1  0.5139898E-006  0.6554544E+02  0.7818608E-02  0.1418270E+00
          2   -1    0    0  502    0  0.00000000000E+00  0.00000000000E+00  0.11590874915E+04  0.11590874915E+04  0.00000000000E+00 0. -1.
          1   -1    0    0  501    0 -0.00000000000E+00 -0.00000000000E+00 -0.23658168218E+03  0.23658168218E+03  0.00000000000E+00 0. -1.
         25    2    1    2    0    0  0.32760808785E+02 -0.49802903603E+00  0.14222034692E+03  0.19215833230E+03  0.12499871586E+03 0.  0.
          2    1    1    2  501    0  0.20120927324E+02  0.42260112637E+02 -0.20786297737E+03  0.21306756251E+03  0.00000000000E+00 0. -1.
          1    1    1    2  502    0 -0.52881736109E+02 -0.41762083601E+02  0.98814843981E+03  0.99044327891E+03  0.00000000000E+00 0. -1.
         22    1    3    3    0    0  0.55241387244E+02 -0.40812362453E+02  0.38751165466E+02  0.78860082542E+02  0.00000000000E+00 0. -1.
         22    1    3    3    0    0 -0.22480578459E+02  0.40314333416E+02  0.10346918145E+03  0.11329824975E+03  0.00000000000E+00 0. -1.
</event>
<event>
 7    1  0.5139898E-006  0.1075327E+03  0.7818608E-02  0.1329352E+00
          2   -1    0    0  502    0  0.00000000000E+00  0.00000000000E+00  0.64902494735E+03  0.64902494735E+03  0.00000000000E+00 0. -1.
          1   -1    0    0  501    0 -0.00000000000E+00 -0.00000000000E+00 -0.48494254918E+03  0.48494254918E+03  0.00000000000E+00 0. -1.
         25    2    1    2    0    0 -0.16281262478E+01  0.14190050366E+03  0.19749484231E+03  0.27343686531E+03  0.12500041133E+03 0.  0.
          2    1    1    2  501    0 -0.39656037325E+02 -0.99249193863E+02 -0.43838776541E+03  0.45122814256E+03  0.00000000000E+00 0. -1.
          1    1    1    2  502    0  0.41284163573E+02 -0.42651309802E+02  0.40497532126E+03  0.40930248866E+03  0.00000000000E+00 0. -1.
         22    1    3    3    0    0  0.11098496983E+02 -0.15239394806E+02 -0.22330073659E+01  0.18984259566E+02  0.00000000000E+00 0.  1.
         22    1    3    3    0    0 -0.12726623231E+02  0.15713989847E+03  0.19972784968E+03  0.25445260574E+03  0.00000000000E+00 0.  1.
</event>
<event>
 7    1  0.5139898E-006  0.6226859E+02  0.7818608E-02  0.1401300E+00
          2   -1    0    0  502    0  0.00000000000E+00  0.00000000000E+00  0.89921387456E+03  0.89921387456E+03  0.00000000000E+00 0. -1.
          1   -1    0    0  501    0 -0.00000000000E+00 -0.00000000000E+00 -0.16131445884E+04  0.16131445884E+04  0.00000000000E+00 0. -1.
         25    2    1    2    0    0  0.58589544864E+02 -0.48623579065E+01 -0.21633740606E+02  0.13981872974E+03  0.12499952465E+03 0.  0.
          2    1    1    2  501    0 -0.31423473929E+02  0.54114260587E+02 -0.15308369636E+04  0.15321153994E+04  0.00000000000E+00 0. -1.
          1    1    1    2  502    0 -0.27166070935E+02 -0.49251902681E+02  0.83853999040E+03  0.84042433379E+03  0.00000000000E+00 0. -1.
         22    1    3    3    0    0  0.18865260081E+02  0.37017089887E+02 -0.58185617297E+02  0.71496356843E+02  0.00000000000E+00 0.  1.
         22    1    3    3    0    0  0.39724284783E+02 -0.41879447793E+02  0.36551876691E+02  0.68322372900E+02  0.00000000000E+00 0.  1.
</event>
<event>
 7    1  0.5139898E-006  0.1141260E+03  0.7818608E-02  0.1323123E+00
          2   -1    0    0  502    0  0.00000000000E+00  0.00000000000E+00  0.36307997278E+03  0.36307997278E+03  0.00000000000E+00 0. -1.
          1   -1    0    0  501    0 -0.00000000000E+00 -0.00000000000E+00 -0.12606061342E+03  0.12606061342E+03  0.00000000000E+00 0. -1.
         25    2    1    2    0    0  0.14298264642E+03 -0.31788310205E+01  0.45332784012E+02  0.19528122571E+03  0.12500221463E+03 0.  0.
          2    1    1    2  501    0 -0.42024318359E+02 -0.41553346162E+02 -0.13703396186E+02  0.60667182049E+02  0.00000000000E+00 0. -1.
          1    1    1    2  502    0 -0.10095832806E+03  0.44732177182E+02  0.20538997153E+03  0.23319217844E+03  0.00000000000E+00 0. -1.
         22    1    3    3    0    0  0.69326024140E+02  0.48781807150E+02  0.60136951758E+02  0.10393370627E+03  0.00000000000E+00 0.  1.
         22    1    3    3    0    0  0.73656622281E+02 -0.51960638171E+02 -0.14804167745E+02  0.91347519439E+02  0.00000000000E+00 0.  1.
</event>
<event>
 7    1  0.5139898E-006  0.2159993E+03  0.7818608E-02  0.1264495E+00
          2   -1    0    0  502    0  0.00000000000E+00  0.00000000000E+00  0.10686323107E+04  0.10686323107E+04  0.00000000000E+00 0. -1.
          1   -1    0    0  501    0 -0.00000000000E+00 -0.00000000000E+00 -0.30232163798E+03  0.30232163798E+03  0.00000000000E+00 0. -1.
         25    2    1    2    0    0  0.18256324442E+03  0.27473057767E+02  0.23586616041E+03  0.32456371261E+03  0.12499860320E+03 0.  0.
          2    1    1    2  501    0  0.35411165775E+02  0.40645867091E+02 -0.23836232045E+03  0.24438214539E+03  0.00000000000E+00 0. -1.
          1    1    1    2  502    0 -0.21797441019E+03 -0.68118924857E+02  0.76880683271E+03  0.80200809064E+03  0.00000000000E+00 0. -1.
         22    1    3    3    0    0  0.28830894824E+02 -0.58892379305E+01 -0.11351149283E+02  0.31539692608E+02  0.00000000000E+00 0. -1.
         22    1    3    3    0    0  0.15373234960E+03  0.33362295697E+02  0.24721730970E+03  0.29302402001E+03  0.00000000000E+00 0. -1.
</event>
<event>
 7    1  0.5139898E-006  0.3908766E+02  0.7818608E-02  0.1547546E+00
          2   -1    0    0  502    0  0.00000000000E+00  0.00000000000E+00  0.14344192844E+04  0.14344192844E+04  0.00000000000E+00 0. -1.
          1   -1    0    0  501    0 -0.00000000000E+00 -0.00000000000E+00 -0.88761364246E+03  0.88761364246E+03  0.00000000000E+00 0. -1.
         25    2    1    2    0    0  0.56861562205E+02 -0.33121631199E+02  0.32039760471E+03  0.35015615922E+03  0.12499772408E+03 0.  0.
          2    1    1    2  501    0 -0.19159288543E+02  0.25070580369E+02 -0.87211091309E+03  0.87268153244E+03  0.00000000000E+00 0. -1.
          1    1    1    2  502    0 -0.37702273662E+02  0.80510508293E+01  0.10985189503E+04  0.10991952352E+04  0.00000000000E+00 0. -1.
         22    1    3    3    0    0  0.53590221186E+02  0.39455732719E+02  0.12360265570E+03  0.14037906948E+03  0.00000000000E+00 0.  1.
         22    1    3    3    0    0  0.32713410192E+01 -0.72577363917E+02  0.19679494901E+03  0.20977708974E+03  0.00000000000E+00 0.  1.
</event>
<event>
 7    1  0.5139898E-006  0.1759414E+03  0.7818608E-02  0.1361289E+00
          2   -1    0    0  502    0  0.00000000000E+00  0.00000000000E+00  0.21073304684E+04  0.21073304684E+04  0.00000000000E+00 0. -1.
          1   -1    0    0  501    0 -0.00000000000E+00 -0.00000000000E+00 -0.13087019855E+04  0.13087019855E+04  0.00000000000E+00 0. -1.
         25    2    1    2    0    0  0.92599656163E+02 -0.17225625131E+03  0.41243610605E+03  0.47325915608E+03  0.12499509912E+03 0.  0.
          2    1    1    2  501    0 -0.66816874212E+02  0.16248603862E+03 -0.12721387042E+04  0.12842130237E+04  0.00000000000E+00 0. -1.
          1    1    1    2  502    0 -0.25782781951E+02  0.97702126872E+01  0.16583310810E+04  0.16585602742E+04  0.00000000000E+00 0. -1.
         22    1    3    3    0    0  0.81137591822E+02 -0.17914240072E+03  0.41536670373E+03  0.45957024176E+03  0.00000000000E+00 0. -1.
         22    1    3    3    0    0  0.11462064341E+02  0.68861494077E+01 -0.29305976784E+01  0.13688914324E+02  0.00000000000E+00 0. -1.
</event>
<event>
 7    1  0.5139898E-006  0.1260450E+03  0.7818608E-02  0.1303206E+00
          2   -1    0    0  502    0  0.00000000000E+00  0.00000000000E+00  0.98151704153E+03  0.98151704153E+03  0.00000000000E+00 0. -1.
          1   -1    0    0  501    0 -0.00000000000E+00 -0.00000000000E+00 -0.13717614967E+03  0.13717614967E+03  0.00000000000E+00 0. -1.
         25    2    1    2    0    0 -0.16407840583E+03 -0.77403743471E+02  0.30255993289E+03  0.37427375628E+03  0.12500107554E+03 0.  0.
          2    1    1    2  501    0  0.10126861372E+03  0.64837616430E+02 -0.63346092938E+02  0.13591164821E+03  0.00000000000E+00 0. -1.
          1    1    1    2  502    0  0.62809792111E+02  0.12566127041E+02  0.60512705191E+03  0.60850778671E+03  0.00000000000E+00 0. -1.
         22    1    3    3    0    0 -0.31281669621E+02 -0.76761691149E+02  0.15488181664E+03  0.17566808819E+03  0.00000000000E+00 0.  1.
         22    1    3    3    0    0 -0.13279673621E+03 -0.64205232245E+00  0.14767811625E+03  0.19860566809E+03  0.00000000000E+00 0.  1.
</event>
<event>
 7    1  0.5139898E-006  0.7528756E+02  0.7818608E-02  0.1375015E+00
          2   -1    0    0  502    0  0.00000000000E+00  0.00000000000E+00  0.13749434133E+04  0.13749434133E+04  0.00000000000E+00 0. -1.
          1   -1    0    0  501    0 -0.00000000000E+00 -0.00000000000E+00 -0.32164543653E+03  0.32164543653E+03  0.00000000000E+00 0. -1.
         25    2    1    2    0    0  0.91045582227E+02  0.12506986073E+02  0.86046176762E+02  0.17741153247E+03  0.12500073830E+03 0.  0.
          2    1    1    2  501    0 -0.64748688721E+02  0.38621694612E+02 -0.27013348861E+03  0.28045700144E+03  0.00000000000E+00 0. -1.
          1    1    1    2  502    0 -0.26296893506E+02 -0.51128680685E+02  0.12373852887E+04  0.12387203160E+04  0.00000000000E+00 0. -1.
         22    1    3    3    0    0  0.25840476732E+02 -0.46380742948E+01  0.10430755213E+03  0.10756071495E+03  0.00000000000E+00 0. -1.
         22    1    3    3    0    0  0.65205105495E+02  0.17145060368E+02 -0.18261375364E+02  0.69850817518E+02  0.00000000000E+00 0. -1.
</event>
<event>
 7    1  0.5139898E-006  0.1104690E+03  0.7818608E-02  0.1332312E+00
          2   -1    0    0  502    0  0.00000000000E+00  0.00000000000E+00  0.11021511214E+04  0.11021511214E+04  0.00000000000E+00 0. -1.
          1   -1    0    0  501    0 -0.00000000000E+00 -0.00000000000E+00 -0.16648654730E+03  0.16648654730E+03  0.00000000000E+00 0. -1.
         25    2    1    2    0    0 -0.10132836250E+03 -0.10439609838E+03  0.40445990756E+03  0.44763663197E+03  0.12499902024E+03 0.  0.
          2    1    1    2  501    0  0.97934448387E+02  0.48199954796E+02 -0.12295967298E+03  0.16441859080E+03  0.00000000000E+00 0. -1.
          1    1    1    2  502    0  0.33939141124E+01  0.56196143579E+02  0.65416433954E+03  0.65658244595E+03  0.00000000000E+00 0. -1.
         22    1    3    3    0    0 -0.47012939169E+02 -0.12044888163E+03  0.22563004473E+03  0.26005204599E+03  0.00000000000E+00 0. -1.
         22    1    3    3    0    0 -0.54315423331E+02  0.16052783257E+02  0.17882986282E+03  0.18758458599E+03  0.00000000000E+00 0. -1.
</event>
<event>
 7    1  0.5139898E-006  0.1056501E+03  0.7818608E-02  0.1384152E+00
          2   -1    0    0  502    0  0.00000000000E+00  0.00000000000E+00  0.32971994978E+03  0.32971994978E+03  0.00000000000E+00 0. -1.
          1   -1    0    0  501    0 -0.00000000000E+00 -0.00000000000E+00 -0.10846688717E+03  0.10846688717E+03  0.00000000000E+00 0. -1.
         25    2    1    2    0    0  0.48668579342E+02 -0.11796997935E+03  0.14312604397E+03  0.22890311942E+03  0.12500410783E+03 0.  0.
          2    1    1    2  501    0 -0.14997945295E+02  0.10029494471E+03 -0.20604232997E+02  0.10348211785E+03  0.00000000000E+00 0. -1.
          1    1    1    2  502    0 -0.33670634047E+02  0.17675034640E+02  0.98731251636E+02  0.10580159969E+03  0.00000000000E+00 0. -1.
         22    1    3    3    0    0  0.41692808296E+02 -0.14446253778E+03  0.11232988605E+03  0.18768515761E+03  0.00000000000E+00 0. -1.
         22    1    3    3    0    0  0.69757710457E+01  0.26492558426E+02  0.30796157916E+02  0.41217961813E+02  0.00000000000E+00 0. -1.
</event>
<event>
 7    1  0.5139898E-006  0.7162701E+02  0.7818608E-02  0.1400346E+00
          2   -1    0    0  502    0  0.00000000000E+00  0.00000000000E+00  0.15601086771E+04  0.15601086771E+04  0.00000000000E+00 0. -1.
          1   -1    0    0  501    0 -0.00000000000E+00 -0.00000000000E+00 -0.14008615825E+03  0.14008615825E+03  0.00000000000E+00 0. -1.
         25    2    1    2    0    0  0.11039066902E+03 -0.48465659517E+01  0.13803058941E+03  0.21653514661E+03  0.12500174838E+03 0.  0.
          2    1    1    2  501    0 -0.42456371210E+02  0.24996660265E+02 -0.93848944175E+02  0.10599528670E+03  0.00000000000E+00 0. -1.
          1    1    1    2  502    0 -0.67934297808E+02 -0.20150094313E+02  0.13758408736E+04  0.13776644020E+04  0.00000000000E+00 0. -1.
         22    1    3    3    0    0  0.12812873352E+03  0.24916238559E+02  0.12075712213E+03  0.17782034148E+03  0.00000000000E+00 0. -1.
         22    1    3    3    0    0 -0.17738064506E+02 -0.29762804511E+02  0.17273467285E+02  0.38714805137E+02  0.00000000000E+00 0. -1.
</event>
<event>
 7    1  0.5139898E-006  0.6827377E+02  0.7818608E-02  0.1456144E+00
          2   -1    0    0  502    0  0.00000000000E+00  0.00000000000E+00  0.16447158780E+03  0.16447158780E+03  0.00000000000E+00 0. -1.
          1   -1    0    0  501    0 -0.00000000000E+00 -0.00000000000E+00 -0.94775106743E+03  0.94775106743E+03  0.00000000000E+00 0. -1.
         25    2    1    2    0    0 -0.41529187628E+02  0.24004329178E+02 -0.69491411810E+02  0.15084710085E+03  0.12499964110E+03 0.  0.
          2    1    1    2  501    0  0.38194153956E+02 -0.57658276983E+02 -0.83381337957E+03  0.83667677286E+03  0.00000000000E+00 0. -1.
          1    1    1    2  502    0  0.33350336713E+01  0.33653947806E+02  0.12002531175E+03  0.12469878152E+03  0.00000000000E+00 0. -1.
         22    1    3    3    0    0 -0.79804817030E+02  0.40896424006E+02 -0.60153140418E+02  0.10798021402E+03  0.00000000000E+00 0. -1.
         22    1    3    3    0    0  0.38275629402E+02 -0.16892094829E+02 -0.93382713917E+01  0.42866886829E+02  0.00000000000E+00 0. -1.
</event>
<event>
 7    1  0.5139898E-006  0.3683706E+02  0.7818608E-02  0.1604108E+00
          2   -1    0    0  502    0  0.00000000000E+00  0.00000000000E+00  0.12875647333E+02  0.12875647333E+02  0.00000000000E+00 0. -1.
          1   -1    0    0  501    0 -0.00000000000E+00 -0.00000000000E+00 -0.85015448226E+03  0.85015448226E+03  0.00000000000E+00 0. -1.
         25    2    1    2    0    0  0.10050622084E+02  0.32343297945E+02 -0.60659560808E+03  0.62026828305E+03  0.12500962878E+03 0.  0.
          2    1    1    2  501    0 -0.23352892470E+02  0.31485163871E+01 -0.16698745742E+03  0.16864187404E+03  0.00000000000E+00 0. -1.
          1    1    1    2  502    0  0.13302270386E+02 -0.35491814332E+02 -0.63695769428E+02  0.74119972511E+02  0.00000000000E+00 0. -1.
         22    1    3    3    0    0  0.23553940115E+02  0.58144182788E+02 -0.57027396604E+03  0.57371415394E+03  0.00000000000E+00 0. -1.
         22    1    3    3    0    0 -0.13503318031E+02 -0.25800884843E+02 -0.36321642034E+02  0.46554129103E+02  0.00000000000E+00 0. -1.
</event>
<event>
 7    1  0.5139898E-006  0.7579108E+02  0.7818608E-02  0.1386271E+00
          2   -1    0    0  502    0  0.00000000000E+00  0.00000000000E+00  0.92915068698E+03  0.92915068698E+03  0.00000000000E+00 0. -1.
          1   -1    0    0  501    0 -0.00000000000E+00 -0.00000000000E+00 -0.65563857085E+03  0.65563857085E+03  0.00000000000E+00 0. -1.
         25    2    1    2    0    0  0.57006639604E+02 -0.27806712847E+02  0.18974602922E+03  0.23590610553E+03  0.12500065912E+03 0.  0.
          2    1    1    2  501    0 -0.27022873327E+02 -0.44553637457E+02 -0.62933737767E+03  0.63149093202E+03  0.00000000000E+00 0. -1.
          1    1    1    2  502    0 -0.29983766277E+02  0.72360350304E+02  0.71310346458E+03  0.71739222029E+03  0.00000000000E+00 0. -1.
         22    1    3    3    0    0  0.25093466615E+02  0.36756374640E+02  0.15106358342E+02  0.46999097925E+02  0.00000000000E+00 0.  1.
         22    1    3    3    0    0  0.31913172989E+02 -0.64563087487E+02  0.17463967088E+03  0.18890700760E+03  0.00000000000E+00 0.  1.
</event>
<event>
 7    1  0.5139898E-006  0.9016376E+02  0.7818608E-02  0.1358205E+00
          2   -1    0    0  502    0  0.00000000000E+00  0.00000000000E+00  0.12796417034E+04  0.12796417034E+04  0.00000000000E+00 0. -1.
          1   -1    0    0  501    0 -0.00000000000E+00 -0.00000000000E+00 -0.49314438350E+03  0.49314438350E+03  0.00000000000E+00 0. -1.
         25    2    1    2    0    0  0.24969023188E+02 -0.50366289031E+02  0.14232971117E+03  0.19760349492E+03  0.12501671622E+03 0.  0.
          2    1    1    2  501    0 -0.35594046775E+02 -0.42211920581E+02 -0.46190398271E+03  0.46519251031E+03  0.00000000000E+00 0. -1.
          1    1    1    2  502    0  0.10625023586E+02  0.92578209613E+02  0.11060715915E+04  0.11099900817E+04  0.00000000000E+00 0. -1.
         22    1    3    3    0    0  0.33126362122E+02  0.36691719556E+02  0.56612638721E+02  0.75157361678E+02  0.00000000000E+00 0. -1.
         22    1    3    3    0    0 -0.81573389337E+01 -0.87058008587E+02  0.85717072449E+02  0.12244613325E+03  0.00000000000E+00 0. -1.
</event>
<event>
 7    1  0.5139898E-006  0.5338230E+03  0.7818608E-02  0.1137350E+00
          2   -1    0    0  502    0  0.00000000000E+00  0.00000000000E+00  0.21747103331E+04  0.21747103331E+04  0.00000000000E+00 0. -1.
          1   -1    0    0  501    0 -0.00000000000E+00 -0.00000000000E+00 -0.47213006479E+03  0.47213006479E+03  0.00000000000E+00 0. -1.
         25    2    1    2    0    0 -0.40490001706E+03  0.44451381755E+03  0.40147464628E+03  0.73371641668E+03  0.12498532194E+03 0.  0.
          2    1    1    2  501    0  0.71488449797E+02 -0.49450968059E+02 -0.25710390851E+03  0.27140084094E+03  0.00000000000E+00 0. -1.
          1    1    1    2  502    0  0.33341156726E+03 -0.39506284949E+03  0.15582095305E+04  0.16417231402E+04  0.00000000000E+00 0. -1.
         22    1    3    3    0    0 -0.30613347891E+03  0.25950198101E+03  0.22815021690E+03  0.46164001834E+03  0.00000000000E+00 0.  1.
         22    1    3    3    0    0 -0.98766538145E+02  0.18501183654E+03  0.17332442938E+03  0.27207639834E+03  0.00000000000E+00 0.  1.
</event>
<event>
 7    1  0.5139898E-006  0.1961794E+03  0.7818608E-02  0.1221884E+00
          2   -1    0    0  502    0  0.00000000000E+00  0.00000000000E+00  0.11540109276E+03  0.11540109276E+03  0.00000000000E+00 0. -1.
          1   -1    0    0  501    0 -0.00000000000E+00 -0.00000000000E+00 -0.76059013751E+03  0.76059013751E+03  0.00000000000E+00 0. -1.
         25    2    1    2    0    0  0.22464076754E+02  0.21791889158E+03 -0.31945481006E+03  0.40702543018E+03  0.12500018837E+03 0.  0.
          2    1    1    2  501    0 -0.95930370180E+02 -0.16372267397E+03 -0.32653615481E+03  0.37766865146E+03  0.00000000000E+00 0. -1.
          1    1    1    2  502    0  0.73466293427E+02 -0.54196217605E+02  0.80192011792E+00  0.91297148633E+02  0.00000000000E+00 0. -1.
         22    1    3    3    0    0 -0.36326044256E+02  0.52561970197E+02 -0.35168026478E+02  0.72932381619E+02  0.00000000000E+00 0. -1.
         22    1    3    3    0    0  0.58790121010E+02  0.16535692138E+03 -0.28428678359E+03  0.33409304856E+03  0.00000000000E+00 0. -1.
</event>
<event>
 7    1  0.5139898E-006  0.4119458E+02  0.7818608E-02  0.1511496E+00
          2   -1    0    0  502    0  0.00000000000E+00  0.00000000000E+00  0.10231881588E+04  0.10231881588E+04  0.00000000000E+00 0. -1.
          1   -1    0    0  501    0 -0.00000000000E+00 -0.00000000000E+00 -0.35375922196E+03  0.35375922196E+03  0.00000000000E+00 0. -1.
         25    2    1    2    0    0  0.47822344781E+02 -0.54827489525E+02  0.53891078770E+03  0.55797529635E+03  0.12497425324E+03 0.  0.
          2    1    1    2  501    0 -0.32906216782E+02  0.18974287825E+02 -0.34238081220E+03  0.34448144110E+03  0.00000000000E+00 0. -1.
          1    1    1    2  502    0 -0.14916127999E+02  0.35853201700E+02  0.47289896133E+03  0.47449064329E+03  0.00000000000E+00 0. -1.
         22    1    3    3    0    0  0.21550892125E+02 -0.82351946308E+02  0.48237076578E+03  0.48982429472E+03  0.00000000000E+00 0.  1.
         22    1    3    3    0    0  0.26271452655E+02  0.27524456783E+02  0.56540021919E+02  0.68151001639E+02  0.00000000000E+00 0.  1.
</event>
<event>
 7    1  0.5139898E-006  0.6544084E+02  0.7818608E-02  0.1466356E+00
          2   -1    0    0  502    0  0.00000000000E+00  0.00000000000E+00  0.68416989177E+03  0.68416989177E+03  0.00000000000E+00 0. -1.
          1   -1    0    0  501    0 -0.00000000000E+00 -0.00000000000E+00 -0.13385558731E+04  0.13385558731E+04  0.00000000000E+00 0. -1.
         25    2    1    2    0    0  0.11329307564E+02 -0.89764864400E+02 -0.77033084846E+02  0.17246450259E+03  0.12499529752E+03 0.  0.
          2    1    1    2  501    0  0.13867910994E+02  0.29685103840E+02 -0.12119178520E+04  0.12123606742E+04  0.00000000000E+00 0. -1.
          1    1    1    2  502    0 -0.25197218557E+02  0.60079760560E+02  0.63456495554E+03  0.63790058806E+03  0.00000000000E+00 0. -1.
         22    1    3    3    0    0 -0.18696538036E+02 -0.11350081926E+03 -0.66052645217E+02  0.13264595149E+03  0.00000000000E+00 0.  1.
         22    1    3    3    0    0  0.30025845600E+02  0.23735954858E+02 -0.10980439628E+02  0.39818551097E+02  0.00000000000E+00 0.  1.
</event>
<event>
 7    1  0.5542269E-006  0.4978636E+02  0.7818608E-02  0.1508054E+00
          2   -1    0    0  502    0  0.00000000000E+00  0.00000000000E+00  0.51081256958E+03  0.51081256958E+03  0.00000000000E+00 0. -1.
          1   -1    0    0  501    0 -0.00000000000E+00 -0.00000000000E+00 -0.23428925109E+04  0.23428925109E+04  0.00000000000E+00 0. -1.
         25    2    1    2    0    0  0.35015473395E+02  0.53149022147E+02 -0.36167223532E+03  0.38791870512E+03  0.12499285598E+03 0.  0.
          2    1    1    2  501    0  0.94315533468E+01 -0.30758219268E+02 -0.19667209606E+04  0.19669840770E+04  0.00000000000E+00 0. -1.
          1    1    1    2  502    0 -0.44447026741E+02 -0.22390802879E+02  0.49631325457E+03  0.49880229841E+03  0.00000000000E+00 0. -1.
         22    1    3    3    0    0  0.73535059923E+02  0.31228234017E+02 -0.13429096387E+03  0.15625834575E+03  0.00000000000E+00 0. -1.
         22    1    3    3    0    0 -0.38519586529E+02  0.21920788130E+02 -0.22738127144E+03  0.23166035937E+03  0.00000000000E+00 0. -1.
</event>
<event>
 7    1  0.5139898E-006  0.5284544E+02  0.7818608E-02  0.1435450E+00
          2   -1    0    0  502    0  0.00000000000E+00  0.00000000000E+00  0.96050780978E+03  0.96050780978E+03  0.00000000000E+00 0. -1.
          1   -1    0    0  501    0 -0.00000000000E+00 -0.00000000000E+00 -0.46585412593E+03  0.46585412593E+03  0.00000000000E+00 0. -1.
         25    2    1    2    0    0  0.31790785953E+02 -0.70097238227E+02 -0.16070118920E+03  0.21765771685E+03  0.12500293043E+03 0.  0.
          2    1    1    2  501    0  0.16306454842E+02  0.48254069577E+02 -0.27357368320E+03  0.27827489258E+03  0.00000000000E+00 0. -1.
          1    1    1    2  502    0 -0.48097240796E+02  0.21843168650E+02  0.92892855625E+03  0.93042932628E+03  0.00000000000E+00 0. -1.
         22    1    3    3    0    0 -0.28165057165E+02 -0.58786645359E+02 -0.26740881358E+02  0.70457184541E+02  0.00000000000E+00 0.  1.
         22    1    3    3    0    0  0.59955843118E+02 -0.11310592867E+02 -0.13396030784E+03  0.14720053231E+03  0.00000000000E+00 0.  1.
</event>
<event>
 7    1  0.5139898E-006  0.1166692E+03  0.7818608E-02  0.1250814E+00
          2   -1    0    0  502    0  0.00000000000E+00  0.00000000000E+00  0.14340927317E+04  0.14340927317E+04  0.00000000000E+00 0. -1.
          1   -1    0    0  501    0 -0.00000000000E+00 -0.00000000000E+00 -0.75970217612E+02  0.75970217612E+02  0.00000000000E+00 0. -1.
         25    2    1    2    0    0 -0.31590870353E+02 -0.11488260750E+03  0.27901569906E+03  0.32813207271E+03  0.12499960090E+03 0.  0.
          2    1    1    2  501    0  0.11910051997E+03  0.37722016381E+02  0.32835112237E+02  0.12917441300E+03  0.00000000000E+00 0. -1.
          1    1    1    2  502    0 -0.87509649619E+02  0.77160591122E+02  0.10462717028E+04  0.10527564636E+04  0.00000000000E+00 0. -1.
         22    1    3    3    0    0 -0.10461301220E+02 -0.11179734337E+03  0.28469330288E+03  0.30603653624E+03  0.00000000000E+00 0.  1.
         22    1    3    3    0    0 -0.21129569133E+02 -0.30852641333E+01 -0.56776038282E+01  0.22095536467E+02  0.00000000000E+00 0.  1.
</event>
<event>
 7    1  0.5139898E-006  0.9255052E+02  0.7818608E-02  0.1309129E+00
          2   -1    0    0  502    0  0.00000000000E+00  0.00000000000E+00  0.40635323703E+03  0.40635323703E+03  0.00000000000E+00 0. -1.
          1   -1    0    0  501    0 -0.00000000000E+00 -0.00000000000E+00 -0.77299562034E+03  0.77299562034E+03  0.00000000000E+00 0. -1.
         25    2    1    2    0    0  0.39254819069E+02 -0.43239562728E+02 -0.22981259089E+03  0.26804632368E+03  0.12499761638E+03 0.  0.
          2    1    1    2  501    0 -0.89858543540E+02 -0.34251486280E+02 -0.51401266182E+03  0.52293091195E+03  0.00000000000E+00 0. -1.
          1    1    1    2  502    0  0.50603724471E+02  0.77491049007E+02  0.37718286940E+03  0.38837162174E+03  0.00000000000E+00 0. -1.
         22    1    3    3    0    0  0.31471818764E+02  0.39958656849E+02 -0.11768612654E+03  0.12820762073E+03  0.00000000000E+00 0. -1.
         22    1    3    3    0    0  0.77830003051E+01 -0.83198219576E+02 -0.11212646435E+03  0.13983870295E+03  0.00000000000E+00 0. -1.
</event>
<event>
 7    1  0.5139898E-006  0.6664615E+02  0.7818608E-02  0.1523221E+00
          2   -1    0    0  502    0  0.00000000000E+00  0.00000000000E+00  0.10793895709E+04  0.10793895709E+04  0.00000000000E+00 0. -1.
          1   -1    0    0  501    0 -0.00000000000E+00 -0.00000000000E+00 -0.12782396588E+03  0.12782396588E+03  0.00000000000E+00 0. -1.
         25    2    1    2    0    0 -0.96846320498E+01 -0.46946230249E+02  0.13371612050E+03  0.18921471642E+03  0.12499786956E+03 0.  0.
          2    1    1    2  501    0  0.23162293443E+02  0.63956201970E+02 -0.88371142161E+02  0.11151836788E+03  0.00000000000E+00 0. -1.
          1    1    1    2  502    0 -0.13477661393E+02 -0.17009971721E+02  0.90622062671E+03  0.90648045251E+03  0.00000000000E+00 0. -1.
         22    1    3    3    0    0 -0.21968152522E+02 -0.82256727886E+02  0.12429723105E+03  0.15066044821E+03  0.00000000000E+00 0.  1.
         22    1    3    3    0    0  0.12283520472E+02  0.35310497637E+02  0.94188894515E+01  0.38554268208E+02  0.00000000000E+00 0.  1.
</event>
<event>
 7    1  0.5139898E-006  0.7014482E+02  0.7818608E-02  0.1469448E+00
          2   -1    0    0  502    0  0.00000000000E+00  0.00000000000E+00  0.43579175670E+03  0.43579175670E+03  0.00000000000E+00 0. -1.
          1   -1    0    0  501    0 -0.00000000000E+00 -0.00000000000E+00 -0.16045219122E+04  0.16045219122E+04  0.00000000000E+00 0. -1.
         25    2    1    2    0    0  0.96539712885E+02  0.84424728528E+01 -0.50386807745E+02  0.16599919628E+03  0.12500284501E+03 0.  0.
          2    1    1    2  501    0 -0.28977271765E+02  0.73544423538E+01 -0.14929938698E+04  0.14932931612E+04  0.00000000000E+00 0. -1.
          1    1    1    2  502    0 -0.67562441120E+02 -0.15796915207E+02  0.37465052210E+03  0.38102131133E+03  0.00000000000E+00 0. -1.
         22    1    3    3    0    0  0.60390033248E+02  0.41407649517E+02 -0.80286765892E+02  0.10866238692E+03  0.00000000000E+00 0.  1.
         22    1    3    3    0    0  0.36149679637E+02 -0.32965176664E+02  0.29899958147E+02  0.57336809360E+02  0.00000000000E+00 0.  1.
</event>
<event>
 7    1  0.5139898E-006  0.7848326E+02  0.7818608E-02  0.1369324E+00
          2   -1    0    0  502    0  0.00000000000E+00  0.00000000000E+00  0.11827874763E+04  0.11827874763E+04  0.00000000000E+00 0. -1.
          1   -1    0    0  501    0 -0.00000000000E+00 -0.00000000000E+00 -0.31395490683E+04  0.31395490683E+04  0.00000000000E+00 0. -1.
         25    2    1    2    0    0  0.11993402067E+03  0.63083535292E+02  0.67665642525E+02  0.19638671710E+03  0.12500160694E+03 0.  0.
          2    1    1    2  501    0 -0.71903931100E+02 -0.30918598894E+02 -0.30738949836E+04  0.30748912997E+04  0.00000000000E+00 0. -1.
          1    1    1    2  502    0 -0.48030089566E+02 -0.32164936398E+02  0.10494677490E+04  0.10510585278E+04  0.00000000000E+00 0. -1.
         22    1    3    3    0    0 -0.22831999672E+02  0.49690462151E+01 -0.79706219039E+01  0.24688508316E+02  0.00000000000E+00 0.  1.
         22    1    3    3    0    0  0.14276602034E+03  0.58114489077E+02  0.75636264429E+02  0.17169820879E+03  0.00000000000E+00 0.  1.
</event>
<event>
 7    1  0.5139898E-006  0.1337097E+03  0.7818608E-02  0.1311586E+00
          2   -1    0    0  502    0  0.00000000000E+00  0.00000000000E+00  0.18632477984E+03  0.18632477984E+03  0.00000000000E+00 0. -1.
          1   -1    0    0  501    0 -0.00000000000E+00 -0.00000000000E+00 -0.26035378610E+03  0.26035378610E+03  0.00000000000E+00 0. -1.
         25    2    1    2    0    0  0.61638991379E+02  0.70229854690E+02  0.26081065922E+02  0.15822966534E+03  0.12499922898E+03 0.  0.
          2    1    1    2  501    0 -0.11145093384E+03 -0.95694995629E+02 -0.15254361183E+03  0.21177439966E+03  0.00000000000E+00 0. -1.
          1    1    1    2  502    0  0.49811942460E+02  0.25465140939E+02  0.52433539650E+02  0.76674500943E+02  0.00000000000E+00 0. -1.
         22    1    3    3    0    0 -0.74882302236E+01 -0.29054378284E+02  0.21957899176E+02  0.37180368820E+02  0.00000000000E+00 0.  1.
         22    1    3    3    0    0  0.69127221602E+02  0.99284232974E+02  0.41231667461E+01  0.12104929652E+03  0.00000000000E+00 0.  1.
</event>
<event>
 7    1  0.5139898E-006  0.9254281E+02  0.7818608E-02  0.1398896E+00
          2   -1    0    0  502    0  0.00000000000E+00  0.00000000000E+00  0.16075317874E+04  0.16075317874E+04  0.00000000000E+00 0. -1.
          1   -1    0    0  501    0 -0.00000000000E+00 -0.00000000000E+00 -0.75543410682E+02  0.75543410682E+02  0.00000000000E+00 0. -1.
         25    2    1    2    0    0 -0.10132030996E+03 -0.52883542994E+02  0.55836916501E+03  0.58349238813E+03  0.12499907295E+03 0.  0.
          2    1    1    2  501    0  0.37245971081E+02 -0.10033773862E+02 -0.54929883651E+02  0.67121018299E+02  0.00000000000E+00 0. -1.
          1    1    1    2  502    0  0.64074338883E+02  0.62917316857E+02  0.10285490954E+04  0.10324617917E+04  0.00000000000E+00 0. -1.
         22    1    3    3    0    0  0.15294393048E+02 -0.48338042735E+02  0.21251273508E+03  0.21847688071E+03  0.00000000000E+00 0.  1.
         22    1    3    3    0    0 -0.11661470301E+03 -0.45455002590E+01  0.34585642993E+03  0.36501550742E+03  0.00000000000E+00 0.  1.
</event>
<event>
 7    1  0.5139898E-006  0.5619897E+02  0.7818608E-02  0.1470916E+00
          2   -1    0    0  502    0  0.00000000000E+00  0.00000000000E+00  0.11260749059E+04  0.11260749059E+04  0.00000000000E+00 0. -1.
          1   -1    0    0  501    0 -0.00000000000E+00 -0.00000000000E+00 -0.10605088864E+04  0.10605088864E+04  0.00000000000E+00 0. -1.
         25    2    1    2    0    0 -0.67191865238E+02  0.33110913279E+02  0.50572488499E+03  0.52630189171E+03  0.12499977038E+03 0.  0.
          2    1    1    2  501    0  0.35119465324E+02  0.11403022904E+02 -0.10486612563E+04  0.10493111246E+04  0.00000000000E+00 0. -1.
          1    1    1    2  502    0  0.32072399914E+02 -0.44513936183E+02  0.60850239089E+03  0.61097077596E+03  0.00000000000E+00 0. -1.
         22    1    3    3    0    0 -0.24922961294E+02  0.67291474116E+02  0.14809588829E+03  0.16456515007E+03  0.00000000000E+00 0. -1.
         22    1    3    3    0    0 -0.42268903944E+02 -0.34180560837E+02  0.35762899670E+03  0.36173674165E+03  0.00000000000E+00 0. -1.
</event>
<event>
 7    1  0.5139898E-006  0.7246146E+02  0.7818608E-02  0.1463476E+00
          2   -1    0    0  502    0  0.00000000000E+00  0.00000000000E+00  0.77910437835E+03  0.77910437835E+03  0.00000000000E+00 0. -1.
          1   -1    0    0  501    0 -0.00000000000E+00 -0.00000000000E+00 -0.39398787500E+02  0.39398787500E+02  0.00000000000E+00 0. -1.
         25    2    1    2    0    0  0.51214590648E+02 -0.10491332650E+02  0.30181760729E+03  0.33083360697E+03  0.12499602023E+03 0.  0.
          2    1    1    2  501    0 -0.67838950908E+02  0.35717399291E+02  0.36089183529E+02  0.84736562594E+02  0.00000000000E+00 0. -1.
          1    1    1    2  502    0  0.16624360260E+02 -0.25226066641E+02  0.40179880003E+03  0.40293299629E+03  0.00000000000E+00 0. -1.
         22    1    3    3    0    0 -0.33106960629E+02 -0.14534066559E+02  0.17356761606E+03  0.17729361883E+03  0.00000000000E+00 0. -1.
         22    1    3    3    0    0  0.84321551277E+02  0.40427339086E+01  0.12824999123E+03  0.15353998814E+03  0.00000000000E+00 0. -1.
</event>
<event>
 7    1  0.5139898E-006  0.6498157E+02  0.7818608E-02  0.1435986E+00
          2   -1    0    0  502    0  0.00000000000E+00  0.00000000000E+00  0.65204523812E+03  0.65204523812E+03  0.00000000000E+00 0. -1.
          1   -1    0    0  501    0 -0.00000000000E+00 -0.00000000000E+00 -0.14142768435E+03  0.14142768435E+03  0.00000000000E+00 0. -1.
         25    2    1    2    0    0 -0.29625529093E+02  0.18521413813E+02  0.44591106674E+02  0.13723827447E+03  0.12500104976E+03 0.  0.
          2    1    1    2  501    0  0.69323850633E+02 -0.72935695025E+01 -0.81450070686E+02  0.10720590673E+03  0.00000000000E+00 0. -1.
          1    1    1    2  502    0 -0.39698321539E+02 -0.11227844311E+02  0.54747651778E+03  0.54902874127E+03  0.00000000000E+00 0. -1.
         22    1    3    3    0    0 -0.25072195103E+02 -0.35817363804E+02  0.65572747426E+02  0.78811697877E+02  0.00000000000E+00 0.  1.
         22    1    3    3    0    0 -0.45533339903E+01  0.54338777617E+02 -0.20981640753E+02  0.58426576590E+02  0.00000000000E+00 0.  1.
</event>
<event>
 7    1  0.5139898E-006  0.2456261E+03  0.7818608E-02  0.1290971E+00
          2   -1    0    0  502    0  0.00000000000E+00  0.00000000000E+00  0.21240257138E+03  0.21240257138E+03  0.00000000000E+00 0. -1.
          1   -1    0    0  501    0 -0.00000000000E+00 -0.00000000000E+00 -0.13664778823E+04  0.13664778823E+04  0.00000000000E+00 0. -1.
         25    2    1    2    0    0  0.25520640492E+03 -0.98899017981E+02 -0.15264418067E+03  0.33739493406E+03  0.12499508297E+03 0.  0.
          2    1    1    2  501    0 -0.23103843081E+03  0.71129895038E+02 -0.11052266578E+04  0.11313550210E+04  0.00000000000E+00 0. -1.
          1    1    1    2  502    0 -0.24167974110E+02  0.27769122943E+02  0.10379552760E+03  0.11013049855E+03  0.00000000000E+00 0. -1.
         22    1    3    3    0    0  0.57130492672E+02  0.21244124124E+02 -0.66563420534E+02  0.90254611827E+02  0.00000000000E+00 0. -1.
         22    1    3    3    0    0  0.19807591225E+03 -0.12014314210E+03 -0.86080760140E+02  0.24714032224E+03  0.00000000000E+00 0. -1.
</event>
<event>
 7    1  0.5139898E-006  0.1281257E+03  0.7818608E-02  0.1287967E+00
          2   -1    0    0  502    0  0.00000000000E+00  0.00000000000E+00  0.63338301066E+03  0.63338301066E+03  0.00000000000E+00 0. -1.
          1   -1    0    0  501    0 -0.00000000000E+00 -0.00000000000E+00 -0.20758145713E+03  0.20758145713E+03  0.00000000000E+00 0. -1.
         25    2    1    2    0    0  0.10991428970E+03  0.11207567896E+03  0.11409458167E+03  0.23083463468E+03  0.12499978442E+03 0.  0.
          2    1    1    2  501    0  0.94951372519E+01 -0.71965474602E+02 -0.13104550154E+03  0.14980691119E+03  0.00000000000E+00 0. -1.
          1    1    1    2  502    0 -0.11940942695E+03 -0.40110204362E+02  0.44275247340E+03  0.46032292191E+03  0.00000000000E+00 0. -1.
         22    1    3    3    0    0  0.72674420914E+02  0.91706823902E+02  0.13894257022E+03  0.18165007797E+03  0.00000000000E+00 0. -1.
         22    1    3    3    0    0  0.37239868788E+02  0.20368855062E+02 -0.24847988553E+02  0.49184556713E+02  0.00000000000E+00 0. -1.
</event>
<event>
 7    1  0.5139898E-006  0.6189701E+02  0.7818608E-02  0.1446565E+00
          2   -1    0    0  502    0  0.00000000000E+00  0.00000000000E+00  0.17013213341E+04  0.17013213341E+04  0.00000000000E+00 0. -1.
          1   -1    0    0  501    0 -0.00000000000E+00 -0.00000000000E+00 -0.13031673620E+02  0.13031673620E+02  0.00000000000E+00 0. -1.
         25    2    1    2    0    0 -0.13558018408E+02 -0.46489261800E+02  0.11976638075E+04  0.12051426251E+04  0.12500031857E+03 0.  0.
          2    1    1    2  501    0 -0.38593279204E+02 -0.10610193213E+02  0.62933524494E+02  0.74583147593E+02  0.00000000000E+00 0. -1.
          1    1    1    2  502    0  0.52151297612E+02  0.57099455014E+02  0.42769232848E+03  0.43462723505E+03  0.00000000000E+00 0. -1.
         22    1    3    3    0    0  0.12930823985E+02  0.39205747068E+02  0.50717127695E+03  0.50884870146E+03  0.00000000000E+00 0. -1.
         22    1    3    3    0    0 -0.26488842393E+02 -0.85695008868E+02  0.69049253056E+03  0.69629392362E+03  0.00000000000E+00 0. -1.
</event>
<event>
 7    1  0.5139898E-006  0.2661131E+03  0.7818608E-02  0.1302336E+00
          2   -1    0    0  502    0  0.00000000000E+00  0.00000000000E+00  0.11251706846E+04  0.11251706846E+04  0.00000000000E+00 0. -1.
          1   -1    0    0  501    0 -0.00000000000E+00 -0.00000000000E+00 -0.12718697398E+03  0.12718697398E+03  0.00000000000E+00 0. -1.
         25    2    1    2    0    0 -0.13558875846E+03  0.25050881401E+03  0.54845896000E+03  0.63053177364E+03  0.12499643771E+03 0.  0.
          2    1    1    2  501    0  0.10854084446E+03 -0.23623633543E+03  0.11226470167E+03  0.28318206923E+03  0.00000000000E+00 0. -1.
          1    1    1    2  502    0  0.27047913997E+02 -0.14272478581E+02  0.33726004892E+03  0.33864381567E+03  0.00000000000E+00 0. -1.
         22    1    3    3    0    0 -0.25157301394E+02  0.16670225290E+03  0.25111790468E+03  0.30246112641E+03  0.00000000000E+00 0. -1.
         22    1    3    3    0    0 -0.11043145706E+03  0.83806561108E+02  0.29734105532E+03  0.32807064723E+03  0.00000000000E+00 0. -1.
</event>
<event>
 7    1  0.5139898E-006  0.6820020E+02  0.7818608E-02  0.1441785E+00
          2   -1    0    0  502    0  0.00000000000E+00  0.00000000000E+00  0.16953837676E+04  0.16953837676E+04  0.00000000000E+00 0. -1.
          1   -1    0    0  501    0 -0.00000000000E+00 -0.00000000000E+00 -0.16773948149E+03  0.16773948149E+03  0.00000000000E+00 0. -1.
         25    2    1    2    0    0  0.24933528764E+02  0.60964407520E+02  0.39709729330E+02  0.14676478539E+03  0.12499879914E+03 0.  0.
          2    1    1    2  501    0 -0.37105504080E+02  0.63146029582E+01 -0.11036011049E+03  0.11660208673E+03  0.00000000000E+00 0. -1.
          1    1    1    2  502    0  0.12171975316E+02 -0.67279010479E+02  0.15982946672E+04  0.15997563769E+04  0.00000000000E+00 0. -1.
         22    1    3    3    0    0  0.20485408169E+02  0.33191856508E+02  0.84959929594E+02  0.93485511834E+02  0.00000000000E+00 0. -1.
         22    1    3    3    0    0  0.44481205950E+01  0.27772551013E+02 -0.45250200264E+02  0.53279273555E+02  0.00000000000E+00 0. -1.
</event>
<event>
 7    1  0.5139898E-006  0.4370870E+02  0.7818608E-02  0.1545354E+00
          2   -1    0    0  502    0  0.00000000000E+00  0.00000000000E+00  0.40955737892E+03  0.40955737892E+03  0.00000000000E+00 0. -1.
          1   -1    0    0  501    0 -0.00000000000E+00 -0.00000000000E+00 -0.71923846362E+03  0.71923846362E+03  0.00000000000E+00 0. -1.
         25    2    1    2    0    0 -0.11631494097E+01 -0.56138670385E+02 -0.14098562534E+01  0.13703851566E+03  0.12499865539E+03 0.  0.
          2    1    1    2  501    0  0.22267607942E+02  0.17978331220E+02 -0.64830618569E+03  0.64893757570E+03  0.00000000000E+00 0. -1.
          1    1    1    2  502    0 -0.21104458532E+02  0.38160339165E+02  0.34003495724E+03  0.34281975118E+03  0.00000000000E+00 0. -1.
         22    1    3    3    0    0 -0.14407299200E+02 -0.45418602215E+02 -0.59656977367E+02  0.76350341492E+02  0.00000000000E+00 0. -1.
         22    1    3    3    0    0  0.13244149791E+02 -0.10720068170E+02  0.58247121114E+02  0.60688174164E+02  0.00000000000E+00 0. -1.
</event>
<event>
 7    1  0.5139898E-006  0.8390745E+02  0.7818608E-02  0.1335060E+00
          2   -1    0    0  502    0  0.00000000000E+00  0.00000000000E+00  0.32064953276E+04  0.32064953276E+04  0.00000000000E+00 0. -1.
          1   -1    0    0  501    0 -0.00000000000E+00 -0.00000000000E+00 -0.91707489266E+02  0.91707489266E+02  0.00000000000E+00 0. -1.
         25    2    1    2    0    0  0.12389467485E+03 -0.14356772573E+02  0.63953463679E+03  0.66346377783E+03  0.12499450172E+03 0.  0.
          2    1    1    2  501    0 -0.50274641023E+02  0.52042074321E+02 -0.62514425778E+02  0.95624110244E+02  0.00000000000E+00 0. -1.
          1    1    1    2  502    0 -0.73620033830E+02 -0.37685301748E+02  0.25377676273E+04  0.25391149288E+04  0.00000000000E+00 0. -1.
         22    1    3    3    0    0  0.61680866938E+02 -0.59119830862E+02  0.20292067491E+03  0.22017375878E+03  0.00000000000E+00 0.  1.
         22    1    3    3    0    0  0.62213807914E+02  0.44763058290E+02  0.43661396188E+03  0.44329001905E+03  0.00000000000E+00 0.  1.
</event>
<event>
 7    1  0.5139898E-006  0.6882427E+02  0.7818608E-02  0.1388174E+00
          2   -1    0    0  502    0  0.00000000000E+00  0.00000000000E+00  0.73789131264E+03  0.73789131264E+03  0.00000000000E+00 0. -1.
          1   -1    0    0  501    0 -0.00000000000E+00 -0.00000000000E+00 -0.16673036922E+03  0.16673036922E+03  0.00000000000E+00 0. -1.
         25    2    1    2    0    0 -0.30410037487E+02  0.19026755178E+02 -0.35142844858E+02  0.13471028224E+03  0.12500021121E+03 0.  0.
          2    1    1    2  501    0 -0.34508359168E+02 -0.44748214368E+02 -0.70028150163E+02  0.89984283943E+02  0.00000000000E+00 0. -1.
          1    1    1    2  502    0  0.64918396655E+02  0.25721459190E+02  0.67633193844E+03  0.67992711568E+03  0.00000000000E+00 0. -1.
         22    1    3    3    0    0  0.35198485557E+02  0.46759485408E+02 -0.11387255430E+02  0.59624260560E+02  0.00000000000E+00 0. -1.
         22    1    3    3    0    0 -0.65608523044E+02 -0.27732730229E+02 -0.23755589428E+02  0.75086021676E+02  0.00000000000E+00 0. -1.
</event>
<event>
 7    1  0.5139898E-006  0.8514157E+02  0.7818608E-02  0.1381573E+00
          2   -1    0    0  502    0  0.00000000000E+00  0.00000000000E+00  0.11504067248E+04  0.11504067248E+04  0.00000000000E+00 0. -1.
          1   -1    0    0  501    0 -0.00000000000E+00 -0.00000000000E+00 -0.83481886623E+03  0.83481886623E+03  0.00000000000E+00 0. -1.
         25    2    1    2    0    0  0.44223992772E+02  0.19003313656E+02  0.14790090742E+03  0.19954056892E+03  0.12499949104E+03 0.  0.
          2    1    1    2  501    0 -0.54581585629E+02 -0.66063432769E+02 -0.80613231301E+03  0.81067430742E+03  0.00000000000E+00 0. -1.
          1    1    1    2  502    0  0.10357592857E+02  0.47060119112E+02  0.97381926410E+03  0.97501071465E+03  0.00000000000E+00 0. -1.
         22    1    3    3    0    0  0.76903317772E+02  0.46121845640E+02  0.84375071619E+02  0.12312797262E+03  0.00000000000E+00 0. -1.
         22    1    3    3    0    0 -0.32679325000E+02 -0.27118531984E+02  0.63525835799E+02  0.76412596300E+02  0.00000000000E+00 0. -1.
</event>
<event>
 7    1  0.5139898E-006  0.9128770E+02  0.7818608E-02  0.1419356E+00
          2   -1    0    0  502    0  0.00000000000E+00  0.00000000000E+00  0.30540732714E+03  0.30540732714E+03  0.00000000000E+00 0. -1.
          1   -1    0    0  501    0 -0.00000000000E+00 -0.00000000000E+00 -0.75172818800E+03  0.75172818800E+03  0.00000000000E+00 0. -1.
         25    2    1    2    0    0  0.22882149485E+02 -0.96969394429E+02 -0.39509554263E+02  0.16465159438E+03  0.12498994533E+03 0.  0.
          2    1    1    2  501    0 -0.32692356126E+02  0.64728371051E+01 -0.64066895461E+03  0.64153518779E+03  0.00000000000E+00 0. -1.
          1    1    1    2  502    0  0.98102066418E+01  0.90496557324E+02  0.23385764802E+03  0.25094873297E+03  0.00000000000E+00 0. -1.
         22    1    3    3    0    0 -0.43100257049E+02 -0.22526762000E+02  0.15419404495E+02  0.51018086978E+02  0.00000000000E+00 0. -1.
         22    1    3    3    0    0  0.65982406534E+02 -0.74442632429E+02 -0.54928958758E+02  0.11363350741E+03  0.00000000000E+00 0. -1.
</event>
<event>
 7    1  0.5139898E-006  0.1626827E+03  0.7818608E-02  0.1367131E+00
          2   -1    0    0  502    0  0.00000000000E+00  0.00000000000E+00  0.14992803860E+04  0.14992803860E+04  0.00000000000E+00 0. -1.
          1   -1    0    0  501    0 -0.00000000000E+00 -0.00000000000E+00 -0.40325567958E+03  0.40325567958E+03  0.00000000000E+00 0. -1.
         25    2    1    2    0    0  0.26037378575E+02  0.18673244004E+03 -0.13034687634E+02  0.22658691146E+03  0.12499910447E+03 0.  0.
          2    1    1    2  501    0  0.47163594777E+01 -0.28005042846E+02 -0.27802608139E+03  0.27947276863E+03  0.00000000000E+00 0. -1.
          1    1    1    2  502    0 -0.30753738052E+02 -0.15872739720E+03  0.13870854755E+04  0.13964763855E+04  0.00000000000E+00 0. -1.
         22    1    3    3    0    0  0.31817466441E+02  0.27861942519E+02  0.40779181716E+02  0.58750154665E+02  0.00000000000E+00 0. -1.
         22    1    3    3    0    0 -0.57800878669E+01  0.15887049752E+03 -0.53813869350E+02  0.16783675680E+03  0.00000000000E+00 0. -1.
</event>
<event>
 7    1  0.5139898E-006  0.1460806E+03  0.7818608E-02  0.1238280E+00
          2   -1    0    0  502    0  0.00000000000E+00  0.00000000000E+00  0.12223897225E+04  0.12223897225E+04  0.00000000000E+00 0. -1.
          1   -1    0    0  501    0 -0.00000000000E+00 -0.00000000000E+00 -0.13015214459E+04  0.13015214459E+04  0.00000000000E+00 0. -1.
         25    2    1    2    0    0 -0.87333749991E+02 -0.93594890100E+02 -0.47106617599E+02  0.18501407986E+03  0.12499595588E+03 0.  0.
          2    1    1    2  501    0  0.87931472823E+02 -0.54613631624E+02 -0.11784219822E+04  0.11829594079E+04  0.00000000000E+00 0. -1.
          1    1    1    2  502    0 -0.59772283216E+00  0.14820852172E+03  0.11463968764E+04  0.11559376806E+04  0.00000000000E+00 0. -1.
         22    1    3    3    0    0  0.35448696789E+01  0.25637330575E+02  0.48828687025E+01  0.26337828817E+02  0.00000000000E+00 0. -1.
         22    1    3    3    0    0 -0.90878619669E+02 -0.11923222068E+03 -0.51989486301E+02  0.15867625105E+03  0.00000000000E+00 0. -1.
</event>
<event>
 7    1  0.5139898E-006  0.1541136E+03  0.7818608E-02  0.1205555E+00
          2   -1    0    0  502    0  0.00000000000E+00  0.00000000000E+00  0.78904911306E+03  0.78904911306E+03  0.00000000000E+00 0. -1.
          1   -1    0    0  501    0 -0.00000000000E+00 -0.00000000000E+00 -0.28140854822E+04  0.28140854822E+04  0.00000000000E+00 0. -1.
         25    2    1    2    0    0 -0.25040681381E+02  0.48130337971E+02  0.46698525052E+02  0.14404510645E+03  0.12499870117E+03 0.  0.
          2    1    1    2  501    0  0.15693683496E+03 -0.68795376112E+01 -0.27562705652E+04  0.27607433649E+04  0.00000000000E+00 0. -1.
          1    1    1    2  502    0 -0.13189615358E+03 -0.41250800360E+02  0.68453567103E+03  0.69834612390E+03  0.00000000000E+00 0. -1.
         22    1    3    3    0    0 -0.43698922688E+02 -0.31751971377E+02  0.14585360821E+02  0.55951016798E+02  0.00000000000E+00 0. -1.
         22    1    3    3    0    0  0.18658241306E+02  0.79882309348E+02  0.32113164230E+02  0.88094089656E+02  0.00000000000E+00 0. -1.
</event>
<event>
 7    1  0.5139898E-006  0.8006371E+02  0.7818608E-02  0.1371050E+00
          2   -1    0    0  502    0  0.00000000000E+00  0.00000000000E+00  0.28916612798E+04  0.28916612798E+04  0.00000000000E+00 0. -1.
          1   -1    0    0  501    0 -0.00000000000E+00 -0.00000000000E+00 -0.45702583458E+03  0.45702583458E+03  0.00000000000E+00 0. -1.
         25    2    1    2    0    0  0.72428946850E+02  0.25099937828E+02  0.59403205238E+03  0.61186100641E+03  0.12499541067E+03 0.  0.
          2    1    1    2  501    0 -0.39171734801E+02 -0.69981639448E+02 -0.44417892616E+03  0.45136102303E+03  0.00000000000E+00 0. -1.
          1    1    1    2  502    0 -0.33257212049E+02  0.44881701621E+02  0.22847823189E+04  0.22854650849E+04  0.00000000000E+00 0. -1.
         22    1    3    3    0    0 -0.61988833152E+01 -0.32848605752E+02  0.30380745937E+03  0.30564101397E+03  0.00000000000E+00 0.  1.
         22    1    3    3    0    0  0.78627830165E+02  0.57948543580E+02  0.29022459302E+03  0.30621999244E+03  0.00000000000E+00 0.  1.
</event>
<event>
 7    1  0.5139898E-006  0.9711136E+02  0.7818608E-02  0.1327738E+00
          2   -1    0    0  502    0  0.00000000000E+00  0.00000000000E+00  0.42353412898E+03  0.42353412898E+03  0.00000000000E+00 0. -1.
          1   -1    0    0  501    0 -0.00000000000E+00 -0.00000000000E+00 -0.54435653264E+03  0.54435653264E+03  0.00000000000E+00 0. -1.
         25    2    1    2    0    0  0.15778417165E+03 -0.13896987242E+02 -0.87436387277E+02  0.21990413517E+03  0.12499494295E+03 0.  0.
          2    1    1    2  501    0 -0.91116313682E+02  0.13214855045E+02 -0.38205923136E+03  0.39299627388E+03  0.00000000000E+00 0. -1.
          1    1    1    2  502    0 -0.66667857971E+02  0.68213219683E+00  0.34867321497E+03  0.35499025258E+03  0.00000000000E+00 0. -1.
         22    1    3    3    0    0  0.10846249213E+03 -0.56479277585E+02 -0.94244153860E+02  0.15438905898E+03  0.00000000000E+00 0. -1.
         22    1    3    3    0    0  0.49321679519E+02  0.42582290344E+02  0.68077665829E+01  0.65515076184E+02  0.00000000000E+00 0. -1.
</event>
<event>
 7    1  0.5139898E-006  0.1530466E+03  0.7818608E-02  0.1373908E+00
          2   -1    0    0  502    0  0.00000000000E+00  0.00000000000E+00  0.56615261847E+03  0.56615261847E+03  0.00000000000E+00 0. -1.
          1   -1    0    0  501    0 -0.00000000000E+00 -0.00000000000E+00 -0.12686749966E+04  0.12686749966E+04  0.00000000000E+00 0. -1.
         25    2    1    2    0    0  0.55469977111E+02 -0.11776079413E+03  0.28005806194E+02  0.18263413858E+03  0.12500552147E+03 0.  0.
          2    1    1    2  501    0 -0.80498256607E+02  0.13148019128E+03 -0.11859248190E+04  0.11959032931E+04  0.00000000000E+00 0. -1.
          1    1    1    2  502    0  0.25028279496E+02 -0.13719397150E+02  0.45539663467E+03  0.45629018344E+03  0.00000000000E+00 0. -1.
         22    1    3    3    0    0  0.93870515142E+02 -0.79029104467E+02  0.35109904035E+02  0.12763219941E+03  0.00000000000E+00 0.  1.
         22    1    3    3    0    0 -0.38400538031E+02 -0.38731689667E+02 -0.71040978407E+01  0.55001939162E+02  0.00000000000E+00 0.  1.
</event>
<event>
 7    1  0.5139898E-006  0.7319089E+02  0.7818608E-02  0.1482129E+00
          2   -1    0    0  502    0  0.00000000000E+00  0.00000000000E+00  0.13422367890E+04  0.13422367890E+04  0.00000000000E+00 0. -1.
          1   -1    0    0  501    0 -0.00000000000E+00 -0.00000000000E+00 -0.80827570775E+03  0.80827570775E+03  0.00000000000E+00 0. -1.
         25    2    1    2    0    0  0.10791485544E+00  0.53654144417E+02  0.29704806631E+03  0.32671390785E+03  0.12500258008E+03 0.  0.
          2    1    1    2  501    0  0.19886275044E+02 -0.70559213970E+02 -0.79158254478E+03  0.79496980559E+03  0.00000000000E+00 0. -1.
          1    1    1    2  502    0 -0.19994189900E+02  0.16905069553E+02  0.10284955597E+04  0.10288287833E+04  0.00000000000E+00 0. -1.
         22    1    3    3    0    0  0.98848762124E+01 -0.40337306446E+02  0.89970650458E+02  0.99093526595E+02  0.00000000000E+00 0.  1.
         22    1    3    3    0    0 -0.97769613570E+01  0.93991450862E+02  0.20707741585E+03  0.22762038126E+03  0.00000000000E+00 0.  1.
</event>
<event>
 7    1  0.5139898E-006  0.1200669E+03  0.7818608E-02  0.1317801E+00
          2   -1    0    0  502    0  0.00000000000E+00  0.00000000000E+00  0.22791145002E+03  0.22791145002E+03  0.00000000000E+00 0. -1.
          1   -1    0    0  501    0 -0.00000000000E+00 -0.00000000000E+00 -0.12992812782E+04  0.12992812782E+04  0.00000000000E+00 0. -1.
         25    2    1    2    0    0  0.12458356041E+03  0.43372089224E+02 -0.30326491520E+03  0.35354505090E+03  0.12498916983E+03 0.  0.
          2    1    1    2  501    0 -0.11911265874E+03  0.15281783399E+02 -0.96278740240E+03  0.97024787585E+03  0.00000000000E+00 0. -1.
          1    1    1    2  502    0 -0.54709016698E+01 -0.58653872622E+02  0.19468248944E+03  0.20339980146E+03  0.00000000000E+00 0. -1.
         22    1    3    3    0    0  0.43826739750E+02 -0.26172756544E+02 -0.19521570610E+03  0.20177950394E+03  0.00000000000E+00 0.  1.
         22    1    3    3    0    0  0.80756820659E+02  0.69544845767E+02 -0.10804920910E+03  0.15176554695E+03  0.00000000000E+00 0.  1.
</event>
<event>
 7    1  0.5139898E-006  0.7488701E+02  0.7818608E-02  0.1380219E+00
          2   -1    0    0  502    0  0.00000000000E+00  0.00000000000E+00  0.13413647480E+04  0.13413647480E+04  0.00000000000E+00 0. -1.
          1   -1    0    0  501    0 -0.00000000000E+00 -0.00000000000E+00 -0.31381209969E+02  0.31381209969E+02  0.00000000000E+00 0. -1.
         25    2    1    2    0    0 -0.21676564561E+02 -0.72482687710E+02  0.53589782758E+03  0.55545968847E+03  0.12500148176E+03 0.  0.
          2    1    1    2  501    0 -0.33631696576E+02  0.69435293186E+02  0.51909783728E+02  0.92989120875E+02  0.00000000000E+00 0. -1.
          1    1    1    2  502    0  0.55308261136E+02  0.30473945240E+01  0.72217592672E+03  0.72429714862E+03  0.00000000000E+00 0. -1.
         22    1    3    3    0    0  0.36042232739E+02 -0.74836628917E+02  0.38554831289E+03  0.39439455516E+03  0.00000000000E+00 0.  1.
         22    1    3    3    0    0 -0.57718797300E+02  0.23539412069E+01  0.15034951469E+03  0.16106513331E+03  0.00000000000E+00 0.  1.
</event>
<event>
 7    1  0.5139898E-006  0.8493942E+02  0.7818608E-02  0.1417632E+00
          2   -1    0    0  502    0  0.00000000000E+00  0.00000000000E+00  0.11648976821E+04  0.11648976821E+04  0.00000000000E+00 0. -1.
          1   -1    0    0  501    0 -0.00000000000E+00 -0.00000000000E+00 -0.10557378465E+04  0.10557378465E+04  0.00000000000E+00 0. -1.
         25    2    1    2    0    0 -0.42024237666E+02 -0.38845193296E+02  0.23682360747E+03  0.27383255015E+03  0.12499543540E+03 0.  0.
          2    1    1    2  501    0  0.78013049827E+02  0.34126280408E+02 -0.10351223638E+04  0.10386187688E+04  0.00000000000E+00 0. -1.
          1    1    1    2  502    0 -0.35988812161E+02  0.47189128874E+01  0.90745859190E+03  0.90818420970E+03  0.00000000000E+00 0. -1.
         22    1    3    3    0    0 -0.55317954003E+02  0.83148936964E+01  0.34639432494E+02  0.65795925221E+02  0.00000000000E+00 0. -1.
         22    1    3    3    0    0  0.13293716337E+02 -0.47160086992E+02  0.20218417498E+03  0.20803662493E+03  0.00000000000E+00 0. -1.
</event>
<event>
 7    1  0.5139898E-006  0.1247174E+03  0.7818608E-02  0.1339137E+00
          2   -1    0    0  502    0  0.00000000000E+00  0.00000000000E+00  0.17695914183E+04  0.17695914183E+04  0.00000000000E+00 0. -1.
          1   -1    0    0  501    0 -0.00000000000E+00 -0.00000000000E+00 -0.11813063333E+03  0.11813063333E+03  0.00000000000E+00 0. -1.
         25    2    1    2    0    0 -0.14321870679E+03  0.65723624972E+02  0.74896439417E+03  0.77550186036E+03  0.12499711530E+03 0.  0.
          2    1    1    2  501    0  0.12090170100E+03 -0.24376382355E+02 -0.67830392337E+02  0.14075649700E+03  0.00000000000E+00 0. -1.
          1    1    1    2  502    0  0.22317005783E+02 -0.41347242617E+02  0.97032678318E+03  0.97146369431E+03  0.00000000000E+00 0. -1.
         22    1    3    3    0    0 -0.95744857477E+02 -0.52064088112E+01  0.56008117330E+03  0.56822979956E+03  0.00000000000E+00 0.  1.
         22    1    3    3    0    0 -0.47473849311E+02  0.70930033783E+02  0.18888322087E+03  0.20727206080E+03  0.00000000000E+00 0.  1.
</event>
<event>
 7    1  0.5139898E-006  0.8959702E+02  0.7818608E-02  0.1456985E+00
          2   -1    0    0  502    0  0.00000000000E+00  0.00000000000E+00  0.63586891030E+03  0.63586891030E+03  0.00000000000E+00 0. -1.
          1   -1    0    0  501    0 -0.00000000000E+00 -0.00000000000E+00 -0.21154361390E+03  0.21154361390E+03  0.00000000000E+00 0. -1.
         25    2    1    2    0    0 -0.50494279443E+02 -0.42291280554E+02  0.37815799294E+03  0.40369067529E+03  0.12499787607E+03 0.  0.
          2    1    1    2  501    0  0.74737559023E+02  0.50553947500E+02 -0.18780292564E+03  0.20835388937E+03  0.00000000000E+00 0. -1.
          1    1    1    2  502    0 -0.24243279580E+02 -0.82626669457E+01  0.23397022910E+03  0.23536795953E+03  0.00000000000E+00 0. -1.
         22    1    3    3    0    0 -0.92334672788E+02 -0.34030330629E+02  0.27426927297E+03  0.29138872541E+03  0.00000000000E+00 0.  1.
         22    1    3    3    0    0  0.41840393345E+02 -0.82609499246E+01  0.10388871997E+03  0.11230194988E+03  0.00000000000E+00 0.  1.
</event>
<event>
 7    1  0.5139898E-006  0.5922826E+02  0.7818608E-02  0.1483849E+00
          2   -1    0    0  502    0  0.00000000000E+00  0.00000000000E+00  0.16965467018E+04  0.16965467018E+04  0.00000000000E+00 0. -1.
          1   -1    0    0  501    0 -0.00000000000E+00 -0.00000000000E+00 -0.14761691262E+03  0.14761691262E+03  0.00000000000E+00 0. -1.
         25    2    1    2    0    0 -0.44058573006E+02  0.29004393367E+02  0.13059359379E+03  0.18831239180E+03  0.12499782989E+03 0.  0.
          2    1    1    2  501    0  0.19596363863E+02  0.25255373367E+02 -0.11601889791E+03  0.12034216232E+03  0.00000000000E+00 0. -1.
          1    1    1    2  502    0  0.24462209143E+02 -0.54259766735E+02  0.15343550933E+04  0.15355090603E+04  0.00000000000E+00 0. -1.
         22    1    3    3    0    0  0.27844822737E+02  0.32767244573E+02  0.46646791284E+01  0.43252580287E+02  0.00000000000E+00 0. -1.
         22    1    3    3    0    0 -0.71903395742E+02 -0.37628512058E+01  0.12592891466E+03  0.14505981151E+03  0.00000000000E+00 0. -1.
</event>
<event>
 7    1  0.5139898E-006  0.1497910E+03  0.7818608E-02  0.1350332E+00
          2   -1    0    0  502    0  0.00000000000E+00  0.00000000000E+00  0.12173158147E+04  0.12173158147E+04  0.00000000000E+00 0. -1.
          1   -1    0    0  501    0 -0.00000000000E+00 -0.00000000000E+00 -0.83321358220E+03  0.83321358220E+03  0.00000000000E+00 0. -1.
         25    2    1    2    0    0  0.14759159905E+03 -0.44386693355E+02 -0.44884675916E+01  0.19849170024E+03  0.12500140024E+03 0.  0.
          2    1    1    2  501    0 -0.12960287705E+03  0.75025968959E+02 -0.72377490942E+03  0.73910481074E+03  0.00000000000E+00 0. -1.
          1    1    1    2  502    0 -0.17988722001E+02 -0.30639275603E+02  0.11123656095E+04  0.11129328859E+04  0.00000000000E+00 0. -1.
         22    1    3    3    0    0  0.47615292664E+02 -0.70621731958E+02 -0.32882867715E+02  0.91301303986E+02  0.00000000000E+00 0. -1.
         22    1    3    3    0    0  0.99976306391E+02  0.26235038603E+02  0.28394400123E+02  0.10719039625E+03  0.00000000000E+00 0. -1.
</event>
<event>
 7    1  0.5139898E-006  0.8266081E+02  0.7818608E-02  0.1401384E+00
          2   -1    0    0  502    0  0.00000000000E+00  0.00000000000E+00  0.11290954440E+03  0.11290954440E+03  0.00000000000E+00 0. -1.
          1   -1    0    0  501    0 -0.00000000000E+00 -0.00000000000E+00 -0.20976588878E+04  0.20976588878E+04  0.00000000000E+00 0. -1.
         25    2    1    2    0    0 -0.31643749337E+02  0.10193311173E+03 -0.14504839440E+03  0.21921528220E+03  0.12499846836E+03 0.  0.
          2    1    1    2  501    0  0.51199558119E+02 -0.64376603455E+02 -0.19086601081E+04  0.19104316659E+04  0.00000000000E+00 0. -1.
          1    1    1    2  502    0 -0.19555808782E+02 -0.37556508277E+02  0.68959159084E+02  0.80921484123E+02  0.00000000000E+00 0. -1.
         22    1    3    3    0    0 -0.41163195419E+02  0.84134410205E+02 -0.16569838237E+03  0.19033906997E+03  0.00000000000E+00 0.  1.
         22    1    3    3    0    0  0.95194460827E+01  0.17798701527E+02  0.20649987966E+02  0.28876212230E+02  0.00000000000E+00 0.  1.
</event>
<event>
 7    1  0.5139898E-006  0.8694990E+02  0.7818608E-02  0.1419900E+00
          2   -1    0    0  502    0  0.00000000000E+00  0.00000000000E+00  0.51229079948E+02  0.51229079948E+02  0.00000000000E+00 0. -1.
          1   -1    0    0  501    0 -0.00000000000E+00 -0.00000000000E+00 -0.11390981671E+04  0.11390981671E+04  0.00000000000E+00 0. -1.
         25    2    1    2    0    0  0.68852995240E+02 -0.17928172309E+02 -0.16654619776E+03  0.22005689672E+03  0.12500098996E+03 0.  0.
          2    1    1    2  501    0 -0.87852144395E+02 -0.11279743996E+02 -0.93012456955E+03  0.93433235349E+03  0.00000000000E+00 0. -1.
          1    1    1    2  502    0  0.18999149155E+02  0.29207916305E+02  0.88016801495E+01  0.35937996841E+02  0.00000000000E+00 0. -1.
         22    1    3    3    0    0 -0.16657155189E+02 -0.80738037927E+01 -0.12150807009E+03  0.12290995982E+03  0.00000000000E+00 0. -1.
         22    1    3    3    0    0  0.85510150429E+02 -0.98543685160E+01 -0.45038127670E+02  0.97146936901E+02  0.00000000000E+00 0. -1.
</event>
<event>
 7    1  0.7193926E-006  0.6890216E+02  0.7818608E-02  0.1418592E+00
          2   -1    0    0  502    0  0.00000000000E+00  0.00000000000E+00  0.17480755840E+04  0.17480755840E+04  0.00000000000E+00 0. -1.
          1   -1    0    0  501    0 -0.00000000000E+00 -0.00000000000E+00 -0.10511516956E+04  0.10511516956E+04  0.00000000000E+00 0. -1.
         25    2    1    2    0    0 -0.37574145642E+02  0.37228839780E+02 -0.46470871829E+02  0.14346075772E+03  0.12499457647E+03 0.  0.
          2    1    1    2  501    0 -0.31300679581E+02 -0.31511539033E+02 -0.95496692296E+03  0.95599923305E+03  0.00000000000E+00 0. -1.
          1    1    1    2  502    0  0.68874825222E+02 -0.57173007471E+01  0.16983616832E+04  0.16997672888E+04  0.00000000000E+00 0. -1.
         22    1    3    3    0    0 -0.42436542693E+02 -0.27175240550E+02 -0.59082407887E+02  0.77653620498E+02  0.00000000000E+00 0.  1.
         22    1    3    3    0    0  0.48623970517E+01  0.64404080330E+02  0.12611536058E+02  0.65807137227E+02  0.00000000000E+00 0.  1.
</event>
<event>
 7    1  0.5139898E-006  0.5501120E+02  0.7818608E-02  0.1475595E+00
          2   -1    0    0  502    0  0.00000000000E+00  0.00000000000E+00  0.18915014447E+04  0.18915014447E+04  0.00000000000E+00 0. -1.
          1   -1    0    0  501    0 -0.00000000000E+00 -0.00000000000E+00 -0.18516365021E+03  0.18516365021E+03  0.00000000000E+00 0. -1.
         25    2    1    2    0    0 -0.55820586043E+02  0.13564816826E+02  0.61252312294E+03  0.62778214297E+03  0.12500360320E+03 0.  0.
          2    1    1    2  501    0  0.49012188852E+01 -0.36153173933E+02 -0.17504218872E+03  0.17880391988E+03  0.00000000000E+00 0. -1.
          1    1    1    2  502    0  0.50919367158E+02  0.22588357107E+02  0.12688568602E+04  0.12700790320E+04  0.00000000000E+00 0. -1.
         22    1    3    3    0    0 -0.93702953124E+01  0.33538020333E+02  0.40013721505E+02  0.53044313086E+02  0.00000000000E+00 0.  1.
         22    1    3    3    0    0 -0.46450290730E+02 -0.19973203508E+02  0.57250940144E+03  0.57473782989E+03  0.00000000000E+00 0.  1.
</event>
<event>
 7    1  0.5139898E-006  0.1498628E+03  0.7818608E-02  0.1288607E+00
          2   -1    0    0  502    0  0.00000000000E+00  0.00000000000E+00  0.57146767136E+03  0.57146767136E+03  0.00000000000E+00 0. -1.
          1   -1    0    0  501    0 -0.00000000000E+00 -0.00000000000E+00 -0.22869656435E+03  0.22869656435E+03  0.00000000000E+00 0. -1.
         25    2    1    2    0    0 -0.11573491804E+03  0.15170224884E+03  0.19830081130E+03  0.30227584665E+03  0.12505731548E+03 0.  0.
          2    1    1    2  501    0  0.55586254357E+02 -0.26751807700E+02 -0.15556837289E+03  0.16735294898E+03  0.00000000000E+00 0. -1.
          1    1    1    2  502    0  0.60148663678E+02 -0.12495044114E+03  0.30003866861E+03  0.33053544007E+03  0.00000000000E+00 0. -1.
         22    1    3    3    0    0 -0.14055060049E+02  0.11424247739E+03  0.13244660578E+03  0.17547362120E+03  0.00000000000E+00 0. -1.
         22    1    3    3    0    0 -0.10167985799E+03  0.37459771449E+02  0.65854205518E+02  0.12680222546E+03  0.00000000000E+00 0. -1.
</event>
<event>
 7    1  0.5139898E-006  0.1309806E+03  0.7818608E-02  0.1260897E+00
          2   -1    0    0  502    0  0.00000000000E+00  0.00000000000E+00  0.32801406135E+04  0.32801406135E+04  0.00000000000E+00 0. -1.
          1   -1    0    0  501    0 -0.00000000000E+00 -0.00000000000E+00 -0.86480394398E+02  0.86480394398E+02  0.00000000000E+00 0. -1.
         25    2    1    2    0    0  0.47104261112E+02 -0.77409843513E+02  0.31556227089E+03  0.35130555186E+03  0.12499979470E+03 0.  0.
          2    1    1    2  501    0 -0.13512503707E+03  0.50358815170E+02  0.87275217596E+01  0.14446783567E+03  0.00000000000E+00 0. -1.
          1    1    1    2  502    0  0.88020775953E+02  0.27051028342E+02  0.28693704264E+04  0.28708476203E+04  0.00000000000E+00 0. -1.
         22    1    3    3    0    0 -0.25104005488E+02 -0.35661258279E+02  0.22079364079E+03  0.22505947713E+03  0.00000000000E+00 0.  1.
         22    1    3    3    0    0  0.72208266601E+02 -0.41748585234E+02  0.94768630092E+02  0.12624607473E+03  0.00000000000E+00 0.  1.
</event>
<event>
 7    1  0.5139898E-006  0.5484616E+02  0.7818608E-02  0.1505571E+00
          2   -1    0    0  502    0  0.00000000000E+00  0.00000000000E+00  0.13588773181E+04  0.13588773181E+04  0.00000000000E+00 0. -1.
          1   -1    0    0  501    0 -0.00000000000E+00 -0.00000000000E+00 -0.64176342136E+02  0.64176342136E+02  0.00000000000E+00 0. -1.
         25    2    1    2    0    0 -0.22446299516E+02  0.47077508684E+02  0.40506728113E+03  0.42712295330E+03  0.12503754160E+03 0.  0.
          2    1    1    2  501    0  0.46534302150E+02 -0.29700733621E+02 -0.38511398669E+02  0.67310494588E+02  0.00000000000E+00 0. -1.
          1    1    1    2  502    0 -0.24088002634E+02 -0.17376775063E+02  0.92814509348E+03  0.92862021232E+03  0.00000000000E+00 0. -1.
         22    1    3    3    0    0  0.34589865647E+02  0.68128937318E+00  0.32830492199E+02  0.47694487928E+02  0.00000000000E+00 0. -1.
         22    1    3    3    0    0 -0.57036165163E+02  0.46396219310E+02  0.37223678893E+03  0.37942846537E+03  0.00000000000E+00 0. -1.
</event>
<event>
 7    1  0.5139898E-006  0.2092257E+03  0.7818608E-02  0.1172137E+00
          2   -1    0    0  502    0  0.00000000000E+00  0.00000000000E+00  0.12593394257E+04  0.12593394257E+04  0.00000000000E+00 0. -1.
          1   -1    0    0  501    0 -0.00000000000E+00 -0.00000000000E+00 -0.37300903083E+03  0.37300903083E+03  0.00000000000E+00 0. -1.
         25    2    1    2    0    0  0.15449884130E+03  0.16376004833E+03  0.45613082742E+02  0.26152222946E+03  0.12500431110E+03 0.  0.
          2    1    1    2  501    0 -0.16473391039E+02 -0.21539654421E+03 -0.21505365145E+03  0.30481981050E+03  0.00000000000E+00 0. -1.
          1    1    1    2  502    0 -0.13802545026E+03  0.51636495881E+02  0.10557709636E+04  0.10660064166E+04  0.00000000000E+00 0. -1.
         22    1    3    3    0    0  0.65900466585E+01 -0.46083993340E+01 -0.25231540205E+02  0.26482006731E+02  0.00000000000E+00 0. -1.
         22    1    3    3    0    0  0.14790879464E+03  0.16836844766E+03  0.70844622947E+02  0.23504022273E+03  0.00000000000E+00 0. -1.
</event>
<event>
 7    1  0.5139898E-006  0.1143538E+03  0.7818608E-02  0.1336483E+00
          2   -1    0    0  502    0  0.00000000000E+00  0.00000000000E+00  0.29557208023E+03  0.29557208023E+03  0.00000000000E+00 0. -1.
          1   -1    0    0  501    0 -0.00000000000E+00 -0.00000000000E+00 -0.14075817345E+03  0.14075817345E+03  0.00000000000E+00 0. -1.
         25    2    1    2    0    0  0.12495771213E+02 -0.10478201960E+03  0.13199351185E+03  0.21019540655E+03  0.12499762333E+03 0.  0.
          2    1    1    2  501    0  0.39512126833E+02  0.11149496200E+03 -0.56466386974E+02  0.13107550334E+03  0.00000000000E+00 0. -1.
          1    1    1    2  502    0 -0.52007898046E+02 -0.67129423999E+01  0.79286781906E+02  0.95059343780E+02  0.00000000000E+00 0. -1.
         22    1    3    3    0    0  0.68527244278E+02 -0.47001463356E+02  0.66795669407E+02  0.10661511252E+03  0.00000000000E+00 0. -1.
         22    1    3    3    0    0 -0.56031473065E+02 -0.57780556243E+02  0.65197842440E+02  0.10358029404E+03  0.00000000000E+00 0. -1.
</event>
<event>
 7    1  0.5139898E-006  0.1104875E+03  0.7818608E-02  0.1366714E+00
          2   -1    0    0  502    0  0.00000000000E+00  0.00000000000E+00  0.88429760060E+03  0.88429760060E+03  0.00000000000E+00 0. -1.
          1   -1    0    0  501    0 -0.00000000000E+00 -0.00000000000E+00 -0.28491363272E+03  0.28491363272E+03  0.00000000000E+00 0. -1.
         25    2    1    2    0    0 -0.37814422144E+02  0.10138858296E+03 -0.12725643641E+03  0.20863445723E+03  0.12499824343E+03 0.  0.
          2    1    1    2  501    0  0.76817409961E+02 -0.85913556486E+02 -0.87908299346E+02  0.14494800018E+03  0.00000000000E+00 0. -1.
          1    1    1    2  502    0 -0.39002987817E+02 -0.15475026470E+02  0.81454870363E+03  0.81562877591E+03  0.00000000000E+00 0. -1.
         22    1    3    3    0    0 -0.44889284892E+01  0.12433258646E+03 -0.89173562921E+02  0.15307079035E+03  0.00000000000E+00 0. -1.
         22    1    3    3    0    0 -0.33325493654E+02 -0.22944003502E+02 -0.38082873494E+02  0.55563666884E+02  0.00000000000E+00 0. -1.
</event>
<event>
 7    1  0.5139898E-006  0.4266395E+02  0.7818608E-02  0.1496214E+00
          2   -1    0    0  502    0  0.00000000000E+00  0.00000000000E+00  0.36159434114E+03  0.36159434114E+03  0.00000000000E+00 0. -1.
          1   -1    0    0  501    0 -0.00000000000E+00 -0.00000000000E+00 -0.89063261927E+03  0.89063261927E+03  0.00000000000E+00 0. -1.
         25    2    1    2    0    0 -0.36289544101E+02  0.32952845432E+02  0.18463310707E+03  0.22829135873E+03  0.12499895684E+03 0.  0.
          2    1    1    2  501    0 -0.72350749733E+01 -0.40066787324E+02 -0.86518062706E+03  0.86613810168E+03  0.00000000000E+00 0. -1.
          1    1    1    2  502    0  0.43524619074E+02  0.71139418920E+01  0.15150924186E+03  0.15779749999E+03  0.00000000000E+00 0. -1.
         22    1    3    3    0    0  0.33615753058E+02  0.35671359160E+02  0.13181641691E+03  0.14063439296E+03  0.00000000000E+00 0.  1.
         22    1    3    3    0    0 -0.69905297158E+02 -0.27185137279E+01  0.52816690159E+02  0.87656965764E+02  0.00000000000E+00 0.  1.
</event>
<event>
 7    1  0.5139898E-006  0.5377064E+02  0.7818608E-02  0.1463081E+00
          2   -1    0    0  502    0  0.00000000000E+00  0.00000000000E+00  0.16011993832E+04  0.16011993832E+04  0.00000000000E+00 0. -1.
          1   -1    0    0  501    0 -0.00000000000E+00 -0.00000000000E+00 -0.27105950791E+03  0.27105950791E+03  0.00000000000E+00 0. -1.
         25    2    1    2    0    0 -0.19852535647E+02  0.77718711443E+01  0.39280545238E+03  0.41276750015E+03  0.12500544233E+03 0.  0.
          2    1    1    2  501    0  0.24056274994E+02 -0.48384099918E+02 -0.25793034406E+03  0.26352948199E+03  0.00000000000E+00 0. -1.
          1    1    1    2  502    0 -0.42037393464E+01  0.40612228774E+02  0.11952647669E+04  0.11959619089E+04  0.00000000000E+00 0. -1.
         22    1    3    3    0    0 -0.51122994048E+02  0.38789477560E+02  0.32922763606E+03  0.33542364323E+03  0.00000000000E+00 0.  1.
         22    1    3    3    0    0  0.31270458400E+02 -0.31017606416E+02  0.63577816318E+02  0.77343856925E+02  0.00000000000E+00 0.  1.
</event>
<event>
 7    1  0.5139898E-006  0.1060453E+03  0.7818608E-02  0.1314355E+00
          2   -1    0    0  502    0  0.00000000000E+00  0.00000000000E+00  0.26478392110E+03  0.26478392110E+03  0.00000000000E+00 0. -1.
          1   -1    0    0  501    0 -0.00000000000E+00 -0.00000000000E+00 -0.18587882129E+04  0.18587882129E+04  0.00000000000E+00 0. -1.
         25    2    1    2    0    0  0.36294960703E+02 -0.13677092300E+02 -0.50542030747E+03  0.52209152490E+03  0.12500194457E+03 0.  0.
          2    1    1    2  501    0  0.62620040306E+02 -0.28487361570E+02 -0.13328347335E+04  0.13346090162E+04  0.00000000000E+00 0. -1.
          1    1    1    2  502    0 -0.98915001009E+02  0.42164453870E+02  0.24425074921E+03  0.26687159288E+03  0.00000000000E+00 0. -1.
         22    1    3    3    0    0 -0.46744028086E+01 -0.14823914068E+02 -0.46244324028E+03  0.46270438614E+03  0.00000000000E+00 0. -1.
         22    1    3    3    0    0  0.40969363512E+02  0.11468217683E+01 -0.42977067191E+02  0.59387138768E+02  0.00000000000E+00 0. -1.
</event>
<event>
 7    1  0.5139898E-006  0.9480070E+02  0.7818608E-02  0.1433043E+00
          2   -1    0    0  502    0  0.00000000000E+00  0.00000000000E+00  0.18405323356E+04  0.18405323356E+04  0.00000000000E+00 0. -1.
          1   -1    0    0  501    0 -0.00000000000E+00 -0.00000000000E+00 -0.18915059445E+04  0.18915059445E+04  0.00000000000E+00 0. -1.
         25    2    1    2    0    0 -0.16345134917E+02  0.65170050572E+02  0.24003099665E+02  0.14392663889E+03  0.12499771862E+03 0.  0.
          2    1    1    2  501    0 -0.14091705616E+02  0.25246111651E+02 -0.18301345557E+04  0.18303629242E+04  0.00000000000E+00 0. -1.
          1    1    1    2  502    0  0.30436840533E+02 -0.90416162224E+02  0.17551578471E+04  0.17577487170E+04  0.00000000000E+00 0. -1.
         22    1    3    3    0    0  0.41014593177E+02 -0.11925215286E+02 -0.62861813514E+01  0.43173182522E+02  0.00000000000E+00 0.  1.
         22    1    3    3    0    0 -0.57359728094E+02  0.77095265858E+02  0.30289281016E+02  0.10075345636E+03  0.00000000000E+00 0.  1.
</event>
<event>
 7    1  0.5139898E-006  0.4694346E+02  0.7818608E-02  0.1493518E+00
          2   -1    0    0  502    0  0.00000000000E+00  0.00000000000E+00  0.53406385394E+03  0.53406385394E+03  0.00000000000E+00 0. -1.
          1   -1    0    0  501    0 -0.00000000000E+00 -0.00000000000E+00 -0.32462330265E+02  0.32462330265E+02  0.00000000000E+00 0. -1.
         25    2    1    2    0    0  0.14385459195E+02  0.22357940813E+02  0.30888925442E+03  0.33428089779E+03  0.12499731267E+03 0.  0.
          2    1    1    2  501    0 -0.19530589137E+02  0.32246759826E+02  0.66683825015E+01  0.38285307318E+02  0.00000000000E+00 0. -1.
          1    1    1    2  502    0  0.51451299417E+01 -0.54604700639E+02  0.18604388675E+03  0.19395997910E+03  0.00000000000E+00 0. -1.
         22    1    3    3    0    0  0.62823931132E+02 -0.13859083912E+02  0.12313782270E+03  0.13893107611E+03  0.00000000000E+00 0. -1.
         22    1    3    3    0    0 -0.48438471937E+02  0.36217024725E+02  0.18575143171E+03  0.19534982167E+03  0.00000000000E+00 0. -1.
</event>
<event>
 7    1  0.5139898E-006  0.9405319E+02  0.7818608E-02  0.1432661E+00
          2   -1    0    0  502    0  0.00000000000E+00  0.00000000000E+00  0.12622983520E+04  0.12622983520E+04  0.00000000000E+00 0. -1.
          1   -1    0    0  501    0 -0.00000000000E+00 -0.00000000000E+00 -0.20521388002E+03  0.20521388002E+03  0.00000000000E+00 0. -1.
         25    2    1    2    0    0  0.17028917937E+02  0.86804812575E+02  0.11011823551E+03  0.18861816612E+03  0.12500290903E+03 0.  0.
          2    1    1    2  501    0 -0.28359971417E+02  0.70649417751E+01 -0.16265085996E+03  0.16525587320E+03  0.00000000000E+00 0. -1.
          1    1    1    2  502    0  0.11331053480E+02 -0.93869754350E+02  0.11096170964E+04  0.11136381927E+04  0.00000000000E+00 0. -1.
         22    1    3    3    0    0 -0.37475253596E+02  0.20488742504E+02 -0.71344558058E+01  0.43302236214E+02  0.00000000000E+00 0.  1.
         22    1    3    3    0    0  0.54504171533E+02  0.66316070071E+02  0.11725269132E+03  0.14531592991E+03  0.00000000000E+00 0.  1.
</event>
<event>
 7    1  0.5139898E-006  0.1861109E+03  0.7818608E-02  0.1249071E+00
          2   -1    0    0  502    0  0.00000000000E+00  0.00000000000E+00  0.71462439367E+03  0.71462439367E+03  0.00000000000E+00 0. -1.
          1   -1    0    0  501    0 -0.00000000000E+00 -0.00000000000E+00 -0.20714934074E+03  0.20714934074E+03  0.00000000000E+00 0. -1.
         25    2    1    2    0    0 -0.15374229491E+03  0.62582544543E+02  0.98578281766E+02  0.22999241171E+03  0.12500225470E+03 0.  0.
          2    1    1    2  501    0  0.13630689354E+02  0.71576711225E+02 -0.11330637512E+03  0.13471212241E+03  0.00000000000E+00 0. -1.
          1    1    1    2  502    0  0.14011160556E+03 -0.13415925577E+03  0.52220314629E+03  0.55706920029E+03  0.00000000000E+00 0. -1.
         22    1    3    3    0    0 -0.39224177619E+02  0.12409896750E+02  0.96549409539E+02  0.10494917879E+03  0.00000000000E+00 0. -1.
         22    1    3    3    0    0 -0.11451811729E+03  0.50172647794E+02  0.20288722273E+01  0.12504323291E+03  0.00000000000E+00 0. -1.
</event>
<event>
 7    1  0.5139898E-006  0.1359717E+03  0.7818608E-02  0.1294186E+00
          2   -1    0    0  502    0  0.00000000000E+00  0.00000000000E+00  0.12865172029E+04  0.12865172029E+04  0.00000000000E+00 0. -1.
          1   -1    0    0  501    0 -0.00000000000E+00 -0.00000000000E+00 -0.74303125111E+03  0.74303125111E+03  0.00000000000E+00 0. -1.
         25    2    1    2    0    0 -0.10634086629E+03 -0.11405682945E+03  0.49653083522E+03  0.53524548311E+03  0.12501006630E+03 0.  0.
          2    1    1    2  501    0  0.12538689474E+03  0.52394491707E+02 -0.71591980669E+03  0.72870311221E+03  0.00000000000E+00 0. -1.
          1    1    1    2  502    0 -0.19046028454E+02  0.61662337746E+02  0.76287492330E+03  0.76559985874E+03  0.00000000000E+00 0. -1.
         22    1    3    3    0    0 -0.43675297729E+02  0.15323181335E+02  0.20546909775E+03  0.21061785691E+03  0.00000000000E+00 0.  1.
         22    1    3    3    0    0 -0.62665568559E+02 -0.12938001079E+03  0.29106173747E+03  0.32462762620E+03  0.00000000000E+00 0.  1.
</event>
<event>
 7    1  0.5139898E-006  0.3306277E+02  0.7818608E-02  0.1630710E+00
          2   -1    0    0  502    0  0.00000000000E+00  0.00000000000E+00  0.12831368548E+03  0.12831368548E+03  0.00000000000E+00 0. -1.
          1   -1    0    0  501    0 -0.00000000000E+00 -0.00000000000E+00 -0.12517681716E+04  0.12517681716E+04  0.00000000000E+00 0. -1.
         25    2    1    2    0    0 -0.25622382234E+02  0.63163131984E+01 -0.25025857744E+03  0.28096556910E+03  0.12496356731E+03 0.  0.
          2    1    1    2  501    0 -0.35329002273E+01 -0.22170332543E+02 -0.98358770310E+03  0.98384387721E+03  0.00000000000E+00 0. -1.
          1    1    1    2  502    0  0.29155282461E+02  0.15854019344E+02  0.11039179439E+03  0.11527241081E+03  0.00000000000E+00 0. -1.
         22    1    3    3    0    0  0.32746882218E+02  0.34115866318E+02 -0.43208025232E+02  0.64056100990E+02  0.00000000000E+00 0. -1.
         22    1    3    3    0    0 -0.58369264452E+02 -0.27799553119E+02 -0.20705055221E+03  0.21690946811E+03  0.00000000000E+00 0. -1.
</event>
<event>
 7    1  0.5139898E-006  0.1009674E+03  0.7818608E-02  0.1290505E+00
          2   -1    0    0  502    0  0.00000000000E+00  0.00000000000E+00  0.26345201837E+03  0.26345201837E+03  0.00000000000E+00 0. -1.
          1   -1    0    0  501    0 -0.00000000000E+00 -0.00000000000E+00 -0.12758130625E+04  0.12758130625E+04  0.00000000000E+00 0. -1.
         25    2    1    2    0    0  0.12143533317E+02  0.42840883799E+02  0.26402215893E+02  0.13530288986E+03  0.12500795285E+03 0.  0.
          2    1    1    2  501    0 -0.10018086099E+03 -0.24397439557E+02 -0.12079544056E+04  0.12123470155E+04  0.00000000000E+00 0. -1.
          1    1    1    2  502    0  0.88037327673E+02 -0.18443444242E+02  0.16919114564E+03  0.19161517545E+03  0.00000000000E+00 0. -1.
         22    1    3    3    0    0  0.32507865310E+02  0.10545359355E+02  0.69668580393E+02  0.77599465237E+02  0.00000000000E+00 0.  1.
         22    1    3    3    0    0 -0.20364331993E+02  0.32295524444E+02 -0.43266364500E+02  0.57703424627E+02  0.00000000000E+00 0.  1.
</event>
<event>
 7    1  0.5139898E-006  0.5507249E+02  0.7818608E-02  0.1472961E+00
          2   -1    0    0  502    0  0.00000000000E+00  0.00000000000E+00  0.72078713890E+03  0.72078713890E+03  0.00000000000E+00 0. -1.
          1   -1    0    0  501    0 -0.00000000000E+00 -0.00000000000E+00 -0.36347317502E+03  0.36347317502E+03  0.00000000000E+00 0. -1.
         25    2    1    2    0    0  0.53061391560E+02  0.30797764989E+02  0.13939218007E+03  0.19702154203E+03  0.12499317804E+03 0.  0.
          2    1    1    2  501    0 -0.31254369191E+02  0.20050818237E+02 -0.33223662709E+03  0.33430532045E+03  0.00000000000E+00 0. -1.
          1    1    1    2  502    0 -0.21807022370E+02 -0.50848583226E+02  0.55015841089E+03  0.55293345144E+03  0.00000000000E+00 0. -1.
         22    1    3    3    0    0  0.92694537234E+01  0.28065575624E+02 -0.17337155448E+02  0.34266255507E+02  0.00000000000E+00 0. -1.
         22    1    3    3    0    0  0.43791937837E+02  0.27321893652E+01  0.15672933552E+03  0.16275528652E+03  0.00000000000E+00 0. -1.
</event>
<event>
 7    1  0.5139898E-006  0.5956706E+02  0.7818608E-02  0.1504959E+00
          2   -1    0    0  502    0  0.00000000000E+00  0.00000000000E+00  0.40898674290E+03  0.40898674290E+03  0.00000000000E+00 0. -1.
          1   -1    0    0  501    0 -0.00000000000E+00 -0.00000000000E+00 -0.44042377223E+03  0.44042377223E+03  0.00000000000E+00 0. -1.
         25    2    1    2    0    0 -0.71957402814E+02  0.12888791162E+02 -0.35316459924E+03  0.38169882241E+03  0.12499907246E+03 0.  0.
          2    1    1    2  501    0  0.20944436331E+02  0.17762158697E+02 -0.68068061616E+02  0.73399078380E+02  0.00000000000E+00 0. -1.
          1    1    1    2  502    0  0.51012966482E+02 -0.30650949859E+02  0.38979563153E+03  0.39431261435E+03  0.00000000000E+00 0. -1.
         22    1    3    3    0    0 -0.92579303426E+02  0.29406951372E+02 -0.33700974313E+03  0.35072961549E+03  0.00000000000E+00 0.  1.
         22    1    3    3    0    0  0.20621900612E+02 -0.16518160210E+02 -0.16154856104E+02  0.30969206921E+02  0.00000000000E+00 0.  1.
</event>
<event>
 7    1  0.5624558E-006  0.9747473E+02  0.7818608E-02  0.1298841E+00
          2   -1    0    0  502    0  0.00000000000E+00  0.00000000000E+00  0.29655100148E+04  0.29655100148E+04  0.00000000000E+00 0. -1.
          1   -1    0    0  501    0 -0.00000000000E+00 -0.00000000000E+00 -0.46936638677E+03  0.46936638677E+03  0.00000000000E+00 0. -1.
         25    2    1    2    0    0 -0.63205225388E+01 -0.82005640944E+02 -0.32700539791E+02  0.15315971308E+03  0.12499479291E+03 0.  0.
          2    1    1    2  501    0  0.83457789236E+02  0.21664389469E+02 -0.37066120275E+03  0.38055784788E+03  0.00000000000E+00 0. -1.
          1    1    1    2  502    0 -0.77137266697E+02  0.60341251476E+02  0.28995053705E+04  0.29011588406E+04  0.00000000000E+00 0. -1.
         22    1    3    3    0    0 -0.39551999952E+02 -0.60598199217E+02  0.30569783536E+02  0.78555802548E+02  0.00000000000E+00 0.  1.
         22    1    3    3    0    0  0.33231477413E+02 -0.21407441727E+02 -0.63270323327E+02  0.74603910529E+02  0.00000000000E+00 0.  1.
</event>
<event>
 7    1  0.5139898E-006  0.2980583E+02  0.7818608E-02  0.1629936E+00
          2   -1    0    0  502    0  0.00000000000E+00  0.00000000000E+00  0.14467625129E+03  0.14467625129E+03  0.00000000000E+00 0. -1.
          1   -1    0    0  501    0 -0.00000000000E+00 -0.00000000000E+00 -0.10039507665E+04  0.10039507665E+04  0.00000000000E+00 0. -1.
         25    2    1    2    0    0 -0.39329463674E+01  0.13641833901E+02 -0.12683311605E+03  0.17864237988E+03  0.12499957145E+03 0.  0.
          2    1    1    2  501    0  0.28562905067E+02 -0.92694760209E+01 -0.84962767898E+03  0.85015819446E+03  0.00000000000E+00 0. -1.
          1    1    1    2  502    0 -0.24629958700E+02 -0.43723578801E+01  0.11718627981E+03  0.11982644347E+03  0.00000000000E+00 0. -1.
         22    1    3    3    0    0 -0.39266295431E+02  0.53163815383E+02 -0.98257606945E+02  0.11841786413E+03  0.00000000000E+00 0.  1.
         22    1    3    3    0    0  0.35333349064E+02 -0.39521981482E+02 -0.28575509110E+02  0.60224515749E+02  0.00000000000E+00 0.  1.
</event>
<event>
 7    1  0.5139898E-006  0.6300031E+02  0.7818608E-02  0.1415360E+00
          2   -1    0    0  502    0  0.00000000000E+00  0.00000000000E+00  0.21097245661E+03  0.21097245661E+03  0.00000000000E+00 0. -1.
          1   -1    0    0  501    0 -0.00000000000E+00 -0.00000000000E+00 -0.10697885784E+04  0.10697885784E+04  0.00000000000E+00 0. -1.
         25    2    1    2    0    0 -0.88988473178E+01  0.10241800988E+03  0.48580611652E+02  0.16898018524E+03  0.12500235576E+03 0.  0.
          2    1    1    2  501    0 -0.12001445803E+02 -0.48335993406E+02 -0.10006954206E+04  0.10019339937E+04  0.00000000000E+00 0. -1.
          1    1    1    2  502    0  0.20900293121E+02 -0.54082016469E+02  0.93298687165E+02  0.10984685605E+03  0.00000000000E+00 0. -1.
         22    1    3    3    0    0  0.17855296460E+02  0.23075261292E+02 -0.38412721589E+02  0.48237086098E+02  0.00000000000E+00 0. -1.
         22    1    3    3    0    0 -0.26754143778E+02  0.79342748583E+02  0.86993333241E+02  0.12074309914E+03  0.00000000000E+00 0. -1.
</event>
<event>
 7    1  0.5139898E-006  0.2083731E+03  0.7818608E-02  0.1313445E+00
          2   -1    0    0  502    0  0.00000000000E+00  0.00000000000E+00  0.77108209653E+03  0.77108209653E+03  0.00000000000E+00 0. -1.
          1   -1    0    0  501    0 -0.00000000000E+00 -0.00000000000E+00 -0.89286527995E+03  0.89286527995E+03  0.00000000000E+00 0. -1.
         25    2    1    2    0    0  0.62512039441E+02 -0.21609488796E+03 -0.17764905815E+03  0.31271027629E+03  0.12499509334E+03 0.  0.
          2    1    1    2  501    0  0.22779077115E+02  0.26966769612E+02 -0.63188701214E+03  0.63287225340E+03  0.00000000000E+00 0. -1.
          1    1    1    2  502    0 -0.85291116556E+02  0.18912811835E+03  0.68775288687E+03  0.71836484679E+03  0.00000000000E+00 0. -1.
         22    1    3    3    0    0 -0.38571594090E+02 -0.59883669870E+02 -0.52069212508E+02  0.88232786871E+02  0.00000000000E+00 0.  1.
         22    1    3    3    0    0  0.10108363353E+03 -0.15621121809E+03 -0.12557984564E+03  0.22447748942E+03  0.00000000000E+00 0.  1.
</event>
<event>
 7    1  0.5139898E-006  0.2838154E+02  0.7818608E-02  0.1674703E+00
          2   -1    0    0  502    0  0.00000000000E+00  0.00000000000E+00  0.15741741688E+04  0.15741741688E+04  0.00000000000E+00 0. -1.
          1   -1    0    0  501    0 -0.00000000000E+00 -0.00000000000E+00 -0.34762823763E+03  0.34762823763E+03  0.00000000000E+00 0. -1.
         25    2    1    2    0    0  0.45336582227E+02  0.17846202118E+02 -0.13225213060E+03  0.18839689900E+03  0.12501549058E+03 0.  0.
          2    1    1    2  501    0 -0.19399204474E+02 -0.63645019338E+01 -0.18661682768E+03  0.18773032891E+03  0.00000000000E+00 0. -1.
          1    1    1    2  502    0 -0.25937377753E+02 -0.11481700184E+02  0.15454148894E+04  0.15456751785E+04  0.00000000000E+00 0. -1.
         22    1    3    3    0    0  0.82247186168E+02 -0.60956518853E+01 -0.53857425901E+02  0.98500654461E+02  0.00000000000E+00 0.  1.
         22    1    3    3    0    0 -0.36910603941E+02  0.23941854003E+02 -0.78394704703E+02  0.89896244537E+02  0.00000000000E+00 0.  1.
</event>
<event>
 7    1  0.5139898E-006  0.1018195E+03  0.7818608E-02  0.1428342E+00
          2   -1    0    0  502    0  0.00000000000E+00  0.00000000000E+00  0.17275135246E+04  0.17275135246E+04  0.00000000000E+00 0. -1.
          1   -1    0    0  501    0 -0.00000000000E+00 -0.00000000000E+00 -0.87089209399E+03  0.87089209399E+03  0.00000000000E+00 0. -1.
         25    2    1    2    0    0  0.46980585972E+02 -0.82830801205E+02  0.34482527849E+03  0.37894483481E+03  0.12500639205E+03 0.  0.
          2    1    1    2  501    0 -0.24235984714E+02  0.98980981187E+02 -0.85064844708E+03  0.85673064502E+03  0.00000000000E+00 0. -1.
          1    1    1    2  502    0 -0.22744601258E+02 -0.16150179982E+02  0.13624445992E+04  0.13627301388E+04  0.00000000000E+00 0. -1.
         22    1    3    3    0    0  0.79936817797E+02 -0.82373945945E+02  0.31192868186E+03  0.33237759307E+03  0.00000000000E+00 0. -1.
         22    1    3    3    0    0 -0.32956231825E+02 -0.45685526020E+00  0.32896596631E+02  0.46567241734E+02  0.00000000000E+00 0. -1.
</event>
<event>
 7    1  0.5139898E-006  0.1201671E+03  0.7818608E-02  0.1432159E+00
          2   -1    0    0  502    0  0.00000000000E+00  0.00000000000E+00  0.46968422869E+03  0.46968422869E+03  0.00000000000E+00 0. -1.
          1   -1    0    0  501    0 -0.00000000000E+00 -0.00000000000E+00 -0.45068469564E+03  0.45068469564E+03  0.00000000000E+00 0. -1.
         25    2    1    2    0    0 -0.42757977369E+02 -0.95054941894E+02 -0.14859841334E+03  0.22038595047E+03  0.12499916843E+03 0.  0.
          2    1    1    2  501    0  0.48414354908E+02  0.11730958204E+03 -0.25073394978E+03  0.28102135394E+03  0.00000000000E+00 0. -1.
          1    1    1    2  502    0 -0.56563775388E+01 -0.22254640148E+02  0.41833189617E+03  0.41896161992E+03  0.00000000000E+00 0. -1.
         22    1    3    3    0    0  0.23423600305E+02 -0.93532393089E+02 -0.83709649971E+02  0.12768821052E+03  0.00000000000E+00 0. -1.
         22    1    3    3    0    0 -0.66181577675E+02 -0.15225488048E+01 -0.64888763373E+02  0.92697739943E+02  0.00000000000E+00 0. -1.
</event>
<event>
 7    1  0.5139898E-006  0.5658548E+02  0.7818608E-02  0.1449794E+00
          2   -1    0    0  502    0  0.00000000000E+00  0.00000000000E+00  0.61651705098E+03  0.61651705098E+03  0.00000000000E+00 0. -1.
          1   -1    0    0  501    0 -0.00000000000E+00 -0.00000000000E+00 -0.92368945231E+03  0.92368945231E+03  0.00000000000E+00 0. -1.
         25    2    1    2    0    0  0.37158480541E+02  0.36059057440E+02  0.25150385039E+03  0.28558372286E+03  0.12499147051E+03 0.  0.
          2    1    1    2  501    0  0.30470602651E+00 -0.56652935697E+02 -0.90444681571E+03  0.90621944937E+03  0.00000000000E+00 0. -1.
          1    1    1    2  502    0 -0.37463186568E+02  0.20593878257E+02  0.34577056399E+03  0.34840333106E+03  0.00000000000E+00 0. -1.
         22    1    3    3    0    0  0.23277754568E+02 -0.46043076871E+02  0.85323092822E+02  0.99708820845E+02  0.00000000000E+00 0.  1.
         22    1    3    3    0    0  0.13880725973E+02  0.82102134311E+02  0.16618075757E+03  0.18587490202E+03  0.00000000000E+00 0.  1.
</event>
<event>
 7    1  0.5139898E-006  0.8699365E+02  0.7818608E-02  0.1354125E+00
          2   -1    0    0  502    0  0.00000000000E+00  0.00000000000E+00  0.62176727717E+02  0.62176727717E+02  0.00000000000E+00 0. -1.
          1   -1    0    0  501    0 -0.00000000000E+00 -0.00000000000E+00 -0.52759747801E+03  0.52759747801E+03  0.00000000000E+00 0. -1.
         25    2    1    2    0    0  0.83509862667E+02  0.90770266099E+02 -0.14808663216E+03  0.22971175446E+03  0.12499880456E+03 0.  0.
          2    1    1    2  501    0 -0.17796823586E+02 -0.56499257699E+02 -0.25916394698E+03  0.26584740823E+03  0.00000000000E+00 0. -1.
          1    1    1    2  502    0 -0.65713039082E+02 -0.34271008399E+02 -0.58170171155E+02  0.94215043036E+02  0.00000000000E+00 0. -1.
         22    1    3    3    0    0  0.47938619252E+02 -0.25301151543E+02 -0.45252510712E+02  0.70611962237E+02  0.00000000000E+00 0. -1.
         22    1    3    3    0    0  0.35571243416E+02  0.11607141764E+03 -0.10283412145E+03  0.15909979223E+03  0.00000000000E+00 0. -1.
</event>
<event>
 7    1  0.5139898E-006  0.1402360E+03  0.7818608E-02  0.1261315E+00
          2   -1    0    0  502    0  0.00000000000E+00  0.00000000000E+00  0.28915224852E+03  0.28915224852E+03  0.00000000000E+00 0. -1.
          1   -1    0    0  501    0 -0.00000000000E+00 -0.00000000000E+00 -0.11358908369E+04  0.11358908369E+04  0.00000000000E+00 0. -1.
         25    2    1    2    0    0  0.46455141951E+02  0.53658657814E+02 -0.38600032766E+02  0.14883593162E+03  0.12499936095E+03 0.  0.
          2    1    1    2  501    0 -0.13101419400E+03 -0.67311861353E+02 -0.10289112900E+04  0.10394008122E+04  0.00000000000E+00 0. -1.
          1    1    1    2  502    0  0.84559052054E+02  0.13653203539E+02  0.22077273431E+03  0.23680634169E+03  0.00000000000E+00 0. -1.
         22    1    3    3    0    0  0.18407388169E+02  0.10908993238E+02 -0.80147272529E+02  0.82954345073E+02  0.00000000000E+00 0. -1.
         22    1    3    3    0    0  0.28047753782E+02  0.42749664576E+02  0.41547239763E+02  0.65881586544E+02  0.00000000000E+00 0. -1.
</event>
<event>
 7    1  0.5139898E-006  0.7408353E+02  0.7818608E-02  0.1440388E+00
          2   -1    0    0  502    0  0.00000000000E+00  0.00000000000E+00  0.74412910410E+03  0.74412910410E+03  0.00000000000E+00 0. -1.
          1   -1    0    0  501    0 -0.00000000000E+00 -0.00000000000E+00 -0.58238339179E+03  0.58238339179E+03  0.00000000000E+00 0. -1.
         25    2    1    2    0    0  0.24894240826E+02 -0.65043418088E+02 -0.25961984662E+03  0.29641783795E+03  0.12494278864E+03 0.  0.
          2    1    1    2  501    0  0.30995288298E+02  0.16284873787E+02 -0.30145364422E+03  0.30348015524E+03  0.00000000000E+00 0. -1.
          1    1    1    2  502    0 -0.55889529125E+02  0.48758544301E+02  0.72281920315E+03  0.72661450271E+03  0.00000000000E+00 0. -1.
         22    1    3    3    0    0 -0.23042237615E+02 -0.84749709198E+02 -0.13067486077E+03  0.15744642632E+03  0.00000000000E+00 0. -1.
         22    1    3    3    0    0  0.47936478441E+02  0.19706291110E+02 -0.12894498585E+03  0.13897141163E+03  0.00000000000E+00 0. -1.
</event>
<event>
 7    1  0.5139898E-006  0.6956927E+02  0.7818608E-02  0.1379256E+00
          2   -1    0    0  502    0  0.00000000000E+00  0.00000000000E+00  0.59383969916E+03  0.59383969916E+03  0.00000000000E+00 0. -1.
          1   -1    0    0  501    0 -0.00000000000E+00 -0.00000000000E+00 -0.35139946185E+03  0.35139946185E+03  0.00000000000E+00 0. -1.
         25    2    1    2    0    0  0.66813493143E+02  0.94593476466E+02 -0.13902772713E+03  0.21992207037E+03  0.12500015787E+03 0.  0.
          2    1    1    2  501    0 -0.53844666189E+02 -0.26689758162E+02 -0.16442545147E+03  0.17506376084E+03  0.00000000000E+00 0. -1.
          1    1    1    2  502    0 -0.12968826954E+02 -0.67903718304E+02  0.54589341590E+03  0.55025332980E+03  0.00000000000E+00 0. -1.
         22    1    3    3    0    0  0.27172057494E+02  0.11866645140E+03 -0.11594548826E+03  0.16811723185E+03  0.00000000000E+00 0.  1.
         22    1    3    3    0    0  0.39641435649E+02 -0.24072974935E+02 -0.23082238867E+02  0.51804838516E+02  0.00000000000E+00 0.  1.
</event>
<event>
 7    1  0.5139898E-006  0.8245343E+02  0.7818608E-02  0.1438664E+00
          2   -1    0    0  502    0  0.00000000000E+00  0.00000000000E+00  0.99141251002E+03  0.99141251002E+03  0.00000000000E+00 0. -1.
          1   -1    0    0  501    0 -0.00000000000E+00 -0.00000000000E+00 -0.12514629177E+03  0.12514629177E+03  0.00000000000E+00 0. -1.
         25    2    1    2    0    0  0.17723142867E+02  0.94590862814E+02  0.24171350262E+03  0.28863765489E+03  0.12499894941E+03 0.  0.
          2    1    1    2  501    0  0.11155470402E+02 -0.81117869366E+02 -0.84784537733E+02  0.11786844823E+03  0.00000000000E+00 0. -1.
          1    1    1    2  502    0 -0.28878613269E+02 -0.13472993448E+02  0.70933725337E+03  0.71005269866E+03  0.00000000000E+00 0. -1.
         22    1    3    3    0    0 -0.29434407637E+02 -0.18814039496E+02  0.54016255361E+02  0.64328129759E+02  0.00000000000E+00 0.  1.
         22    1    3    3    0    0  0.47157550504E+02  0.11340490231E+03  0.18769724726E+03  0.22430952513E+03  0.00000000000E+00 0.  1.
</event>
<event>
 7    1  0.5139898E-006  0.6445230E+02  0.7818608E-02  0.1528288E+00
          2   -1    0    0  502    0  0.00000000000E+00  0.00000000000E+00  0.10935336191E+03  0.10935336191E+03  0.00000000000E+00 0. -1.
          1   -1    0    0  501    0 -0.00000000000E+00 -0.00000000000E+00 -0.10148731971E+04  0.10148731971E+04  0.00000000000E+00 0. -1.
         25    2    1    2    0    0  0.54435860099E+02 -0.54265136135E+02 -0.63487610239E+03  0.65161351094E+03  0.12499813756E+03 0.  0.
          2    1    1    2  501    0 -0.32914735717E+02  0.51492298179E+02 -0.36791232102E+03  0.37295349919E+03  0.00000000000E+00 0. -1.
          1    1    1    2  502    0 -0.21521124383E+02  0.27728379559E+01  0.97268588229E+02  0.99659548871E+02  0.00000000000E+00 0. -1.
         22    1    3    3    0    0  0.20585065357E+02 -0.53188030576E+02 -0.95922058480E+02  0.11159638352E+03  0.00000000000E+00 0.  1.
         22    1    3    3    0    0  0.33850794743E+02 -0.10771055593E+01 -0.53895404391E+03  0.54001712742E+03  0.00000000000E+00 0.  1.
</event>
<event>
 7    1  0.5139898E-006  0.4670226E+02  0.7818608E-02  0.1578473E+00
          2   -1    0    0  502    0  0.00000000000E+00  0.00000000000E+00  0.23695889362E+04  0.23695889362E+04  0.00000000000E+00 0. -1.
          1   -1    0    0  501    0 -0.00000000000E+00 -0.00000000000E+00 -0.18724338497E+02  0.18724338497E+02  0.00000000000E+00 0. -1.
         25    2    1    2    0    0 -0.18670280187E+02  0.50424828724E+02  0.91949503315E+03  0.92950964031E+03  0.12500325086E+03 0.  0.
          2    1    1    2  501    0 -0.13584356003E+02 -0.16952884032E+02 -0.44971814060E+01  0.22184671411E+02  0.00000000000E+00 0. -1.
          1    1    1    2  502    0  0.32254636190E+02 -0.33471944692E+02  0.14358667460E+04  0.14366189630E+04  0.00000000000E+00 0. -1.
         22    1    3    3    0    0 -0.27001704506E+02  0.46752035190E+02  0.14132717507E+03  0.15128851660E+03  0.00000000000E+00 0. -1.
         22    1    3    3    0    0  0.83314243185E+01  0.36727935337E+01  0.77816785808E+03  0.77822112371E+03  0.00000000000E+00 0. -1.
</event>
<event>
 7    1  0.5139898E-006  0.1027717E+03  0.7818608E-02  0.1310267E+00
          2   -1    0    0  502    0  0.00000000000E+00  0.00000000000E+00  0.65992668621E+03  0.65992668621E+03  0.00000000000E+00 0. -1.
          1   -1    0    0  501    0 -0.00000000000E+00 -0.00000000000E+00 -0.42887458026E+03  0.42887458026E+03  0.00000000000E+00 0. -1.
         25    2    1    2    0    0 -0.55991779274E+02 -0.78671182448E+02 -0.18005654085E+03  0.23951860812E+03  0.12499828574E+03 0.  0.
          2    1    1    2  501    0 -0.88069173442E+01  0.11369814219E+03 -0.20189148392E+03  0.23187281128E+03  0.00000000000E+00 0. -1.
          1    1    1    2  502    0  0.64798696618E+02 -0.35026959747E+02  0.61300013073E+03  0.61740984707E+03  0.00000000000E+00 0. -1.
         22    1    3    3    0    0 -0.68406509720E+02  0.93314750205E+01 -0.81326672934E+02  0.10667968283E+03  0.00000000000E+00 0.  1.
         22    1    3    3    0    0  0.12414730446E+02 -0.88002657468E+02 -0.98729867914E+02  0.13283892529E+03  0.00000000000E+00 0.  1.
</event>
<event>
 7    1  0.5139898E-006  0.1168378E+03  0.7818608E-02  0.1396867E+00
          2   -1    0    0  502    0  0.00000000000E+00  0.00000000000E+00  0.71585965704E+03  0.71585965704E+03  0.00000000000E+00 0. -1.
          1   -1    0    0  501    0 -0.00000000000E+00 -0.00000000000E+00 -0.13313474029E+03  0.13313474029E+03  0.00000000000E+00 0. -1.
         25    2    1    2    0    0 -0.80006951937E+02  0.10387202017E+03  0.65078597060E+02  0.19248538471E+03  0.12499956239E+03 0.  0.
          2    1    1    2  501    0  0.49075235579E+02 -0.10117458360E+03 -0.23162766519E+02  0.11480935879E+03  0.00000000000E+00 0. -1.
          1    1    1    2  502    0  0.30931716358E+02 -0.26974365654E+01  0.54080908621E+03  0.54169965384E+03  0.00000000000E+00 0. -1.
         22    1    3    3    0    0  0.33478347082E+02  0.28467642575E+02  0.24525551500E+02  0.50326027794E+02  0.00000000000E+00 0. -1.
         22    1    3    3    0    0 -0.11348529902E+03  0.75404377591E+02  0.40553045560E+02  0.14215935691E+03  0.00000000000E+00 0. -1.
</event>
<event>
 7    1  0.5139898E-006  0.6632053E+02  0.7818608E-02  0.1379052E+00
          2   -1    0    0  502    0  0.00000000000E+00  0.00000000000E+00  0.51640984929E+03  0.51640984929E+03  0.00000000000E+00 0. -1.
          1   -1    0    0  501    0 -0.00000000000E+00 -0.00000000000E+00 -0.58686894746E+03  0.58686894746E+03  0.00000000000E+00 0. -1.
         25    2    1    2    0    0  0.11958590529E+03 -0.33666882187E+02  0.63438859540E-01  0.17623765976E+03  0.12500184397E+03 0.  0.
          2    1    1    2  501    0 -0.56456669500E+02  0.32227686482E+02 -0.49431441933E+03  0.49857068152E+03  0.00000000000E+00 0. -1.
          1    1    1    2  502    0 -0.63129235787E+02  0.14391957047E+01  0.42379188231E+03  0.42847045547E+03  0.00000000000E+00 0. -1.
         22    1    3    3    0    0  0.41404168715E+02 -0.32947342157E+01  0.60124933456E+02  0.73076453688E+02  0.00000000000E+00 0. -1.
         22    1    3    3    0    0  0.78181736572E+02 -0.30372147971E+02 -0.60061494597E+02  0.10316120608E+03  0.00000000000E+00 0. -1.
</event>
<event>
 7    1  0.5139898E-006  0.1908521E+03  0.7818608E-02  0.1185968E+00
          2   -1    0    0  502    0  0.00000000000E+00  0.00000000000E+00  0.19877020917E+03  0.19877020917E+03  0.00000000000E+00 0. -1.
          1   -1    0    0  501    0 -0.00000000000E+00 -0.00000000000E+00 -0.40977597331E+04  0.40977597331E+04  0.00000000000E+00 0. -1.
         25    2    1    2    0    0  0.10937747740E+03  0.16564145294E+03 -0.35790471315E+03  0.42792697814E+03  0.12500076573E+03 0.  0.
          2    1    1    2  501    0  0.26373547598E+02 -0.19186057386E+03 -0.36726479601E+04  0.36777505465E+04  0.00000000000E+00 0. -1.
          1    1    1    2  502    0 -0.13575102499E+03  0.26219120926E+02  0.13156314924E+03  0.19085241766E+03  0.00000000000E+00 0. -1.
         22    1    3    3    0    0  0.96183052157E+02  0.76881357069E+02 -0.29104962829E+03  0.31602501280E+03  0.00000000000E+00 0. -1.
         22    1    3    3    0    0  0.13194425239E+02  0.88760095870E+02 -0.66855084865E+02  0.11190196535E+03  0.00000000000E+00 0. -1.
</event>
<event>
 7    1  0.5139898E-006  0.3664247E+02  0.7818608E-02  0.1582824E+00
          2   -1    0    0  502    0  0.00000000000E+00  0.00000000000E+00  0.26921679371E+02  0.26921679371E+02  0.00000000000E+00 0. -1.
          1   -1    0    0  501    0 -0.00000000000E+00 -0.00000000000E+00 -0.10068311183E+04  0.10068311183E+04  0.00000000000E+00 0. -1.
         25    2    1    2    0    0 -0.22898784404E+02 -0.36026558421E+02 -0.32528568843E+03  0.35108052436E+03  0.12499795300E+03 0.  0.
          2    1    1    2  501    0  0.26948483406E+02 -0.58889306811E+00 -0.64367753236E+03  0.64424167299E+03  0.00000000000E+00 0. -1.
          1    1    1    2  502    0 -0.40496990023E+01  0.36615451489E+02 -0.10946218156E+02  0.38430600330E+02  0.00000000000E+00 0. -1.
         22    1    3    3    0    0 -0.40628146072E+02  0.34678699852E+02 -0.88925910314E+02  0.10373560624E+03  0.00000000000E+00 0. -1.
         22    1    3    3    0    0  0.17729361668E+02 -0.70705258273E+02 -0.23635977811E+03  0.24734491812E+03  0.00000000000E+00 0. -1.
</event>
<event>
 7    1  0.5139898E-006  0.1258314E+03  0.7818608E-02  0.1381627E+00
          2   -1    0    0  502    0  0.00000000000E+00  0.00000000000E+00  0.91214922528E+03  0.91214922528E+03  0.00000000000E+00 0. -1.
          1   -1    0    0  501    0 -0.00000000000E+00 -0.00000000000E+00 -0.10150244709E+03  0.10150244709E+03  0.00000000000E+00 0. -1.
         25    2    1    2    0    0 -0.12719056691E+03 -0.44971395758E+02  0.63246756063E+02  0.19448870009E+03  0.12500334221E+03 0.  0.
          2    1    1    2  501    0  0.10124271606E+03  0.64690353187E+02  0.66185710046E+02  0.13716952127E+03  0.00000000000E+00 0. -1.
          1    1    1    2  502    0  0.25947850845E+02 -0.19718957430E+02  0.68121431208E+03  0.68199345101E+03  0.00000000000E+00 0. -1.
         22    1    3    3    0    0  0.22211256377E+02  0.96808507279E+01  0.13867545805E+02  0.27917156147E+02  0.00000000000E+00 0.  1.
         22    1    3    3    0    0 -0.14940182328E+03 -0.54652246486E+02  0.49379210258E+02  0.16657154395E+03  0.00000000000E+00 0.  1.
</event>
<event>
 7    1  0.5139898E-006  0.7255477E+02  0.7818608E-02  0.1481277E+00
          2   -1    0    0  502    0  0.00000000000E+00  0.00000000000E+00  0.10278708442E+04  0.10278708442E+04  0.00000000000E+00 0. -1.
          1   -1    0    0  501    0 -0.00000000000E+00 -0.00000000000E+00 -0.40525053277E+03  0.40525053277E+03  0.00000000000E+00 0. -1.
         25    2    1    2    0    0  0.14149199603E+02  0.44106565549E+02 -0.85527207415E+02  0.15838130888E+03  0.12499658724E+03 0.  0.
          2    1    1    2  501    0  0.61631816275E+01  0.25847023078E+02 -0.28133142862E+03  0.28258348526E+03  0.00000000000E+00 0. -1.
          1    1    1    2  502    0 -0.20312381231E+02 -0.69953588627E+02  0.98947894742E+03  0.99215658279E+03  0.00000000000E+00 0. -1.
         22    1    3    3    0    0 -0.36742657806E+02  0.67485054817E+02 -0.42937215378E+02  0.88021929033E+02  0.00000000000E+00 0. -1.
         22    1    3    3    0    0  0.50891857409E+02 -0.23378489268E+02 -0.42589992037E+02  0.70359379849E+02  0.00000000000E+00 0. -1.
</event>
<event>
 7    1  0.5139898E-006  0.4878001E+02  0.7818608E-02  0.1544707E+00
          2   -1    0    0  502    0  0.00000000000E+00  0.00000000000E+00  0.46239481395E+03  0.46239481395E+03  0.00000000000E+00 0. -1.
          1   -1    0    0  501    0 -0.00000000000E+00 -0.00000000000E+00 -0.41712655682E+03  0.41712655682E+03  0.00000000000E+00 0. -1.
         25    2    1    2    0    0  0.19739186216E+01  0.30008891861E+02  0.17132405400E+02  0.12972156626E+03  0.12501894054E+03 0.  0.
          2    1    1    2  501    0  0.18451098180E+02 -0.45691947742E+02 -0.35871954700E+03  0.36208826343E+03  0.00000000000E+00 0. -1.
          1    1    1    2  502    0 -0.20425016802E+02  0.15683055881E+02  0.38685539873E+03  0.38771154107E+03  0.00000000000E+00 0. -1.
         22    1    3    3    0    0 -0.32734578261E+01  0.47011480081E+02  0.64064084310E+02  0.79529879190E+02  0.00000000000E+00 0. -1.
         22    1    3    3    0    0  0.52473764478E+01 -0.17002588219E+02 -0.46931678910E+02  0.50191687072E+02  0.00000000000E+00 0. -1.
</event>
<event>
 7    1  0.5139898E-006  0.8551748E+02  0.7818608E-02  0.1353884E+00
          2   -1    0    0  502    0  0.00000000000E+00  0.00000000000E+00  0.23534831091E+03  0.23534831091E+03  0.00000000000E+00 0. -1.
          1   -1    0    0  501    0 -0.00000000000E+00 -0.00000000000E+00 -0.14746046888E+04  0.14746046888E+04  0.00000000000E+00 0. -1.
         25    2    1    2    0    0 -0.71599089399E+02 -0.11539102036E+03 -0.23501121340E+03  0.29882593234E+03  0.12500060094E+03 0.  0.
          2    1    1    2  501    0  0.22383170419E+02  0.80408971227E+02 -0.12017261051E+04  0.12046212021E+04  0.00000000000E+00 0. -1.
          1    1    1    2  502    0  0.49215918979E+02  0.34982049129E+02  0.19748094064E+03  0.20650586519E+03  0.00000000000E+00 0. -1.
         22    1    3    3    0    0  0.27072529373E+02  0.64071809829E+01 -0.35558618373E+02  0.45148523291E+02  0.00000000000E+00 0. -1.
         22    1    3    3    0    0 -0.98671618772E+02 -0.12179820134E+03 -0.19945259502E+03  0.25367740905E+03  0.00000000000E+00 0. -1.
</event>
<event>
 7    1  0.5139898E-006  0.9963776E+02  0.7818608E-02  0.1436159E+00
          2   -1    0    0  502    0  0.00000000000E+00  0.00000000000E+00  0.21133234531E+04  0.21133234531E+04  0.00000000000E+00 0. -1.
          1   -1    0    0  501    0 -0.00000000000E+00 -0.00000000000E+00 -0.32795528058E+03  0.32795528058E+03  0.00000000000E+00 0. -1.
         25    2    1    2    0    0  0.72855830429E+02 -0.23069543325E+02  0.40342301664E+03  0.42920289899E+03  0.12499928918E+03 0.  0.
          2    1    1    2  501    0  0.26868136773E+02 -0.39628371145E+00 -0.31294287133E+03  0.31409440385E+03  0.00000000000E+00 0. -1.
          1    1    1    2  502    0 -0.99723967202E+02  0.23465827037E+02  0.16948880272E+04  0.16979814309E+04  0.00000000000E+00 0. -1.
         22    1    3    3    0    0  0.47969734282E+02  0.41006951052E+02  0.10122900683E+03  0.11928946837E+03  0.00000000000E+00 0.  1.
         22    1    3    3    0    0  0.24886096147E+02 -0.64076494377E+02  0.30219400981E+03  0.30991343062E+03  0.00000000000E+00 0.  1.
</event>
<event>
 7    1  0.5139898E-006  0.6784803E+02  0.7818608E-02  0.1378355E+00
          2   -1    0    0  502    0  0.00000000000E+00  0.00000000000E+00  0.30324088133E+03  0.30324088133E+03  0.00000000000E+00 0. -1.
          1   -1    0    0  501    0 -0.00000000000E+00 -0.00000000000E+00 -0.13028748248E+04  0.13028748248E+04  0.00000000000E+00 0. -1.
         25    2    1    2    0    0  0.17036001543E+02 -0.44041837587E+01 -0.21042683291E+03  0.24538471879E+03  0.12499834407E+03 0.  0.
          2    1    1    2  501    0 -0.57951110662E+02 -0.42280086867E+02 -0.10703830595E+04  0.10727841494E+04  0.00000000000E+00 0. -1.
          1    1    1    2  502    0  0.40915109119E+02  0.46684270626E+02  0.28117594893E+03  0.28794683804E+03  0.00000000000E+00 0. -1.
         22    1    3    3    0    0  0.13494539817E+02  0.59536003101E+02 -0.86249019019E+02  0.10566707885E+03  0.00000000000E+00 0.  1.
         22    1    3    3    0    0  0.35414617267E+01 -0.63940186860E+02 -0.12417781389E+03  0.13971763994E+03  0.00000000000E+00 0.  1.
</event>
<event>
 7    1  0.5139898E-006  0.1144754E+03  0.7818608E-02  0.1327759E+00
          2   -1    0    0  502    0  0.00000000000E+00  0.00000000000E+00  0.56695871699E+03  0.56695871699E+03  0.00000000000E+00 0. -1.
          1   -1    0    0  501    0 -0.00000000000E+00 -0.00000000000E+00 -0.35651798817E+03  0.35651798817E+03  0.00000000000E+00 0. -1.
         25    2    1    2    0    0 -0.54792614388E+02 -0.48255391232E+02  0.15022348889E+03  0.20862418595E+03  0.12500456381E+03 0.  0.
          2    1    1    2  501    0  0.11056565238E+03  0.38926682849E+02 -0.31463415436E+03  0.33575988624E+03  0.00000000000E+00 0. -1.
          1    1    1    2  502    0 -0.55773037991E+02  0.93287083838E+01  0.37485139429E+03  0.37909263296E+03  0.00000000000E+00 0. -1.
         22    1    3    3    0    0 -0.68679183656E+02 -0.65391351466E+02  0.15879907831E+03  0.18495947228E+03  0.00000000000E+00 0. -1.
         22    1    3    3    0    0  0.13886569267E+02  0.17135960234E+02 -0.85755894185E+01  0.23664713669E+02  0.00000000000E+00 0. -1.
</event>
<event>
 7    1  0.5139898E-006  0.6790440E+02  0.7818608E-02  0.1398546E+00
          2   -1    0    0  502    0  0.00000000000E+00  0.00000000000E+00  0.39763134281E+03  0.39763134281E+03  0.00000000000E+00 0. -1.
          1   -1    0    0  501    0 -0.00000000000E+00 -0.00000000000E+00 -0.14290705846E+03  0.14290705846E+03  0.00000000000E+00 0. -1.
         25    2    1    2    0    0  0.15760752011E+02 -0.29271101042E+02  0.40406050074E+02  0.13550557876E+03  0.12499565726E+03 0.  0.
          2    1    1    2  501    0 -0.68461031653E+02  0.30557175356E+02 -0.77889276827E+02  0.10810824791E+03  0.00000000000E+00 0. -1.
          1    1    1    2  502    0  0.52700279642E+02 -0.12860743135E+01  0.29220751110E+03  0.29692457460E+03  0.00000000000E+00 0. -1.
         22    1    3    3    0    0 -0.11416214735E+02  0.45740716150E+02  0.27807146834E+02  0.54733723497E+02  0.00000000000E+00 0.  1.
         22    1    3    3    0    0  0.27176966746E+02 -0.75011817192E+02  0.12598903239E+02  0.80771855264E+02  0.00000000000E+00 0.  1.
</event>
<event>
 7    1  0.5139898E-006  0.7319824E+02  0.7818608E-02  0.1419689E+00
          2   -1    0    0  502    0  0.00000000000E+00  0.00000000000E+00  0.45757168023E+03  0.45757168023E+03  0.00000000000E+00 0. -1.
          1   -1    0    0  501    0 -0.00000000000E+00 -0.00000000000E+00 -0.67260470460E+02  0.67260470460E+02  0.00000000000E+00 0. -1.
         25    2    1    2    0    0  0.14774011174E+02  0.90253151448E+02  0.13751614130E+03  0.20711096683E+03  0.12498144146E+03 0.  0.
          2    1    1    2  501    0 -0.35440230711E+02 -0.21509038337E+02 -0.12168916638E+02  0.43205684987E+02  0.00000000000E+00 0. -1.
          1    1    1    2  502    0  0.20666219537E+02 -0.68744113111E+02  0.26496398511E+03  0.27451549887E+03  0.00000000000E+00 0. -1.
         22    1    3    3    0    0  0.31237323687E+01  0.50580395119E+02 -0.11920146732E+02  0.52059811491E+02  0.00000000000E+00 0. -1.
         22    1    3    3    0    0  0.11650278806E+02  0.39672756329E+02  0.14943628803E+03  0.15505115534E+03  0.00000000000E+00 0. -1.
</event>
<event>
 7    1  0.5139898E-006  0.4724201E+02  0.7818608E-02  0.1476502E+00
          2   -1    0    0  502    0  0.00000000000E+00  0.00000000000E+00  0.19909197970E+03  0.19909197970E+03  0.00000000000E+00 0. -1.
          1   -1    0    0  501    0 -0.00000000000E+00 -0.00000000000E+00 -0.90751817948E+03  0.90751817948E+03  0.00000000000E+00 0. -1.
         25    2    1    2    0    0  0.19972093786E+02  0.44716900973E+02 -0.33697001273E+03  0.36272615395E+03  0.12499194981E+03 0.  0.
          2    1    1    2  501    0 -0.42116790350E+02 -0.28210052157E+01 -0.55383903010E+03  0.55544527486E+03  0.00000000000E+00 0. -1.
          1    1    1    2  502    0  0.22144696564E+02 -0.41895895757E+02  0.18238284305E+03  0.18843873037E+03  0.00000000000E+00 0. -1.
         22    1    3    3    0    0 -0.26709568680E+02  0.45228311314E+02 -0.51840198412E+02  0.73799778961E+02  0.00000000000E+00 0. -1.
         22    1    3    3    0    0  0.46681662466E+02 -0.51141034044E+00 -0.28512981432E+03  0.28892637499E+03  0.00000000000E+00 0. -1.
</event>
<event>
 7    1  0.5139898E-006  0.1580943E+03  0.7818608E-02  0.1409044E+00
          2   -1    0    0  502    0  0.00000000000E+00  0.00000000000E+00  0.84199838847E+03  0.84199838847E+03  0.00000000000E+00 0. -1.
          1   -1    0    0  501    0 -0.00000000000E+00 -0.00000000000E+00 -0.19907491384E+03  0.19907491384E+03  0.00000000000E+00 0. -1.
         25    2    1    2    0    0  0.76683770154E+02 -0.11638903652E+03  0.30645813319E+03  0.35912134922E+03  0.12499899056E+03 0.  0.
          2    1    1    2  501    0 -0.86967852065E+02  0.13452176645E+03 -0.13532828338E+03  0.20969801435E+03  0.00000000000E+00 0. -1.
          1    1    1    2  502    0  0.10284081911E+02 -0.18132729927E+02  0.47179362482E+03  0.47225393874E+03  0.00000000000E+00 0. -1.
         22    1    3    3    0    0 -0.14975339715E+02 -0.90132570179E+02  0.13678263286E+03  0.16449203525E+03  0.00000000000E+00 0. -1.
         22    1    3    3    0    0  0.91659109869E+02 -0.26256466340E+02  0.16967550032E+03  0.19462931397E+03  0.00000000000E+00 0. -1.
</event>
<event>
 7    1  0.5139898E-006  0.5901656E+02  0.7818608E-02  0.1424052E+00
          2   -1    0    0  502    0  0.00000000000E+00  0.00000000000E+00  0.25809219636E+03  0.25809219636E+03  0.00000000000E+00 0. -1.
          1   -1    0    0  501    0 -0.00000000000E+00 -0.00000000000E+00 -0.31310952376E+03  0.31310952376E+03  0.00000000000E+00 0. -1.
         25    2    1    2    0    0  0.49373680551E+02 -0.59868208564E+02  0.25862641745E+02  0.14937901157E+03  0.12499300033E+03 0.  0.
          2    1    1    2  501    0 -0.57947954081E+02  0.10886655037E+02 -0.24413934062E+03  0.25115832114E+03  0.00000000000E+00 0. -1.
          1    1    1    2  502    0  0.85742735304E+01  0.48981553527E+02  0.16325937148E+03  0.17066438741E+03  0.00000000000E+00 0. -1.
         22    1    3    3    0    0  0.84698243571E+01 -0.14887486870E+02 -0.49598663320E+02  0.52472874832E+02  0.00000000000E+00 0.  1.
         22    1    3    3    0    0  0.40903856194E+02 -0.44980721693E+02  0.75461305065E+02  0.96906136739E+02  0.00000000000E+00 0.  1.
</event>
<event>
 7    1  0.5139898E-006  0.6724927E+02  0.7818608E-02  0.1410792E+00
          2   -1    0    0  502    0  0.00000000000E+00  0.00000000000E+00  0.32979280260E+04  0.32979280260E+04  0.00000000000E+00 0. -1.
          1   -1    0    0  501    0 -0.00000000000E+00 -0.00000000000E+00 -0.84863161316E+01  0.84863161316E+01  0.00000000000E+00 0. -1.
         25    2    1    2    0    0  0.29583371898E+02  0.27472416621E+01  0.12062729904E+04  0.12130958673E+04  0.12499733100E+03 0.  0.
          2    1    1    2  501    0  0.39604564128E+02  0.27720985308E+02  0.13016477729E+03  0.13885187710E+03  0.00000000000E+00 0. -1.
          1    1    1    2  502    0 -0.69187936026E+02 -0.30468226970E+02  0.19530039422E+04  0.19544665977E+04  0.00000000000E+00 0. -1.
         22    1    3    3    0    0  0.45059592321E+02  0.55954752287E+02  0.59665468681E+03  0.60096432212E+03  0.00000000000E+00 0.  1.
         22    1    3    3    0    0 -0.15476220423E+02 -0.53207510625E+02  0.60961830357E+03  0.61213154521E+03  0.00000000000E+00 0.  1.
</event>
<event>
 7    1  0.1073789E-005  0.1034796E+03  0.7818608E-02  0.1390689E+00
          2   -1    0    0  502    0  0.00000000000E+00  0.00000000000E+00  0.12817206580E+04  0.12817206580E+04  0.00000000000E+00 0. -1.
          1   -1    0    0  501    0 -0.00000000000E+00 -0.00000000000E+00 -0.10149867673E+04  0.10149867673E+04  0.00000000000E+00 0. -1.
         25    2    1    2    0    0  0.79342602307E+02 -0.52025951919E+02 -0.51368307273E+03  0.53711127923E+03  0.12496511055E+03 0.  0.
          2    1    1    2  501    0  0.21763599094E+02  0.29713577131E+02 -0.48678245078E+03  0.48817384742E+03  0.00000000000E+00 0. -1.
          1    1    1    2  502    0 -0.10110620140E+03  0.22312374788E+02  0.12671994143E+04  0.12714222987E+04  0.00000000000E+00 0. -1.
         22    1    3    3    0    0  0.55291081627E+02 -0.92184691505E+02 -0.30966290995E+03  0.32778993099E+03  0.00000000000E+00 0.  1.
         22    1    3    3    0    0  0.24051520680E+02  0.40158739586E+02 -0.20402016277E+03  0.20932134824E+03  0.00000000000E+00 0.  1.
</event>
<event>
 7    1  0.5139898E-006  0.6139025E+02  0.7818608E-02  0.1416258E+00
          2   -1    0    0  502    0  0.00000000000E+00  0.00000000000E+00  0.96092728098E+03  0.96092728098E+03  0.00000000000E+00 0. -1.
          1   -1    0    0  501    0 -0.00000000000E+00 -0.00000000000E+00 -0.26072429383E+03  0.26072429383E+03  0.00000000000E+00 0. -1.
         25    2    1    2    0    0  0.99817163393E+02 -0.13806245243E+02  0.10058211542E+03  0.18946495274E+03  0.12500451136E+03 0.  0.
          2    1    1    2  501    0 -0.52003397470E+02  0.30836453018E+02 -0.21124875910E+03  0.21973001252E+03  0.00000000000E+00 0. -1.
          1    1    1    2  502    0 -0.47813765924E+02 -0.17030207775E+02  0.81086963083E+03  0.81245660955E+03  0.00000000000E+00 0. -1.
         22    1    3    3    0    0  0.74596146779E+02 -0.66441371718E+02  0.78550054273E+02  0.12707931388E+03  0.00000000000E+00 0.  1.
         22    1    3    3    0    0  0.25221016614E+02  0.52635126475E+02  0.22032061142E+02  0.62385638862E+02  0.00000000000E+00 0.  1.
</event>
<event>
 7    1  0.5139898E-006  0.1398532E+03  0.7818608E-02  0.1257487E+00
          2   -1    0    0  502    0  0.00000000000E+00  0.00000000000E+00  0.37173321528E+04  0.37173321528E+04  0.00000000000E+00 0. -1.
          1   -1    0    0  501    0 -0.00000000000E+00 -0.00000000000E+00 -0.12044284963E+03  0.12044284963E+03  0.00000000000E+00 0. -1.
         25    2    1    2    0    0 -0.92324637102E+02 -0.15675524286E+01  0.13697251385E+04  0.13785129465E+04  0.12499877122E+03 0.  0.
          2    1    1    2  501    0 -0.82122457921E+02  0.34782015145E+02 -0.95008534617E+02  0.13030927950E+03  0.00000000000E+00 0. -1.
          1    1    1    2  502    0  0.17444709502E+03 -0.33214462717E+02  0.23221726993E+04  0.23289527765E+04  0.00000000000E+00 0. -1.
         22    1    3    3    0    0 -0.23112012336E+02 -0.35894790873E+02  0.14003086601E+03  0.14639414114E+03  0.00000000000E+00 0.  1.
         22    1    3    3    0    0 -0.69212624766E+02  0.34327238445E+02  0.12296942725E+04  0.12321188054E+04  0.00000000000E+00 0.  1.
</event>
<event>
 7    1  0.5139898E-006  0.2145406E+03  0.7818608E-02  0.1189252E+00
          2   -1    0    0  502    0  0.00000000000E+00  0.00000000000E+00  0.18295030023E+04  0.18295030023E+04  0.00000000000E+00 0. -1.
          1   -1    0    0  501    0 -0.00000000000E+00 -0.00000000000E+00 -0.86887876346E+03  0.86887876346E+03  0.00000000000E+00 0. -1.
         25    2    1    2    0    0 -0.10498143298E+03  0.20781932212E+03  0.34412891411E+03  0.43388907045E+03  0.12500017603E+03 0.  0.
          2    1    1    2  501    0 -0.76556401688E+02 -0.90573946320E+02 -0.81155940209E+03  0.82017875217E+03  0.00000000000E+00 0. -1.
          1    1    1    2  502    0  0.18153783467E+03 -0.11724537580E+03  0.14280547268E+04  0.14443139431E+04  0.00000000000E+00 0. -1.
         22    1    3    3    0    0  0.18156551964E+02  0.97996605798E+01  0.32540949823E+01  0.20887385208E+02  0.00000000000E+00 0.  1.
         22    1    3    3    0    0 -0.12313798495E+03  0.19801966154E+03  0.34087481913E+03  0.41300168524E+03  0.00000000000E+00 0.  1.
</event>
<event>
 7    1  0.5139898E-006  0.6541124E+02  0.7818608E-02  0.1436467E+00
          2   -1    0    0  502    0  0.00000000000E+00  0.00000000000E+00  0.70510262155E+03  0.70510262155E+03  0.00000000000E+00 0. -1.
          1   -1    0    0  501    0 -0.00000000000E+00 -0.00000000000E+00 -0.16293794041E+03  0.16293794041E+03  0.00000000000E+00 0. -1.
         25    2    1    2    0    0 -0.36631579857E+02  0.34923685585E+02  0.33348019189E+02  0.13892503708E+03  0.12500615619E+03 0.  0.
          2    1    1    2  501    0  0.26998298782E+02  0.30638642960E+02 -0.10451745533E+03  0.11221200046E+03  0.00000000000E+00 0. -1.
          1    1    1    2  502    0  0.96332810746E+01 -0.65562328545E+02  0.61333411727E+03  0.61690352442E+03  0.00000000000E+00 0. -1.
         22    1    3    3    0    0 -0.12335092835E+02  0.54823134987E+02  0.70579062567E+02  0.90217153124E+02  0.00000000000E+00 0. -1.
         22    1    3    3    0    0 -0.24296487022E+02 -0.19899449402E+02 -0.37231043378E+02  0.48707883952E+02  0.00000000000E+00 0. -1.
</event>
<event>
 7    1  0.5139898E-006  0.6801875E+02  0.7818608E-02  0.1437566E+00
          2   -1    0    0  502    0  0.00000000000E+00  0.00000000000E+00  0.38289643859E+03  0.38289643859E+03  0.00000000000E+00 0. -1.
          1   -1    0    0  501    0 -0.00000000000E+00 -0.00000000000E+00 -0.28077488040E+04  0.28077488040E+04  0.00000000000E+00 0. -1.
         25    2    1    2    0    0 -0.41587742581E+02  0.18338208323E+02 -0.13199702037E+03  0.18738895835E+03  0.12500231241E+03 0.  0.
          2    1    1    2  501    0  0.35443627014E+01  0.38787130587E+02 -0.26445956235E+04  0.26448824200E+04  0.00000000000E+00 0. -1.
          1    1    1    2  502    0  0.38043379880E+02 -0.57125338909E+02  0.35174027842E+03  0.35837386423E+03  0.00000000000E+00 0. -1.
         22    1    3    3    0    0 -0.99492446804E+01 -0.51322713404E+02 -0.77383709922E+02  0.93387616643E+02  0.00000000000E+00 0. -1.
         22    1    3    3    0    0 -0.31638497900E+02  0.69660921727E+02 -0.54613310452E+02  0.94001341712E+02  0.00000000000E+00 0. -1.
</event>
<event>
 7    1  0.5139898E-006  0.4510839E+02  0.7818608E-02  0.1503874E+00
          2   -1    0    0  502    0  0.00000000000E+00  0.00000000000E+00  0.27368450543E+04  0.27368450543E+04  0.00000000000E+00 0. -1.
          1   -1    0    0  501    0 -0.00000000000E+00 -0.00000000000E+00 -0.19602776972E+03  0.19602776972E+03  0.00000000000E+00 0. -1.
         25    2    1    2    0    0  0.61195151242E+01 -0.71823251361E+02  0.23988940854E+03  0.27994146319E+03  0.12499706630E+03 0.  0.
          2    1    1    2  501    0  0.16090168633E+02  0.32800353822E+02 -0.17389996420E+03  0.17769624162E+03  0.00000000000E+00 0. -1.
          1    1    1    2  502    0 -0.22209683757E+02  0.39022897538E+02  0.24748278403E+04  0.24752351193E+04  0.00000000000E+00 0. -1.
         22    1    3    3    0    0  0.16638201936E+02  0.34048254763E+02  0.63871506233E+02  0.74267642513E+02  0.00000000000E+00 0.  1.
         22    1    3    3    0    0 -0.10518686812E+02 -0.10587150612E+03  0.17601790231E+03  0.20567382068E+03  0.00000000000E+00 0.  1.
</event>
<event>
 7    1  0.5139898E-006  0.1002611E+03  0.7818608E-02  0.1324508E+00
          2   -1    0    0  502    0  0.00000000000E+00  0.00000000000E+00  0.25208026740E+03  0.25208026740E+03  0.00000000000E+00 0. -1.
          1   -1    0    0  501    0 -0.00000000000E+00 -0.00000000000E+00 -0.20981567402E+04  0.20981567402E+04  0.00000000000E+00 0. -1.
         25    2    1    2    0    0 -0.43309822592E+02 -0.15884120396E+03 -0.15897200336E+03  0.26077574944E+03  0.12500249932E+03 0.  0.
          2    1    1    2  501    0  0.31623525932E+02  0.93427665380E+02 -0.18814685326E+04  0.18840521795E+04  0.00000000000E+00 0. -1.
          1    1    1    2  502    0  0.11686296660E+02  0.65413538579E+02  0.19436406313E+03  0.20540907865E+03  0.00000000000E+00 0. -1.
         22    1    3    3    0    0 -0.65431374063E+02 -0.92756276801E+02 -0.15344549987E+03  0.19086778939E+03  0.00000000000E+00 0. -1.
         22    1    3    3    0    0  0.22121551471E+02 -0.66084927159E+02 -0.55265034905E+01  0.69907960046E+02  0.00000000000E+00 0. -1.
</event>
<event>
 7    1  0.5139898E-006  0.7419888E+02  0.7818608E-02  0.1509253E+00
          2   -1    0    0  502    0  0.00000000000E+00  0.00000000000E+00  0.20754991342E+04  0.20754991342E+04  0.00000000000E+00 0. -1.
          1   -1    0    0  501    0 -0.00000000000E+00 -0.00000000000E+00 -0.29980277515E+03  0.29980277515E+03  0.00000000000E+00 0. -1.
         25    2    1    2    0    0  0.74227795190E+02 -0.22376159921E+01  0.44772385706E+03  0.47074048499E+03  0.12500071808E+03 0.  0.
          2    1    1    2  501    0 -0.22998607366E+01  0.21287910674E+02 -0.28703912096E+03  0.28783662287E+03  0.00000000000E+00 0. -1.
          1    1    1    2  502    0 -0.71927934454E+02 -0.19050294682E+02  0.16150116230E+04  0.16167248015E+04  0.00000000000E+00 0. -1.
         22    1    3    3    0    0  0.80939227317E+02 -0.48904365074E+02  0.24526317529E+03  0.26286274098E+03  0.00000000000E+00 0.  1.
         22    1    3    3    0    0 -0.67114321270E+01  0.46666749082E+02  0.20246068177E+03  0.20787774401E+03  0.00000000000E+00 0.  1.
</event>
<event>
 7    1  0.5139898E-006  0.2189216E+03  0.7818608E-02  0.1258834E+00
          2   -1    0    0  502    0  0.00000000000E+00  0.00000000000E+00  0.12559258977E+04  0.12559258977E+04  0.00000000000E+00 0. -1.
          1   -1    0    0  501    0 -0.00000000000E+00 -0.00000000000E+00 -0.12348803297E+03  0.12348803297E+03  0.00000000000E+00 0. -1.
         25    2    1    2    0    0 -0.24836778126E+03 -0.70063499511E+02  0.33558762552E+03  0.44140518273E+03  0.12499612879E+03 0.  0.
          2    1    1    2  501    0  0.55060476446E+02 -0.11371940722E+02 -0.43997848136E+02  0.71391790444E+02  0.00000000000E+00 0. -1.
          1    1    1    2  502    0  0.19330730481E+03  0.81435440233E+02  0.84084808736E+03  0.86661695750E+03  0.00000000000E+00 0. -1.
         22    1    3    3    0    0 -0.47597867978E+02 -0.65701439135E+02  0.62416675493E+02  0.10236248102E+03  0.00000000000E+00 0.  1.
         22    1    3    3    0    0 -0.20076991328E+03 -0.43620603762E+01  0.27317095002E+03  0.33904270172E+03  0.00000000000E+00 0.  1.
</event>
<event>
 7    1  0.5139898E-006  0.1150298E+03  0.7818608E-02  0.1279953E+00
          2   -1    0    0  502    0  0.00000000000E+00  0.00000000000E+00  0.72919536888E+03  0.72919536888E+03  0.00000000000E+00 0. -1.
          1   -1    0    0  501    0 -0.00000000000E+00 -0.00000000000E+00 -0.18681064322E+03  0.18681064322E+03  0.00000000000E+00 0. -1.
         25    2    1    2    0    0  0.17221211316E+03  0.15737545688E+02  0.11083001701E+03  0.24044578614E+03  0.12500480447E+03 0.  0.
          2    1    1    2  501    0 -0.10236447559E+03  0.36496040248E+02 -0.93468661764E+02  0.14334168113E+03  0.00000000000E+00 0. -1.
          1    1    1    2  502    0 -0.69847637567E+02 -0.52233585936E+02  0.52502337042E+03  0.53221854483E+03  0.00000000000E+00 0. -1.
         22    1    3    3    0    0  0.17692250569E+02  0.50147418381E+02  0.14433245346E+02  0.55100797378E+02  0.00000000000E+00 0.  1.
         22    1    3    3    0    0  0.15451986259E+03 -0.34409872694E+02  0.96396771660E+02  0.18534498877E+03  0.00000000000E+00 0.  1.
</event>
<event>
 7    1  0.5139898E-006  0.1047422E+03  0.7818608E-02  0.1445768E+00
          2   -1    0    0  502    0  0.00000000000E+00  0.00000000000E+00  0.72015761720E+03  0.72015761720E+03  0.00000000000E+00 0. -1.
          1   -1    0    0  501    0 -0.00000000000E+00 -0.00000000000E+00 -0.23381303036E+03  0.23381303036E+03  0.00000000000E+00 0. -1.
         25    2    1    2    0    0 -0.55028823415E+02 -0.11449010964E+03  0.17759565936E+03  0.25160008273E+03  0.12500490709E+03 0.  0.
          2    1    1    2  501    0  0.46505686562E+02  0.92276252199E+02 -0.18293991156E+03  0.21010639411E+03  0.00000000000E+00 0. -1.
          1    1    1    2  502    0  0.85231368529E+01  0.22213857444E+02  0.49168883905E+03  0.49226417071E+03  0.00000000000E+00 0. -1.
         22    1    3    3    0    0  0.18967581186E+02 -0.17402277859E+02 -0.10140213255E+02  0.27666447831E+02  0.00000000000E+00 0. -1.
         22    1    3    3    0    0 -0.73996404602E+02 -0.97087831784E+02  0.18773587261E+03  0.22393363490E+03  0.00000000000E+00 0. -1.
</event>
<event>
 7    1  0.5139898E-006  0.1117519E+03  0.7818608E-02  0.1413825E+00
          2   -1    0    0  502    0  0.00000000000E+00  0.00000000000E+00  0.18257701763E+04  0.18257701763E+04  0.00000000000E+00 0. -1.
          1   -1    0    0  501    0 -0.00000000000E+00 -0.00000000000E+00 -0.28415265292E+03  0.28415265292E+03  0.00000000000E+00 0. -1.
         25    2    1    2    0    0 -0.56580905408E+02 -0.68073451669E+02 -0.53693379372E+02  0.16230749785E+03  0.12500140476E+03 0.  0.
          2    1    1    2  501    0 -0.27818062630E+02 -0.57837667974E+01 -0.17321854882E+03  0.17553336498E+03  0.00000000000E+00 0. -1.
          1    1    1    2  502    0  0.84398968039E+02  0.73857218467E+02  0.17685294516E+04  0.17720819664E+04  0.00000000000E+00 0. -1.
         22    1    3    3    0    0 -0.25181135023E+02 -0.13317589228E+01 -0.80091118881E+02  0.83966960565E+02  0.00000000000E+00 0.  1.
         22    1    3    3    0    0 -0.31399770386E+02 -0.66741692746E+02  0.26397739509E+02  0.78340537285E+02  0.00000000000E+00 0.  1.
</event>
<event>
 7    1  0.5139898E-006  0.6342980E+02  0.7818608E-02  0.1460813E+00
          2   -1    0    0  502    0  0.00000000000E+00  0.00000000000E+00  0.12133830665E+04  0.12133830665E+04  0.00000000000E+00 0. -1.
          1   -1    0    0  501    0 -0.00000000000E+00 -0.00000000000E+00 -0.37588359171E+02  0.37588359171E+02  0.00000000000E+00 0. -1.
         25    2    1    2    0    0 -0.17567016904E+02  0.38962776668E+02  0.77797097878E+03  0.78910680833E+03  0.12499605224E+03 0.  0.
          2    1    1    2  501    0  0.52711306671E+02 -0.37267880099E+02  0.21099812723E+01  0.64589695456E+02  0.00000000000E+00 0. -1.
          1    1    1    2  502    0 -0.35144289767E+02 -0.16948965685E+01  0.39571374724E+03  0.39727492185E+03  0.00000000000E+00 0. -1.
         22    1    3    3    0    0  0.40837017012E+02  0.53631048565E+02  0.30777493830E+03  0.31507041113E+03  0.00000000000E+00 0.  1.
         22    1    3    3    0    0 -0.58404033916E+02 -0.14668271897E+02  0.47019604048E+03  0.47403639719E+03  0.00000000000E+00 0.  1.
</event>
<event>
 7    1  0.5139898E-006  0.6263972E+02  0.7818608E-02  0.1487605E+00
          2   -1    0    0  502    0  0.00000000000E+00  0.00000000000E+00  0.21466093635E+04  0.21466093635E+04  0.00000000000E+00 0. -1.
          1   -1    0    0  501    0 -0.00000000000E+00 -0.00000000000E+00 -0.21426269612E+04  0.21426269612E+04  0.00000000000E+00 0. -1.
         25    2    1    2    0    0  0.21453048585E+02  0.26716251098E+02  0.13374380504E+02  0.13029750790E+03  0.12499830057E+03 0.  0.
          2    1    1    2  501    0 -0.31377516087E+02 -0.54433339496E+02 -0.20835873976E+04  0.20845344757E+04  0.00000000000E+00 0. -1.
          1    1    1    2  502    0  0.99244675018E+01  0.27717088398E+02  0.20741954195E+04  0.20744043411E+04  0.00000000000E+00 0. -1.
         22    1    3    3    0    0  0.51068560601E+01  0.45527051276E+02  0.61153149972E+02  0.76410078709E+02  0.00000000000E+00 0.  1.
         22    1    3    3    0    0  0.16346192525E+02 -0.18810800178E+02 -0.47778769468E+02  0.53887429196E+02  0.00000000000E+00 0.  1.
</event>
<event>
 7    1  0.5139898E-006  0.1919632E+03  0.7818608E-02  0.1382053E+00
          2   -1    0    0  502    0  0.00000000000E+00  0.00000000000E+00  0.11435121043E+04  0.11435121043E+04  0.00000000000E+00 0. -1.
          1   -1    0    0  501    0 -0.00000000000E+00 -0.00000000000E+00 -0.15254513987E+03  0.15254513987E+03  0.00000000000E+00 0. -1.
         25    2    1    2    0    0  0.96407999593E+02 -0.14529617999E+03  0.12585775385E+03  0.24873578481E+03  0.12499533645E+03 0.  0.
          2    1    1    2  501    0  0.60384335893E+01 -0.20414636532E+02 -0.79772363483E+02  0.82564217677E+02  0.00000000000E+00 0. -1.
          1    1    1    2  502    0 -0.10244643318E+03  0.16571081652E+03  0.94488157409E+03  0.96475724171E+03  0.00000000000E+00 0. -1.
         22    1    3    3    0    0 -0.27056288165E+02 -0.24936475796E+02  0.45472712761E+02  0.58494770367E+02  0.00000000000E+00 0. -1.
         22    1    3    3    0    0  0.12346428776E+03 -0.12035970419E+03  0.80385041093E+02  0.19024101444E+03  0.00000000000E+00 0. -1.
</event>
<event>
 7    1  0.5139898E-006  0.4958571E+02  0.7818608E-02  0.1450268E+00
          2   -1    0    0  502    0  0.00000000000E+00  0.00000000000E+00  0.38432495763E+03  0.38432495763E+03  0.00000000000E+00 0. -1.
          1   -1    0    0  501    0 -0.00000000000E+00 -0.00000000000E+00 -0.83475275072E+03  0.83475275072E+03  0.00000000000E+00 0. -1.
         25    2    1    2    0    0  0.95479822262E-01  0.12448162907E+02 -0.13586190077E+03  0.18506063861E+03  0.12503606682E+03 0.  0.
          2    1    1    2  501    0 -0.49565911940E+02 -0.90689266137E+01 -0.67163445762E+03  0.67352198904E+03  0.00000000000E+00 0. -1.
          1    1    1    2  502    0  0.49470432118E+02 -0.33792362931E+01  0.35706856530E+03  0.36049508071E+03  0.00000000000E+00 0. -1.
         22    1    3    3    0    0  0.42597263174E+02 -0.39802863522E+02 -0.62673925811E+02  0.85596820917E+02  0.00000000000E+00 0.  1.
         22    1    3    3    0    0 -0.42501783352E+02  0.52251026429E+02 -0.73187974959E+02  0.99463817691E+02  0.00000000000E+00 0.  1.
</event>
<event>
 7    1  0.5139898E-006  0.1476124E+03  0.7818608E-02  0.1276359E+00
          2   -1    0    0  502    0  0.00000000000E+00  0.00000000000E+00  0.77447265616E+03  0.77447265616E+03  0.00000000000E+00 0. -1.
          1   -1    0    0  501    0 -0.00000000000E+00 -0.00000000000E+00 -0.11611307434E+04  0.11611307434E+04  0.00000000000E+00 0. -1.
         25    2    1    2    0    0 -0.11707241204E+03  0.29235991660E+02  0.15431990523E+03  0.23237891602E+03  0.12499853837E+03 0.  0.
          2    1    1    2  501    0 -0.37603628011E+02 -0.59442800609E+02 -0.11102828723E+04  0.11125086678E+04  0.00000000000E+00 0. -1.
          1    1    1    2  502    0  0.15467604005E+03  0.30206808949E+02  0.56930487988E+03  0.59071581571E+03  0.00000000000E+00 0. -1.
         22    1    3    3    0    0  0.19844686714E+01 -0.18947388262E+02 -0.11791309912E+02  0.22404834909E+02  0.00000000000E+00 0. -1.
         22    1    3    3    0    0 -0.11905688071E+03  0.48183379922E+02  0.16611121514E+03  0.20997408111E+03  0.00000000000E+00 0. -1.
</event>
<event>
 7    1  0.5139898E-006  0.8160392E+02  0.7818608E-02  0.1346060E+00
          2   -1    0    0  502    0  0.00000000000E+00  0.00000000000E+00  0.53311994450E+03  0.53311994450E+03  0.00000000000E+00 0. -1.
          1   -1    0    0  501    0 -0.00000000000E+00 -0.00000000000E+00 -0.98509989811E+03  0.98509989811E+03  0.00000000000E+00 0. -1.
         25    2    1    2    0    0  0.51718176338E+02  0.12087473591E+02  0.10697764161E+02  0.13623793965E+03  0.12500182903E+03 0.  0.
          2    1    1    2  501    0  0.13275134059E+02 -0.66330214981E+02 -0.91717589038E+03  0.91966708134E+03  0.00000000000E+00 0. -1.
          1    1    1    2  502    0 -0.64993310397E+02  0.54242741390E+02  0.45449817261E+03  0.46231482163E+03  0.00000000000E+00 0. -1.
         22    1    3    3    0    0  0.79036739445E+02  0.35992461077E+02 -0.19511867047E+02  0.89011102634E+02  0.00000000000E+00 0. -1.
         22    1    3    3    0    0 -0.27318563107E+02 -0.23904987486E+02  0.30209631208E+02  0.47226837017E+02  0.00000000000E+00 0. -1.
</event>
<event>
 7    1  0.5139898E-006  0.5697941E+02  0.7818608E-02  0.1412313E+00
          2   -1    0    0  502    0  0.00000000000E+00  0.00000000000E+00  0.24909341672E+03  0.24909341672E+03  0.00000000000E+00 0. -1.
          1   -1    0    0  501    0 -0.00000000000E+00 -0.00000000000E+00 -0.13883775519E+03  0.13883775519E+03  0.00000000000E+00 0. -1.
         25    2    1    2    0    0  0.33508541319E+02 -0.28401463711E+02  0.10018214412E+03  0.16610550160E+03  0.12500044071E+03 0.  0.
          2    1    1    2  501    0 -0.54427849650E+02 -0.23958055717E+02 -0.89465539201E+02  0.10742654214E+03  0.00000000000E+00 0. -1.
          1    1    1    2  502    0  0.20919308331E+02  0.52359519428E+02  0.99539056613E+02  0.11439912818E+03  0.00000000000E+00 0. -1.
         22    1    3    3    0    0  0.51327456952E+02 -0.64421281772E+02  0.94759991907E+02  0.12555502956E+03  0.00000000000E+00 0.  1.
         22    1    3    3    0    0 -0.17818915634E+02  0.36019818060E+02  0.54221522125E+01  0.40550472033E+02  0.00000000000E+00 0.  1.
</event>
<event>
 7    1  0.5139898E-006  0.1182830E+03  0.7818608E-02  0.1409232E+00
          2   -1    0    0  502    0  0.00000000000E+00  0.00000000000E+00  0.80900608151E+03  0.80900608151E+03  0.00000000000E+00 0. -1.
          1   -1    0    0  501    0 -0.00000000000E+00 -0.00000000000E+00 -0.57973712706E+02  0.57973712706E+02  0.00000000000E+00 0. -1.
         25    2    1    2    0    0 -0.12342881592E+03  0.55561190866E+02  0.19070080939E+03  0.26516581262E+03  0.12499756378E+03 0.  0.
          2    1    1    2  501    0  0.97386009391E+02 -0.45773393185E+02  0.12230235665E+03  0.16290213256E+03  0.00000000000E+00 0. -1.
          1    1    1    2  502    0  0.26042806527E+02 -0.97877976811E+01  0.43802920277E+03  0.43891184904E+03  0.00000000000E+00 0. -1.
         22    1    3    3    0    0 -0.13723694019E+02 -0.23956808975E+02 -0.40644880141E+01  0.27906782986E+02  0.00000000000E+00 0. -1.
         22    1    3    3    0    0 -0.10970512190E+03  0.79517999841E+02  0.19476529740E+03  0.23725902963E+03  0.00000000000E+00 0. -1.
</event>
<event>
 7    1  0.5139898E-006  0.1870177E+03  0.7818608E-02  0.1306930E+00
          2   -1    0    0  502    0  0.00000000000E+00  0.00000000000E+00  0.16450457990E+04  0.16450457990E+04  0.00000000000E+00 0. -1.
          1   -1    0    0  501    0 -0.00000000000E+00 -0.00000000000E+00 -0.28556263355E+03  0.28556263355E+03  0.00000000000E+00 0. -1.
         25    2    1    2    0    0  0.26823868557E+02  0.16263086718E+03  0.63037009702E+02  0.21626018746E+03  0.12500594067E+03 0.  0.
          2    1    1    2  501    0 -0.62325101184E+02 -0.18455509176E+03 -0.16318865418E+03  0.25411717177E+03  0.00000000000E+00 0. -1.
          1    1    1    2  502    0  0.35501232626E+02  0.21924224587E+02  0.14596348099E+04  0.14602310733E+04  0.00000000000E+00 0. -1.
         22    1    3    3    0    0 -0.50451267311E+01  0.15970354025E+03  0.81442329324E+02  0.17934192783E+03  0.00000000000E+00 0. -1.
         22    1    3    3    0    0  0.31868995289E+02  0.29273269285E+01 -0.18405319622E+02  0.36918259629E+02  0.00000000000E+00 0. -1.
</event>
<event>
 7    1  0.5139898E-006  0.5484564E+02  0.7818608E-02  0.1533104E+00
          2   -1    0    0  502    0  0.00000000000E+00  0.00000000000E+00  0.92062676449E+01  0.92062676449E+01  0.00000000000E+00 0. -1.
          1   -1    0    0  501    0 -0.00000000000E+00 -0.00000000000E+00 -0.24510864077E+04  0.24510864077E+04  0.00000000000E+00 0. -1.
         25    2    1    2    0    0  0.56380053932E+02 -0.36126496367E+02 -0.12440357236E+04  0.12520917279E+04  0.12499991752E+03 0.  0.
          2    1    1    2  501    0 -0.23766811284E+02 -0.67363763241E+01 -0.10588215045E+04  0.10591096348E+04  0.00000000000E+00 0. -1.
          1    1    1    2  502    0 -0.32613242648E+02  0.42862872691E+02 -0.13902291199E+03  0.14909131266E+03  0.00000000000E+00 0. -1.
         22    1    3    3    0    0  0.62617744007E+02  0.31638607575E+02 -0.77111624505E+03  0.77430113440E+03  0.00000000000E+00 0. -1.
         22    1    3    3    0    0 -0.62376900747E+01 -0.67765103942E+02 -0.47291947854E+03  0.47779059353E+03  0.00000000000E+00 0. -1.
</event>
<event>
 7    1  0.5139898E-006  0.1133433E+03  0.7818608E-02  0.1316525E+00
          2   -1    0    0  502    0  0.00000000000E+00  0.00000000000E+00  0.28803938453E+04  0.28803938453E+04  0.00000000000E+00 0. -1.
          1   -1    0    0  501    0 -0.00000000000E+00 -0.00000000000E+00 -0.57879934858E+03  0.57879934858E+03  0.00000000000E+00 0. -1.
         25    2    1    2    0    0 -0.13902477937E+03 -0.45114819563E+02  0.12570930941E+04  0.12717185471E+04  0.12498711694E+03 0.  0.
          2    1    1    2  501    0  0.11259432053E+03 -0.12206800282E+02 -0.56525098106E+03  0.57648517637E+03  0.00000000000E+00 0. -1.
          1    1    1    2  502    0  0.26430458838E+02  0.57321619845E+02  0.16097523837E+04  0.16109894705E+04  0.00000000000E+00 0. -1.
         22    1    3    3    0    0 -0.13827364319E+03 -0.36185818281E+02  0.12541774784E+04  0.12622955919E+04  0.00000000000E+00 0.  1.
         22    1    3    3    0    0 -0.75113618156E+00 -0.89290012820E+01  0.29156156862E+01  0.94229551780E+01  0.00000000000E+00 0.  1.
</event>
<event>
 7    1  0.5139898E-006  0.8684324E+02  0.7818608E-02  0.1369192E+00
          2   -1    0    0  502    0  0.00000000000E+00  0.00000000000E+00  0.52239962817E+03  0.52239962817E+03  0.00000000000E+00 0. -1.
          1   -1    0    0  501    0 -0.00000000000E+00 -0.00000000000E+00 -0.11490152669E+03  0.11490152669E+03  0.00000000000E+00 0. -1.
         25    2    1    2    0    0 -0.24166246636E+02  0.60722761981E+02  0.60709660612E+02  0.15356803904E+03  0.12500487360E+03 0.  0.
          2    1    1    2  501    0 -0.15262248417E+02 -0.95080709332E+02 -0.31904959877E+02  0.10144557151E+03  0.00000000000E+00 0. -1.
          1    1    1    2  502    0  0.39428495053E+02  0.34357947351E+02  0.37869340075E+03  0.38228754431E+03  0.00000000000E+00 0. -1.
         22    1    3    3    0    0  0.17646524144E+01 -0.35696911901E+02 -0.17709896182E+01  0.35784353028E+02  0.00000000000E+00 0.  1.
         22    1    3    3    0    0 -0.25930899051E+02  0.96419673882E+02  0.62480650230E+02  0.11778368601E+03  0.00000000000E+00 0.  1.
</event>
<event>
 7    1  0.5139898E-006  0.5361755E+02  0.7818608E-02  0.1445475E+00
          2   -1    0    0  502    0  0.00000000000E+00  0.00000000000E+00  0.10127669510E+04  0.10127669510E+04  0.00000000000E+00 0. -1.
          1   -1    0    0  501    0 -0.00000000000E+00 -0.00000000000E+00 -0.33887634524E+03  0.33887634524E+03  0.00000000000E+00 0. -1.
         25    2    1    2    0    0  0.15696558946E+02  0.36875828375E+02  0.68511970245E+02  0.14806966293E+03  0.12499810532E+03 0.  0.
          2    1    1    2  501    0 -0.53475024012E+02 -0.96262872669E+01 -0.29602353143E+03  0.30096872721E+03  0.00000000000E+00 0. -1.
          1    1    1    2  502    0  0.37778465066E+02 -0.27249541108E+02  0.90140216698E+03  0.90260490612E+03  0.00000000000E+00 0. -1.
         22    1    3    3    0    0 -0.43226047238E+02  0.34825089773E+02 -0.27531819512E+01  0.55577495881E+02  0.00000000000E+00 0.  1.
         22    1    3    3    0    0  0.58922606184E+02  0.20507386023E+01  0.71265152197E+02  0.92492167052E+02  0.00000000000E+00 0.  1.
</event>
<event>
 7    1  0.5139898E-006  0.1098054E+03  0.7818608E-02  0.1292794E+00
          2   -1    0    0  502    0  0.00000000000E+00  0.00000000000E+00  0.24514213984E+04  0.24514213984E+04  0.00000000000E+00 0. -1.
          1   -1    0    0  501    0 -0.00000000000E+00 -0.00000000000E+00 -0.49965004589E+03  0.49965004589E+03  0.00000000000E+00 0. -1.
         25    2    1    2    0    0 -0.10265013127E+01  0.14750685560E+03  0.64633445738E+03  0.67463349231E+03  0.12499116767E+03 0.  0.
          2    1    1    2  501    0  0.59858995685E+02 -0.91891091917E+02 -0.47837754694E+03  0.49078727526E+03  0.00000000000E+00 0. -1.
          1    1    1    2  502    0 -0.58832494372E+02 -0.55615763680E+02  0.17838144421E+04  0.17856506768E+04  0.00000000000E+00 0. -1.
         22    1    3    3    0    0  0.45410990237E+02  0.60918237677E+02  0.14437608314E+03  0.16314914373E+03  0.00000000000E+00 0.  1.
         22    1    3    3    0    0 -0.46437491550E+02  0.86588617921E+02  0.50195837424E+03  0.51148434858E+03  0.00000000000E+00 0.  1.
</event>
<event>
 7    1  0.5139898E-006  0.1264182E+03  0.7818608E-02  0.1413944E+00
          2   -1    0    0  502    0  0.00000000000E+00  0.00000000000E+00  0.70118405589E+03  0.70118405589E+03  0.00000000000E+00 0. -1.
          1   -1    0    0  501    0 -0.00000000000E+00 -0.00000000000E+00 -0.66294400862E+03  0.66294400862E+03  0.00000000000E+00 0. -1.
         25    2    1    2    0    0 -0.14414889028E+03  0.35786462160E+02 -0.96227201704E+02  0.21666703180E+03  0.12500141950E+03 0.  0.
          2    1    1    2  501    0  0.24860351176E+02  0.34132142552E+01 -0.50002977064E+03  0.50065902430E+03  0.00000000000E+00 0. -1.
          1    1    1    2  502    0  0.11928853911E+03 -0.39199676415E+02  0.63449701961E+03  0.64680200841E+03  0.00000000000E+00 0. -1.
         22    1    3    3    0    0 -0.11109950407E+03 -0.29932133504E+02 -0.33085425394E+02  0.11972333855E+03  0.00000000000E+00 0.  1.
         22    1    3    3    0    0 -0.33049386213E+02  0.65718595664E+02 -0.63141776309E+02  0.96943693248E+02  0.00000000000E+00 0.  1.
</event>
<event>
 7    1  0.5139898E-006  0.5954392E+02  0.7818608E-02  0.1484478E+00
          2   -1    0    0  502    0  0.00000000000E+00  0.00000000000E+00  0.80741589512E+03  0.80741589512E+03  0.00000000000E+00 0. -1.
          1   -1    0    0  501    0 -0.00000000000E+00 -0.00000000000E+00 -0.52934936282E+03  0.52934936282E+03  0.00000000000E+00 0. -1.
         25    2    1    2    0    0  0.72780262087E+02 -0.53018267806E+02  0.35730965784E+03  0.38910549867E+03  0.12499997696E+03 0.  0.
          2    1    1    2  501    0 -0.43927181444E+02  0.39993111672E+02 -0.51115190927E+03  0.51459238296E+03  0.00000000000E+00 0. -1.
          1    1    1    2  502    0 -0.28853080643E+02  0.13025156134E+02  0.43190878374E+03  0.43306737631E+03  0.00000000000E+00 0. -1.
         22    1    3    3    0    0  0.35865549878E+02 -0.92306905057E+02  0.25294113273E+03  0.27163600463E+03  0.00000000000E+00 0.  1.
         22    1    3    3    0    0  0.36914712209E+02  0.39288637251E+02  0.10436852511E+03  0.11746949403E+03  0.00000000000E+00 0.  1.
</event>
<event>
 7    1  0.5139898E-006  0.7838317E+02  0.7818608E-02  0.1423730E+00
          2   -1    0    0  502    0  0.00000000000E+00  0.00000000000E+00  0.14832073001E+04  0.14832073001E+04  0.00000000000E+00 0. -1.
          1   -1    0    0  501    0 -0.00000000000E+00 -0.00000000000E+00 -0.26402971488E+04  0.26402971488E+04  0.00000000000E+00 0. -1.
         25    2    1    2    0    0 -0.40087318313E+02 -0.51652139885E+02  0.35316369218E+03  0.38029485660E+03  0.12499859133E+03 0.  0.
          2    1    1    2  501    0  0.12753273557E+02  0.77372497829E+02 -0.26258306526E+04  0.26270012877E+04  0.00000000000E+00 0. -1.
          1    1    1    2  502    0  0.27334044756E+02 -0.25720357944E+02  0.11155771118E+04  0.11162083045E+04  0.00000000000E+00 0. -1.
         22    1    3    3    0    0  0.37997841160E+02 -0.25485623552E+02  0.58089734312E+02  0.73944372153E+02  0.00000000000E+00 0.  1.
         22    1    3    3    0    0 -0.78085159473E+02 -0.26166516333E+02  0.29507395787E+03  0.30635048445E+03  0.00000000000E+00 0.  1.
</event>
<event>
 7    1  0.5139898E-006  0.5305114E+02  0.7818608E-02  0.1438291E+00
          2   -1    0    0  502    0  0.00000000000E+00  0.00000000000E+00  0.43078864791E+03  0.43078864791E+03  0.00000000000E+00 0. -1.
          1   -1    0    0  501    0 -0.00000000000E+00 -0.00000000000E+00 -0.54624607775E+03  0.54624607775E+03  0.00000000000E+00 0. -1.
         25    2    1    2    0    0  0.78013369867E+02 -0.33131530629E+02  0.20147646643E+02  0.15236312169E+03  0.12499923594E+03 0.  0.
          2    1    1    2  501    0 -0.51942992170E+02 -0.91428950149E+01 -0.47688699331E+03  0.47979461372E+03  0.00000000000E+00 0. -1.
          1    1    1    2  502    0 -0.26070377697E+02  0.42274425644E+02  0.34128191682E+03  0.34487699025E+03  0.00000000000E+00 0. -1.
         22    1    3    3    0    0  0.19559502787E+02  0.42186620488E+02 -0.17742152080E+02  0.49770162325E+02  0.00000000000E+00 0.  1.
         22    1    3    3    0    0  0.58453867080E+02 -0.75318151117E+02  0.37889798724E+02  0.10259295937E+03  0.00000000000E+00 0.  1.
</event>
<event>
 7    1  0.5139898E-006  0.3681420E+02  0.7818608E-02  0.1535890E+00
          2   -1    0    0  502    0  0.00000000000E+00  0.00000000000E+00  0.12751868084E+04  0.12751868084E+04  0.00000000000E+00 0. -1.
          1   -1    0    0  501    0 -0.00000000000E+00 -0.00000000000E+00 -0.29374694927E+02  0.29374694927E+02  0.00000000000E+00 0. -1.
         25    2    1    2    0    0  0.72644309352E+01  0.12729102570E+02  0.16390451719E+03  0.20665268574E+03  0.12500335898E+03 0.  0.
          2    1    1    2  501    0  0.12855644747E+02 -0.43558767433E+02  0.59567398981E+02  0.74906000050E+02  0.00000000000E+00 0. -1.
          1    1    1    2  502    0 -0.20120075682E+02  0.30829664863E+02  0.10223401973E+04  0.10230028175E+04  0.00000000000E+00 0. -1.
         22    1    3    3    0    0 -0.19849710115E+02  0.64447322110E+02  0.90083846804E+02  0.11252807549E+03  0.00000000000E+00 0. -1.
         22    1    3    3    0    0  0.27114141050E+02 -0.51718219540E+02  0.73820670389E+02  0.94124610246E+02  0.00000000000E+00 0. -1.
</event>
<event>
 7    1  0.5139898E-006  0.1009563E+03  0.7818608E-02  0.1418976E+00
          2   -1    0    0  502    0  0.00000000000E+00  0.00000000000E+00  0.19445300855E+04  0.19445300855E+04  0.00000000000E+00 0. -1.
          1   -1    0    0  501    0 -0.00000000000E+00 -0.00000000000E+00 -0.11247824254E+03  0.11247824254E+03  0.00000000000E+00 0. -1.
         25    2    1    2    0    0  0.35195222045E+02  0.67363178485E+02  0.25571304911E+03  0.29459292886E+03  0.12497731305E+03 0.  0.
          2    1    1    2  501    0 -0.18591200962E+01  0.30166249209E+02 -0.88947723549E+02  0.93942303801E+02  0.00000000000E+00 0. -1.
          1    1    1    2  502    0 -0.33336101949E+02 -0.97529427693E+02  0.16652865174E+04  0.16684730954E+04  0.00000000000E+00 0. -1.
         22    1    3    3    0    0 -0.25204232590E+02  0.75829541359E+02  0.18301486303E+03  0.19969930589E+03  0.00000000000E+00 0.  1.
         22    1    3    3    0    0  0.60399454636E+02 -0.84663628745E+01  0.72698186084E+02  0.94893622971E+02  0.00000000000E+00 0.  1.
</event>
<event>
 7    1  0.5139898E-006  0.1546363E+03  0.7818608E-02  0.1230362E+00
          2   -1    0    0  502    0  0.00000000000E+00  0.00000000000E+00  0.39781826542E+03  0.39781826542E+03  0.00000000000E+00 0. -1.
          1   -1    0    0  501    0 -0.00000000000E+00 -0.00000000000E+00 -0.20631521016E+03  0.20631521016E+03  0.00000000000E+00 0. -1.
         25    2    1    2    0    0  0.12082445147E+03 -0.48860088868E+02  0.11575118696E+03  0.21449929403E+03  0.12500301395E+03 0.  0.
          2    1    1    2  501    0  0.62524486192E+02  0.85660559088E+02 -0.90496197632E+02  0.13941522350E+03  0.00000000000E+00 0. -1.
          1    1    1    2  502    0 -0.18334893766E+03 -0.36800470219E+02  0.16624806592E+03  0.25021895806E+03  0.00000000000E+00 0. -1.
         22    1    3    3    0    0 -0.15572185162E+02  0.15098893970E+02 -0.39976060818E+01  0.22055620694E+02  0.00000000000E+00 0.  1.
         22    1    3    3    0    0  0.13639663663E+03 -0.63958982838E+02  0.11974879305E+03  0.19244367333E+03  0.00000000000E+00 0.  1.
</event>
<event>
 7    1  0.5139898E-006  0.3245266E+02  0.7818608E-02  0.1638508E+00
          2   -1    0    0  502    0  0.00000000000E+00  0.00000000000E+00  0.57145780937E+03  0.57145780937E+03  0.00000000000E+00 0. -1.
          1   -1    0    0  501    0 -0.00000000000E+00 -0.00000000000E+00 -0.32661785916E+03  0.32661785916E+03  0.00000000000E+00 0. -1.
         25    2    1    2    0    0  0.27525998282E+02 -0.36854236558E+02  0.11847487797E+03  0.17826725663E+03  0.12500801071E+03 0.  0.
          2    1    1    2  501    0  0.10331136414E+01  0.21843713793E+02 -0.29570224309E+03  0.29650974980E+03  0.00000000000E+00 0. -1.
          1    1    1    2  502    0 -0.28559111924E+02  0.15010522765E+02  0.42206731533E+03  0.42329866211E+03  0.00000000000E+00 0. -1.
         22    1    3    3    0    0  0.75168901838E+02 -0.18252491887E+02  0.47462093938E+02  0.90753333959E+02  0.00000000000E+00 0. -1.
         22    1    3    3    0    0 -0.47642903556E+02 -0.18601744671E+02  0.71012784037E+02  0.87513922668E+02  0.00000000000E+00 0. -1.
</event>
<event>
 7    1  0.5139898E-006  0.3230455E+02  0.7818608E-02  0.1578908E+00
          2   -1    0    0  502    0  0.00000000000E+00  0.00000000000E+00  0.13227604011E+04  0.13227604011E+04  0.00000000000E+00 0. -1.
          1   -1    0    0  501    0 -0.00000000000E+00 -0.00000000000E+00 -0.54854712029E+03  0.54854712029E+03  0.00000000000E+00 0. -1.
         25    2    1    2    0    0 -0.18975337413E+02 -0.51507821375E+01 -0.15073361752E+02  0.12743773908E+03  0.12500630833E+03 0.  0.
          2    1    1    2  501    0 -0.88119776729E-01  0.31321738588E+02 -0.47657047254E+03  0.47759865407E+03  0.00000000000E+00 0. -1.
          1    1    1    2  502    0  0.19063457189E+02 -0.26170956451E+02  0.12658571151E+04  0.12662711282E+04  0.00000000000E+00 0. -1.
         22    1    3    3    0    0 -0.66512640698E+02 -0.28719442906E+02 -0.64205830774E+00  0.72451018021E+02  0.00000000000E+00 0. -1.
         22    1    3    3    0    0  0.47537303285E+02  0.23568660769E+02 -0.14431303445E+02  0.54986721062E+02  0.00000000000E+00 0. -1.
</event>
<event>
 7    1  0.5139898E-006  0.5926146E+02  0.7818608E-02  0.1535692E+00
          2   -1    0    0  502    0  0.00000000000E+00  0.00000000000E+00  0.29248286141E+04  0.29248286141E+04  0.00000000000E+00 0. -1.
          1   -1    0    0  501    0 -0.00000000000E+00 -0.00000000000E+00 -0.19641508594E+02  0.19641508594E+02  0.00000000000E+00 0. -1.
         25    2    1    2    0    0  0.70320352346E+02  0.38888953612E+02  0.69961194827E+03  0.71521909650E+03  0.12499670060E+03 0.  0.
          2    1    1    2  501    0 -0.17823778208E+02 -0.13695091394E+02 -0.42586728384E+00  0.22481636080E+02  0.00000000000E+00 0. -1.
          1    1    1    2  502    0 -0.52496574138E+02 -0.25193862218E+02  0.22060010245E+04  0.22067693901E+04  0.00000000000E+00 0. -1.
         22    1    3    3    0    0 -0.13771312880E+02  0.45064607257E+02  0.11084807505E+03  0.12044817819E+03  0.00000000000E+00 0. -1.
         22    1    3    3    0    0  0.84091665225E+02 -0.61756536447E+01  0.58876387322E+03  0.59477091831E+03  0.00000000000E+00 0. -1.
</event>
<event>
 7    1  0.5139898E-006  0.5096398E+02  0.7818608E-02  0.1473442E+00
          2   -1    0    0  502    0  0.00000000000E+00  0.00000000000E+00  0.13745160874E+03  0.13745160874E+03  0.00000000000E+00 0. -1.
          1   -1    0    0  501    0 -0.00000000000E+00 -0.00000000000E+00 -0.53898230054E+03  0.53898230054E+03  0.00000000000E+00 0. -1.
         25    2    1    2    0    0 -0.68315724388E+02 -0.45145382701E+02 -0.22034160593E+03  0.26623294165E+03  0.12499764852E+03 0.  0.
          2    1    1    2  501    0  0.39828110494E+02  0.35869574086E+01 -0.28870672536E+03  0.29146306442E+03  0.00000000000E+00 0. -1.
          1    1    1    2  502    0  0.28487613894E+02  0.41558425292E+02  0.10751763950E+03  0.11873790322E+03  0.00000000000E+00 0. -1.
         22    1    3    3    0    0 -0.20690831311E+02 -0.35738947128E+02 -0.71208133090E+00  0.41302420050E+02  0.00000000000E+00 0.  1.
         22    1    3    3    0    0 -0.47624893077E+02 -0.94064355729E+01 -0.21962952460E+03  0.22493052160E+03  0.00000000000E+00 0.  1.
</event>
<event>
 7    1  0.5139898E-006  0.1183807E+03  0.7818608E-02  0.1259621E+00
          2   -1    0    0  502    0  0.00000000000E+00  0.00000000000E+00  0.10731496331E+04  0.10731496331E+04  0.00000000000E+00 0. -1.
          1   -1    0    0  501    0 -0.00000000000E+00 -0.00000000000E+00 -0.67636127037E+02  0.67636127037E+02  0.00000000000E+00 0. -1.
         25    2    1    2    0    0 -0.13225433511E+02 -0.76000310750E+01  0.27090763257E+03  0.29874485515E+03  0.12499948211E+03 0.  0.
          2    1    1    2  501    0  0.62160770554E+02  0.11539300124E+03  0.39452134414E+02  0.13687942520E+03  0.00000000000E+00 0. -1.
          1    1    1    2  502    0 -0.48935337044E+02 -0.10779297017E+03  0.69515373906E+03  0.70516147977E+03  0.00000000000E+00 0. -1.
         22    1    3    3    0    0 -0.50071898008E+02  0.37581346809E+02  0.18162771572E+03  0.19211501689E+03  0.00000000000E+00 0. -1.
         22    1    3    3    0    0  0.36846464497E+02 -0.45181377884E+02  0.89279916855E+02  0.10662983826E+03  0.00000000000E+00 0. -1.
</event>
<event>
 7    1  0.5139898E-006  0.4601470E+02  0.7818608E-02  0.1590250E+00
          2   -1    0    0  502    0  0.00000000000E+00  0.00000000000E+00  0.21001521898E+03  0.21001521898E+03  0.00000000000E+00 0. -1.
          1   -1    0    0  501    0 -0.00000000000E+00 -0.00000000000E+00 -0.81258668314E+03  0.81258668314E+03  0.00000000000E+00 0. -1.
         25    2    1    2    0    0 -0.26367822630E+02  0.13096993283E+01 -0.24295271809E+02  0.13004726473E+03  0.12500021380E+03 0.  0.
          2    1    1    2  501    0  0.46084878656E+02  0.43407246586E+01 -0.73401395068E+03  0.73547205095E+03  0.00000000000E+00 0. -1.
          1    1    1    2  502    0 -0.19717056027E+02 -0.56504239869E+01  0.15573775833E+03  0.15708258643E+03  0.00000000000E+00 0. -1.
         22    1    3    3    0    0  0.31955281794E+02  0.20057168940E+02 -0.50816346322E+02  0.63290845419E+02  0.00000000000E+00 0.  1.
         22    1    3    3    0    0 -0.58323104424E+02 -0.18747469611E+02  0.26521074513E+02  0.66756419315E+02  0.00000000000E+00 0.  1.
</event>
<event>
 7    1  0.5139898E-006  0.7231012E+02  0.7818608E-02  0.1379483E+00
          2   -1    0    0  502    0  0.00000000000E+00  0.00000000000E+00  0.10534227106E+03  0.10534227106E+03  0.00000000000E+00 0. -1.
          1   -1    0    0  501    0 -0.00000000000E+00 -0.00000000000E+00 -0.48945213274E+03  0.48945213274E+03  0.00000000000E+00 0. -1.
         25    2    1    2    0    0  0.92663393636E+02 -0.75875957911E+02 -0.17347099838E+03  0.24507253761E+03  0.12499878360E+03 0.  0.
          2    1    1    2  501    0 -0.61261876088E+02  0.27455087166E+02 -0.26322165182E+03  0.27164763437E+03  0.00000000000E+00 0. -1.
          1    1    1    2  502    0 -0.31401517548E+02  0.48420870745E+02  0.52582788508E+02  0.78074231827E+02  0.00000000000E+00 0. -1.
         22    1    3    3    0    0  0.10156576449E+03 -0.57833904211E+01 -0.91197447247E+02  0.13662366744E+03  0.00000000000E+00 0.  1.
         22    1    3    3    0    0 -0.89023708549E+01 -0.70092567490E+02 -0.82273551128E+02  0.10844887016E+03  0.00000000000E+00 0.  1.
</event>
<event>
 7    1  0.5139898E-006  0.8589058E+02  0.7818608E-02  0.1483844E+00
          2   -1    0    0  502    0  0.00000000000E+00  0.00000000000E+00  0.60495142532E+03  0.60495142532E+03  0.00000000000E+00 0. -1.
          1   -1    0    0  501    0 -0.00000000000E+00 -0.00000000000E+00 -0.14852758308E+04  0.14852758308E+04  0.00000000000E+00 0. -1.
         25    2    1    2    0    0 -0.68279129528E+02  0.72510661145E+02 -0.43735541207E+03  0.46564479651E+03  0.12500193818E+03 0.  0.
          2    1    1    2  501    0 -0.10990608909E+01 -0.22016703264E+02 -0.10305415892E+04  0.10307773330E+04  0.00000000000E+00 0. -1.
          1    1    1    2  502    0  0.69378190419E+02 -0.50493957881E+02  0.58757259578E+03  0.59380512662E+03  0.00000000000E+00 0. -1.
         22    1    3    3    0    0  0.22426543209E+02  0.58654783637E+02 -0.23870025754E+03  0.24682209470E+03  0.00000000000E+00 0. -1.
         22    1    3    3    0    0 -0.90705672737E+02  0.13855877508E+02 -0.19865515453E+03  0.21882270182E+03  0.00000000000E+00 0. -1.
</event>
<event>
 7    1  0.5139898E-006  0.2912946E+03  0.7818608E-02  0.1314455E+00
          2   -1    0    0  502    0  0.00000000000E+00  0.00000000000E+00  0.19172937976E+04  0.19172937976E+04  0.00000000000E+00 0. -1.
          1   -1    0    0  501    0 -0.00000000000E+00 -0.00000000000E+00 -0.42092333450E+03  0.42092333450E+03  0.00000000000E+00 0. -1.
         25    2    1    2    0    0  0.17366286392E+03 -0.24015256496E+03  0.37474032245E+03  0.49384898770E+03  0.12499787447E+03 0.  0.
          2    1    1    2  501    0 -0.23596103605E+02 -0.83273726404E+01 -0.34670908012E+03  0.34761085639E+03  0.00000000000E+00 0. -1.
          1    1    1    2  502    0 -0.15006676032E+03  0.24847993760E+03  0.14683392208E+04  0.14967572880E+04  0.00000000000E+00 0. -1.
         22    1    3    3    0    0  0.14565601564E+03 -0.13063205932E+03  0.16652735873E+03  0.25692755986E+03  0.00000000000E+00 0.  1.
         22    1    3    3    0    0  0.28006848285E+02 -0.10952050564E+03  0.20821296372E+03  0.23692142783E+03  0.00000000000E+00 0.  1.
</event>
<event>
 7    1  0.5139898E-006  0.5178579E+02  0.7818608E-02  0.1501296E+00
          2   -1    0    0  502    0  0.00000000000E+00  0.00000000000E+00  0.36618208692E+02  0.36618208692E+02  0.00000000000E+00 0. -1.
          1   -1    0    0  501    0 -0.00000000000E+00 -0.00000000000E+00 -0.15671675821E+04  0.15671675821E+04  0.00000000000E+00 0. -1.
         25    2    1    2    0    0 -0.28020327612E+02 -0.23310727690E+02 -0.40341750988E+03  0.42390955590E+03  0.12500038208E+03 0.  0.
          2    1    1    2  501    0  0.12372514572E+02  0.51670355828E+02 -0.11427030809E+04  0.11439376014E+04  0.00000000000E+00 0. -1.
          1    1    1    2  502    0  0.15647813040E+02 -0.28359628138E+02  0.15571217430E+02  0.35938633437E+02  0.00000000000E+00 0. -1.
         22    1    3    3    0    0 -0.20625813617E+02 -0.20777445458E+02 -0.41157311686E+03  0.41261308383E+03  0.00000000000E+00 0. -1.
         22    1    3    3    0    0 -0.73945139946E+01 -0.25332822325E+01  0.81556069775E+01  0.11296472071E+02  0.00000000000E+00 0. -1.
</event>
<event>
 7    1  0.5139898E-006  0.1028219E+03  0.7818608E-02  0.1288478E+00
          2   -1    0    0  502    0  0.00000000000E+00  0.00000000000E+00  0.72441837045E+03  0.72441837045E+03  0.00000000000E+00 0. -1.
          1   -1    0    0  501    0 -0.00000000000E+00 -0.00000000000E+00 -0.56670570636E+03  0.56670570636E+03  0.00000000000E+00 0. -1.
         25    2    1    2    0    0 -0.35231224143E+02 -0.46431127944E+02 -0.90377282540E+02  0.16489352208E+03  0.12499892651E+03 0.  0.
          2    1    1    2  501    0 -0.69303370647E+02  0.57450850773E+02 -0.43036613200E+03  0.43968007120E+03  0.00000000000E+00 0. -1.
          1    1    1    2  502    0  0.10453459479E+03 -0.11019722829E+02  0.67845607863E+03  0.68655048352E+03  0.00000000000E+00 0. -1.
         22    1    3    3    0    0 -0.62828169448E+02  0.13818592721E+02 -0.18086023665E+02  0.66823922610E+02  0.00000000000E+00 0.  1.
         22    1    3    3    0    0  0.27596945304E+02 -0.60249720665E+02 -0.72291258875E+02  0.98069599469E+02  0.00000000000E+00 0.  1.
</event>
<event>
 7    1  0.5139898E-006  0.7349076E+02  0.7818608E-02  0.1479128E+00
          2   -1    0    0  502    0  0.00000000000E+00  0.00000000000E+00  0.58512030139E+03  0.58512030139E+03  0.00000000000E+00 0. -1.
          1   -1    0    0  501    0 -0.00000000000E+00 -0.00000000000E+00 -0.52663367128E+02  0.52663367128E+02  0.00000000000E+00 0. -1.
         25    2    1    2    0    0  0.82332801811E+02 -0.50023155290E+02  0.24162780933E+03  0.28860059419E+03  0.12500119362E+03 0.  0.
          2    1    1    2  501    0 -0.22411986992E+02  0.14390631833E+02 -0.18283829631E+02  0.32306127460E+02  0.00000000000E+00 0. -1.
          1    1    1    2  502    0 -0.59920814819E+02  0.35632523457E+02  0.30911295457E+03  0.31687694687E+03  0.00000000000E+00 0. -1.
         22    1    3    3    0    0  0.11257626396E+03 -0.30257781765E+02  0.14904380376E+03  0.18921681744E+03  0.00000000000E+00 0. -1.
         22    1    3    3    0    0 -0.30243462147E+02 -0.19765373525E+02  0.92584005573E+02  0.99383776750E+02  0.00000000000E+00 0. -1.
</event>
<event>
 7    1  0.5139898E-006  0.7411678E+02  0.7818608E-02  0.1448923E+00
          2   -1    0    0  502    0  0.00000000000E+00  0.00000000000E+00  0.36545152699E+03  0.36545152699E+03  0.00000000000E+00 0. -1.
          1   -1    0    0  501    0 -0.00000000000E+00 -0.00000000000E+00 -0.16969013820E+03  0.16969013820E+03  0.00000000000E+00 0. -1.
         25    2    1    2    0    0 -0.42851847538E+02  0.95847649558E+02  0.21449730805E+03  0.26954052703E+03  0.12497978950E+03 0.  0.
          2    1    1    2  501    0  0.35053897772E+02 -0.63938008161E+02 -0.13029276080E+03  0.14930856691E+03  0.00000000000E+00 0. -1.
          1    1    1    2  502    0  0.77979497658E+01 -0.31909641397E+02  0.11155684154E+03  0.11629257125E+03  0.00000000000E+00 0. -1.
         22    1    3    3    0    0 -0.53887367549E+02 -0.82896689797E+01  0.46906439247E+02  0.71922048330E+02  0.00000000000E+00 0.  1.
         22    1    3    3    0    0  0.11035520012E+02  0.10413731854E+03  0.16759086881E+03  0.19761847870E+03  0.00000000000E+00 0.  1.
</event>
<event>
 7    1  0.5139898E-006  0.1188504E+03  0.7818608E-02  0.1407163E+00
          2   -1    0    0  502    0  0.00000000000E+00  0.00000000000E+00  0.64358584030E+03  0.64358584030E+03  0.00000000000E+00 0. -1.
          1   -1    0    0  501    0 -0.00000000000E+00 -0.00000000000E+00 -0.35779076512E+03  0.35779076512E+03  0.00000000000E+00 0. -1.
         25    2    1    2    0    0  0.96246445518E+02  0.87951024536E+01  0.15630732367E+03  0.22225659596E+03  0.12500113165E+03 0.  0.
          2    1    1    2  501    0  0.27492802469E+02  0.60031165290E+01 -0.31563209573E+03  0.31688406626E+03  0.00000000000E+00 0. -1.
          1    1    1    2  502    0 -0.12373924799E+03 -0.14798218983E+02  0.44511984724E+03  0.46223594320E+03  0.00000000000E+00 0. -1.
         22    1    3    3    0    0  0.11922643464E+03  0.20547781852E+02  0.89069660427E+02  0.15023501079E+03  0.00000000000E+00 0. -1.
         22    1    3    3    0    0 -0.22979989127E+02 -0.11752679399E+02  0.67237663243E+02  0.72021585179E+02  0.00000000000E+00 0. -1.
</event>
<event>
 7    1  0.5139898E-006  0.1043961E+03  0.7818608E-02  0.1386581E+00
          2   -1    0    0  502    0  0.00000000000E+00  0.00000000000E+00  0.95842244189E+03  0.95842244189E+03  0.00000000000E+00 0. -1.
          1   -1    0    0  501    0 -0.00000000000E+00 -0.00000000000E+00 -0.15314391733E+03  0.15314391733E+03  0.00000000000E+00 0. -1.
         25    2    1    2    0    0  0.55911563988E+02  0.11525055150E+03  0.13515567074E+03  0.22427844903E+03  0.12499989903E+03 0.  0.
          2    1    1    2  501    0  0.10080870930E+02 -0.36364370091E+02 -0.10178674903E+03  0.10855659192E+03  0.00000000000E+00 0. -1.
          1    1    1    2  502    0 -0.65992434919E+02 -0.78886181410E+02  0.77190960285E+03  0.77873131827E+03  0.00000000000E+00 0. -1.
         22    1    3    3    0    0  0.29228972750E+02  0.91302449206E+02  0.12727210896E+02  0.96708076065E+02  0.00000000000E+00 0.  1.
         22    1    3    3    0    0  0.26682591238E+02  0.23948102296E+02  0.12242845984E+03  0.12757037296E+03  0.00000000000E+00 0.  1.
</event>
<event>
 7    1  0.5139898E-006  0.1509870E+03  0.7818608E-02  0.1271092E+00
          2   -1    0    0  502    0  0.00000000000E+00  0.00000000000E+00  0.37678299087E+03  0.37678299087E+03  0.00000000000E+00 0. -1.
          1   -1    0    0  501    0 -0.00000000000E+00 -0.00000000000E+00 -0.18233486057E+03  0.18233486057E+03  0.00000000000E+00 0. -1.
         25    2    1    2    0    0  0.11557315258E+03  0.23983865625E+02  0.15789799450E+03  0.23343135301E+03  0.12500416191E+03 0.  0.
          2    1    1    2  501    0 -0.15746882672E+03  0.34984992089E+02 -0.86434096161E+02  0.18300610383E+03  0.00000000000E+00 0. -1.
          1    1    1    2  502    0  0.41895674137E+02 -0.58968857714E+02  0.12298423197E+03  0.14268039461E+03  0.00000000000E+00 0. -1.
         22    1    3    3    0    0  0.10539960851E+03  0.85403992789E+01  0.38385495598E+02  0.11249649846E+03  0.00000000000E+00 0.  1.
         22    1    3    3    0    0  0.10173544067E+02  0.15443466346E+02  0.11951249890E+03  0.12093485455E+03  0.00000000000E+00 0.  1.
</event>
<event>
 7    1  0.5139898E-006  0.1318376E+03  0.7818608E-02  0.1316186E+00
          2   -1    0    0  502    0  0.00000000000E+00  0.00000000000E+00  0.24026424672E+04  0.24026424672E+04  0.00000000000E+00 0. -1.
          1   -1    0    0  501    0 -0.00000000000E+00 -0.00000000000E+00 -0.15547673440E+03  0.15547673440E+03  0.00000000000E+00 0. -1.
         25    2    1    2    0    0  0.85354418631E+02 -0.82522881914E+02  0.44454436377E+03  0.47680223115E+03  0.12500109377E+03 0.  0.
          2    1    1    2  501    0 -0.34104188383E+02 -0.42423634047E+02 -0.13158640040E+03  0.14240028497E+03  0.00000000000E+00 0. -1.
          1    1    1    2  502    0 -0.51250230248E+02  0.12494651596E+03  0.19342077694E+04  0.19389166855E+04  0.00000000000E+00 0. -1.
         22    1    3    3    0    0  0.29742404058E+02 -0.10031994093E+03  0.35334229857E+03  0.36850981142E+03  0.00000000000E+00 0. -1.
         22    1    3    3    0    0  0.55612014573E+02  0.17797059018E+02  0.91202065198E+02  0.10829241973E+03  0.00000000000E+00 0. -1.
</event>
<event>
 7    1  0.5139898E-006  0.9776510E+02  0.7818608E-02  0.1345336E+00
          2   -1    0    0  502    0  0.00000000000E+00  0.00000000000E+00  0.38002329810E+03  0.38002329810E+03  0.00000000000E+00 0. -1.
          1   -1    0    0  501    0 -0.00000000000E+00 -0.00000000000E+00 -0.62433909700E+03  0.62433909700E+03  0.00000000000E+00 0. -1.
         25    2    1    2    0    0 -0.91806831422E+02 -0.11785207155E+03  0.83030623515E+02  0.21174686031E+03  0.12500017339E+03 0.  0.
          2    1    1    2  501    0  0.71238454081E+02  0.64890595852E+02 -0.55227683834E+03  0.56062056057E+03  0.00000000000E+00 0. -1.
          1    1    1    2  502    0  0.20568377340E+02  0.52961475695E+02  0.22493041592E+03  0.23199497422E+03  0.00000000000E+00 0. -1.
         22    1    3    3    0    0 -0.80587615063E+02 -0.11786380031E+03  0.15874632826E+02  0.14366016529E+03  0.00000000000E+00 0. -1.
         22    1    3    3    0    0 -0.11219216358E+02  0.11728761094E-01  0.67155990689E+02  0.68086695020E+02  0.00000000000E+00 0. -1.
</event>
<event>
 7    1  0.5139898E-006  0.6760139E+02  0.7818608E-02  0.1375447E+00
          2   -1    0    0  502    0  0.00000000000E+00  0.00000000000E+00  0.10466765024E+04  0.10466765024E+04  0.00000000000E+00 0. -1.
          1   -1    0    0  501    0 -0.00000000000E+00 -0.00000000000E+00 -0.37906699878E+03  0.37906699878E+03  0.00000000000E+00 0. -1.
         25    2    1    2    0    0 -0.83573441378E+02 -0.27487856950E+02  0.42578294548E+03  0.45238986698E+03  0.12500149079E+03 0.  0.
          2    1    1    2  501    0  0.29270015860E+02  0.60987326112E+02 -0.36093744042E+03  0.36722203593E+03  0.00000000000E+00 0. -1.
          1    1    1    2  502    0  0.54303425518E+02 -0.33499469162E+02  0.60276399858E+03  0.60613159828E+03  0.00000000000E+00 0. -1.
         22    1    3    3    0    0 -0.91836157688E+02 -0.20182514786E+02  0.15436409647E+03  0.18074702775E+03  0.00000000000E+00 0. -1.
         22    1    3    3    0    0  0.82627163103E+01 -0.73053421637E+01  0.27141884902E+03  0.27164283923E+03  0.00000000000E+00 0. -1.
</event>
<event>
 7    1  0.5139898E-006  0.6819838E+02  0.7818608E-02  0.1381137E+00
          2   -1    0    0  502    0  0.00000000000E+00  0.00000000000E+00  0.15878092880E+04  0.15878092880E+04  0.00000000000E+00 0. -1.
          1   -1    0    0  501    0 -0.00000000000E+00 -0.00000000000E+00 -0.45013820211E+02  0.45013820211E+02  0.00000000000E+00 0. -1.
         25    2    1    2    0    0  0.27668829760E+02  0.54815816109E+01  0.93376969197E+03  0.94252077608E+03  0.12499585518E+03 0.  0.
          2    1    1    2  501    0  0.47459305518E+02 -0.48975847762E+02 -0.66635618984E+01  0.68523152302E+02  0.00000000000E+00 0. -1.
          1    1    1    2  502    0 -0.75128135278E+02  0.43494266151E+02  0.61568933773E+03  0.62177917985E+03  0.00000000000E+00 0. -1.
         22    1    3    3    0    0  0.73354405906E+02 -0.38144015092E+00  0.72654915513E+03  0.73024289738E+03  0.00000000000E+00 0.  1.
         22    1    3    3    0    0 -0.45685576146E+02  0.58630217618E+01  0.20722053685E+03  0.21227787869E+03  0.00000000000E+00 0.  1.
</event>
<event>
 7    1  0.5139898E-006  0.6302710E+02  0.7818608E-02  0.1434024E+00
          2   -1    0    0  502    0  0.00000000000E+00  0.00000000000E+00  0.11428461257E+03  0.11428461257E+03  0.00000000000E+00 0. -1.
          1   -1    0    0  501    0 -0.00000000000E+00 -0.00000000000E+00 -0.39130168885E+03  0.39130168885E+03  0.00000000000E+00 0. -1.
         25    2    1    2    0    0 -0.10852741360E+02  0.73357679607E+02 -0.49901156995E+02  0.15365834886E+03  0.12498652549E+03 0.  0.
          2    1    1    2  501    0  0.43808481013E+02 -0.45476221509E+02 -0.27806826365E+03  0.28514773185E+03  0.00000000000E+00 0. -1.
          1    1    1    2  502    0 -0.32955739652E+02 -0.27881458098E+02  0.50952344358E+02  0.66780220704E+02  0.00000000000E+00 0. -1.
         22    1    3    3    0    0  0.14367667204E+02 -0.32993375649E+02 -0.10749084307E+02  0.37557096680E+02  0.00000000000E+00 0. -1.
         22    1    3    3    0    0 -0.25220408565E+02  0.10635105526E+03 -0.39152072688E+02  0.11610125218E+03  0.00000000000E+00 0. -1.
</event>
<event>
 7    1  0.5139898E-006  0.1155674E+03  0.7818608E-02  0.1403457E+00
          2   -1    0    0  502    0  0.00000000000E+00  0.00000000000E+00  0.24729380835E+04  0.24729380835E+04  0.00000000000E+00 0. -1.
          1   -1    0    0  501    0 -0.00000000000E+00 -0.00000000000E+00 -0.30932203788E+02  0.30932203788E+02  0.00000000000E+00 0. -1.
         25    2    1    2    0    0  0.75361119958E+02 -0.10466775040E+03  0.80106298218E+03  0.82095170064E+03  0.12500062794E+03 0.  0.
          2    1    1    2  501    0  0.86562328002E+01  0.28509769493E+02 -0.73835308254E+01  0.30696153672E+02  0.00000000000E+00 0. -1.
          1    1    1    2  502    0 -0.84017352759E+02  0.76157980905E+02  0.16483264284E+04  0.16522224330E+04  0.00000000000E+00 0. -1.
         22    1    3    3    0    0  0.49803123024E+02 -0.37662275026E+02  0.65765067200E+03  0.66060820795E+03  0.00000000000E+00 0. -1.
         22    1    3    3    0    0  0.25557996935E+02 -0.67005475371E+02  0.14341231018E+03  0.16034349269E+03  0.00000000000E+00 0. -1.
</event>
<event>
 7    1  0.5139898E-006  0.6374023E+02  0.7818608E-02  0.1406830E+00
          2   -1    0    0  502    0  0.00000000000E+00  0.00000000000E+00  0.77188641802E+02  0.77188641802E+02  0.00000000000E+00 0. -1.
          1   -1    0    0  501    0 -0.00000000000E+00 -0.00000000000E+00 -0.21417589650E+04  0.21417589650E+04  0.00000000000E+00 0. -1.
         25    2    1    2    0    0  0.32887860485E+02 -0.21300889001E+02 -0.12695503092E+04  0.12762914492E+04  0.12500614550E+03 0.  0.
          2    1    1    2  501    0  0.14082031358E+02  0.64389708703E+02 -0.85356703942E+03  0.85610807085E+03  0.00000000000E+00 0. -1.
          1    1    1    2  502    0 -0.46969891843E+02 -0.43088819701E+02  0.58547025475E+02  0.86548086720E+02  0.00000000000E+00 0. -1.
         22    1    3    3    0    0  0.36386631889E+02 -0.32860634675E+02 -0.12598419460E+04  0.12607955969E+04  0.00000000000E+00 0.  1.
         22    1    3    3    0    0 -0.34987714040E+01  0.11559745674E+02 -0.97083631996E+01  0.15495852264E+02  0.00000000000E+00 0.  1.
</event>
<event>
 7    1  0.5139898E-006  0.1966993E+03  0.7818608E-02  0.1294044E+00
          2   -1    0    0  502    0  0.00000000000E+00  0.00000000000E+00  0.33715259617E+03  0.33715259617E+03  0.00000000000E+00 0. -1.
          1   -1    0    0  501    0 -0.00000000000E+00 -0.00000000000E+00 -0.20246887256E+04  0.20246887256E+04  0.00000000000E+00 0. -1.
         25    2    1    2    0    0 -0.21339801722E+03 -0.60807108909E+02 -0.37456905635E+03  0.45294940568E+03  0.12499987153E+03 0.  0.
          2    1    1    2  501    0  0.19215253590E+03  0.21511165039E+02 -0.16034139040E+04  0.16150298681E+04  0.00000000000E+00 0. -1.
          1    1    1    2  502    0  0.21245481322E+02  0.39295943870E+02  0.29044683091E+03  0.29386204802E+03  0.00000000000E+00 0. -1.
         22    1    3    3    0    0 -0.19488102044E+03 -0.65742723390E+02 -0.23592718880E+03  0.31298938676E+03  0.00000000000E+00 0.  1.
         22    1    3    3    0    0 -0.18516996781E+02  0.49356144805E+01 -0.13864186755E+03  0.13996001892E+03  0.00000000000E+00 0.  1.
</event>
<event>
 7    1  0.5139898E-006  0.1026883E+03  0.7818608E-02  0.1337637E+00
          2   -1    0    0  502    0  0.00000000000E+00  0.00000000000E+00  0.39154937675E+03  0.39154937675E+03  0.00000000000E+00 0. -1.
          1   -1    0    0  501    0 -0.00000000000E+00 -0.00000000000E+00 -0.34543469663E+03  0.34543469663E+03  0.00000000000E+00 0. -1.
         25    2    1    2    0    0 -0.10118467518E+02  0.11257670584E+03  0.11752158720E+02  0.16894774086E+03  0.12501731010E+03 0.  0.
          2    1    1    2  501    0  0.54435448668E+02 -0.19472668393E+02 -0.25467611601E+03  0.26115575229E+03  0.00000000000E+00 0. -1.
          1    1    1    2  502    0 -0.44316981150E+02 -0.93104037451E+02  0.28903863741E+03  0.30688058023E+03  0.00000000000E+00 0. -1.
         22    1    3    3    0    0 -0.53646141987E+02  0.72408988490E+02 -0.31656207186E+02  0.95514845012E+02  0.00000000000E+00 0. -1.
         22    1    3    3    0    0  0.43527674469E+02  0.40167717354E+02  0.43408365906E+02  0.73432895849E+02  0.00000000000E+00 0. -1.
</event>
<event>
 7    1  0.5139898E-006  0.6547663E+02  0.7818608E-02  0.1453546E+00
          2   -1    0    0  502    0  0.00000000000E+00  0.00000000000E+00  0.80863015176E+03  0.80863015176E+03  0.00000000000E+00 0. -1.
          1   -1    0    0  501    0 -0.00000000000E+00 -0.00000000000E+00 -0.19570949892E+03  0.19570949892E+03  0.00000000000E+00 0. -1.
         25    2    1    2    0    0  0.10131181256E+02 -0.88655873533E+02  0.80006078627E+02  0.17317144196E+03  0.12499948379E+03 0.  0.
          2    1    1    2  501    0  0.18821390851E+02  0.30617915827E+02 -0.14539177970E+03  0.14976805776E+03  0.00000000000E+00 0. -1.
          1    1    1    2  502    0 -0.28952572107E+02  0.58037957706E+02  0.67830635391E+03  0.68140015095E+03  0.00000000000E+00 0. -1.
         22    1    3    3    0    0  0.38282603504E+02  0.18533586721E+02  0.18051193029E+02  0.46204947111E+02  0.00000000000E+00 0.  1.
         22    1    3    3    0    0 -0.28151422248E+02 -0.10718946025E+03  0.61954885598E+02  0.12696649485E+03  0.00000000000E+00 0.  1.
</event>
<event>
 7    1  0.5139898E-006  0.2760035E+02  0.7818608E-02  0.1683144E+00
          2   -1    0    0  502    0  0.00000000000E+00  0.00000000000E+00  0.54308386344E+02  0.54308386344E+02  0.00000000000E+00 0. -1.
          1   -1    0    0  501    0 -0.00000000000E+00 -0.00000000000E+00 -0.11213400941E+04  0.11213400941E+04  0.00000000000E+00 0. -1.
         25    2    1    2    0    0 -0.56457654390E+01 -0.14820189505E+02 -0.15578745235E+03  0.20036591922E+03  0.12500103435E+03 0.  0.
          2    1    1    2  501    0  0.25373984620E+02  0.11237840313E+02 -0.93989937647E+03  0.94030897371E+03  0.00000000000E+00 0. -1.
          1    1    1    2  502    0 -0.19728219181E+02  0.35823491916E+01  0.28655121086E+02  0.34973587495E+02  0.00000000000E+00 0. -1.
         22    1    3    3    0    0  0.59770482462E+01 -0.19811851408E+02  0.17204869761E+02  0.26911746607E+02  0.00000000000E+00 0.  1.
         22    1    3    3    0    0 -0.11622813685E+02  0.49916619029E+01 -0.17299232211E+03  0.17345417261E+03  0.00000000000E+00 0.  1.
</event>
<event>
 7    1  0.5139898E-006  0.2761699E+02  0.7818608E-02  0.1659936E+00
          2   -1    0    0  502    0  0.00000000000E+00  0.00000000000E+00  0.63827740217E+02  0.63827740217E+02  0.00000000000E+00 0. -1.
          1   -1    0    0  501    0 -0.00000000000E+00 -0.00000000000E+00 -0.11701082734E+04  0.11701082734E+04  0.00000000000E+00 0. -1.
         25    2    1    2    0    0 -0.46211425764E+02  0.13702090506E+02 -0.67747096253E+03  0.69059027173E+03  0.12499910073E+03 0.  0.
          2    1    1    2  501    0  0.26406632000E+02 -0.24747274932E+01 -0.48343717764E+03  0.48416416556E+03  0.00000000000E+00 0. -1.
          1    1    1    2  502    0  0.19804793764E+02 -0.11227363013E+02  0.54627606964E+02  0.59181576347E+02  0.00000000000E+00 0. -1.
         22    1    3    3    0    0 -0.81404251363E+02 -0.21488094722E+02 -0.42183061237E+03  0.43015050376E+03  0.00000000000E+00 0.  1.
         22    1    3    3    0    0  0.35192825600E+02  0.35190185228E+02 -0.25564035016E+03  0.26043976797E+03  0.00000000000E+00 0.  1.
</event>
<event>
 7    1  0.5139898E-006  0.8327464E+02  0.7818608E-02  0.1372094E+00
          2   -1    0    0  502    0  0.00000000000E+00  0.00000000000E+00  0.16948257227E+03  0.16948257227E+03  0.00000000000E+00 0. -1.
          1   -1    0    0  501    0 -0.00000000000E+00 -0.00000000000E+00 -0.18652555827E+04  0.18652555827E+04  0.00000000000E+00 0. -1.
         25    2    1    2    0    0  0.40510405001E+02 -0.26195784947E+02 -0.45682726184E+03  0.47607076903E+03  0.12499967159E+03 0.  0.
          2    1    1    2  501    0 -0.40952530962E+02  0.79439817886E+02 -0.13929005613E+04  0.13957649401E+04  0.00000000000E+00 0. -1.
          1    1    1    2  502    0  0.44212596044E+00 -0.53244032939E+02  0.15395481267E+03  0.16290244585E+03  0.00000000000E+00 0. -1.
         22    1    3    3    0    0  0.46613824062E+02 -0.60244032669E+02 -0.41433724888E+03  0.42128084204E+03  0.00000000000E+00 0.  1.
         22    1    3    3    0    0 -0.61034190606E+01  0.34048247722E+02 -0.42490012968E+02  0.54789926986E+02  0.00000000000E+00 0.  1.
</event>
<event>
 7    1  0.5139898E-006  0.5181190E+02  0.7818608E-02  0.1519258E+00
          2   -1    0    0  502    0  0.00000000000E+00  0.00000000000E+00  0.22990769676E+03  0.22990769676E+03  0.00000000000E+00 0. -1.
          1   -1    0    0  501    0 -0.00000000000E+00 -0.00000000000E+00 -0.18147963720E+03  0.18147963720E+03  0.00000000000E+00 0. -1.
         25    2    1    2    0    0 -0.24953725929E+01  0.76760670474E+02 -0.16096455398E+02  0.14759102246E+03  0.12500234645E+03 0.  0.
          2    1    1    2  501    0  0.86019292766E+01 -0.48754542883E+02 -0.92104032555E+02  0.10456649297E+03  0.00000000000E+00 0. -1.
          1    1    1    2  502    0 -0.61065566836E+01 -0.28006127591E+02  0.15662854751E+03  0.15922981854E+03  0.00000000000E+00 0. -1.
         22    1    3    3    0    0  0.94578278094E+01 -0.17958993590E+02  0.34133720258E+02  0.39712552377E+02  0.00000000000E+00 0.  1.
         22    1    3    3    0    0 -0.11953200402E+02  0.94719664064E+02 -0.50230175656E+02  0.10787847008E+03  0.00000000000E+00 0.  1.
</event>
<event>
 7    1  0.5139898E-006  0.7389280E+02  0.7818608E-02  0.1381396E+00
          2   -1    0    0  502    0  0.00000000000E+00  0.00000000000E+00  0.14787627759E+04  0.14787627759E+04  0.00000000000E+00 0. -1.
          1   -1    0    0  501    0 -0.00000000000E+00 -0.00000000000E+00 -0.10655271690E+03  0.10655271690E+03  0.00000000000E+00 0. -1.
         25    2    1    2    0    0 -0.12265060479E+02  0.74562951951E+02  0.39157589041E+03  0.41793080411E+03  0.12499765422E+03 0.  0.
          2    1    1    2  501    0  0.59406861281E+02 -0.45080309254E+02 -0.77638185770E+02  0.10765266991E+03  0.00000000000E+00 0. -1.
          1    1    1    2  502    0 -0.47141800802E+02 -0.29482642697E+02  0.10582723544E+04  0.10597320188E+04  0.00000000000E+00 0. -1.
         22    1    3    3    0    0 -0.51091891448E+02  0.10265050694E+02  0.27030818691E+03  0.27528579430E+03  0.00000000000E+00 0. -1.
         22    1    3    3    0    0  0.38826830969E+02  0.64297901257E+02  0.12126770350E+03  0.14264500981E+03  0.00000000000E+00 0. -1.
</event>
<event>
 7    1  0.5139898E-006  0.5803574E+02  0.7818608E-02  0.1443001E+00
          2   -1    0    0  502    0  0.00000000000E+00  0.00000000000E+00  0.24046798266E+04  0.24046798266E+04  0.00000000000E+00 0. -1.
          1   -1    0    0  501    0 -0.00000000000E+00 -0.00000000000E+00 -0.43751015422E+03  0.43751015422E+03  0.00000000000E+00 0. -1.
         25    2    1    2    0    0 -0.95606564494E+02 -0.32437565353E+02  0.35949184979E+03  0.39376807167E+03  0.12500437343E+03 0.  0.
          2    1    1    2  501    0  0.56341087293E+02  0.12956978964E+02 -0.41814620708E+03  0.42212374005E+03  0.00000000000E+00 0. -1.
          1    1    1    2  502    0  0.39265477201E+02  0.19480586390E+02  0.20258240297E+04  0.20262981691E+04  0.00000000000E+00 0. -1.
         22    1    3    3    0    0  0.53055748737E+01 -0.56640864867E+02  0.13025564525E+03  0.14213679966E+03  0.00000000000E+00 0. -1.
         22    1    3    3    0    0 -0.10091213937E+03  0.24203299513E+02  0.22923620454E+03  0.25163127201E+03  0.00000000000E+00 0. -1.
</event>
<event>
 7    1  0.5139898E-006  0.1429019E+03  0.7818608E-02  0.1266210E+00
          2   -1    0    0  502    0  0.00000000000E+00  0.00000000000E+00  0.17098840043E+04  0.17098840043E+04  0.00000000000E+00 0. -1.
          1   -1    0    0  501    0 -0.00000000000E+00 -0.00000000000E+00 -0.12626046001E+03  0.12626046001E+03  0.00000000000E+00 0. -1.
         25    2    1    2    0    0  0.20830438799E+02 -0.10153467827E+03  0.61448665787E+02  0.17362107030E+03  0.12500055781E+03 0.  0.
          2    1    1    2  501    0 -0.32531373305E+02  0.18080798674E+03  0.53053749473E+02  0.19121851023E+03  0.00000000000E+00 0. -1.
          1    1    1    2  502    0  0.11700934506E+02 -0.79273308474E+02  0.14691211290E+04  0.14713048838E+04  0.00000000000E+00 0. -1.
         22    1    3    3    0    0 -0.30267425013E+02 -0.86419721402E+01  0.59812378654E+02  0.67589358183E+02  0.00000000000E+00 0. -1.
         22    1    3    3    0    0  0.51097863813E+02 -0.92892706130E+02  0.16362871332E+01  0.10603171211E+03  0.00000000000E+00 0. -1.
</event>
<event>
 7    1  0.5139898E-006  0.5405477E+02  0.7818608E-02  0.1432652E+00
          2   -1    0    0  502    0  0.00000000000E+00  0.00000000000E+00  0.15953083466E+03  0.15953083466E+03  0.00000000000E+00 0. -1.
          1   -1    0    0  501    0 -0.00000000000E+00 -0.00000000000E+00 -0.12962164752E+04  0.12962164752E+04  0.00000000000E+00 0. -1.
         25    2    1    2    0    0  0.30470599894E+02 -0.67912875674E+02  0.62916676044E+02  0.15850552423E+03  0.12499950778E+03 0.  0.
          2    1    1    2  501    0 -0.47406284020E+02  0.18413218775E+02 -0.12337301158E+04  0.12347778752E+04  0.00000000000E+00 0. -1.
          1    1    1    2  502    0  0.16935684126E+02  0.49499656899E+02  0.34127799216E+02  0.62463910454E+02  0.00000000000E+00 0. -1.
         22    1    3    3    0    0  0.77170512963E+02 -0.45706369641E+02  0.21443823100E+02  0.92218207779E+02  0.00000000000E+00 0. -1.
         22    1    3    3    0    0 -0.46699913069E+02 -0.22206506033E+02  0.41472852944E+02  0.66287316450E+02  0.00000000000E+00 0. -1.
</event>
<event>
 7    1  0.5139898E-006  0.1357840E+03  0.7818608E-02  0.1349354E+00
          2   -1    0    0  502    0  0.00000000000E+00  0.00000000000E+00  0.10008715700E+04  0.10008715700E+04  0.00000000000E+00 0. -1.
          1   -1    0    0  501    0 -0.00000000000E+00 -0.00000000000E+00 -0.12688062101E+04  0.12688062101E+04  0.00000000000E+00 0. -1.
         25    2    1    2    0    0  0.11103856230E+03  0.11549172999E+03 -0.12211343816E+03  0.23707587383E+03  0.12500150463E+03 0.  0.
          2    1    1    2  501    0  0.81286832741E+00 -0.39514940355E+02 -0.10840044818E+04  0.10847247614E+04  0.00000000000E+00 0. -1.
          1    1    1    2  502    0 -0.11185143063E+03 -0.75976789633E+02  0.93818327996E+03  0.94787714493E+03  0.00000000000E+00 0. -1.
         22    1    3    3    0    0  0.45432412144E+02  0.12844496524E+03 -0.78545785228E+02  0.15726300755E+03  0.00000000000E+00 0. -1.
         22    1    3    3    0    0  0.65606150157E+02 -0.12953235248E+02 -0.43567652934E+02  0.79812866281E+02  0.00000000000E+00 0. -1.
</event>
<event>
 7    1  0.5139898E-006  0.5502782E+02  0.7818608E-02  0.1421586E+00
          2   -1    0    0  502    0  0.00000000000E+00  0.00000000000E+00  0.44645209382E+03  0.44645209382E+03  0.00000000000E+00 0. -1.
          1   -1    0    0  501    0 -0.00000000000E+00 -0.00000000000E+00 -0.10270466668E+03  0.10270466668E+03  0.00000000000E+00 0. -1.
         25    2    1    2    0    0 -0.25031443166E+00  0.28298685109E+02  0.22649059858E+02  0.13015022056E+03  0.12500088705E+03 0.  0.
          2    1    1    2  501    0  0.53448957446E+02 -0.39416576030E+02 -0.23274453770E+02  0.70371568949E+02  0.00000000000E+00 0. -1.
          1    1    1    2  502    0 -0.53198643014E+02  0.11117890921E+02  0.34437282106E+03  0.34863497099E+03  0.00000000000E+00 0. -1.
         22    1    3    3    0    0 -0.58468550378E+02 -0.82823288827E+01  0.56428976838E+01  0.59321249559E+02  0.00000000000E+00 0.  1.
         22    1    3    3    0    0  0.58218235946E+02  0.36581013992E+02  0.17006162175E+02  0.70828971002E+02  0.00000000000E+00 0.  1.
</event>
<event>
 7    1  0.5139898E-006  0.4770131E+02  0.7818608E-02  0.1459258E+00
          2   -1    0    0  502    0  0.00000000000E+00  0.00000000000E+00  0.94703555226E+03  0.94703555226E+03  0.00000000000E+00 0. -1.
          1   -1    0    0  501    0 -0.00000000000E+00 -0.00000000000E+00 -0.94948985776E+03  0.94948985776E+03  0.00000000000E+00 0. -1.
         25    2    1    2    0    0 -0.46127852972E+01  0.42863675553E+02  0.25282720801E+03  0.28531558189E+03  0.12499924675E+03 0.  0.
          2    1    1    2  501    0  0.45058652253E+02 -0.15656718631E+02 -0.93175858040E+03  0.93297881387E+03  0.00000000000E+00 0. -1.
          1    1    1    2  502    0 -0.40445866956E+02 -0.27206956922E+02  0.67647706690E+03  0.67823101426E+03  0.00000000000E+00 0. -1.
         22    1    3    3    0    0  0.21691756949E+02  0.10800220693E+01 -0.54250027604E+01  0.22385920177E+02  0.00000000000E+00 0. -1.
         22    1    3    3    0    0 -0.26304542246E+02  0.41783653484E+02  0.25825221077E+03  0.26292966171E+03  0.00000000000E+00 0. -1.
</event>
<event>
 7    1  0.5139898E-006  0.7195162E+02  0.7818608E-02  0.1359613E+00
          2   -1    0    0  502    0  0.00000000000E+00  0.00000000000E+00  0.53270755229E+03  0.53270755229E+03  0.00000000000E+00 0. -1.
          1   -1    0    0  501    0 -0.00000000000E+00 -0.00000000000E+00 -0.48516335410E+03  0.48516335410E+03  0.00000000000E+00 0. -1.
         25    2    1    2    0    0  0.41130294735E+02  0.20113143034E+02 -0.28858657593E+03  0.31781012014E+03  0.12499928396E+03 0.  0.
          2    1    1    2  501    0 -0.55741433476E+02 -0.86910164849E+02 -0.16480679102E+03  0.19447818007E+03  0.00000000000E+00 0. -1.
          1    1    1    2  502    0  0.14611138741E+02  0.66797021815E+02  0.50093756514E+03  0.50558260617E+03  0.00000000000E+00 0. -1.
         22    1    3    3    0    0  0.44958945152E+02 -0.30328992866E+02 -0.24532262520E+03  0.25124558701E+03  0.00000000000E+00 0. -1.
         22    1    3    3    0    0 -0.38286504167E+01  0.50442135901E+02 -0.43263950732E+02  0.66564533133E+02  0.00000000000E+00 0. -1.
</event>
<event>
 7    1  0.5139898E-006  0.5361943E+02  0.7818608E-02  0.1502047E+00
          2   -1    0    0  502    0  0.00000000000E+00  0.00000000000E+00  0.13352078677E+03  0.13352078677E+03  0.00000000000E+00 0. -1.
          1   -1    0    0  501    0 -0.00000000000E+00 -0.00000000000E+00 -0.23197650002E+03  0.23197650002E+03  0.00000000000E+00 0. -1.
         25    2    1    2    0    0  0.60197328053E+02 -0.11116033322E+02 -0.30990466166E+02  0.14259388560E+03  0.12500129086E+03 0.  0.
          2    1    1    2  501    0 -0.40473858903E+02  0.35189956602E+02 -0.13678179729E+03  0.14692081667E+03  0.00000000000E+00 0. -1.
          1    1    1    2  502    0 -0.19723469151E+02 -0.24073923280E+02  0.69316550212E+02  0.75982584522E+02  0.00000000000E+00 0. -1.
         22    1    3    3    0    0 -0.10601825746E+02 -0.18475925961E+02  0.37937850258E+02  0.43509068382E+02  0.00000000000E+00 0. -1.
         22    1    3    3    0    0  0.70799153799E+02  0.73598926393E+01 -0.68928316424E+02  0.99084817219E+02  0.00000000000E+00 0. -1.
</event>
<event>
 7    1  0.5139898E-006  0.1682470E+03  0.7818608E-02  0.1220214E+00
          2   -1    0    0  502    0  0.00000000000E+00  0.00000000000E+00  0.36874783636E+03  0.36874783636E+03  0.00000000000E+00 0. -1.
          1   -1    0    0  501    0 -0.00000000000E+00 -0.00000000000E+00 -0.22979850592E+04  0.22979850592E+04  0.00000000000E+00 0. -1.
         25    2    1    2    0    0 -0.96255892248E+02  0.19012169079E+03 -0.21242970192E+03  0.32582632193E+03  0.12499983879E+03 0.  0.
          2    1    1    2  501    0  0.10570575157E+03 -0.23698342563E+02 -0.20050291654E+04  0.20079535033E+04  0.00000000000E+00 0. -1.
          1    1    1    2  502    0 -0.94498593235E+01 -0.16642334823E+03  0.28822164449E+03  0.33295307031E+03  0.00000000000E+00 0. -1.
         22    1    3    3    0    0 -0.21002925472E+02  0.45683042958E+02  0.88690798466E+01  0.51056085529E+02  0.00000000000E+00 0. -1.
         22    1    3    3    0    0 -0.75252966775E+02  0.14443864784E+03 -0.22129878177E+03  0.27477023640E+03  0.00000000000E+00 0. -1.
</event>
<event>
 7    1  0.5139898E-006  0.5183570E+02  0.7818608E-02  0.1528265E+00
          2   -1    0    0  502    0  0.00000000000E+00  0.00000000000E+00  0.15331898381E+04  0.15331898381E+04  0.00000000000E+00 0. -1.
          1   -1    0    0  501    0 -0.00000000000E+00 -0.00000000000E+00 -0.14590608726E+03  0.14590608726E+03  0.00000000000E+00 0. -1.
         25    2    1    2    0    0  0.50162221474E+02 -0.19806373481E+02  0.41713494336E+03  0.43878860193E+03  0.12500134129E+03 0.  0.
          2    1    1    2  501    0 -0.51396750789E+02 -0.71499462601E+01 -0.12992404540E+03  0.13990355712E+03  0.00000000000E+00 0. -1.
          1    1    1    2  502    0  0.12345293155E+01  0.26956319741E+02  0.11000728529E+04  0.11004037663E+04  0.00000000000E+00 0. -1.
         22    1    3    3    0    0  0.88001880331E+02 -0.11940318532E+02  0.20883998640E+03  0.22693841030E+03  0.00000000000E+00 0.  1.
         22    1    3    3    0    0 -0.37839658857E+02 -0.78660549487E+01  0.20829495696E+03  0.21185019164E+03  0.00000000000E+00 0.  1.
</event>
<event>
 7    1  0.5139898E-006  0.7947282E+02  0.7818608E-02  0.1442102E+00
          2   -1    0    0  502    0  0.00000000000E+00  0.00000000000E+00  0.31189764386E+03  0.31189764386E+03  0.00000000000E+00 0. -1.
          1   -1    0    0  501    0 -0.00000000000E+00 -0.00000000000E+00 -0.77427510008E+03  0.77427510008E+03  0.00000000000E+00 0. -1.
         25    2    1    2    0    0  0.30830537678E+02 -0.52413265586E+02 -0.11181356480E+03  0.17839612013E+03  0.12500091976E+03 0.  0.
          2    1    1    2  501    0 -0.63032983121E+02  0.51236640545E+02 -0.62560385644E+03  0.63085539982E+03  0.00000000000E+00 0. -1.
          1    1    1    2  502    0  0.32202445443E+02  0.11766250415E+01  0.27503996502E+03  0.27692122399E+03  0.00000000000E+00 0. -1.
         22    1    3    3    0    0  0.19961663137E+02 -0.85851582084E+02 -0.36731422671E+02  0.95489054624E+02  0.00000000000E+00 0.  1.
         22    1    3    3    0    0  0.10868874541E+02  0.33438316498E+02 -0.75082142126E+02  0.82907065503E+02  0.00000000000E+00 0.  1.
</event>
<event>
 7    1  0.5139898E-006  0.4833332E+02  0.7818608E-02  0.1547420E+00
          2   -1    0    0  502    0  0.00000000000E+00  0.00000000000E+00  0.58550618580E+03  0.58550618580E+03  0.00000000000E+00 0. -1.
          1   -1    0    0  501    0 -0.00000000000E+00 -0.00000000000E+00 -0.43076360830E+03  0.43076360830E+03  0.00000000000E+00 0. -1.
         25    2    1    2    0    0 -0.67955821982E+02  0.64296237880E+00  0.18534150001E+03  0.23365651766E+03  0.12500195790E+03 0.  0.
          2    1    1    2  501    0  0.22227440228E+02 -0.12575547619E+02 -0.40471703967E+03  0.40552199163E+03  0.00000000000E+00 0. -1.
          1    1    1    2  502    0  0.45728381754E+02  0.11932585240E+02  0.37411811716E+03  0.37709128480E+03  0.00000000000E+00 0. -1.
         22    1    3    3    0    0 -0.99507422766E+02  0.20746303331E+02  0.11150197928E+03  0.15088017654E+03  0.00000000000E+00 0. -1.
         22    1    3    3    0    0  0.31551600784E+02 -0.20103340952E+02  0.73839520725E+02  0.82776341127E+02  0.00000000000E+00 0. -1.
</event>
<event>
 7    1  0.5139898E-006  0.1105279E+03  0.7818608E-02  0.1333793E+00
          2   -1    0    0  502    0  0.00000000000E+00  0.00000000000E+00  0.50212578119E+03  0.50212578119E+03  0.00000000000E+00 0. -1.
          1   -1    0    0  501    0 -0.00000000000E+00 -0.00000000000E+00 -0.29360257489E+03  0.29360257489E+03  0.00000000000E+00 0. -1.
         25    2    1    2    0    0  0.12892001622E+03 -0.30665155968E+02 -0.52262692885E+02  0.18951776561E+03  0.12499948817E+03 0.  0.
          2    1    1    2  501    0 -0.10547521941E+03 -0.19687988103E+02 -0.15401621380E+03  0.18770624097E+03  0.00000000000E+00 0. -1.
          1    1    1    2  502    0 -0.23444796816E+02  0.50353144071E+02  0.41480211299E+03  0.41850434950E+03  0.00000000000E+00 0. -1.
         22    1    3    3    0    0  0.11794556053E+03 -0.11687186498E+02 -0.87980583276E+02  0.14760870100E+03  0.00000000000E+00 0. -1.
         22    1    3    3    0    0  0.10974455693E+02 -0.18977969471E+02  0.35717890391E+02  0.41909064616E+02  0.00000000000E+00 0. -1.
</event>
<event>
 7    1  0.5139898E-006  0.1476548E+03  0.7818608E-02  0.1282947E+00
          2   -1    0    0  502    0  0.00000000000E+00  0.00000000000E+00  0.93883116436E+03  0.93883116436E+03  0.00000000000E+00 0. -1.
          1   -1    0    0  501    0 -0.00000000000E+00 -0.00000000000E+00 -0.24673420265E+03  0.24673420265E+03  0.00000000000E+00 0. -1.
         25    2    1    2    0    0 -0.59355893826E+02 -0.15216602552E+03  0.12439781300E+03  0.24036826507E+03  0.12499786205E+03 0.  0.
          2    1    1    2  501    0 -0.45018819186E+02  0.48321586956E+02 -0.17552040313E+03  0.18753421491E+03  0.00000000000E+00 0. -1.
          1    1    1    2  502    0  0.10437471301E+03  0.10384443857E+03  0.74321955185E+03  0.75766288703E+03  0.00000000000E+00 0. -1.
         22    1    3    3    0    0 -0.40075591773E+02 -0.11045520302E+02 -0.11889170434E+02  0.43236662086E+02  0.00000000000E+00 0.  1.
         22    1    3    3    0    0 -0.19280302053E+02 -0.14112050522E+03  0.13628698344E+03  0.19713160298E+03  0.00000000000E+00 0.  1.
</event>
<event>
 7    1  0.5139898E-006  0.6139282E+02  0.7818608E-02  0.1472953E+00
          2   -1    0    0  502    0  0.00000000000E+00  0.00000000000E+00  0.99281290670E+03  0.99281290670E+03  0.00000000000E+00 0. -1.
          1   -1    0    0  501    0 -0.00000000000E+00 -0.00000000000E+00 -0.20590549680E+04  0.20590549680E+04  0.00000000000E+00 0. -1.
         25    2    1    2    0    0  0.91228928667E+02  0.16231466321E+02  0.17846146179E+03  0.23676653715E+03  0.12499488728E+03 0.  0.
          2    1    1    2  501    0 -0.31236429979E+02 -0.11575644219E+02 -0.20286126600E+04  0.20288861561E+04  0.00000000000E+00 0. -1.
          1    1    1    2  502    0 -0.59992498687E+02 -0.46558221018E+01  0.78390913692E+03  0.78621518144E+03  0.00000000000E+00 0. -1.
         22    1    3    3    0    0  0.12957790557E-01 -0.81117590316E+01  0.13072353108E+03  0.13097496853E+03  0.00000000000E+00 0. -1.
         22    1    3    3    0    0  0.91215970876E+02  0.24343225352E+02  0.47737930709E+02  0.10579156862E+03  0.00000000000E+00 0. -1.
</event>
<event>
 7    1  0.5139898E-006  0.7397462E+02  0.7818608E-02  0.1371138E+00
          2   -1    0    0  502    0  0.00000000000E+00  0.00000000000E+00  0.20352591289E+04  0.20352591289E+04  0.00000000000E+00 0. -1.
          1   -1    0    0  501    0 -0.00000000000E+00 -0.00000000000E+00 -0.13391196707E+04  0.13391196707E+04  0.00000000000E+00 0. -1.
         25    2    1    2    0    0  0.97440010902E+01 -0.27790058405E+02  0.77464972590E+02  0.14997956226E+03  0.12500325681E+03 0.  0.
          2    1    1    2  501    0  0.39019049967E+02  0.63456783738E+02 -0.13013220313E+04  0.13034524459E+04  0.00000000000E+00 0. -1.
          1    1    1    2  502    0 -0.48763051057E+02 -0.35666725333E+02  0.19199965169E+04  0.19209467914E+04  0.00000000000E+00 0. -1.
         22    1    3    3    0    0 -0.93404494511E+01  0.33243666709E+02  0.78782792277E+02  0.86018101183E+02  0.00000000000E+00 0. -1.
         22    1    3    3    0    0  0.19084450541E+02 -0.61033725114E+02 -0.13178196871E+01  0.63961461072E+02  0.00000000000E+00 0. -1.
</event>
<event>
 7    1  0.5139898E-006  0.6777352E+02  0.7818608E-02  0.1481673E+00
          2   -1    0    0  502    0  0.00000000000E+00  0.00000000000E+00  0.54053820781E+02  0.54053820781E+02  0.00000000000E+00 0. -1.
          1   -1    0    0  501    0 -0.00000000000E+00 -0.00000000000E+00 -0.98173786260E+03  0.98173786260E+03  0.00000000000E+00 0. -1.
         25    2    1    2    0    0  0.63799172369E+02 -0.19127962093E+01 -0.83072440545E+02  0.16309619674E+03  0.12500138331E+03 0.  0.
          2    1    1    2  501    0  0.46002285677E+01  0.27991515337E+02 -0.76115679491E+03  0.76168520628E+03  0.00000000000E+00 0. -1.
          1    1    1    2  502    0 -0.68399400936E+02 -0.26078719128E+02 -0.83454806365E+02  0.11101028036E+03  0.00000000000E+00 0. -1.
         22    1    3    3    0    0 -0.13598866961E+01 -0.47320169723E+02 -0.67047450895E+02  0.82075626260E+02  0.00000000000E+00 0. -1.
         22    1    3    3    0    0  0.65159059065E+02  0.45407373513E+02 -0.16024989649E+02  0.81020570480E+02  0.00000000000E+00 0. -1.
</event>
<event>
 7    1  0.5139898E-006  0.1869581E+03  0.7818608E-02  0.1220968E+00
          2   -1    0    0  502    0  0.00000000000E+00  0.00000000000E+00  0.65480677668E+03  0.65480677668E+03  0.00000000000E+00 0. -1.
          1   -1    0    0  501    0 -0.00000000000E+00 -0.00000000000E+00 -0.68511615715E+03  0.68511615715E+03  0.00000000000E+00 0. -1.
         25    2    1    2    0    0 -0.59834966126E+02 -0.87756034201E+02  0.15083267288E+03  0.22283904475E+03  0.12500159978E+03 0.  0.
          2    1    1    2  501    0  0.15028667779E+03  0.12200905036E+03 -0.62940739497E+03  0.65850281908E+03  0.00000000000E+00 0. -1.
          1    1    1    2  502    0 -0.90451711663E+02 -0.34253016161E+02  0.44826534163E+03  0.45858107000E+03  0.00000000000E+00 0. -1.
         22    1    3    3    0    0 -0.88793489569E+02 -0.90111023177E+02  0.14633662055E+03  0.19343910360E+03  0.00000000000E+00 0. -1.
         22    1    3    3    0    0  0.28958523442E+02  0.23549889761E+01  0.44960523281E+01  0.29399941149E+02  0.00000000000E+00 0. -1.
</event>
<event>
 7    1  0.5139898E-006  0.1094649E+03  0.7818608E-02  0.1453998E+00
          2   -1    0    0  502    0  0.00000000000E+00  0.00000000000E+00  0.95332364377E+03  0.95332364377E+03  0.00000000000E+00 0. -1.
          1   -1    0    0  501    0 -0.00000000000E+00 -0.00000000000E+00 -0.16142369635E+03  0.16142369635E+03  0.00000000000E+00 0. -1.
         25    2    1    2    0    0 -0.13097839701E+02  0.93364968437E+02  0.27743945567E+03  0.31856193695E+03  0.12498194020E+03 0.  0.
          2    1    1    2  501    0  0.84132238227E+01  0.19705827723E+02 -0.13512629301E+03  0.13681453521E+03  0.00000000000E+00 0. -1.
          1    1    1    2  502    0  0.46846158784E+01 -0.11307079616E+03  0.64958678476E+03  0.65937086796E+03  0.00000000000E+00 0. -1.
         22    1    3    3    0    0 -0.53749704360E+02  0.22090057036E+01  0.12812524544E+03  0.13896038624E+03  0.00000000000E+00 0. -1.
         22    1    3    3    0    0  0.40651864659E+02  0.91155962733E+02  0.14931421023E+03  0.17960155071E+03  0.00000000000E+00 0. -1.
</event>
<event>
 7    1  0.5139898E-006  0.9222212E+02  0.7818608E-02  0.1383084E+00
          2   -1    0    0  502    0  0.00000000000E+00  0.00000000000E+00  0.94649578805E+03  0.94649578805E+03  0.00000000000E+00 0. -1.
          1   -1    0    0  501    0 -0.00000000000E+00 -0.00000000000E+00 -0.12953739784E+03  0.12953739784E+03  0.00000000000E+00 0. -1.
         25    2    1    2    0    0  0.90136196669E+02 -0.94400179082E+02  0.15580662929E+03  0.23861310461E+03  0.12499832079E+03 0.  0.
          2    1    1    2  501    0 -0.66998314730E+02  0.57041246415E+02 -0.65341367611E+02  0.10959914366E+03  0.00000000000E+00 0. -1.
          1    1    1    2  502    0 -0.23137881939E+02  0.37358932667E+02  0.72649312853E+03  0.72782093762E+03  0.00000000000E+00 0. -1.
         22    1    3    3    0    0  0.80529667082E+01 -0.79222699721E+02  0.25040685024E+02  0.83475279756E+02  0.00000000000E+00 0. -1.
         22    1    3    3    0    0  0.82083229960E+02 -0.15177479361E+02  0.13076594427E+03  0.15513782486E+03  0.00000000000E+00 0. -1.
</event>
<event>
 7    1  0.5139898E-006  0.7849849E+02  0.7818608E-02  0.1397843E+00
          2   -1    0    0  502    0  0.00000000000E+00  0.00000000000E+00  0.57685616707E+04  0.57685616707E+04  0.00000000000E+00 0. -1.
          1   -1    0    0  501    0 -0.00000000000E+00 -0.00000000000E+00 -0.26356072253E+02  0.26356072253E+02  0.00000000000E+00 0. -1.
         25    2    1    2    0    0 -0.47549161243E+02  0.40638327609E+02  0.28331197043E+03  0.31591579919E+03  0.12499889274E+03 0.  0.
          2    1    1    2  501    0  0.28415325128E+02  0.35991678011E+02  0.44063407126E+02  0.63595718690E+02  0.00000000000E+00 0. -1.
          1    1    1    2  502    0  0.19133836116E+02 -0.76630005621E+02  0.54148302209E+04  0.54154062251E+04  0.00000000000E+00 0. -1.
         22    1    3    3    0    0  0.31362969109E+02  0.50236027983E+02  0.14047144616E+03  0.15244514268E+03  0.00000000000E+00 0. -1.
         22    1    3    3    0    0 -0.78912130352E+02 -0.95977003735E+01  0.14284052427E+03  0.16347065652E+03  0.00000000000E+00 0. -1.
</event>
<event>
 7    1  0.5139898E-006  0.7372223E+02  0.7818608E-02  0.1441140E+00
          2   -1    0    0  502    0  0.00000000000E+00  0.00000000000E+00  0.33639619680E+03  0.33639619680E+03  0.00000000000E+00 0. -1.
          1   -1    0    0  501    0 -0.00000000000E+00 -0.00000000000E+00 -0.23420608410E+03  0.23420608410E+03  0.00000000000E+00 0. -1.
         25    2    1    2    0    0 -0.46612841399E+02 -0.17726751880E+02  0.31163583727E+02  0.13814228081E+03  0.12500050432E+03 0.  0.
          2    1    1    2  501    0 -0.30070161757E+02  0.17886330760E+02 -0.17308585650E+03  0.17658666194E+03  0.00000000000E+00 0. -1.
          1    1    1    2  502    0  0.76683003156E+02 -0.15957888003E+00  0.24411238547E+03  0.25587333816E+03  0.00000000000E+00 0. -1.
         22    1    3    3    0    0  0.79340070432E+01  0.38148917241E+02  0.44257151671E+02  0.58965954825E+02  0.00000000000E+00 0. -1.
         22    1    3    3    0    0 -0.54546848442E+02 -0.55875669121E+02 -0.13093567944E+02  0.79176325983E+02  0.00000000000E+00 0. -1.
</event>
<event>
 7    1  0.5139898E-006  0.4768224E+02  0.7818608E-02  0.1502862E+00
          2   -1    0    0  502    0  0.00000000000E+00  0.00000000000E+00  0.80324544905E+03  0.80324544905E+03  0.00000000000E+00 0. -1.
          1   -1    0    0  501    0 -0.00000000000E+00 -0.00000000000E+00 -0.47347300784E+03  0.47347300784E+03  0.00000000000E+00 0. -1.
         25    2    1    2    0    0  0.27877084684E+02  0.20160748682E+02  0.50134601237E+03  0.51783917101E+03  0.12500398102E+03 0.  0.
          2    1    1    2  501    0 -0.61443502257E+01 -0.47343208324E+02 -0.46296347685E+03  0.46541842820E+03  0.00000000000E+00 0. -1.
          1    1    1    2  502    0 -0.21732734459E+02  0.27182459642E+02  0.29138990568E+03  0.29346085768E+03  0.00000000000E+00 0. -1.
         22    1    3    3    0    0 -0.43746925555E+02  0.15543549167E+02  0.10165010306E+03  0.11175034169E+03  0.00000000000E+00 0. -1.
         22    1    3    3    0    0  0.71624010240E+02  0.46171995151E+01  0.39969590931E+03  0.40608882932E+03  0.00000000000E+00 0. -1.
</event>
<event>
 7    1  0.5139898E-006  0.8779923E+02  0.7818608E-02  0.1340993E+00
          2   -1    0    0  502    0  0.00000000000E+00  0.00000000000E+00  0.13822120978E+03  0.13822120978E+03  0.00000000000E+00 0. -1.
          1   -1    0    0  501    0 -0.00000000000E+00 -0.00000000000E+00 -0.87488955895E+03  0.87488955895E+03  0.00000000000E+00 0. -1.
         25    2    1    2    0    0 -0.10447380662E+03 -0.82499124638E+02 -0.10468774447E+03  0.21048740757E+03  0.12499817225E+03 0.  0.
          2    1    1    2  501    0  0.64999180697E+02  0.94181332016E+01 -0.69516567271E+03  0.69826134594E+03  0.00000000000E+00 0. -1.
          1    1    1    2  502    0  0.39474625924E+02  0.73080991436E+02  0.63185068009E+02  0.10436201522E+03  0.00000000000E+00 0. -1.
         22    1    3    3    0    0 -0.86836633903E+01  0.20372300492E+02 -0.58464472608E+02  0.62518246893E+02  0.00000000000E+00 0. -1.
         22    1    3    3    0    0 -0.95790143231E+02 -0.10287142513E+03 -0.46223271867E+02  0.14796916067E+03  0.00000000000E+00 0. -1.
</event>
<event>
 7    1  0.5139898E-006  0.3576132E+02  0.7818608E-02  0.1620633E+00
          2   -1    0    0  502    0  0.00000000000E+00  0.00000000000E+00  0.18287807888E+04  0.18287807888E+04  0.00000000000E+00 0. -1.
          1   -1    0    0  501    0 -0.00000000000E+00 -0.00000000000E+00 -0.10433691000E+04  0.10433691000E+04  0.00000000000E+00 0. -1.
         25    2    1    2    0    0 -0.13048983632E+02  0.22824280526E+02  0.76641037932E+03  0.77698206695E+03  0.12500015630E+03 0.  0.
          2    1    1    2  501    0 -0.20476555576E+02 -0.80722280166E+01 -0.10376492319E+04  0.10378826421E+04  0.00000000000E+00 0. -1.
          1    1    1    2  502    0  0.33525539208E+02 -0.14752052509E+02  0.10566505414E+04  0.10572851798E+04  0.00000000000E+00 0. -1.
         22    1    3    3    0    0  0.25061940302E+02 -0.33970470112E+02  0.50536506815E+03  0.50712517764E+03  0.00000000000E+00 0.  1.
         22    1    3    3    0    0 -0.38110923934E+02  0.56794750638E+02  0.26104531117E+03  0.26985688931E+03  0.00000000000E+00 0.  1.
</event>
<event>
 7    1  0.5139898E-006  0.7298740E+02  0.7818608E-02  0.1385125E+00
          2   -1    0    0  502    0  0.00000000000E+00  0.00000000000E+00  0.24239289676E+04  0.24239289676E+04  0.00000000000E+00 0. -1.
          1   -1    0    0  501    0 -0.00000000000E+00 -0.00000000000E+00 -0.61359856203E+03  0.61359856203E+03  0.00000000000E+00 0. -1.
         25    2    1    2    0    0 -0.47985874827E+01  0.32595475953E+02  0.16846868492E+03  0.21234966239E+03  0.12500075929E+03 0.  0.
          2    1    1    2  501    0  0.46152815742E+02  0.29199000634E+02 -0.58977726837E+03  0.59230050677E+03  0.00000000000E+00 0. -1.
          1    1    1    2  502    0 -0.41354228260E+02 -0.61794476587E+02  0.22316389891E+04  0.22328773605E+04  0.00000000000E+00 0. -1.
         22    1    3    3    0    0  0.11669203461E+02  0.14878255951E+02  0.18310425913E+03  0.18407797946E+03  0.00000000000E+00 0. -1.
         22    1    3    3    0    0 -0.16467790944E+02  0.17717220001E+02 -0.14635574212E+02  0.28271682930E+02  0.00000000000E+00 0. -1.
</event>
<event>
 7    1  0.5139898E-006  0.3466903E+02  0.7818608E-02  0.1566683E+00
          2   -1    0    0  502    0  0.00000000000E+00  0.00000000000E+00  0.56670188940E+03  0.56670188940E+03  0.00000000000E+00 0. -1.
          1   -1    0    0  501    0 -0.00000000000E+00 -0.00000000000E+00 -0.38446637200E+02  0.38446637200E+02  0.00000000000E+00 0. -1.
         25    2    1    2    0    0 -0.56737742476E+01 -0.34465228535E+02  0.46381218777E+03  0.48162945121E+03  0.12500055622E+03 0.  0.
          2    1    1    2  501    0 -0.24397415796E+02  0.25098123062E+02 -0.14984408713E+02  0.38074692163E+02  0.00000000000E+00 0. -1.
          1    1    1    2  502    0  0.30071190044E+02  0.93671054729E+01  0.79427473148E+02  0.85444383234E+02  0.00000000000E+00 0. -1.
         22    1    3    3    0    0 -0.95177420118E+01 -0.17411309495E-01 -0.55309573259E+01  0.11008142672E+02  0.00000000000E+00 0.  1.
         22    1    3    3    0    0  0.38439677641E+01 -0.34447817226E+02  0.46934314509E+03  0.47062130853E+03  0.00000000000E+00 0.  1.
</event>
<event>
 7    1  0.5139898E-006  0.8879642E+02  0.7818608E-02  0.1397442E+00
          2   -1    0    0  502    0  0.00000000000E+00  0.00000000000E+00  0.42443784724E+03  0.42443784724E+03  0.00000000000E+00 0. -1.
          1   -1    0    0  501    0 -0.00000000000E+00 -0.00000000000E+00 -0.20385609441E+03  0.20385609441E+03  0.00000000000E+00 0. -1.
         25    2    1    2    0    0 -0.55664150783E+02 -0.25318508947E+02  0.84262326631E+02  0.16268072652E+03  0.12500141804E+03 0.  0.
          2    1    1    2  501    0  0.91831402125E+02  0.67223390131E+01 -0.15022457976E+03  0.17619767485E+03  0.00000000000E+00 0. -1.
          1    1    1    2  502    0 -0.36167251341E+02  0.18596169934E+02  0.28654400596E+03  0.28941554028E+03  0.00000000000E+00 0. -1.
         22    1    3    3    0    0  0.29079702745E+02  0.15793658054E+02 -0.43296314565E+01  0.33373858857E+02  0.00000000000E+00 0.  1.
         22    1    3    3    0    0 -0.84743853529E+02 -0.41112167001E+02  0.88591958087E+02  0.12930686766E+03  0.00000000000E+00 0.  1.
</event>
<event>
 7    1  0.5507100E-006  0.1103531E+03  0.7818608E-02  0.1362924E+00
          2   -1    0    0  502    0  0.00000000000E+00  0.00000000000E+00  0.12609029228E+04  0.12609029228E+04  0.00000000000E+00 0. -1.
          1   -1    0    0  501    0 -0.00000000000E+00 -0.00000000000E+00 -0.11414824793E+04  0.11414824793E+04  0.00000000000E+00 0. -1.
         25    2    1    2    0    0  0.14280030613E+03  0.52804721469E+02 -0.85072827933E+03  0.87323598175E+03  0.12498883364E+03 0.  0.
          2    1    1    2  501    0 -0.36598673366E+02 -0.23254184442E+02 -0.27536941161E+03  0.27876250256E+03  0.00000000000E+00 0. -1.
          1    1    1    2  502    0 -0.10620163276E+03 -0.29550537027E+02  0.12455181345E+04  0.12503869178E+04  0.00000000000E+00 0. -1.
         22    1    3    3    0    0  0.69445429553E+02 -0.21870646268E+02 -0.55026081206E+03  0.55505671255E+03  0.00000000000E+00 0. -1.
         22    1    3    3    0    0  0.73354876577E+02  0.74675367736E+02 -0.30046746727E+03  0.31817926920E+03  0.00000000000E+00 0. -1.
</event>
<event>
 7    1  0.5139898E-006  0.8733618E+02  0.7818608E-02  0.1347957E+00
          2   -1    0    0  502    0  0.00000000000E+00  0.00000000000E+00  0.34803347949E+03  0.34803347949E+03  0.00000000000E+00 0. -1.
          1   -1    0    0  501    0 -0.00000000000E+00 -0.00000000000E+00 -0.68650900464E+03  0.68650900464E+03  0.00000000000E+00 0. -1.
         25    2    1    2    0    0 -0.33558116065E+02  0.77416227032E+01  0.64067807237E+02  0.14462106540E+03  0.12499795501E+03 0.  0.
          2    1    1    2  501    0  0.84603839989E+02  0.27775166432E+02 -0.63912753072E+03  0.64530091440E+03  0.00000000000E+00 0. -1.
          1    1    1    2  502    0 -0.51045723924E+02 -0.35516789135E+02  0.23658419833E+03  0.24462050433E+03  0.00000000000E+00 0. -1.
         22    1    3    3    0    0 -0.12165767932E+02  0.23098929638E+02 -0.34120623462E+02  0.42962581454E+02  0.00000000000E+00 0. -1.
         22    1    3    3    0    0 -0.21392348133E+02 -0.15357306935E+02  0.98188430699E+02  0.10165848395E+03  0.00000000000E+00 0. -1.
</event>
<event>
 7    1  0.5139898E-006  0.9817021E+02  0.7818608E-02  0.1452685E+00
          2   -1    0    0  502    0  0.00000000000E+00  0.00000000000E+00  0.17099511072E+03  0.17099511072E+03  0.00000000000E+00 0. -1.
          1   -1    0    0  501    0 -0.00000000000E+00 -0.00000000000E+00 -0.26308302483E+03  0.26308302483E+03  0.00000000000E+00 0. -1.
         25    2    1    2    0    0  0.10279013941E+02  0.79246885097E+02 -0.12960682272E+02  0.14892675169E+03  0.12500188462E+03 0.  0.
          2    1    1    2  501    0 -0.23584453400E+02 -0.99368746948E+02 -0.16604989819E+03  0.19494343538E+03  0.00000000000E+00 0. -1.
          1    1    1    2  502    0  0.13305439459E+02  0.20121861851E+02  0.86922666345E+02  0.90207948475E+02  0.00000000000E+00 0. -1.
         22    1    3    3    0    0  0.31043523979E+02 -0.77382121528E+01  0.35024346738E+02  0.47437170793E+02  0.00000000000E+00 0.  1.
         22    1    3    3    0    0 -0.20764510038E+02  0.86985097250E+02 -0.47985029010E+02  0.10148958089E+03  0.00000000000E+00 0.  1.
</event>
<event>
 7    1  0.5139898E-006  0.1339340E+03  0.7818608E-02  0.1375509E+00
          2   -1    0    0  502    0  0.00000000000E+00  0.00000000000E+00  0.17062336683E+04  0.17062336683E+04  0.00000000000E+00 0. -1.
          1   -1    0    0  501    0 -0.00000000000E+00 -0.00000000000E+00 -0.13189002829E+04  0.13189002829E+04  0.00000000000E+00 0. -1.
         25    2    1    2    0    0 -0.19866805289E+02 -0.14166462425E+03  0.41165318758E+03  0.45337282467E+03  0.12500006236E+03 0.  0.
          2    1    1    2  501    0  0.47511373534E+02  0.12517599636E+03 -0.12943834275E+04  0.13012896749E+04  0.00000000000E+00 0. -1.
          1    1    1    2  502    0 -0.27644568245E+02  0.16488627889E+02  0.12700636253E+04  0.12704714516E+04  0.00000000000E+00 0. -1.
         22    1    3    3    0    0 -0.64834933881E+00  0.12648648493E+02 -0.68744316023E+00  0.12683897022E+02  0.00000000000E+00 0.  1.
         22    1    3    3    0    0 -0.19218455950E+02 -0.15431327275E+03  0.41234063074E+03  0.44068892765E+03  0.00000000000E+00 0.  1.
</event>
<event>
 7    1  0.5139898E-006  0.1343719E+03  0.7818608E-02  0.1332380E+00
          2   -1    0    0  502    0  0.00000000000E+00  0.00000000000E+00  0.59245441735E+03  0.59245441735E+03  0.00000000000E+00 0. -1.
          1   -1    0    0  501    0 -0.00000000000E+00 -0.00000000000E+00 -0.62867279515E+03  0.62867279515E+03  0.00000000000E+00 0. -1.
         25    2    1    2    0    0  0.11504002032E+03 -0.45328195702E+01  0.22515522905E+03  0.28209273467E+03  0.12500672403E+03 0.  0.
          2    1    1    2  501    0 -0.12924094444E+03 -0.39489670721E+02 -0.59096160923E+03  0.60621636352E+03  0.00000000000E+00 0. -1.
          1    1    1    2  502    0  0.14200924124E+02  0.44022490291E+02  0.32958800238E+03  0.33281811431E+03  0.00000000000E+00 0. -1.
         22    1    3    3    0    0  0.25724632456E+02 -0.58218610158E+02  0.10744548529E+03  0.12488272736E+03  0.00000000000E+00 0.  1.
         22    1    3    3    0    0  0.89315387862E+02  0.53685790588E+02  0.11770974377E+03  0.15721000731E+03  0.00000000000E+00 0.  1.
</event>
<event>
 7    1  0.5139898E-006  0.1140853E+03  0.7818608E-02  0.1355622E+00
          2   -1    0    0  502    0  0.00000000000E+00  0.00000000000E+00  0.13957505054E+03  0.13957505054E+03  0.00000000000E+00 0. -1.
          1   -1    0    0  501    0 -0.00000000000E+00 -0.00000000000E+00 -0.10397791136E+04  0.10397791136E+04  0.00000000000E+00 0. -1.
         25    2    1    2    0    0 -0.22296940607E+02  0.10394337982E+03 -0.18906128063E+03  0.25034120597E+03  0.12500068722E+03 0.  0.
          2    1    1    2  501    0  0.66086253023E+02 -0.95476851528E+02 -0.81119844181E+03  0.81946698165E+03  0.00000000000E+00 0. -1.
          1    1    1    2  502    0 -0.43789312417E+02 -0.84665282915E+01  0.10005565941E+03  0.10954597648E+03  0.00000000000E+00 0. -1.
         22    1    3    3    0    0  0.44795565601E+02  0.31514238485E+02 -0.11347093374E+03  0.12599778859E+03  0.00000000000E+00 0. -1.
         22    1    3    3    0    0 -0.67092506207E+02  0.72429141335E+02 -0.75590346886E+02  0.12434341738E+03  0.00000000000E+00 0. -1.
</event>
<event>
 7    1  0.5139898E-006  0.8414784E+02  0.7818608E-02  0.1430414E+00
          2   -1    0    0  502    0  0.00000000000E+00  0.00000000000E+00  0.20316205256E+04  0.20316205256E+04  0.00000000000E+00 0. -1.
          1   -1    0    0  501    0 -0.00000000000E+00 -0.00000000000E+00 -0.54407626184E+02  0.54407626184E+02  0.00000000000E+00 0. -1.
         25    2    1    2    0    0  0.10700585673E+03  0.29554574613E+02  0.85225545139E+03  0.86849918198E+03  0.12501099321E+03 0.  0.
          2    1    1    2  501    0 -0.82778027786E+02 -0.68161341016E+01 -0.85840613224E+01  0.83500584890E+02  0.00000000000E+00 0. -1.
          1    1    1    2  502    0 -0.24227828940E+02 -0.22738440511E+02  0.11335415094E+04  0.11340283850E+04  0.00000000000E+00 0. -1.
         22    1    3    3    0    0  0.64057667490E+02 -0.37062721799E+02  0.24046915400E+03  0.25159976975E+03  0.00000000000E+00 0. -1.
         22    1    3    3    0    0  0.42948189236E+02  0.66617296411E+02  0.61178629738E+03  0.61689941223E+03  0.00000000000E+00 0. -1.
</event>
<event>
 7    1  0.5139898E-006  0.2203100E+03  0.7818608E-02  0.1267449E+00
          2   -1    0    0  502    0  0.00000000000E+00  0.00000000000E+00  0.40557184130E+03  0.40557184130E+03  0.00000000000E+00 0. -1.
          1   -1    0    0  501    0 -0.00000000000E+00 -0.00000000000E+00 -0.39899600759E+03  0.39899600759E+03  0.00000000000E+00 0. -1.
         25    2    1    2    0    0  0.21263315699E+03  0.97962037828E+02  0.35611793014E+01  0.26541948210E+03  0.12500159667E+03 0.  0.
          2    1    1    2  501    0 -0.17319440243E+03 -0.13085461960E+03 -0.22073225290E+03  0.30958352665E+03  0.00000000000E+00 0. -1.
          1    1    1    2  502    0 -0.39438754566E+02  0.32892581775E+02  0.22374690730E+03  0.22956484013E+03  0.00000000000E+00 0. -1.
         22    1    3    3    0    0  0.10879971366E+03  0.65940753982E+02  0.62564754571E+02  0.14177414871E+03  0.00000000000E+00 0. -1.
         22    1    3    3    0    0  0.10383344334E+03  0.32021283847E+02 -0.59003575269E+02  0.12364533339E+03  0.00000000000E+00 0. -1.
</event>
<event>
 7    1  0.5139898E-006  0.1060097E+03  0.7818608E-02  0.1287952E+00
          2   -1    0    0  502    0  0.00000000000E+00  0.00000000000E+00  0.70056413627E+02  0.70056413627E+02  0.00000000000E+00 0. -1.
          1   -1    0    0  501    0 -0.00000000000E+00 -0.00000000000E+00 -0.91916696716E+03  0.91916696716E+03  0.00000000000E+00 0. -1.
         25    2    1    2    0    0  0.64063560337E+01  0.42465244007E+02 -0.23785445222E+03  0.27210905974E+03  0.12499704639E+03 0.  0.
          2    1    1    2  501    0  0.54581805266E+02  0.68702305958E+02 -0.57989440818E+03  0.58649527274E+03  0.00000000000E+00 0. -1.
          1    1    1    2  502    0 -0.60988161300E+02 -0.11116754997E+03 -0.31361693130E+02  0.13061904830E+03  0.00000000000E+00 0. -1.
         22    1    3    3    0    0  0.26950157258E+02  0.24311709057E+02 -0.38444619297E+01  0.36498630947E+02  0.00000000000E+00 0. -1.
         22    1    3    3    0    0 -0.20543801224E+02  0.18153534950E+02 -0.23400999029E+03  0.23561042880E+03  0.00000000000E+00 0. -1.
</event>
<event>
 7    1  0.5139898E-006  0.5793785E+02  0.7818608E-02  0.1435054E+00
          2   -1    0    0  502    0  0.00000000000E+00  0.00000000000E+00  0.10234948395E+03  0.10234948395E+03  0.00000000000E+00 0. -1.
          1   -1    0    0  501    0 -0.00000000000E+00 -0.00000000000E+00 -0.96389149396E+03  0.96389149396E+03  0.00000000000E+00 0. -1.
         25    2    1    2    0    0 -0.60725363095E+01  0.14052012169E+02 -0.45482683159E+02  0.13389409975E+03  0.12499848294E+03 0.  0.
          2    1    1    2  501    0  0.48217258600E+02 -0.33928472141E+02 -0.86369822040E+03  0.86570818477E+03  0.00000000000E+00 0. -1.
          1    1    1    2  502    0 -0.42144722290E+02  0.19876459972E+02  0.47638893558E+02  0.66638693395E+02  0.00000000000E+00 0. -1.
         22    1    3    3    0    0 -0.53050069152E+02  0.33489895205E+01 -0.63178923349E+02  0.82565743038E+02  0.00000000000E+00 0. -1.
         22    1    3    3    0    0  0.46977532843E+02  0.10703022648E+02  0.17696240190E+02  0.51328356711E+02  0.00000000000E+00 0. -1.
</event>
<event>
 7    1  0.5139898E-006  0.5932576E+02  0.7818608E-02  0.1542263E+00
          2   -1    0    0  502    0  0.00000000000E+00  0.00000000000E+00  0.31781290585E+03  0.31781290585E+03  0.00000000000E+00 0. -1.
          1   -1    0    0  501    0 -0.00000000000E+00 -0.00000000000E+00 -0.84262239689E+03  0.84262239689E+03  0.00000000000E+00 0. -1.
         25    2    1    2    0    0 -0.19577108290E+02 -0.65180572857E+02 -0.24824389076E+03  0.28615296053E+03  0.12500686890E+03 0.  0.
          2    1    1    2  501    0  0.33252224160E+02  0.48574761695E+02 -0.57352837704E+03  0.57654142709E+03  0.00000000000E+00 0. -1.
          1    1    1    2  502    0 -0.13675115870E+02  0.16605811162E+02  0.29696277676E+03  0.29774091512E+03  0.00000000000E+00 0. -1.
         22    1    3    3    0    0  0.32274426746E+02 -0.34017712539E+02 -0.21697381523E+02  0.51668363174E+02  0.00000000000E+00 0. -1.
         22    1    3    3    0    0 -0.51851535036E+02 -0.31162860318E+02 -0.22654650924E+03  0.23448459736E+03  0.00000000000E+00 0. -1.
</event>
<event>
 7    1  0.5139898E-006  0.7028049E+02  0.7818608E-02  0.1394358E+00
          2   -1    0    0  502    0  0.00000000000E+00  0.00000000000E+00  0.66481796938E+03  0.66481796938E+03  0.00000000000E+00 0. -1.
          1   -1    0    0  501    0 -0.00000000000E+00 -0.00000000000E+00 -0.17924553001E+03  0.17924553001E+03  0.00000000000E+00 0. -1.
         25    2    1    2    0    0  0.96711026597E+02 -0.30864397142E+02  0.22065823312E+03  0.27316587448E+03  0.12499562177E+03 0.  0.
          2    1    1    2  501    0 -0.68338109593E+02 -0.13498617412E+02 -0.14328265520E+03  0.15931801272E+03  0.00000000000E+00 0. -1.
          1    1    1    2  502    0 -0.28372917003E+02  0.44363014554E+02  0.40819686145E+03  0.41157961220E+03  0.00000000000E+00 0. -1.
         22    1    3    3    0    0  0.53597699204E+02 -0.53746113932E+02  0.39537419739E+02  0.85583676495E+02  0.00000000000E+00 0. -1.
         22    1    3    3    0    0  0.43113327392E+02  0.22881716790E+02  0.18112081338E+03  0.18758219798E+03  0.00000000000E+00 0. -1.
</event>
<event>
 7    1  0.5139898E-006  0.1150775E+03  0.7818608E-02  0.1413244E+00
          2   -1    0    0  502    0  0.00000000000E+00  0.00000000000E+00  0.49651612070E+04  0.49651612070E+04  0.00000000000E+00 0. -1.
          1   -1    0    0  501    0 -0.00000000000E+00 -0.00000000000E+00 -0.47242369686E+03  0.47242369686E+03  0.00000000000E+00 0. -1.
         25    2    1    2    0    0 -0.14004958170E+03 -0.26187136794E+02  0.85840877332E+02  0.20807072911E+03  0.12500048248E+03 0.  0.
          2    1    1    2  501    0  0.27364208245E+02  0.44059805114E+01 -0.41015752470E+03  0.41109294281E+03  0.00000000000E+00 0. -1.
          1    1    1    2  502    0  0.11268537346E+03  0.21781156282E+02  0.48170541575E+04  0.48184212320E+04  0.00000000000E+00 0. -1.
         22    1    3    3    0    0 -0.11998210692E+03 -0.66880812259E+02  0.87153509283E+02  0.16267908043E+03  0.00000000000E+00 0.  1.
         22    1    3    3    0    0 -0.20067474787E+02  0.40693675465E+02 -0.13126319508E+01  0.45391648680E+02  0.00000000000E+00 0.  1.
</event>
<event>
 7    1  0.5139898E-006  0.7553037E+02  0.7818608E-02  0.1379034E+00
          2   -1    0    0  502    0  0.00000000000E+00  0.00000000000E+00  0.88181582732E+03  0.88181582732E+03  0.00000000000E+00 0. -1.
          1   -1    0    0  501    0 -0.00000000000E+00 -0.00000000000E+00 -0.14166145881E+04  0.14166145881E+04  0.00000000000E+00 0. -1.
         25    2    1    2    0    0 -0.10103725136E+03 -0.77315766603E+02  0.52809140961E+02  0.18600757118E+03  0.12499502886E+03 0.  0.
          2    1    1    2  501    0  0.49730508007E+02  0.56273027046E+02 -0.13479604380E+04  0.13500507840E+04  0.00000000000E+00 0. -1.
          1    1    1    2  502    0  0.51306743357E+02  0.21042739557E+02  0.76035253626E+03  0.76237206022E+03  0.00000000000E+00 0. -1.
         22    1    3    3    0    0 -0.76675320265E+02  0.77310748445E+00 -0.16915853695E+02  0.78522917286E+02  0.00000000000E+00 0. -1.
         22    1    3    3    0    0 -0.24361931099E+02 -0.78088874087E+02  0.69724994656E+02  0.10748465389E+03  0.00000000000E+00 0. -1.
</event>
<event>
 7    1  0.5139898E-006  0.8485811E+02  0.7818608E-02  0.1389388E+00
          2   -1    0    0  502    0  0.00000000000E+00  0.00000000000E+00  0.40264684794E+03  0.40264684794E+03  0.00000000000E+00 0. -1.
          1   -1    0    0  501    0 -0.00000000000E+00 -0.00000000000E+00 -0.10531783570E+03  0.10531783570E+03  0.00000000000E+00 0. -1.
         25    2    1    2    0    0 -0.65430623888E+02 -0.42339975658E+02  0.22288719868E+02  0.14898184394E+03  0.12499985084E+03 0.  0.
          2    1    1    2  501    0  0.27999057379E+02 -0.35719822075E+02 -0.21387436995E+02  0.50172456233E+02  0.00000000000E+00 0. -1.
          1    1    1    2  502    0  0.37431566509E+02  0.78059797734E+02  0.29642772937E+03  0.30881038347E+03  0.00000000000E+00 0. -1.
         22    1    3    3    0    0  0.52094227223E+01 -0.55185012360E+02  0.47385074681E+02  0.72923720262E+02  0.00000000000E+00 0. -1.
         22    1    3    3    0    0 -0.70640046610E+02  0.12845036701E+02 -0.25096354813E+02  0.76058123681E+02  0.00000000000E+00 0. -1.
</event>
<event>
 7    1  0.5139898E-006  0.1488613E+03  0.7818608E-02  0.1243988E+00
          2   -1    0    0  502    0  0.00000000000E+00  0.00000000000E+00  0.11022549842E+03  0.11022549842E+03  0.00000000000E+00 0. -1.
          1   -1    0    0  501    0 -0.00000000000E+00 -0.00000000000E+00 -0.19620054541E+04  0.19620054541E+04  0.00000000000E+00 0. -1.
         25    2    1    2    0    0  0.10018437072E+03  0.81872368671E+02 -0.11434599505E+03  0.21316556428E+03  0.12499823328E+03 0.  0.
          2    1    1    2  501    0 -0.46205530105E+02  0.83998041373E+02 -0.16689019191E+04  0.16716531451E+04  0.00000000000E+00 0. -1.
          1    1    1    2  502    0 -0.53978840613E+02 -0.16587041004E+03 -0.68532041529E+02  0.18741224314E+03  0.00000000000E+00 0. -1.
         22    1    3    3    0    0 -0.11080938422E+02  0.59300806819E+02 -0.66998852048E+02  0.90156636259E+02  0.00000000000E+00 0. -1.
         22    1    3    3    0    0  0.11126530914E+03  0.22571561852E+02 -0.47347143001E+02  0.12300892802E+03  0.00000000000E+00 0. -1.
</event>
<event>
 7    1  0.5139898E-006  0.1717658E+03  0.7818608E-02  0.1367130E+00
          2   -1    0    0  502    0  0.00000000000E+00  0.00000000000E+00  0.19495732536E+04  0.19495732536E+04  0.00000000000E+00 0. -1.
          1   -1    0    0  501    0 -0.00000000000E+00 -0.00000000000E+00 -0.17404961349E+04  0.17404961349E+04  0.00000000000E+00 0. -1.
         25    2    1    2    0    0  0.15099389261E+03  0.10436723626E+02  0.51336946892E+03  0.54961966219E+03  0.12500192256E+03 0.  0.
          2    1    1    2  501    0  0.26383216808E+02  0.52366794320E+01 -0.17166752566E+04  0.17168859699E+04  0.00000000000E+00 0. -1.
          1    1    1    2  502    0 -0.17737710942E+03 -0.15673403058E+02  0.14123829063E+04  0.14235637564E+04  0.00000000000E+00 0. -1.
         22    1    3    3    0    0  0.97083082700E+02  0.50506359771E+01  0.12941082414E+03  0.16185733000E+03  0.00000000000E+00 0. -1.
         22    1    3    3    0    0  0.53910809908E+02  0.53860876492E+01  0.38395864478E+03  0.38776233220E+03  0.00000000000E+00 0. -1.
</event>
<event>
 7    1  0.5139898E-006  0.7680387E+02  0.7818608E-02  0.1349324E+00
          2   -1    0    0  502    0  0.00000000000E+00  0.00000000000E+00  0.19439093778E+04  0.19439093778E+04  0.00000000000E+00 0. -1.
          1   -1    0    0  501    0 -0.00000000000E+00 -0.00000000000E+00 -0.45553507748E+03  0.45553507748E+03  0.00000000000E+00 0. -1.
         25    2    1    2    0    0 -0.14595026362E+03  0.73596772300E+01  0.11080681593E+04  0.11246311193E+04  0.12499785795E+03 0.  0.
          2    1    1    2  501    0  0.76590259512E+02  0.12494168143E+01 -0.44248129209E+03  0.44906271582E+03  0.00000000000E+00 0. -1.
          1    1    1    2  502    0  0.69360004111E+02 -0.86090940443E+01  0.82278743308E+03  0.82575062017E+03  0.00000000000E+00 0. -1.
         22    1    3    3    0    0 -0.69377338633E+02  0.65967721143E+02  0.53053874322E+03  0.53910695915E+03  0.00000000000E+00 0. -1.
         22    1    3    3    0    0 -0.76572924990E+02 -0.58608043913E+02  0.57752941612E+03  0.58552416017E+03  0.00000000000E+00 0. -1.
</event>
<event>
 7    1  0.5139898E-006  0.1199566E+03  0.7818608E-02  0.1305645E+00
          2   -1    0    0  502    0  0.00000000000E+00  0.00000000000E+00  0.16253998647E+04  0.16253998647E+04  0.00000000000E+00 0. -1.
          1   -1    0    0  501    0 -0.00000000000E+00 -0.00000000000E+00 -0.51840969826E+03  0.51840969826E+03  0.00000000000E+00 0. -1.
         25    2    1    2    0    0  0.41562746929E+00  0.18170420306E+03 -0.16962322663E+03  0.27823145920E+03  0.12499646283E+03 0.  0.
          2    1    1    2  501    0  0.16886902253E+02 -0.63616343813E+02 -0.28850399513E+03  0.29591681580E+03  0.00000000000E+00 0. -1.
          1    1    1    2  502    0 -0.17302529722E+02 -0.11808785925E+03  0.15651173882E+04  0.15696612879E+04  0.00000000000E+00 0. -1.
         22    1    3    3    0    0  0.13319091288E+01  0.20029701552E+03 -0.16373212407E+03  0.25870615930E+03  0.00000000000E+00 0.  1.
         22    1    3    3    0    0 -0.91628165947E+00 -0.18592812451E+02 -0.58911025552E+01  0.19525299901E+02  0.00000000000E+00 0.  1.
</event>
<event>
 7    1  0.5139898E-006  0.4380269E+02  0.7818608E-02  0.1488454E+00
          2   -1    0    0  502    0  0.00000000000E+00  0.00000000000E+00  0.51621579356E+03  0.51621579356E+03  0.00000000000E+00 0. -1.
          1   -1    0    0  501    0 -0.00000000000E+00 -0.00000000000E+00 -0.62718496137E+02  0.62718496137E+02  0.00000000000E+00 0. -1.
         25    2    1    2    0    0  0.63941752679E+02  0.18027706302E+01  0.29652785783E+03  0.32809311002E+03  0.12499808261E+03 0.  0.
          2    1    1    2  501    0 -0.30639892213E+02 -0.28509370489E+02 -0.34767804849E+02  0.54409442696E+02  0.00000000000E+00 0. -1.
          1    1    1    2  502    0 -0.33301860466E+02  0.26706599859E+02  0.19173724444E+03  0.19643173698E+03  0.00000000000E+00 0. -1.
         22    1    3    3    0    0 -0.18151845702E+02  0.15100017046E+02  0.19692743180E+03  0.19833787690E+03  0.00000000000E+00 0. -1.
         22    1    3    3    0    0  0.82093598382E+02 -0.13297246416E+02  0.99600426029E+02  0.12975523312E+03  0.00000000000E+00 0. -1.
</event>
<event>
 7    1  0.5139898E-006  0.6939908E+02  0.7818608E-02  0.1374955E+00
          2   -1    0    0  502    0  0.00000000000E+00  0.00000000000E+00  0.44792432049E+03  0.44792432049E+03  0.00000000000E+00 0. -1.
          1   -1    0    0  501    0 -0.00000000000E+00 -0.00000000000E+00 -0.12737581425E+04  0.12737581425E+04  0.00000000000E+00 0. -1.
         25    2    1    2    0    0 -0.95437155309E+02  0.11348701379E+02 -0.59046541300E+02  0.16837328242E+03  0.12500409816E+03 0.  0.
          2    1    1    2  501    0  0.37742153107E+02 -0.49697369432E+02 -0.11561492315E+04  0.11578321745E+04  0.00000000000E+00 0. -1.
          1    1    1    2  502    0  0.57695002202E+02  0.38348668053E+02  0.38936195082E+03  0.39547700611E+03  0.00000000000E+00 0. -1.
         22    1    3    3    0    0 -0.85943439360E+02 -0.12450454816E+02  0.16681149780E+02  0.88428215815E+02  0.00000000000E+00 0. -1.
         22    1    3    3    0    0 -0.94937159484E+01  0.23799156195E+02 -0.75727691080E+02  0.79945066605E+02  0.00000000000E+00 0. -1.
</event>
<event>
 7    1  0.5139898E-006  0.3913562E+02  0.7818608E-02  0.1571164E+00
          2   -1    0    0  502    0  0.00000000000E+00  0.00000000000E+00  0.54982853930E+02  0.54982853930E+02  0.00000000000E+00 0. -1.
          1   -1    0    0  501    0 -0.00000000000E+00 -0.00000000000E+00 -0.44157487041E+03  0.44157487041E+03  0.00000000000E+00 0. -1.
         25    2    1    2    0    0  0.43591857663E+02  0.39119155206E+02 -0.14809851998E+03  0.20245550044E+03  0.12499799870E+03 0.  0.
          2    1    1    2  501    0 -0.36033769380E+02 -0.13063802649E+02 -0.25790869219E+03  0.26074122993E+03  0.00000000000E+00 0. -1.
          1    1    1    2  502    0 -0.75580882828E+01 -0.26055352557E+02  0.19415195691E+02  0.33360993976E+02  0.00000000000E+00 0. -1.
         22    1    3    3    0    0  0.63435865465E+02 -0.23706937104E+01 -0.14265716281E+03  0.15614350873E+03  0.00000000000E+00 0. -1.
         22    1    3    3    0    0 -0.19844007802E+02  0.41489848917E+02 -0.54413571719E+01  0.46311991716E+02  0.00000000000E+00 0. -1.
</event>
<event>
 7    1  0.5139898E-006  0.1562028E+03  0.7818608E-02  0.1237589E+00
          2   -1    0    0  502    0  0.00000000000E+00  0.00000000000E+00  0.31273298394E+03  0.31273298394E+03  0.00000000000E+00 0. -1.
          1   -1    0    0  501    0 -0.00000000000E+00 -0.00000000000E+00 -0.20745103528E+04  0.20745103528E+04  0.00000000000E+00 0. -1.
         25    2    1    2    0    0  0.18175630952E+02 -0.20460317979E+03  0.12824389898E+03  0.27251506952E+03  0.12500060300E+03 0.  0.
          2    1    1    2  501    0 -0.59310922518E+02  0.77369598292E+02 -0.19609441580E+04  0.19633659443E+04  0.00000000000E+00 0. -1.
          1    1    1    2  502    0  0.41135291566E+02  0.12723358150E+03  0.70922890141E+02  0.15136232299E+03  0.00000000000E+00 0. -1.
         22    1    3    3    0    0 -0.50480826816E+02 -0.12793201526E+03  0.74116323285E+02  0.15623105895E+03  0.00000000000E+00 0. -1.
         22    1    3    3    0    0  0.68656457768E+02 -0.76671164535E+02  0.54127575692E+02  0.11628401057E+03  0.00000000000E+00 0. -1.
</event>
<event>
 7    1  0.5139898E-006  0.8462671E+02  0.7818608E-02  0.1375884E+00
          2   -1    0    0  502    0  0.00000000000E+00  0.00000000000E+00  0.65065718128E+03  0.65065718128E+03  0.00000000000E+00 0. -1.
          1   -1    0    0  501    0 -0.00000000000E+00 -0.00000000000E+00 -0.18005694619E+03  0.18005694619E+03  0.00000000000E+00 0. -1.
         25    2    1    2    0    0 -0.41942526704E+02  0.23232094338E+02  0.14566992602E+03  0.19784768962E+03  0.12500030075E+03 0.  0.
          2    1    1    2  501    0  0.47564816657E+02 -0.73706117404E+02 -0.13997750123E+03  0.16519293077E+03  0.00000000000E+00 0. -1.
          1    1    1    2  502    0 -0.56222899531E+01  0.50474023067E+02  0.46490781030E+03  0.46767350708E+03  0.00000000000E+00 0. -1.
         22    1    3    3    0    0  0.30678360593E+02  0.41110481723E+02  0.28050554263E+02  0.58464237878E+02  0.00000000000E+00 0.  1.
         22    1    3    3    0    0 -0.72620887297E+02 -0.17878387385E+02  0.11761937176E+03  0.13938345175E+03  0.00000000000E+00 0.  1.
</event>
<event>
 7    1  0.5139898E-006  0.2811958E+03  0.7818608E-02  0.1232225E+00
          2   -1    0    0  502    0  0.00000000000E+00  0.00000000000E+00  0.29877906246E+04  0.29877906246E+04  0.00000000000E+00 0. -1.
          1   -1    0    0  501    0 -0.00000000000E+00 -0.00000000000E+00 -0.15377304875E+04  0.15377304875E+04  0.00000000000E+00 0. -1.
         25    2    1    2    0    0  0.25191048300E+03  0.15805011503E+03  0.33661795705E+03  0.46623586058E+03  0.12500199349E+03 0.  0.
          2    1    1    2  501    0 -0.26176833228E+03 -0.10169381553E+03 -0.14592149161E+04  0.14859920805E+04  0.00000000000E+00 0. -1.
          1    1    1    2  502    0  0.98578492875E+01 -0.56356299501E+02  0.25726570962E+04  0.25732931710E+04  0.00000000000E+00 0. -1.
         22    1    3    3    0    0  0.21920196816E+03  0.11290845301E+03  0.32719294934E+03  0.40969872797E+03  0.00000000000E+00 0. -1.
         22    1    3    3    0    0  0.32708514840E+02  0.45141662023E+02  0.94250077104E+01  0.56537132608E+02  0.00000000000E+00 0. -1.
</event>
<event>
 7    1  0.5139898E-006  0.9331370E+02  0.7818608E-02  0.1303401E+00
          2   -1    0    0  502    0  0.00000000000E+00  0.00000000000E+00  0.25451981391E+04  0.25451981391E+04  0.00000000000E+00 0. -1.
          1   -1    0    0  501    0 -0.00000000000E+00 -0.00000000000E+00 -0.47937520794E+02  0.47937520794E+02  0.00000000000E+00 0. -1.
         25    2    1    2    0    0  0.27679165515E+02  0.68000801547E+02  0.14733951979E+03  0.20669454153E+03  0.12499381661E+03 0.  0.
          2    1    1    2  501    0 -0.11558862228E+03 -0.36705835058E+02  0.19591179374E+03  0.23041154237E+03  0.00000000000E+00 0. -1.
          1    1    1    2  502    0  0.87909456769E+02 -0.31294966489E+02  0.21540093048E+04  0.21560295760E+04  0.00000000000E+00 0. -1.
         22    1    3    3    0    0 -0.20652360037E+02  0.72777222334E+02  0.33129423949E+02  0.82586940837E+02  0.00000000000E+00 0.  1.
         22    1    3    3    0    0  0.48331525552E+02 -0.47764207870E+01  0.11421009584E+03  0.12410760069E+03  0.00000000000E+00 0.  1.
</event>
<event>
 7    1  0.5139898E-006  0.8184465E+02  0.7818608E-02  0.1325595E+00
          2   -1    0    0  502    0  0.00000000000E+00  0.00000000000E+00  0.24715436958E+04  0.24715436958E+04  0.00000000000E+00 0. -1.
          1   -1    0    0  501    0 -0.00000000000E+00 -0.00000000000E+00 -0.43614144495E+03  0.43614144495E+03  0.00000000000E+00 0. -1.
         25    2    1    2    0    0 -0.11901674368E+03 -0.10842247458E+03  0.34502992169E+03  0.40074131709E+03  0.12501015195E+03 0.  0.
          2    1    1    2  501    0  0.54887523432E+02  0.59563753306E+02 -0.40348525091E+03  0.41153472349E+03  0.00000000000E+00 0. -1.
          1    1    1    2  502    0  0.64129220251E+02  0.48858721271E+02  0.20938575800E+04  0.20954091001E+04  0.00000000000E+00 0. -1.
         22    1    3    3    0    0 -0.45971552666E+02 -0.88762656360E+02  0.29125285370E+03  0.30792924123E+03  0.00000000000E+00 0. -1.
         22    1    3    3    0    0 -0.73045191016E+02 -0.19659818217E+02  0.53777067994E+02  0.92812075858E+02  0.00000000000E+00 0. -1.
</event>
<event>
 7    1  0.5139898E-006  0.1744994E+03  0.7818608E-02  0.1310322E+00
          2   -1    0    0  502    0  0.00000000000E+00  0.00000000000E+00  0.19457128142E+03  0.19457128142E+03  0.00000000000E+00 0. -1.
          1   -1    0    0  501    0 -0.00000000000E+00 -0.00000000000E+00 -0.67896599698E+03  0.67896599698E+03  0.00000000000E+00 0. -1.
         25    2    1    2    0    0 -0.16797551133E+02 -0.14396852301E+03 -0.48589534019E+03  0.52223367497E+03  0.12499854524E+03 0.  0.
          2    1    1    2  501    0 -0.34934560468E+02 -0.25684427603E+02 -0.12574783177E+03  0.13301364791E+03  0.00000000000E+00 0. -1.
          1    1    1    2  502    0  0.51732111601E+02  0.16965295061E+03  0.12724845640E+03  0.21828995552E+03  0.00000000000E+00 0. -1.
         22    1    3    3    0    0 -0.23430810417E+02 -0.16425418088E+03 -0.38709357902E+03  0.42115303363E+03  0.00000000000E+00 0.  1.
         22    1    3    3    0    0  0.66332592840E+01  0.20285657873E+02 -0.98801761168E+02  0.10108064134E+03  0.00000000000E+00 0.  1.
</event>
<event>
 7    1  0.5139898E-006  0.1001700E+03  0.7818608E-02  0.1289886E+00
          2   -1    0    0  502    0  0.00000000000E+00  0.00000000000E+00  0.13857075305E+04  0.13857075305E+04  0.00000000000E+00 0. -1.
          1   -1    0    0  501    0 -0.00000000000E+00 -0.00000000000E+00 -0.56197968766E+03  0.56197968766E+03  0.00000000000E+00 0. -1.
         25    2    1    2    0    0  0.85134255804E+02 -0.14363182109E+03  0.30071689089E+03  0.36596552616E+03  0.12498870481E+03 0.  0.
          2    1    1    2  501    0 -0.78016421166E+02  0.47215440125E+02 -0.52318263938E+03  0.53107055455E+03  0.00000000000E+00 0. -1.
          1    1    1    2  502    0 -0.71178346380E+01  0.96416380962E+02  0.10461935914E+04  0.10506511375E+04  0.00000000000E+00 0. -1.
         22    1    3    3    0    0  0.84225174459E+02 -0.31916452667E+02  0.18127836761E+03  0.20242130946E+03  0.00000000000E+00 0. -1.
         22    1    3    3    0    0  0.90908134565E+00 -0.11171536842E+03  0.11943852329E+03  0.16354421670E+03  0.00000000000E+00 0. -1.
</event>
<event>
 7    1  0.5139898E-006  0.1331561E+03  0.7818608E-02  0.1370616E+00
          2   -1    0    0  502    0  0.00000000000E+00  0.00000000000E+00  0.43852910165E+03  0.43852910165E+03  0.00000000000E+00 0. -1.
          1   -1    0    0  501    0 -0.00000000000E+00 -0.00000000000E+00 -0.13167172682E+04  0.13167172682E+04  0.00000000000E+00 0. -1.
         25    2    1    2    0    0 -0.12547549160E+03  0.10917784168E+03  0.19672216538E+03  0.28633506507E+03  0.12499703610E+03 0.  0.
          2    1    1    2  501    0  0.98862238309E+02 -0.88489506992E+02 -0.12669788691E+04  0.12739072140E+04  0.00000000000E+00 0. -1.
          1    1    1    2  502    0  0.26613253288E+02 -0.20688334687E+02  0.19206853720E+03  0.19500409079E+03  0.00000000000E+00 0. -1.
         22    1    3    3    0    0 -0.11684240871E+03  0.28763502502E+02  0.15217457711E+03  0.19400151924E+03  0.00000000000E+00 0.  1.
         22    1    3    3    0    0 -0.86330828900E+01  0.80414339177E+02  0.44547588275E+02  0.92333545836E+02  0.00000000000E+00 0.  1.
</event>
<event>
 7    1  0.5139898E-006  0.8048468E+02  0.7818608E-02  0.1393675E+00
          2   -1    0    0  502    0  0.00000000000E+00  0.00000000000E+00  0.14321664974E+04  0.14321664974E+04  0.00000000000E+00 0. -1.
          1   -1    0    0  501    0 -0.00000000000E+00 -0.00000000000E+00 -0.18993443973E+03  0.18993443973E+03  0.00000000000E+00 0. -1.
         25    2    1    2    0    0 -0.85611950617E+02  0.91701463073E+02  0.83373292934E+03  0.85233408828E+03  0.12499694461E+03 0.  0.
          2    1    1    2  501    0  0.59387281834E+02 -0.53623189187E+02 -0.17080651531E+03  0.18861909059E+03  0.00000000000E+00 0. -1.
          1    1    1    2  502    0  0.26224668784E+02 -0.38078273886E+02  0.57930564360E+03  0.58114775824E+03  0.00000000000E+00 0. -1.
         22    1    3    3    0    0 -0.16089986851E+02  0.16851083450E+02  0.55469679740E+03  0.55518590016E+03  0.00000000000E+00 0. -1.
         22    1    3    3    0    0 -0.69521963766E+02  0.74850379624E+02  0.27903613194E+03  0.29714818812E+03  0.00000000000E+00 0. -1.
</event>
<event>
 7    1  0.5139898E-006  0.6828878E+02  0.7818608E-02  0.1415544E+00
          2   -1    0    0  502    0  0.00000000000E+00  0.00000000000E+00  0.12281503332E+04  0.12281503332E+04  0.00000000000E+00 0. -1.
          1   -1    0    0  501    0 -0.00000000000E+00 -0.00000000000E+00 -0.75841453664E+02  0.75841453664E+02  0.00000000000E+00 0. -1.
         25    2    1    2    0    0  0.37620383930E+02  0.86766078974E+00  0.42146439905E+03  0.44121961058E+03  0.12500583574E+03 0.  0.
          2    1    1    2  501    0 -0.56800957175E+02  0.40812389246E+02 -0.46554921230E+02  0.84020000849E+02  0.00000000000E+00 0. -1.
          1    1    1    2  502    0  0.19180573245E+02 -0.41680050036E+02  0.77739940175E+03  0.77875217547E+03  0.00000000000E+00 0. -1.
         22    1    3    3    0    0  0.51606291685E+02 -0.36659175157E+02  0.10782233204E+03  0.12503103516E+03  0.00000000000E+00 0. -1.
         22    1    3    3    0    0 -0.13985907755E+02  0.37526835947E+02  0.31364206700E+03  0.31618857542E+03  0.00000000000E+00 0. -1.
</event>
<event>
 7    1  0.5139898E-006  0.5065845E+02  0.7818608E-02  0.1455784E+00
          2   -1    0    0  502    0  0.00000000000E+00  0.00000000000E+00  0.19325824804E+03  0.19325824804E+03  0.00000000000E+00 0. -1.
          1   -1    0    0  501    0 -0.00000000000E+00 -0.00000000000E+00 -0.33739759678E+03  0.33739759678E+03  0.00000000000E+00 0. -1.
         25    2    1    2    0    0  0.88186580181E+01  0.70429721010E+01  0.60077304343E+02  0.13914577014E+03  0.12499956266E+03 0.  0.
          2    1    1    2  501    0 -0.23391954294E+02  0.44934340128E+02 -0.28768266949E+03  0.29210887829E+03  0.00000000000E+00 0. -1.
          1    1    1    2  502    0  0.14573296276E+02 -0.51977312229E+02  0.83466016406E+02  0.99401196399E+02  0.00000000000E+00 0. -1.
         22    1    3    3    0    0 -0.56576938698E+02  0.46767520054E+01  0.12207986782E+02  0.58067692765E+02  0.00000000000E+00 0. -1.
         22    1    3    3    0    0  0.65395596716E+02  0.23662200956E+01  0.47869317562E+02  0.81078077378E+02  0.00000000000E+00 0. -1.
</event>
<event>
 7    1  0.5139898E-006  0.1168385E+03  0.7818608E-02  0.1410474E+00
          2   -1    0    0  502    0  0.00000000000E+00  0.00000000000E+00  0.43410388820E+03  0.43410388820E+03  0.00000000000E+00 0. -1.
          1   -1    0    0  501    0 -0.00000000000E+00 -0.00000000000E+00 -0.14588403841E+03  0.14588403841E+03  0.00000000000E+00 0. -1.
         25    2    1    2    0    0 -0.11373517102E+03 -0.40451614267E+02  0.16028456865E+03  0.23640681456E+03  0.12500006720E+03 0.  0.
          2    1    1    2  501    0  0.11597870020E+03  0.12648221553E+02 -0.75028561114E+02  0.13870948559E+03  0.00000000000E+00 0. -1.
          1    1    1    2  502    0 -0.22435291837E+01  0.27803392714E+02  0.20296384225E+03  0.20487162646E+03  0.00000000000E+00 0. -1.
         22    1    3    3    0    0 -0.98768422794E+02 -0.65037224050E+02  0.61059330425E+02  0.13309126074E+03  0.00000000000E+00 0. -1.
         22    1    3    3    0    0 -0.14966748225E+02  0.24585609783E+02  0.99225238224E+02  0.10331555382E+03  0.00000000000E+00 0. -1.
</event>
<event>
 7    1  0.5139898E-006  0.5854898E+02  0.7818608E-02  0.1488807E+00
          2   -1    0    0  502    0  0.00000000000E+00  0.00000000000E+00  0.23839200333E+04  0.23839200333E+04  0.00000000000E+00 0. -1.
          1   -1    0    0  501    0 -0.00000000000E+00 -0.00000000000E+00 -0.77769009544E+03  0.77769009544E+03  0.00000000000E+00 0. -1.
         25    2    1    2    0    0  0.52583472090E+02 -0.92763088040E+01  0.14314157864E+04  0.14378549040E+04  0.12499800010E+03 0.  0.
          2    1    1    2  501    0 -0.43530735638E+02  0.39169576729E+02 -0.77310600563E+03  0.77532062828E+03  0.00000000000E+00 0. -1.
          1    1    1    2  502    0 -0.90527364516E+01 -0.29893267925E+02  0.94792015709E+03  0.94843459644E+03  0.00000000000E+00 0. -1.
         22    1    3    3    0    0 -0.99846410263E+01 -0.34803358665E+02  0.10413324580E+04  0.10419617339E+04  0.00000000000E+00 0. -1.
         22    1    3    3    0    0  0.62568113116E+02  0.25527049861E+02  0.39008332837E+03  0.39589317009E+03  0.00000000000E+00 0. -1.
</event>
<event>
 7    1  0.5139898E-006  0.1074873E+03  0.7818608E-02  0.1292577E+00
          2   -1    0    0  502    0  0.00000000000E+00  0.00000000000E+00  0.71594836042E+03  0.71594836042E+03  0.00000000000E+00 0. -1.
          1   -1    0    0  501    0 -0.00000000000E+00 -0.00000000000E+00 -0.10368508949E+04  0.10368508949E+04  0.00000000000E+00 0. -1.
         25    2    1    2    0    0  0.12656670281E+03 -0.82980444629E+02 -0.29575706155E+03  0.35496799350E+03  0.12500061002E+03 0.  0.
          2    1    1    2  501    0 -0.19381348695E+02  0.80573840003E+02 -0.70485913483E+03  0.70971415395E+03  0.00000000000E+00 0. -1.
          1    1    1    2  502    0 -0.10718535411E+03  0.24066046264E+01  0.67971366193E+03  0.68811710784E+03  0.00000000000E+00 0. -1.
         22    1    3    3    0    0  0.92815229287E+02  0.20975371854E+01 -0.20972021445E+03  0.22935046282E+03  0.00000000000E+00 0. -1.
         22    1    3    3    0    0  0.33751473519E+02 -0.85077981814E+02 -0.86036847105E+02  0.12561753068E+03  0.00000000000E+00 0. -1.
</event>
<event>
 7    1  0.5139898E-006  0.9241058E+02  0.7818608E-02  0.1386716E+00
          2   -1    0    0  502    0  0.00000000000E+00  0.00000000000E+00  0.17909720626E+03  0.17909720626E+03  0.00000000000E+00 0. -1.
          1   -1    0    0  501    0 -0.00000000000E+00 -0.00000000000E+00 -0.72420211831E+03  0.72420211831E+03  0.00000000000E+00 0. -1.
         25    2    1    2    0    0  0.76749040891E+01  0.56215924513E+02 -0.50173959253E+02  0.14614732054E+03  0.12498991476E+03 0.  0.
          2    1    1    2  501    0  0.81012872772E+01  0.41805716602E+02 -0.60639168645E+03  0.60788504357E+03  0.00000000000E+00 0. -1.
          1    1    1    2  502    0 -0.15776191366E+02 -0.98021641115E+02  0.11146073365E+03  0.14926696046E+03  0.00000000000E+00 0. -1.
         22    1    3    3    0    0  0.29452338460E+01 -0.30601121555E+02  0.18032409581E+02  0.35640859110E+02  0.00000000000E+00 0.  1.
         22    1    3    3    0    0  0.47296702431E+01  0.86817046068E+02 -0.68206368834E+02  0.11050646143E+03  0.00000000000E+00 0.  1.
</event>
<event>
 7    1  0.5139898E-006  0.1718935E+03  0.7818608E-02  0.1254564E+00
          2   -1    0    0  502    0  0.00000000000E+00  0.00000000000E+00  0.28575534966E+04  0.28575534966E+04  0.00000000000E+00 0. -1.
          1   -1    0    0  501    0 -0.00000000000E+00 -0.00000000000E+00 -0.50550521554E+03  0.50550521554E+03  0.00000000000E+00 0. -1.
         25    2    1    2    0    0  0.20076807350E+03  0.13862223289E+02  0.91109813149E+02  0.25379397475E+03  0.12494159835E+03 0.  0.
          2    1    1    2  501    0 -0.16257947826E+03  0.50326555535E+02 -0.40654757994E+03  0.44073323417E+03  0.00000000000E+00 0. -1.
          1    1    1    2  502    0 -0.38188595234E+02 -0.64188778824E+02  0.26674860479E+04  0.26685315033E+04  0.00000000000E+00 0. -1.
         22    1    3    3    0    0  0.43664763348E+02  0.33336789246E+02 -0.22056881775E+02  0.59198472186E+02  0.00000000000E+00 0. -1.
         22    1    3    3    0    0  0.15710331015E+03 -0.19474565957E+02  0.11316669492E+03  0.19459550257E+03  0.00000000000E+00 0. -1.
</event>
<event>
 7    1  0.5139898E-006  0.9761344E+02  0.7818608E-02  0.1432326E+00
          2   -1    0    0  502    0  0.00000000000E+00  0.00000000000E+00  0.16125770220E+04  0.16125770220E+04  0.00000000000E+00 0. -1.
          1   -1    0    0  501    0 -0.00000000000E+00 -0.00000000000E+00 -0.61607549093E+02  0.61607549093E+02  0.00000000000E+00 0. -1.
         25    2    1    2    0    0  0.10030679224E+03  0.29096600126E+02  0.35942999274E+03  0.39461519131E+03  0.12499265905E+03 0.  0.
          2    1    1    2  501    0 -0.17610858441E+02  0.22065793058E+02 -0.37360564228E+02  0.46827911738E+02  0.00000000000E+00 0. -1.
          1    1    1    2  502    0 -0.82695933801E+02 -0.51162393184E+02  0.12289000444E+04  0.12327414680E+04  0.00000000000E+00 0. -1.
         22    1    3    3    0    0  0.12560017716E+03  0.30625000686E+02  0.33635222599E+03  0.36034166439E+03  0.00000000000E+00 0.  1.
         22    1    3    3    0    0 -0.25293384915E+02 -0.15284005602E+01  0.23077766755E+02  0.34273526914E+02  0.00000000000E+00 0.  1.
</event>
<event>
 7    1  0.5139898E-006  0.4812751E+02  0.7818608E-02  0.1527221E+00
          2   -1    0    0  502    0  0.00000000000E+00  0.00000000000E+00  0.45239751481E+03  0.45239751481E+03  0.00000000000E+00 0. -1.
          1   -1    0    0  501    0 -0.00000000000E+00 -0.00000000000E+00 -0.52774621815E+03  0.52774621815E+03  0.00000000000E+00 0. -1.
         25    2    1    2    0    0 -0.19651247326E+02 -0.33924581524E+02 -0.16937961826E+03  0.21413108477E+03  0.12500247049E+03 0.  0.
          2    1    1    2  501    0  0.25733137967E+02 -0.13937573824E+02 -0.33399572274E+03  0.33527539899E+03  0.00000000000E+00 0. -1.
          1    1    1    2  502    0 -0.60818906410E+01  0.47862155347E+02  0.42802663766E+03  0.43073724921E+03  0.00000000000E+00 0. -1.
         22    1    3    3    0    0 -0.11056588979E+02 -0.31426258043E+02  0.98015767407E+01  0.34726485008E+02  0.00000000000E+00 0. -1.
         22    1    3    3    0    0 -0.85946583467E+01 -0.24983234806E+01 -0.17918119500E+03  0.17940459976E+03  0.00000000000E+00 0. -1.
</event>
<event>
 7    1  0.5139898E-006  0.1887932E+03  0.7818608E-02  0.1254221E+00
          2   -1    0    0  502    0  0.00000000000E+00  0.00000000000E+00  0.56666177147E+03  0.56666177147E+03  0.00000000000E+00 0. -1.
          1   -1    0    0  501    0 -0.00000000000E+00 -0.00000000000E+00 -0.15710205867E+03  0.15710205867E+03  0.00000000000E+00 0. -1.
         25    2    1    2    0    0 -0.14138142086E+03 -0.96514324593E+02  0.18010090481E+03  0.27814366595E+03  0.12499536781E+03 0.  0.
          2    1    1    2  501    0 -0.54925789990E+02  0.40487367006E+02 -0.60372701146E+02  0.91109452511E+02  0.00000000000E+00 0. -1.
          1    1    1    2  502    0  0.19630721085E+03  0.56026957586E+02  0.28983150913E+03  0.35451071168E+03  0.00000000000E+00 0. -1.
         22    1    3    3    0    0 -0.63309975855E+02 -0.47960642629E+01  0.24851840585E+01  0.63539998544E+02  0.00000000000E+00 0. -1.
         22    1    3    3    0    0 -0.78071445010E+02 -0.91718260330E+02  0.17761572076E+03  0.21460366740E+03  0.00000000000E+00 0. -1.
</event>
<event>
 7    1  0.5139898E-006  0.8252804E+02  0.7818608E-02  0.1481684E+00
          2   -1    0    0  502    0  0.00000000000E+00  0.00000000000E+00  0.64833147568E+03  0.64833147568E+03  0.00000000000E+00 0. -1.
          1   -1    0    0  501    0 -0.00000000000E+00 -0.00000000000E+00 -0.13789252773E+03  0.13789252773E+03  0.00000000000E+00 0. -1.
         25    2    1    2    0    0  0.10572173864E+02  0.59209839182E+02 -0.87182551641E+01  0.13899187745E+03  0.12500063243E+03 0.  0.
          2    1    1    2  501    0  0.35943835046E+01  0.23014608282E+02 -0.58819601958E+02  0.63264028972E+02  0.00000000000E+00 0. -1.
          1    1    1    2  502    0 -0.14166557369E+02 -0.82224447464E+02  0.57797680507E+03  0.58396809700E+03  0.00000000000E+00 0. -1.
         22    1    3    3    0    0  0.41050659216E+02  0.57067027562E+02  0.40449072023E+02  0.81104436897E+02  0.00000000000E+00 0. -1.
         22    1    3    3    0    0 -0.30478485352E+02  0.21428116194E+01 -0.49167327187E+02  0.57887440553E+02  0.00000000000E+00 0. -1.
</event>
<event>
 7    1  0.5139898E-006  0.6944399E+02  0.7818608E-02  0.1387222E+00
          2   -1    0    0  502    0  0.00000000000E+00  0.00000000000E+00  0.11830398080E+04  0.11830398080E+04  0.00000000000E+00 0. -1.
          1   -1    0    0  501    0 -0.00000000000E+00 -0.00000000000E+00 -0.11180334038E+04  0.11180334038E+04  0.00000000000E+00 0. -1.
         25    2    1    2    0    0  0.10771178766E+03 -0.24131507436E+00  0.14827726761E+03  0.22183158508E+03  0.12498486554E+03 0.  0.
          2    1    1    2  501    0 -0.61428462924E+02 -0.32051859910E+02 -0.10793466792E+04  0.10815683204E+04  0.00000000000E+00 0. -1.
          1    1    1    2  502    0 -0.46283324737E+02  0.32293174984E+02  0.99607581585E+03  0.99767330636E+03  0.00000000000E+00 0. -1.
         22    1    3    3    0    0  0.97211114773E+02 -0.53225145752E+02  0.10410659901E+03  0.15205624266E+03  0.00000000000E+00 0.  1.
         22    1    3    3    0    0  0.10500672889E+02  0.52983830678E+02  0.44170668604E+02  0.69775342416E+02  0.00000000000E+00 0.  1.
</event>
<event>
 7    1  0.5139898E-006  0.9518942E+02  0.7818608E-02  0.1448531E+00
          2   -1    0    0  502    0  0.00000000000E+00  0.00000000000E+00  0.11675647373E+03  0.11675647373E+03  0.00000000000E+00 0. -1.
          1   -1    0    0  501    0 -0.00000000000E+00 -0.00000000000E+00 -0.64573494668E+03  0.64573494668E+03  0.00000000000E+00 0. -1.
         25    2    1    2    0    0 -0.75256440081E+02  0.49095779211E+02 -0.32051218760E+03  0.35556473592E+03  0.12499716684E+03 0.  0.
          2    1    1    2  501    0 -0.15999039599E+02 -0.20050001802E+02 -0.28387685088E+03  0.28503339858E+03  0.00000000000E+00 0. -1.
          1    1    1    2  502    0  0.91255479680E+02 -0.29045777409E+02  0.75410565523E+02  0.12189328591E+03  0.00000000000E+00 0. -1.
         22    1    3    3    0    0 -0.31999389344E+02 -0.57620178327E+01 -0.26320656539E+03  0.26520719793E+03  0.00000000000E+00 0. -1.
         22    1    3    3    0    0 -0.43257050737E+02  0.54857797044E+02 -0.57305622208E+02  0.90357537990E+02  0.00000000000E+00 0. -1.
</event>
<event>
 7    1  0.5139898E-006  0.4039576E+02  0.7818608E-02  0.1559648E+00
          2   -1    0    0  502    0  0.00000000000E+00  0.00000000000E+00  0.79243627329E+03  0.79243627329E+03  0.00000000000E+00 0. -1.
          1   -1    0    0  501    0 -0.00000000000E+00 -0.00000000000E+00 -0.14624103121E+04  0.14624103121E+04  0.00000000000E+00 0. -1.
         25    2    1    2    0    0  0.33897592688E+01  0.11994219629E+02 -0.63089138426E+02  0.14056018219E+03  0.12498629387E+03 0.  0.
          2    1    1    2  501    0 -0.67028047867E+01 -0.40058035010E+02 -0.13600175086E+04  0.13606238266E+04  0.00000000000E+00 0. -1.
          1    1    1    2  502    0  0.33130455179E+01  0.28063815380E+02  0.75313260816E+03  0.75366257668E+03  0.00000000000E+00 0. -1.
         22    1    3    3    0    0  0.10053892184E+02  0.23099283949E+01 -0.10066302900E+03  0.10119022642E+03  0.00000000000E+00 0.  1.
         22    1    3    3    0    0 -0.66641329151E+01  0.96842912343E+01  0.37573890569E+02  0.39369955762E+02  0.00000000000E+00 0.  1.
</event>
<event>
 7    1  0.5139898E-006  0.1039962E+03  0.7818608E-02  0.1291412E+00
          2   -1    0    0  502    0  0.00000000000E+00  0.00000000000E+00  0.30927602807E+04  0.30927602807E+04  0.00000000000E+00 0. -1.
          1   -1    0    0  501    0 -0.00000000000E+00 -0.00000000000E+00 -0.43942902685E+03  0.43942902685E+03  0.00000000000E+00 0. -1.
         25    2    1    2    0    0 -0.12413912014E+03  0.82582271708E+02 -0.75456568308E+02  0.20868220048E+03  0.12499685734E+03 0.  0.
          2    1    1    2  501    0  0.10098841006E+03  0.85624970323E+00 -0.28814553465E+03  0.30533136306E+03  0.00000000000E+00 0. -1.
          1    1    1    2  502    0  0.23150710081E+02 -0.83438521412E+02  0.30169333568E+04  0.30181757440E+04  0.00000000000E+00 0. -1.
         22    1    3    3    0    0 -0.51575466144E+02  0.10171242737E+03 -0.69164152260E+02  0.13337588443E+03  0.00000000000E+00 0.  1.
         22    1    3    3    0    0 -0.72563653998E+02 -0.19130155659E+02 -0.62924160483E+01  0.75306316048E+02  0.00000000000E+00 0.  1.
</event>
<event>
 7    1  0.5139898E-006  0.6725755E+02  0.7818608E-02  0.1494371E+00
          2   -1    0    0  502    0  0.00000000000E+00  0.00000000000E+00  0.11970931631E+04  0.11970931631E+04  0.00000000000E+00 0. -1.
          1   -1    0    0  501    0 -0.00000000000E+00 -0.00000000000E+00 -0.25067310475E+02  0.25067310475E+02  0.00000000000E+00 0. -1.
         25    2    1    2    0    0 -0.34811520593E+02  0.56103894417E+02  0.31596259506E+03  0.34615078089E+03  0.12501405002E+03 0.  0.
          2    1    1    2  501    0  0.55870751270E+02 -0.40587511378E+02  0.11262137981E+03  0.13210776706E+03  0.00000000000E+00 0. -1.
          1    1    1    2  502    0 -0.21059230676E+02 -0.15516383039E+02  0.74344187773E+03  0.74390192560E+03  0.00000000000E+00 0. -1.
         22    1    3    3    0    0  0.43683826557E+02  0.15655860619E+01  0.12842328342E+03  0.13565864324E+03  0.00000000000E+00 0. -1.
         22    1    3    3    0    0 -0.78495347150E+02  0.54538308355E+02  0.18753931164E+03  0.21049213765E+03  0.00000000000E+00 0. -1.
</event>
<event>
 7    1  0.5139898E-006  0.5361838E+02  0.7818608E-02  0.1561519E+00
          2   -1    0    0  502    0  0.00000000000E+00  0.00000000000E+00  0.82416293606E+03  0.82416293606E+03  0.00000000000E+00 0. -1.
          1   -1    0    0  501    0 -0.00000000000E+00 -0.00000000000E+00 -0.51514029613E+03  0.51514029613E+03  0.00000000000E+00 0. -1.
         25    2    1    2    0    0 -0.50073676670E+02  0.46378964360E+02  0.56785978726E+02  0.15332389163E+03  0.12500074773E+03 0.  0.
          2    1    1    2  501    0  0.32521150006E+01 -0.20786297420E+02 -0.46564362834E+03  0.46611869199E+03  0.00000000000E+00 0. -1.
          1    1    1    2  502    0  0.46821561669E+02 -0.25592666941E+02  0.71788028955E+03  0.71986064857E+03  0.00000000000E+00 0. -1.
         22    1    3    3    0    0 -0.12710648319E+02  0.86247763193E+02  0.28002436930E+02  0.91566225818E+02  0.00000000000E+00 0. -1.
         22    1    3    3    0    0 -0.37363028351E+02 -0.39868798833E+02  0.28783541795E+02  0.61757665809E+02  0.00000000000E+00 0. -1.
</event>
<event>
 7    1  0.5139898E-006  0.5000568E+02  0.7818608E-02  0.1537254E+00
          2   -1    0    0  502    0  0.00000000000E+00  0.00000000000E+00  0.14734130176E+04  0.14734130176E+04  0.00000000000E+00 0. -1.
          1   -1    0    0  501    0 -0.00000000000E+00 -0.00000000000E+00 -0.42340830014E+02  0.42340830014E+02  0.00000000000E+00 0. -1.
         25    2    1    2    0    0 -0.54439340118E+02  0.35561660441E+02  0.42728892948E+03  0.44992152858E+03  0.12500111671E+03 0.  0.
          2    1    1    2  501    0  0.48529426699E+02 -0.98650752772E+01 -0.10981605189E+02  0.50724950651E+02  0.00000000000E+00 0. -1.
          1    1    1    2  502    0  0.59099134186E+01 -0.25696585164E+02  0.10147648633E+04  0.10151073684E+04  0.00000000000E+00 0. -1.
         22    1    3    3    0    0 -0.91190423147E+02  0.13668562640E+02  0.34584806021E+03  0.35792932770E+03  0.00000000000E+00 0.  1.
         22    1    3    3    0    0  0.36751083029E+02  0.21893097801E+02  0.81440869276E+02  0.91992200885E+02  0.00000000000E+00 0.  1.
</event>
<event>
 7    1  0.5139898E-006  0.3815803E+02  0.7818608E-02  0.1528805E+00
          2   -1    0    0  502    0  0.00000000000E+00  0.00000000000E+00  0.23674954262E+04  0.23674954262E+04  0.00000000000E+00 0. -1.
          1   -1    0    0  501    0 -0.00000000000E+00 -0.00000000000E+00 -0.12188381192E+02  0.12188381192E+02  0.00000000000E+00 0. -1.
         25    2    1    2    0    0 -0.34820389702E+01  0.72022850539E+02  0.13689466160E+04  0.13765316093E+04  0.12500007335E+03 0.  0.
          2    1    1    2  501    0 -0.57791042349E+01 -0.36689822643E+02  0.34821492026E+02  0.50912448755E+02  0.00000000000E+00 0. -1.
          1    1    1    2  502    0  0.92611432050E+01 -0.35333027897E+02  0.95153893696E+03  0.95223974932E+03  0.00000000000E+00 0. -1.
         22    1    3    3    0    0 -0.57384177609E+02  0.67081514636E+02  0.73611967130E+03  0.74139398698E+03  0.00000000000E+00 0.  1.
         22    1    3    3    0    0  0.53902138639E+02  0.49413359030E+01  0.63282694472E+03  0.63513762234E+03  0.00000000000E+00 0.  1.
</event>
<event>
 7    1  0.5139898E-006  0.9019607E+02  0.7818608E-02  0.1331084E+00
          2   -1    0    0  502    0  0.00000000000E+00  0.00000000000E+00  0.64061329747E+03  0.64061329747E+03  0.00000000000E+00 0. -1.
          1   -1    0    0  501    0 -0.00000000000E+00 -0.00000000000E+00 -0.24553165998E+03  0.24553165998E+03  0.00000000000E+00 0. -1.
         25    2    1    2    0    0  0.41878568510E+02  0.62732142481E+01  0.36679938185E+03  0.38982104380E+03  0.12500196775E+03 0.  0.
          2    1    1    2  501    0  0.39798548390E+02 -0.80940754645E+02 -0.21276182619E+03  0.23109072872E+03  0.00000000000E+00 0. -1.
          1    1    1    2  502    0 -0.81677116900E+02  0.74667540396E+02  0.24104408182E+03  0.26523318494E+03  0.00000000000E+00 0. -1.
         22    1    3    3    0    0 -0.14682235877E+02  0.45214156013E+02  0.24874978448E+03  0.25325154142E+03  0.00000000000E+00 0. -1.
         22    1    3    3    0    0  0.56560804387E+02 -0.38940941765E+02  0.11804959738E+03  0.13656950238E+03  0.00000000000E+00 0. -1.
</event>
<event>
 7    1  0.5139898E-006  0.8412774E+02  0.7818608E-02  0.1329442E+00
          2   -1    0    0  502    0  0.00000000000E+00  0.00000000000E+00  0.15075912249E+04  0.15075912249E+04  0.00000000000E+00 0. -1.
          1   -1    0    0  501    0 -0.00000000000E+00 -0.00000000000E+00 -0.24989100225E+03  0.24989100225E+03  0.00000000000E+00 0. -1.
         25    2    1    2    0    0 -0.28218413989E+02 -0.19123082565E+02  0.15369780081E+03  0.20102088245E+03  0.12499764009E+03 0.  0.
          2    1    1    2  501    0 -0.52501261505E+02  0.54693097593E+02 -0.21836691105E+03  0.23115325052E+03  0.00000000000E+00 0. -1.
          1    1    1    2  502    0  0.80719675494E+02 -0.35570015029E+02  0.13223693329E+04  0.13253080942E+04  0.00000000000E+00 0. -1.
         22    1    3    3    0    0 -0.54580485725E+02 -0.41975981124E+02  0.15108426475E+03  0.16603453697E+03  0.00000000000E+00 0. -1.
         22    1    3    3    0    0  0.26362071737E+02  0.22852898559E+02  0.26135360672E+01  0.34986345473E+02  0.00000000000E+00 0. -1.
</event>
<event>
 7    1  0.5139898E-006  0.5358892E+02  0.7818608E-02  0.1493075E+00
          2   -1    0    0  502    0  0.00000000000E+00  0.00000000000E+00  0.19551396526E+04  0.19551396526E+04  0.00000000000E+00 0. -1.
          1   -1    0    0  501    0 -0.00000000000E+00 -0.00000000000E+00 -0.69410074136E+03  0.69410074136E+03  0.00000000000E+00 0. -1.
         25    2    1    2    0    0 -0.47233754291E+02  0.61214095552E+02  0.20941786398E+03  0.25584978402E+03  0.12500030878E+03 0.  0.
          2    1    1    2  501    0  0.45509303173E+02 -0.28132515281E+02 -0.66965845906E+03  0.67179236888E+03  0.00000000000E+00 0. -1.
          1    1    1    2  502    0  0.17244511179E+01 -0.33081580271E+02  0.17212795063E+04  0.17215982411E+04  0.00000000000E+00 0. -1.
         22    1    3    3    0    0 -0.56608401605E+02 -0.22478452192E+02  0.10832568396E+03  0.12427487980E+03  0.00000000000E+00 0. -1.
         22    1    3    3    0    0  0.93746473133E+01  0.83692547744E+02  0.10109218002E+03  0.13157490422E+03  0.00000000000E+00 0. -1.
</event>
<event>
 7    1  0.5139898E-006  0.4370805E+02  0.7818608E-02  0.1563657E+00
          2   -1    0    0  502    0  0.00000000000E+00  0.00000000000E+00  0.95857408271E+03  0.95857408271E+03  0.00000000000E+00 0. -1.
          1   -1    0    0  501    0 -0.00000000000E+00 -0.00000000000E+00 -0.15702278050E+03  0.15702278050E+03  0.00000000000E+00 0. -1.
         25    2    1    2    0    0  0.19187957490E+02 -0.70057505295E+01  0.54917888804E+03  0.56359529717E+03  0.12499979869E+03 0.  0.
          2    1    1    2  501    0 -0.43844464587E+02  0.64695596136E+00 -0.14619100949E+03  0.15262557742E+03  0.00000000000E+00 0. -1.
          1    1    1    2  502    0  0.24656507097E+02  0.63587945681E+01  0.39856342366E+03  0.39937598862E+03  0.00000000000E+00 0. -1.
         22    1    3    3    0    0 -0.24782215244E+02  0.31209756629E+02  0.67350463706E+02  0.78257856235E+02  0.00000000000E+00 0. -1.
         22    1    3    3    0    0  0.43970172734E+02 -0.38215507158E+02  0.48182842433E+03  0.48533744094E+03  0.00000000000E+00 0. -1.
</event>
<event>
 7    1  0.5139898E-006  0.2107947E+03  0.7818608E-02  0.1171115E+00
          2   -1    0    0  502    0  0.00000000000E+00  0.00000000000E+00  0.70086913336E+03  0.70086913336E+03  0.00000000000E+00 0. -1.
          1   -1    0    0  501    0 -0.00000000000E+00 -0.00000000000E+00 -0.93759837678E+03  0.93759837678E+03  0.00000000000E+00 0. -1.
         25    2    1    2    0    0 -0.19426655783E+03  0.29033141822E+03  0.10966258001E+03  0.38688831352E+03  0.12499943114E+03 0.  0.
          2    1    1    2  501    0  0.96634305851E+02 -0.17912019824E+03 -0.77335992305E+03  0.79969231900E+03  0.00000000000E+00 0. -1.
          1    1    1    2  502    0  0.97632251978E+02 -0.11121121999E+03  0.42696809961E+03  0.45188687762E+03  0.00000000000E+00 0. -1.
         22    1    3    3    0    0 -0.21661449989E+02 -0.82159054373E+01  0.19911685132E+02  0.30548235998E+02  0.00000000000E+00 0.  1.
         22    1    3    3    0    0 -0.17260510784E+03  0.29854732366E+03  0.89750894879E+02  0.35634007752E+03  0.00000000000E+00 0.  1.
</event>
<event>
 7    1  0.5139898E-006  0.4802026E+02  0.7818608E-02  0.1500763E+00
          2   -1    0    0  502    0  0.00000000000E+00  0.00000000000E+00  0.65145891983E+03  0.65145891983E+03  0.00000000000E+00 0. -1.
          1   -1    0    0  501    0 -0.00000000000E+00 -0.00000000000E+00 -0.28840089475E+03  0.28840089475E+03  0.00000000000E+00 0. -1.
         25    2    1    2    0    0 -0.22270820807E+02  0.71021605040E+02  0.50973124603E+02  0.15416980181E+03  0.12502004046E+03 0.  0.
          2    1    1    2  501    0 -0.36217576836E+01 -0.47386225569E+02 -0.23385019258E+03  0.23863043409E+03  0.00000000000E+00 0. -1.
          1    1    1    2  502    0  0.25892578490E+02 -0.23635379471E+02  0.54593509306E+03  0.54705957867E+03  0.00000000000E+00 0. -1.
         22    1    3    3    0    0 -0.58254074699E+01  0.41701923291E+02  0.91971035047E+02  0.10115165380E+03  0.00000000000E+00 0. -1.
         22    1    3    3    0    0 -0.16445413337E+02  0.29319681749E+02 -0.40997910444E+02  0.53018148011E+02  0.00000000000E+00 0. -1.
</event>
<event>
 7    1  0.5139898E-006  0.7259471E+02  0.7818608E-02  0.1369532E+00
          2   -1    0    0  502    0  0.00000000000E+00  0.00000000000E+00  0.19203334616E+03  0.19203334616E+03  0.00000000000E+00 0. -1.
          1   -1    0    0  501    0 -0.00000000000E+00 -0.00000000000E+00 -0.12193778366E+04  0.12193778366E+04  0.00000000000E+00 0. -1.
         25    2    1    2    0    0 -0.20051910427E-01  0.26217275730E+02 -0.19537098781E+02  0.12921053946E+03  0.12500527721E+03 0.  0.
          2    1    1    2  501    0  0.49747232242E+02  0.37647116165E+02 -0.11321319362E+04  0.11338495551E+04  0.00000000000E+00 0. -1.
          1    1    1    2  502    0 -0.49727180332E+02 -0.63864391894E+02  0.12432454454E+03  0.14835108827E+03  0.00000000000E+00 0. -1.
         22    1    3    3    0    0  0.29462998041E+02 -0.43206887030E+02 -0.84653707172E+01  0.52977031266E+02  0.00000000000E+00 0. -1.
         22    1    3    3    0    0 -0.29483049952E+02  0.69424162759E+02 -0.11071728064E+02  0.76233508194E+02  0.00000000000E+00 0. -1.
</event>
<event>
 7    1  0.5139898E-006  0.1218002E+03  0.7818608E-02  0.1314200E+00
          2   -1    0    0  502    0  0.00000000000E+00  0.00000000000E+00  0.18098143647E+04  0.18098143647E+04  0.00000000000E+00 0. -1.
          1   -1    0    0  501    0 -0.00000000000E+00 -0.00000000000E+00 -0.24409331986E+03  0.24409331986E+03  0.00000000000E+00 0. -1.
         25    2    1    2    0    0 -0.23718939365E+02 -0.64060562184E+02  0.55758716546E+03  0.57549509670E+03  0.12499926210E+03 0.  0.
          2    1    1    2  501    0  0.71072337774E+02  0.10087496155E+03 -0.21816635979E+03  0.25064635567E+03  0.00000000000E+00 0. -1.
          1    1    1    2  502    0 -0.47353398409E+02 -0.36814399364E+02  0.12263002392E+04  0.12277662322E+04  0.00000000000E+00 0. -1.
         22    1    3    3    0    0 -0.36705476566E+02 -0.98776096288E+02  0.41488041016E+03  0.42805345921E+03  0.00000000000E+00 0.  1.
         22    1    3    3    0    0  0.12986537201E+02  0.34715534104E+02  0.14270675531E+03  0.14744163749E+03  0.00000000000E+00 0.  1.
</event>
<event>
 7    1  0.5139898E-006  0.3886450E+02  0.7818608E-02  0.1526884E+00
          2   -1    0    0  502    0  0.00000000000E+00  0.00000000000E+00  0.28908362447E+02  0.28908362447E+02  0.00000000000E+00 0. -1.
          1   -1    0    0  501    0 -0.00000000000E+00 -0.00000000000E+00 -0.14399611216E+04  0.14399611216E+04  0.00000000000E+00 0. -1.
         25    2    1    2    0    0  0.17455648419E+02 -0.54954791559E+02 -0.34322892454E+03  0.36980285145E+03  0.12499330191E+03 0.  0.
          2    1    1    2  501    0 -0.30930906523E+02  0.19039772417E+02 -0.10591061181E+04  0.10597287404E+04  0.00000000000E+00 0. -1.
          1    1    1    2  502    0  0.13475258104E+02  0.35915019142E+02 -0.87177165522E+01  0.39337892201E+02  0.00000000000E+00 0. -1.
         22    1    3    3    0    0 -0.50325748971E+02 -0.47559616929E+02 -0.16235940503E+03  0.17650828472E+03  0.00000000000E+00 0. -1.
         22    1    3    3    0    0  0.67781397390E+02 -0.73951746299E+01 -0.18086951951E+03  0.19329456673E+03  0.00000000000E+00 0. -1.
</event>
<event>
 7    1  0.5139898E-006  0.1213420E+03  0.7818608E-02  0.1328522E+00
          2   -1    0    0  502    0  0.00000000000E+00  0.00000000000E+00  0.15720339851E+03  0.15720339851E+03  0.00000000000E+00 0. -1.
          1   -1    0    0  501    0 -0.00000000000E+00 -0.00000000000E+00 -0.21614575973E+04  0.21614575973E+04  0.00000000000E+00 0. -1.
         25    2    1    2    0    0  0.13163327205E+03  0.84695420207E+02 -0.92292071259E+03  0.94440919984E+03  0.12500184998E+03 0.  0.
          2    1    1    2  501    0 -0.78724940081E+02 -0.81749073558E+02 -0.12202786230E+04  0.12255449583E+04  0.00000000000E+00 0. -1.
          1    1    1    2  502    0 -0.52908331971E+02 -0.29463466491E+01  0.13894513673E+03  0.14870683767E+03  0.00000000000E+00 0. -1.
         22    1    3    3    0    0 -0.17221517400E+02  0.29633532346E+02 -0.86107829598E+02  0.92678396721E+02  0.00000000000E+00 0.  1.
         22    1    3    3    0    0  0.14885478945E+03  0.55061887861E+02 -0.83681288299E+03  0.85173080312E+03  0.00000000000E+00 0.  1.
</event>
<event>
 7    1  0.5139898E-006  0.7372358E+02  0.7818608E-02  0.1473380E+00
          2   -1    0    0  502    0  0.00000000000E+00  0.00000000000E+00  0.39297970587E+03  0.39297970587E+03  0.00000000000E+00 0. -1.
          1   -1    0    0  501    0 -0.00000000000E+00 -0.00000000000E+00 -0.98247144291E+03  0.98247144291E+03  0.00000000000E+00 0. -1.
         25    2    1    2    0    0  0.55108069760E+02 -0.69548504507E+01 -0.41658419326E+02  0.14298620254E+03  0.12499744365E+03 0.  0.
          2    1    1    2  501    0 -0.73010152273E+02 -0.14125482863E+02 -0.88803389490E+03  0.89114208188E+03  0.00000000000E+00 0. -1.
          1    1    1    2  502    0  0.17902082513E+02  0.21080333314E+02  0.34020057719E+03  0.34132286435E+03  0.00000000000E+00 0. -1.
         22    1    3    3    0    0  0.78854069680E+02  0.36757846138E+02 -0.24912222412E+02  0.90497084944E+02  0.00000000000E+00 0. -1.
         22    1    3    3    0    0 -0.23745999920E+02 -0.43712696589E+02 -0.16746196914E+02  0.52489117599E+02  0.00000000000E+00 0. -1.
</event>
<event>
 7    1  0.5373476E-006  0.9030677E+02  0.7818608E-02  0.1347297E+00
          2   -1    0    0  502    0  0.00000000000E+00  0.00000000000E+00  0.28282572909E+04  0.28282572909E+04  0.00000000000E+00 0. -1.
          1   -1    0    0  501    0 -0.00000000000E+00 -0.00000000000E+00 -0.16653503001E+04  0.16653503001E+04  0.00000000000E+00 0. -1.
         25    2    1    2    0    0 -0.44871900483E+02 -0.43775429949E+02 -0.10929065924E+04  0.11018177863E+04  0.12501135433E+03 0.  0.
          2    1    1    2  501    0 -0.45383800353E+02  0.39979025890E+02 -0.56565309718E+03  0.56887734899E+03  0.00000000000E+00 0. -1.
          1    1    1    2  502    0  0.90255700836E+02  0.37964040586E+01  0.28214666804E+04  0.28229124557E+04  0.00000000000E+00 0. -1.
         22    1    3    3    0    0 -0.85659820472E+01 -0.26438492990E+02 -0.43370773039E+02  0.51511104764E+02  0.00000000000E+00 0.  1.
         22    1    3    3    0    0 -0.36305918436E+02 -0.17336936959E+02 -0.10495358194E+04  0.10503066815E+04  0.00000000000E+00 0.  1.
</event>
<event>
 7    1  0.5139898E-006  0.3636329E+03  0.7818608E-02  0.1120047E+00
          2   -1    0    0  502    0  0.00000000000E+00  0.00000000000E+00  0.41786993557E+04  0.41786993557E+04  0.00000000000E+00 0. -1.
          1   -1    0    0  501    0 -0.00000000000E+00 -0.00000000000E+00 -0.68770519653E+03  0.68770519653E+03  0.00000000000E+00 0. -1.
         25    2    1    2    0    0  0.30401639490E+03 -0.41646730791E+03  0.14208838222E+04  0.15167092518E+04  0.12500052456E+03 0.  0.
          2    1    1    2  501    0 -0.22121233196E+03  0.28202214635E+03 -0.58706384168E+03  0.68783380336E+03  0.00000000000E+00 0. -1.
          1    1    1    2  502    0 -0.82804062940E+02  0.13444516156E+03  0.26571741786E+04  0.26618614971E+04  0.00000000000E+00 0. -1.
         22    1    3    3    0    0  0.94434955127E+01  0.69606832580E+01  0.64484410030E+02  0.65542885623E+02  0.00000000000E+00 0.  1.
         22    1    3    3    0    0  0.29457289938E+03 -0.42342799117E+03  0.13563994122E+04  0.14511663661E+04  0.00000000000E+00 0.  1.
</event>
<event>
 7    1  0.5139898E-006  0.2709143E+02  0.7818608E-02  0.1635743E+00
          2   -1    0    0  502    0  0.00000000000E+00  0.00000000000E+00  0.23614824019E+03  0.23614824019E+03  0.00000000000E+00 0. -1.
          1   -1    0    0  501    0 -0.00000000000E+00 -0.00000000000E+00 -0.30700337501E+03  0.30700337501E+03  0.00000000000E+00 0. -1.
         25    2    1    2    0    0  0.51910534121E+01 -0.50334577470E+02 -0.15687939960E+03  0.20687313193E+03  0.12499931988E+03 0.  0.
          2    1    1    2  501    0  0.62266955868E+01  0.25875941513E+02 -0.12283348342E+03  0.12568373298E+03  0.00000000000E+00 0. -1.
          1    1    1    2  502    0 -0.11417748999E+02  0.24458635957E+02  0.20885774821E+03  0.21059475029E+03  0.00000000000E+00 0. -1.
         22    1    3    3    0    0  0.28154656516E+02  0.10414315181E+02  0.68005863819E+01  0.30779711164E+02  0.00000000000E+00 0. -1.
         22    1    3    3    0    0 -0.22963603104E+02 -0.60748892651E+02 -0.16367998598E+03  0.17609342076E+03  0.00000000000E+00 0. -1.
</event>
<event>
 7    1  0.5139898E-006  0.2882303E+02  0.7818608E-02  0.1611710E+00
          2   -1    0    0  502    0  0.00000000000E+00  0.00000000000E+00  0.10307312702E+03  0.10307312702E+03  0.00000000000E+00 0. -1.
          1   -1    0    0  501    0 -0.00000000000E+00 -0.00000000000E+00 -0.36759320390E+03  0.36759320390E+03  0.00000000000E+00 0. -1.
         25    2    1    2    0    0 -0.13145170567E+02 -0.10641434162E+02 -0.30095947986E+03  0.32632510842E+03  0.12500172894E+03 0.  0.
          2    1    1    2  501    0 -0.11001420413E+02  0.26640864715E+02 -0.47490857374E+02  0.55553113846E+02  0.00000000000E+00 0. -1.
          1    1    1    2  502    0  0.24146590980E+02 -0.15999430553E+02  0.83930260359E+02  0.88788108651E+02  0.00000000000E+00 0. -1.
         22    1    3    3    0    0 -0.28721613870E+02  0.78301902853E+01 -0.59885430317E+01  0.30366192235E+02  0.00000000000E+00 0.  1.
         22    1    3    3    0    0  0.15576443303E+02 -0.18471624448E+02 -0.29497093683E+03  0.29595891618E+03  0.00000000000E+00 0.  1.
</event>
<event>
 7    1  0.5139898E-006  0.5359120E+02  0.7818608E-02  0.1448314E+00
          2   -1    0    0  502    0  0.00000000000E+00  0.00000000000E+00  0.43298004781E+04  0.43298004781E+04  0.00000000000E+00 0. -1.
          1   -1    0    0  501    0 -0.00000000000E+00 -0.00000000000E+00 -0.29789530438E+02  0.29789530438E+02  0.00000000000E+00 0. -1.
         25    2    1    2    0    0 -0.28926111112E+02 -0.93815024953E+02  0.21308150160E+04  0.21367347992E+04  0.12499996238E+03 0.  0.
          2    1    1    2  501    0  0.10809705964E+02  0.51930591459E+02 -0.13545050935E+00  0.53043891441E+02  0.00000000000E+00 0. -1.
          1    1    1    2  502    0  0.18116405148E+02  0.41884433494E+02  0.21693313822E+04  0.21698113180E+04  0.00000000000E+00 0. -1.
         22    1    3    3    0    0 -0.24357733896E+02  0.41148573007E+01  0.12880410661E+04  0.12882779278E+04  0.00000000000E+00 0. -1.
         22    1    3    3    0    0 -0.45683772155E+01 -0.97929882254E+02  0.84277394994E+03  0.84845687139E+03  0.00000000000E+00 0. -1.
</event>
<event>
 7    1  0.5139898E-006  0.1032666E+03  0.7818608E-02  0.1384189E+00
          2   -1    0    0  502    0  0.00000000000E+00  0.00000000000E+00  0.35478408666E+03  0.35478408666E+03  0.00000000000E+00 0. -1.
          1   -1    0    0  501    0 -0.00000000000E+00 -0.00000000000E+00 -0.27291048017E+03  0.27291048017E+03  0.00000000000E+00 0. -1.
         25    2    1    2    0    0 -0.32529029255E+02  0.85356889516E+02  0.46420208577E+02  0.16162773828E+03  0.12499901474E+03 0.  0.
          2    1    1    2  501    0  0.32546754005E+02  0.21294402850E+02 -0.20202726340E+03  0.20573710882E+03  0.00000000000E+00 0. -1.
          1    1    1    2  502    0 -0.17724750071E-01 -0.10665129237E+03  0.23748066131E+03  0.26032971973E+03  0.00000000000E+00 0. -1.
         22    1    3    3    0    0  0.23222515574E+02  0.65754168151E+02  0.69246720285E+02  0.98275145022E+02  0.00000000000E+00 0.  1.
         22    1    3    3    0    0 -0.55751544829E+02  0.19602721364E+02 -0.22826511708E+02  0.63352593258E+02  0.00000000000E+00 0.  1.
</event>
<event>
 7    1  0.5139898E-006  0.9987539E+02  0.7818608E-02  0.1293804E+00
          2   -1    0    0  502    0  0.00000000000E+00  0.00000000000E+00  0.19457768273E+04  0.19457768273E+04  0.00000000000E+00 0. -1.
          1   -1    0    0  501    0 -0.00000000000E+00 -0.00000000000E+00 -0.59553874148E+03  0.59553874148E+03  0.00000000000E+00 0. -1.
         25    2    1    2    0    0 -0.67113748686E+02 -0.95843313446E+02  0.54886284525E+02  0.17979388160E+03  0.12499255833E+03 0.  0.
          2    1    1    2  501    0 -0.32240467276E+02  0.82069136557E+02 -0.52805097660E+03  0.53536214359E+03  0.00000000000E+00 0. -1.
          1    1    1    2  502    0  0.99354215962E+02  0.13774176889E+02  0.18234027778E+04  0.18261595435E+04  0.00000000000E+00 0. -1.
         22    1    3    3    0    0 -0.72327179258E+02 -0.10878900098E+03  0.80089496020E+01  0.13088319551E+03  0.00000000000E+00 0.  1.
         22    1    3    3    0    0  0.52134305727E+01  0.12945687537E+02  0.46877334923E+02  0.48910686088E+02  0.00000000000E+00 0.  1.
</event>
<event>
 7    1  0.5139898E-006  0.4913113E+02  0.7818608E-02  0.1560162E+00
          2   -1    0    0  502    0  0.00000000000E+00  0.00000000000E+00  0.15967184751E+03  0.15967184751E+03  0.00000000000E+00 0. -1.
          1   -1    0    0  501    0 -0.00000000000E+00 -0.00000000000E+00 -0.69954756583E+03  0.69954756583E+03  0.00000000000E+00 0. -1.
         25    2    1    2    0    0  0.20547475369E+02  0.17609119994E+02 -0.55536338162E+02  0.13943661968E+03  0.12500402474E+03 0.  0.
          2    1    1    2  501    0 -0.32990359040E+02 -0.37141253706E+02 -0.59988538378E+03  0.60193879273E+03  0.00000000000E+00 0. -1.
          1    1    1    2  502    0  0.12442883671E+02  0.19532133712E+02  0.11554600362E+03  0.11784400093E+03  0.00000000000E+00 0. -1.
         22    1    3    3    0    0  0.15542413248E+02 -0.37530307204E+02  0.20402611408E+02  0.45457200977E+02  0.00000000000E+00 0.  1.
         22    1    3    3    0    0  0.50050621204E+01  0.55139427199E+02 -0.75938949569E+02  0.93979418706E+02  0.00000000000E+00 0.  1.
</event>
<event>
 7    1  0.5139898E-006  0.4030828E+02  0.7818608E-02  0.1592839E+00
          2   -1    0    0  502    0  0.00000000000E+00  0.00000000000E+00  0.16219412526E+04  0.16219412526E+04  0.00000000000E+00 0. -1.
          1   -1    0    0  501    0 -0.00000000000E+00 -0.00000000000E+00 -0.10787127258E+03  0.10787127258E+03  0.00000000000E+00 0. -1.
         25    2    1    2    0    0  0.23867781687E+02  0.19238365098E+02  0.33107125733E+03  0.35521219109E+03  0.12501094982E+03 0.  0.
          2    1    1    2  501    0 -0.11650987773E+02 -0.38782908250E+02 -0.91412594961E+02  0.99980608150E+02  0.00000000000E+00 0. -1.
          1    1    1    2  502    0 -0.12216793914E+02  0.19544543151E+02  0.12744113177E+04  0.12746197260E+04  0.00000000000E+00 0. -1.
         22    1    3    3    0    0  0.60711332645E+02  0.16638259239E+02  0.81792449054E+02  0.10321192908E+03  0.00000000000E+00 0.  1.
         22    1    3    3    0    0 -0.36843550958E+02  0.26001058589E+01  0.24927880827E+03  0.25200026201E+03  0.00000000000E+00 0.  1.
</event>
<event>
 7    1  0.5139898E-006  0.4838441E+02  0.7818608E-02  0.1462430E+00
          2   -1    0    0  502    0  0.00000000000E+00  0.00000000000E+00  0.24663924795E+04  0.24663924795E+04  0.00000000000E+00 0. -1.
          1   -1    0    0  501    0 -0.00000000000E+00 -0.00000000000E+00 -0.18302739641E+04  0.18302739641E+04  0.00000000000E+00 0. -1.
         25    2    1    2    0    0 -0.64332251649E+02 -0.68317544086E+02 -0.36221218967E+02  0.16044744265E+03  0.12500191886E+03 0.  0.
          2    1    1    2  501    0  0.30518066828E+02  0.33867148996E+02 -0.17313972597E+04  0.17319973462E+04  0.00000000000E+00 0. -1.
          1    1    1    2  502    0  0.33814184821E+02  0.34450395089E+02  0.24037369941E+04  0.24042216548E+04  0.00000000000E+00 0. -1.
         22    1    3    3    0    0  0.22915106411E+02 -0.44272326564E+02  0.20213188524E+02  0.53793252286E+02  0.00000000000E+00 0.  1.
         22    1    3    3    0    0 -0.87247358060E+02 -0.24045217522E+02 -0.56434407492E+02  0.10665419037E+03  0.00000000000E+00 0.  1.
</event>
<event>
 7    1  0.5139898E-006  0.7636724E+02  0.7818608E-02  0.1503552E+00
          2   -1    0    0  502    0  0.00000000000E+00  0.00000000000E+00  0.24425722812E+03  0.24425722812E+03  0.00000000000E+00 0. -1.
          1   -1    0    0  501    0 -0.00000000000E+00 -0.00000000000E+00 -0.11938953218E+03  0.11938953218E+03  0.00000000000E+00 0. -1.
         25    2    1    2    0    0 -0.86897967273E+02  0.39620426656E+02  0.12615582724E+03  0.20164691944E+03  0.12500060979E+03 0.  0.
          2    1    1    2  501    0  0.65899466910E+02 -0.34442454033E+02 -0.62464847443E+02  0.97112715671E+02  0.00000000000E+00 0. -1.
          1    1    1    2  502    0  0.20998500363E+02 -0.51779726232E+01  0.61176716143E+02  0.64887125195E+02  0.00000000000E+00 0. -1.
         22    1    3    3    0    0 -0.87362647000E+02  0.44346143687E+01  0.13896040240E+03  0.16420076532E+03  0.00000000000E+00 0.  1.
         22    1    3    3    0    0  0.46467972693E+00  0.35185812288E+02 -0.12804575160E+02  0.37446154123E+02  0.00000000000E+00 0.  1.
</event>
<event>
 7    1  0.5139898E-006  0.5358443E+02  0.7818608E-02  0.1509440E+00
          2   -1    0    0  502    0  0.00000000000E+00  0.00000000000E+00  0.76634555614E+03  0.76634555614E+03  0.00000000000E+00 0. -1.
          1   -1    0    0  501    0 -0.00000000000E+00 -0.00000000000E+00 -0.16473170603E+04  0.16473170603E+04  0.00000000000E+00 0. -1.
         25    2    1    2    0    0 -0.81181007757E+02 -0.14869222127E+02  0.62057347265E+02  0.16213521232E+03  0.12500105175E+03 0.  0.
          2    1    1    2  501    0  0.53225793965E+02  0.51049649748E+01 -0.15964952635E+04  0.15973904257E+04  0.00000000000E+00 0. -1.
          1    1    1    2  502    0  0.27955213792E+02  0.97642571523E+01  0.65346641211E+03  0.65413697835E+03  0.00000000000E+00 0. -1.
         22    1    3    3    0    0 -0.68197387216E+02 -0.67215860540E+02  0.42557903739E+02  0.10478564168E+03  0.00000000000E+00 0. -1.
         22    1    3    3    0    0 -0.12983620540E+02  0.52346638413E+02  0.19499443526E+02  0.57349570646E+02  0.00000000000E+00 0. -1.
</event>
<event>
 7    1  0.5139898E-006  0.1632968E+03  0.7818608E-02  0.1209685E+00
          2   -1    0    0  502    0  0.00000000000E+00  0.00000000000E+00  0.14449986034E+04  0.14449986034E+04  0.00000000000E+00 0. -1.
          1   -1    0    0  501    0 -0.00000000000E+00 -0.00000000000E+00 -0.32154952076E+03  0.32154952076E+03  0.00000000000E+00 0. -1.
         25    2    1    2    0    0  0.44734280941E+02  0.20568941381E+03 -0.45748217518E+02  0.24904871510E+03  0.12499228873E+03 0.  0.
          2    1    1    2  501    0 -0.11702300986E+03 -0.10398705699E+03 -0.13538083535E+03  0.20696778358E+03  0.00000000000E+00 0. -1.
          1    1    1    2  502    0  0.72288728917E+02 -0.10170235683E+03  0.13045781356E+04  0.13105316255E+04  0.00000000000E+00 0. -1.
         22    1    3    3    0    0  0.87868211394E+02  0.12739875628E+03 -0.37787169954E+02  0.15930830452E+03  0.00000000000E+00 0.  1.
         22    1    3    3    0    0 -0.43133930453E+02  0.78290657534E+02 -0.79610475636E+01  0.89740410584E+02  0.00000000000E+00 0.  1.
</event>
<event>
 7    1  0.5139898E-006  0.3336718E+03  0.7818608E-02  0.1241804E+00
          2   -1    0    0  502    0  0.00000000000E+00  0.00000000000E+00  0.18383213821E+04  0.18383213821E+04  0.00000000000E+00 0. -1.
          1   -1    0    0  501    0 -0.00000000000E+00 -0.00000000000E+00 -0.55214376416E+03  0.55214376416E+03  0.00000000000E+00 0. -1.
         25    2    1    2    0    0  0.60672131063E+02 -0.35455185697E+03  0.13635696420E+03  0.40448248769E+03  0.12499893757E+03 0.  0.
          2    1    1    2  501    0 -0.35862036889E+02  0.25014630002E+02 -0.39946135617E+03  0.40184722530E+03  0.00000000000E+00 0. -1.
          1    1    1    2  502    0 -0.24810094174E+02  0.32953722696E+03  0.15492820099E+04  0.15841354333E+04  0.00000000000E+00 0. -1.
         22    1    3    3    0    0  0.55573440319E+02 -0.26233955824E+03  0.15575658867E+03  0.31011379525E+03  0.00000000000E+00 0.  1.
         22    1    3    3    0    0  0.50986907445E+01 -0.92212298726E+02 -0.19399624472E+02  0.94368692443E+02  0.00000000000E+00 0.  1.
</event>
<event>
 7    1  0.5139898E-006  0.1011074E+03  0.7818608E-02  0.1312308E+00
          2   -1    0    0  502    0  0.00000000000E+00  0.00000000000E+00  0.23498476888E+04  0.23498476888E+04  0.00000000000E+00 0. -1.
          1   -1    0    0  501    0 -0.00000000000E+00 -0.00000000000E+00 -0.14757667858E+04  0.14757667858E+04  0.00000000000E+00 0. -1.
         25    2    1    2    0    0  0.13236820897E+03  0.11116490484E+03 -0.88973762845E+02  0.23112878271E+03  0.12500081963E+03 0.  0.
          2    1    1    2  501    0 -0.62369742730E+02 -0.38889742102E+02 -0.13135770011E+04  0.13156317626E+04  0.00000000000E+00 0. -1.
          1    1    1    2  502    0 -0.69998466242E+02 -0.72275162733E+02  0.22766316669E+04  0.22788539294E+04  0.00000000000E+00 0. -1.
         22    1    3    3    0    0  0.45588988993E+02  0.68754792983E+02  0.20632669887E+02  0.85036959860E+02  0.00000000000E+00 0. -1.
         22    1    3    3    0    0  0.86779219979E+02  0.42410111852E+02 -0.10960643273E+03  0.14609182285E+03  0.00000000000E+00 0. -1.
</event>
<event>
 7    1  0.5139898E-006  0.1018058E+03  0.7818608E-02  0.1459481E+00
          2   -1    0    0  502    0  0.00000000000E+00  0.00000000000E+00  0.20785451712E+04  0.20785451712E+04  0.00000000000E+00 0. -1.
          1   -1    0    0  501    0 -0.00000000000E+00 -0.00000000000E+00 -0.66545058828E+02  0.66545058828E+02  0.00000000000E+00 0. -1.
         25    2    1    2    0    0 -0.82511527519E+02  0.92012455550E+01  0.21727400714E+03  0.26405981983E+03  0.12500711650E+03 0.  0.
          2    1    1    2  501    0 -0.20477588281E+02 -0.84041266112E+01 -0.38770031460E+02  0.44643883179E+02  0.00000000000E+00 0. -1.
          1    1    1    2  502    0  0.10298911580E+03 -0.79711894376E+00  0.18334961367E+04  0.18363865270E+04  0.00000000000E+00 0. -1.
         22    1    3    3    0    0 -0.10559017591E+03 -0.14822084374E+02  0.11652593712E+03  0.15794705903E+03  0.00000000000E+00 0.  1.
         22    1    3    3    0    0  0.23078648386E+02  0.24023329929E+02  0.10074807002E+03  0.10611276080E+03  0.00000000000E+00 0.  1.
</event>
<event>
 7    1  0.5139898E-006  0.6020637E+02  0.7818608E-02  0.1510673E+00
          2   -1    0    0  502    0  0.00000000000E+00  0.00000000000E+00  0.68493145737E+03  0.68493145737E+03  0.00000000000E+00 0. -1.
          1   -1    0    0  501    0 -0.00000000000E+00 -0.00000000000E+00 -0.12938968467E+04  0.12938968467E+04  0.00000000000E+00 0. -1.
         25    2    1    2    0    0 -0.61843053543E+02 -0.34701047826E+02 -0.18043872013E+03  0.23067719243E+03  0.12500043758E+03 0.  0.
          2    1    1    2  501    0  0.59371348127E+02  0.86829057483E+01 -0.10872525340E+04  0.10889069853E+04  0.00000000000E+00 0. -1.
          1    1    1    2  502    0  0.24717054165E+01  0.26018142078E+02  0.65872586487E+03  0.65924412632E+03  0.00000000000E+00 0. -1.
         22    1    3    3    0    0  0.82985509850E+01 -0.14728503566E+01 -0.14518899410E+03  0.14543341860E+03  0.00000000000E+00 0. -1.
         22    1    3    3    0    0 -0.70141604528E+02 -0.33228197470E+02 -0.35249726027E+02  0.85243773836E+02  0.00000000000E+00 0. -1.
</event>
<event>
 7    1  0.5139898E-006  0.1220725E+03  0.7818608E-02  0.1265300E+00
          2   -1    0    0  502    0  0.00000000000E+00  0.00000000000E+00  0.36313913234E+04  0.36313913234E+04  0.00000000000E+00 0. -1.
          1   -1    0    0  501    0 -0.00000000000E+00 -0.00000000000E+00 -0.14116965104E+04  0.14116965104E+04  0.00000000000E+00 0. -1.
         25    2    1    2    0    0 -0.23559270154E+02  0.37098127412E+02 -0.20429647830E+03  0.24350200531E+03  0.12499946110E+03 0.  0.
          2    1    1    2  501    0  0.87161369752E+02 -0.10718044259E+03 -0.11831576742E+04  0.11911955480E+04  0.00000000000E+00 0. -1.
          1    1    1    2  502    0 -0.63602099598E+02  0.70082315175E+02  0.36071489655E+04  0.36083902806E+04  0.00000000000E+00 0. -1.
         22    1    3    3    0    0 -0.45509346118E+02 -0.32682322312E+02 -0.11613358334E+03  0.12894279334E+03  0.00000000000E+00 0. -1.
         22    1    3    3    0    0  0.21950075964E+02  0.69780449724E+02 -0.88162894963E+02  0.11455921197E+03  0.00000000000E+00 0. -1.
</event>
<event>
 7    1  0.5139898E-006  0.4263471E+02  0.7818608E-02  0.1494114E+00
          2   -1    0    0  502    0  0.00000000000E+00  0.00000000000E+00  0.96633177164E+03  0.96633177164E+03  0.00000000000E+00 0. -1.
          1   -1    0    0  501    0 -0.00000000000E+00 -0.00000000000E+00 -0.88055394520E+03  0.88055394520E+03  0.00000000000E+00 0. -1.
         25    2    1    2    0    0  0.56892115176E+02  0.10626584771E+01  0.18255819964E+03  0.22844680300E+03  0.12499041377E+03 0.  0.
          2    1    1    2  501    0 -0.28831802433E+02 -0.31419413034E+02 -0.85651728099E+03  0.85757816261E+03  0.00000000000E+00 0. -1.
          1    1    1    2  502    0 -0.28060312743E+02  0.30356754557E+02  0.75973690779E+03  0.76086075123E+03  0.00000000000E+00 0. -1.
         22    1    3    3    0    0  0.74997937191E+01 -0.26051343699E+02  0.16810588752E+03  0.17027774028E+03  0.00000000000E+00 0. -1.
         22    1    3    3    0    0  0.49392321457E+02  0.27114002176E+02  0.14452312117E+02  0.58169062726E+02  0.00000000000E+00 0. -1.
</event>
<event>
 7    1  0.5139898E-006  0.1112814E+03  0.7818608E-02  0.1301461E+00
          2   -1    0    0  502    0  0.00000000000E+00  0.00000000000E+00  0.30644109067E+03  0.30644109067E+03  0.00000000000E+00 0. -1.
          1   -1    0    0  501    0 -0.00000000000E+00 -0.00000000000E+00 -0.18136122127E+04  0.18136122127E+04  0.00000000000E+00 0. -1.
         25    2    1    2    0    0  0.35110055267E+02  0.46791054429E+02 -0.49975174210E+02  0.14676739106E+03  0.12498412014E+03 0.  0.
          2    1    1    2  501    0 -0.10799629391E+03 -0.35708332953E+02 -0.17080446328E+04  0.17118278979E+04  0.00000000000E+00 0. -1.
          1    1    1    2  502    0  0.72886238641E+02 -0.11082721477E+02  0.25084868500E+03  0.26145801434E+03  0.00000000000E+00 0. -1.
         22    1    3    3    0    0  0.80300890117E+02  0.46472142303E+02 -0.32259796083E+02  0.98227223350E+02  0.00000000000E+00 0. -1.
         22    1    3    3    0    0 -0.45190834850E+02  0.31891212617E+00 -0.17715378127E+02  0.48540167712E+02  0.00000000000E+00 0. -1.
</event>
<event>
 7    1  0.5139898E-006  0.1344965E+03  0.7818608E-02  0.1375674E+00
          2   -1    0    0  502    0  0.00000000000E+00  0.00000000000E+00  0.49289045108E+02  0.49289045108E+02  0.00000000000E+00 0. -1.
          1   -1    0    0  501    0 -0.00000000000E+00 -0.00000000000E+00 -0.90640431445E+03  0.90640431445E+03  0.00000000000E+00 0. -1.
         25    2    1    2    0    0 -0.59145523205E+02 -0.11402177061E+03 -0.47732922990E+03  0.50987005626E+03  0.12500049387E+03 0.  0.
          2    1    1    2  501    0  0.25792342129E+02 -0.18958396204E+02 -0.26525574026E+03  0.26718022651E+03  0.00000000000E+00 0. -1.
          1    1    1    2  502    0  0.33353181075E+02  0.13298016681E+03 -0.11453029918E+03  0.17864307679E+03  0.00000000000E+00 0. -1.
         22    1    3    3    0    0 -0.62946900314E+00  0.15919931820E+02 -0.17404382107E+03  0.17477154263E+03  0.00000000000E+00 0.  1.
         22    1    3    3    0    0 -0.58516054201E+02 -0.12994170243E+03 -0.30328540882E+03  0.33509851363E+03  0.00000000000E+00 0.  1.
</event>
<event>
 7    1  0.5139898E-006  0.3930618E+03  0.7818608E-02  0.1266309E+00
          2   -1    0    0  502    0  0.00000000000E+00  0.00000000000E+00  0.23319693186E+03  0.23319693186E+03  0.00000000000E+00 0. -1.
          1   -1    0    0  501    0 -0.00000000000E+00 -0.00000000000E+00 -0.24942205710E+04  0.24942205710E+04  0.00000000000E+00 0. -1.
         25    2    1    2    0    0  0.23793732583E+03  0.31360194591E+03 -0.64300004395E+02  0.41799544090E+03  0.12500138619E+03 0.  0.
          2    1    1    2  501    0 -0.26010499852E+03 -0.29474230432E+03 -0.22304776127E+04  0.22648527583E+04  0.00000000000E+00 0. -1.
          1    1    1    2  502    0  0.22167672691E+02 -0.18859641589E+02  0.33753977978E+02  0.44569303593E+02  0.00000000000E+00 0. -1.
         22    1    3    3    0    0  0.21901950261E+03  0.19710525638E+03 -0.53609101916E+02  0.29948949969E+03  0.00000000000E+00 0.  1.
         22    1    3    3    0    0  0.18917823214E+02  0.11649668953E+03 -0.10690902479E+02  0.11850594121E+03  0.00000000000E+00 0.  1.
</event>
<event>
 7    1  0.5139898E-006  0.4194555E+02  0.7818608E-02  0.1495555E+00
          2   -1    0    0  502    0  0.00000000000E+00  0.00000000000E+00  0.55196278835E+03  0.55196278835E+03  0.00000000000E+00 0. -1.
          1   -1    0    0  501    0 -0.00000000000E+00 -0.00000000000E+00 -0.35271535101E+03  0.35271535101E+03  0.00000000000E+00 0. -1.
         25    2    1    2    0    0  0.33626684140E+02  0.19745909025E+02  0.81782145186E+02  0.15438147764E+03  0.12499866623E+03 0.  0.
          2    1    1    2  501    0  0.30071321738E+01 -0.41492283452E+02 -0.31399467072E+03  0.31673854466E+03  0.00000000000E+00 0. -1.
          1    1    1    2  502    0 -0.36633816314E+02  0.21746374426E+02  0.43145996287E+03  0.43355811705E+03  0.00000000000E+00 0. -1.
         22    1    3    3    0    0  0.63762045434E+02 -0.12615251234E+02  0.88342831837E+02  0.10967770484E+03  0.00000000000E+00 0.  1.
         22    1    3    3    0    0 -0.30135361293E+02  0.32361160260E+02 -0.65606866509E+01  0.44703772804E+02  0.00000000000E+00 0.  1.
</event>
<event>
 7    1  0.5139898E-006  0.3426834E+02  0.7818608E-02  0.1580813E+00
          2   -1    0    0  502    0  0.00000000000E+00  0.00000000000E+00  0.18625688481E+03  0.18625688481E+03  0.00000000000E+00 0. -1.
          1   -1    0    0  501    0 -0.00000000000E+00 -0.00000000000E+00 -0.35774339667E+03  0.35774339667E+03  0.00000000000E+00 0. -1.
         25    2    1    2    0    0 -0.41456238718E+02 -0.31834012591E+02 -0.86649205297E+02  0.16082886330E+03  0.12500325758E+03 0.  0.
          2    1    1    2  501    0  0.75501392684E+01  0.28187953758E+02 -0.23112581832E+03  0.23296074613E+03  0.00000000000E+00 0. -1.
          1    1    1    2  502    0  0.33906099450E+02  0.36460588328E+01  0.14628851176E+03  0.15021067205E+03  0.00000000000E+00 0. -1.
         22    1    3    3    0    0  0.50444647418E+01  0.32671799571E+02  0.11051867307E+02  0.34857379172E+02  0.00000000000E+00 0.  1.
         22    1    3    3    0    0 -0.46500703460E+02 -0.64505812162E+02 -0.97701072604E+02  0.12597148413E+03  0.00000000000E+00 0.  1.
</event>
<event>
 7    1  0.5139898E-006  0.5615619E+02  0.7818608E-02  0.1448117E+00
          2   -1    0    0  502    0  0.00000000000E+00  0.00000000000E+00  0.90593485316E+03  0.90593485316E+03  0.00000000000E+00 0. -1.
          1   -1    0    0  501    0 -0.00000000000E+00 -0.00000000000E+00 -0.15651523544E+04  0.15651523544E+04  0.00000000000E+00 0. -1.
         25    2    1    2    0    0 -0.45764828471E+02 -0.88556397171E+02  0.58427257383E+03  0.60575084563E+03  0.12499196552E+03 0.  0.
          2    1    1    2  501    0  0.27145948797E+02  0.49116750220E+02 -0.15523742657E+04  0.15533883026E+04  0.00000000000E+00 0. -1.
          1    1    1    2  502    0  0.18618879674E+02  0.39439646950E+02  0.30888419070E+03  0.31194805930E+03  0.00000000000E+00 0. -1.
         22    1    3    3    0    0 -0.43632827705E+02 -0.65047716775E+01  0.41801298584E+03  0.42033438122E+03  0.00000000000E+00 0. -1.
         22    1    3    3    0    0 -0.21320007663E+01 -0.82051625493E+02  0.16625958799E+03  0.18541646440E+03  0.00000000000E+00 0. -1.
</event>
<event>
 7    1  0.5861639E-006  0.1077258E+03  0.7818608E-02  0.1296178E+00
          2   -1    0    0  502    0  0.00000000000E+00  0.00000000000E+00  0.79770756108E+03  0.79770756108E+03  0.00000000000E+00 0. -1.
          1   -1    0    0  501    0 -0.00000000000E+00 -0.00000000000E+00 -0.91303873659E+03  0.91303873659E+03  0.00000000000E+00 0. -1.
         25    2    1    2    0    0  0.92426011176E+01  0.11653151273E+03 -0.13755759694E+03  0.21957027444E+03  0.12499597517E+03 0.  0.
          2    1    1    2  501    0  0.65375550827E+02 -0.87779827868E+02 -0.72826137039E+03  0.73644000735E+03  0.00000000000E+00 0. -1.
          1    1    1    2  502    0 -0.74618151944E+02 -0.28751684866E+02  0.75048779182E+03  0.75473601587E+03  0.00000000000E+00 0. -1.
         22    1    3    3    0    0 -0.57655818259E+02  0.46317087565E+02 -0.64829399316E+02  0.98347938439E+02  0.00000000000E+00 0. -1.
         22    1    3    3    0    0  0.66898419376E+02  0.70214425169E+02 -0.72728197624E+02  0.12122233600E+03  0.00000000000E+00 0. -1.
</event>
<event>
 7    1  0.5139898E-006  0.7315840E+02  0.7818608E-02  0.1432596E+00
          2   -1    0    0  502    0  0.00000000000E+00  0.00000000000E+00  0.40169541007E+03  0.40169541007E+03  0.00000000000E+00 0. -1.
          1   -1    0    0  501    0 -0.00000000000E+00 -0.00000000000E+00 -0.14979374609E+04  0.14979374609E+04  0.00000000000E+00 0. -1.
         25    2    1    2    0    0  0.71182893644E+02  0.30137225602E+02 -0.30463598440E+03  0.33823610118E+03  0.12500128173E+03 0.  0.
          2    1    1    2  501    0  0.16560470139E+01 -0.37556156924E+02 -0.11727156764E+04  0.11733180580E+04  0.00000000000E+00 0. -1.
          1    1    1    2  502    0 -0.72838940658E+02  0.74189313215E+01  0.38110960994E+03  0.38807871187E+03  0.00000000000E+00 0. -1.
         22    1    3    3    0    0 -0.32733757284E+02  0.27203086026E+02 -0.76849071798E+02  0.87848088149E+02  0.00000000000E+00 0.  1.
         22    1    3    3    0    0  0.10391665093E+03  0.29341395768E+01 -0.22778691261E+03  0.25038801303E+03  0.00000000000E+00 0.  1.
</event>
<event>
 7    1  0.5139898E-006  0.1263464E+03  0.7818608E-02  0.1334450E+00
          2   -1    0    0  502    0  0.00000000000E+00  0.00000000000E+00  0.14035543071E+04  0.14035543071E+04  0.00000000000E+00 0. -1.
          1   -1    0    0  501    0 -0.00000000000E+00 -0.00000000000E+00 -0.10640000050E+04  0.10640000050E+04  0.00000000000E+00 0. -1.
         25    2    1    2    0    0 -0.84023742925E+02 -0.30373983661E+02  0.25221194736E+03  0.29532791016E+03  0.12500055949E+03 0.  0.
          2    1    1    2  501    0 -0.47535915348E+02  0.86205683918E+01 -0.10379435715E+04  0.10390672909E+04  0.00000000000E+00 0. -1.
          1    1    1    2  502    0  0.13155965827E+03  0.21753415270E+02  0.11252859263E+04  0.11331591109E+04  0.00000000000E+00 0. -1.
         22    1    3    3    0    0 -0.22758786853E+02 -0.64106645680E+02  0.18968659194E+03  0.20151582459E+03  0.00000000000E+00 0.  1.
         22    1    3    3    0    0 -0.61264956073E+02  0.33732662018E+02  0.62525355419E+02  0.93812085574E+02  0.00000000000E+00 0.  1.
</event>
<event>
 7    1  0.5139898E-006  0.7084513E+02  0.7818608E-02  0.1467737E+00
          2   -1    0    0  502    0  0.00000000000E+00  0.00000000000E+00  0.11542275877E+04  0.11542275877E+04  0.00000000000E+00 0. -1.
          1   -1    0    0  501    0 -0.00000000000E+00 -0.00000000000E+00 -0.90785057323E+02  0.90785057323E+02  0.00000000000E+00 0. -1.
         25    2    1    2    0    0 -0.93879152659E+01 -0.52462290914E+02  0.71056332162E+03  0.72343962997E+03  0.12499695698E+03 0.  0.
          2    1    1    2  501    0  0.73532563307E+01 -0.29049855440E+02 -0.77733079074E+02  0.83309039498E+02  0.00000000000E+00 0. -1.
          1    1    1    2  502    0  0.20346589351E+01  0.81512146354E+02  0.43061228783E+03  0.43826397555E+03  0.00000000000E+00 0. -1.
         22    1    3    3    0    0 -0.36680755795E+01 -0.93496565750E+02  0.45264456655E+03  0.46221441585E+03  0.00000000000E+00 0. -1.
         22    1    3    3    0    0 -0.57198396864E+01  0.41034274836E+02  0.25791875507E+03  0.26122521412E+03  0.00000000000E+00 0. -1.
</event>
<event>
 7    1  0.5139898E-006  0.5857247E+02  0.7818608E-02  0.1457153E+00
          2   -1    0    0  502    0  0.00000000000E+00  0.00000000000E+00  0.12167037245E+04  0.12167037245E+04  0.00000000000E+00 0. -1.
          1   -1    0    0  501    0 -0.00000000000E+00 -0.00000000000E+00 -0.43942823081E+02  0.43942823081E+02  0.00000000000E+00 0. -1.
         25    2    1    2    0    0  0.23051070565E+02  0.12437374728E+02  0.27800975190E+03  0.30594240078E+03  0.12500116121E+03 0.  0.
          2    1    1    2  501    0 -0.40588330249E+02 -0.47418686902E+02  0.34164860420E+01  0.62510933417E+02  0.00000000000E+00 0. -1.
          1    1    1    2  502    0  0.17537259683E+02  0.34981312174E+02  0.89133466350E+03  0.89219321340E+03  0.00000000000E+00 0. -1.
         22    1    3    3    0    0 -0.41762575552E+02  0.32001921229E+02  0.17448785522E+03  0.18224776350E+03  0.00000000000E+00 0. -1.
         22    1    3    3    0    0  0.64813646118E+02 -0.19564546501E+02  0.10352189667E+03  0.12369463729E+03  0.00000000000E+00 0. -1.
</event>
<event>
 7    1  0.5139898E-006  0.1516186E+03  0.7818608E-02  0.1377793E+00
          2   -1    0    0  502    0  0.00000000000E+00  0.00000000000E+00  0.61951755796E+03  0.61951755796E+03  0.00000000000E+00 0. -1.
          1   -1    0    0  501    0 -0.00000000000E+00 -0.00000000000E+00 -0.21161029832E+03  0.21161029832E+03  0.00000000000E+00 0. -1.
         25    2    1    2    0    0 -0.14523098048E+03  0.65337858061E+02  0.45764100601E+01  0.20250133437E+03  0.12499909402E+03 0.  0.
          2    1    1    2  501    0  0.20171624265E+02  0.19284528339E+02 -0.99642210516E+02  0.10347636240E+03  0.00000000000E+00 0. -1.
          1    1    1    2  502    0  0.12505935622E+03 -0.84622386400E+02  0.50297306010E+03  0.52515015952E+03  0.00000000000E+00 0. -1.
         22    1    3    3    0    0 -0.70899654533E+01 -0.31614741046E+02 -0.76495105306E+01  0.33290756569E+02  0.00000000000E+00 0.  1.
         22    1    3    3    0    0 -0.13814101503E+03  0.96952599107E+02  0.12225920591E+02  0.16921057781E+03  0.00000000000E+00 0.  1.
</event>
<event>
 7    1  0.5139898E-006  0.1183899E+03  0.7818608E-02  0.1298381E+00
          2   -1    0    0  502    0  0.00000000000E+00  0.00000000000E+00  0.37653423009E+04  0.37653423009E+04  0.00000000000E+00 0. -1.
          1   -1    0    0  501    0 -0.00000000000E+00 -0.00000000000E+00 -0.21219587818E+04  0.21219587818E+04  0.00000000000E+00 0. -1.
         25    2    1    2    0    0  0.10554605751E+03  0.14509273233E+03  0.21855910069E+03  0.30916501859E+03  0.12499222772E+03 0.  0.
          2    1    1    2  501    0 -0.61150723947E+02 -0.36651375675E+02 -0.20750631395E+04  0.20762874963E+04  0.00000000000E+00 0. -1.
          1    1    1    2  502    0 -0.44395333566E+02 -0.10844135666E+03  0.34998875579E+04  0.35018485678E+04  0.00000000000E+00 0. -1.
         22    1    3    3    0    0 -0.21546961782E+02  0.44910458989E+02  0.21718098357E+02  0.54340562059E+02  0.00000000000E+00 0. -1.
         22    1    3    3    0    0  0.12709301929E+03  0.10018227334E+03  0.19684100233E+03  0.25482445653E+03  0.00000000000E+00 0. -1.
</event>
<event>
 7    1  0.5139898E-006  0.5695315E+02  0.7818608E-02  0.1505562E+00
          2   -1    0    0  502    0  0.00000000000E+00  0.00000000000E+00  0.18503355684E+04  0.18503355684E+04  0.00000000000E+00 0. -1.
          1   -1    0    0  501    0 -0.00000000000E+00 -0.00000000000E+00 -0.73026402943E+02  0.73026402943E+02  0.00000000000E+00 0. -1.
         25    2    1    2    0    0 -0.36604605825E+02  0.73985693594E+02  0.12682783625E+04  0.12770943302E+04  0.12500457404E+03 0.  0.
          2    1    1    2  501    0  0.33862623221E+02 -0.45512944228E+02 -0.56470193329E+02  0.80043663574E+02  0.00000000000E+00 0. -1.
          1    1    1    2  502    0  0.27419826036E+01 -0.28472749366E+02  0.56550099630E+03  0.56622397754E+03  0.00000000000E+00 0. -1.
         22    1    3    3    0    0 -0.76683032383E+02  0.16732685151E+02  0.58247066055E+03  0.58773492376E+03  0.00000000000E+00 0.  1.
         22    1    3    3    0    0  0.40078426558E+02  0.57253008442E+02  0.68580770191E+03  0.68935940644E+03  0.00000000000E+00 0.  1.
</event>
<event>
 7    1  0.5139898E-006  0.2012244E+03  0.7818608E-02  0.1255667E+00
          2   -1    0    0  502    0  0.00000000000E+00  0.00000000000E+00  0.24691674945E+03  0.24691674945E+03  0.00000000000E+00 0. -1.
          1   -1    0    0  501    0 -0.00000000000E+00 -0.00000000000E+00 -0.38900048094E+03  0.38900048094E+03  0.00000000000E+00 0. -1.
         25    2    1    2    0    0 -0.15446419528E+03 -0.72821929725E+02  0.10424785956E+02  0.21188640370E+03  0.12499980335E+03 0.  0.
          2    1    1    2  501    0 -0.61502622631E+02 -0.14148892552E+02 -0.17891315573E+03  0.18971737149E+03  0.00000000000E+00 0. -1.
          1    1    1    2  502    0  0.21596681792E+03  0.86970822277E+02  0.26404638282E+02  0.23431345521E+03  0.00000000000E+00 0. -1.
         22    1    3    3    0    0 -0.20261114551E+02  0.33774394957E+02  0.94235800327E+01  0.40497239143E+02  0.00000000000E+00 0. -1.
         22    1    3    3    0    0 -0.13420308073E+03 -0.10659632468E+03  0.10012059236E+01  0.17138916456E+03  0.00000000000E+00 0. -1.
</event>
<event>
 7    1  0.5139898E-006  0.9077581E+02  0.7818608E-02  0.1374858E+00
          2   -1    0    0  502    0  0.00000000000E+00  0.00000000000E+00  0.90896385103E+03  0.90896385103E+03  0.00000000000E+00 0. -1.
          1   -1    0    0  501    0 -0.00000000000E+00 -0.00000000000E+00 -0.17803693991E+04  0.17803693991E+04  0.00000000000E+00 0. -1.
         25    2    1    2    0    0  0.70065510985E+02 -0.10434833895E+03 -0.43121694293E+02  0.18243915216E+03  0.12500724799E+03 0.  0.
          2    1    1    2  501    0 -0.25779844730E+02  0.86500767487E+02 -0.16656870554E+04  0.16681307951E+04  0.00000000000E+00 0. -1.
          1    1    1    2  502    0 -0.44285666255E+02  0.17847571459E+02  0.83740320164E+03  0.83876330282E+03  0.00000000000E+00 0. -1.
         22    1    3    3    0    0  0.54488034240E+02  0.15294869043E+02 -0.12408488277E+02  0.57938324758E+02  0.00000000000E+00 0. -1.
         22    1    3    3    0    0  0.15577476745E+02 -0.11964320799E+03 -0.30713206016E+02  0.12450082740E+03  0.00000000000E+00 0. -1.
</event>
<event>
 7    1  0.5139898E-006  0.9363318E+02  0.7818608E-02  0.1433761E+00
          2   -1    0    0  502    0  0.00000000000E+00  0.00000000000E+00  0.11371933290E+03  0.11371933290E+03  0.00000000000E+00 0. -1.
          1   -1    0    0  501    0 -0.00000000000E+00 -0.00000000000E+00 -0.30055088720E+04  0.30055088720E+04  0.00000000000E+00 0. -1.
         25    2    1    2    0    0  0.10561359072E+03  0.83651257683E+01 -0.56512892937E+03  0.58840492211E+03  0.12500175872E+03 0.  0.
          2    1    1    2  501    0 -0.91375239136E+02  0.17030880043E+02 -0.24257576115E+04  0.24275377392E+04  0.00000000000E+00 0. -1.
          1    1    1    2  502    0 -0.14238351585E+02 -0.25396005811E+02  0.99097001765E+02  0.10328554364E+03  0.00000000000E+00 0. -1.
         22    1    3    3    0    0  0.11713895043E+03  0.34192201466E+02 -0.52693337924E+03  0.54087838421E+03  0.00000000000E+00 0.  1.
         22    1    3    3    0    0 -0.11525359705E+02 -0.25827075698E+02 -0.38195550123E+02  0.47526537899E+02  0.00000000000E+00 0.  1.
</event>
<event>
 7    1  0.5139898E-006  0.2471903E+03  0.7818608E-02  0.1253265E+00
          2   -1    0    0  502    0  0.00000000000E+00  0.00000000000E+00  0.14735499582E+03  0.14735499582E+03  0.00000000000E+00 0. -1.
          1   -1    0    0  501    0 -0.00000000000E+00 -0.00000000000E+00 -0.16604676154E+04  0.16604676154E+04  0.00000000000E+00 0. -1.
         25    2    1    2    0    0 -0.19945900699E+03  0.19593985724E+03 -0.46926121782E+03  0.56036320823E+03  0.12499804582E+03 0.  0.
          2    1    1    2  501    0  0.90539135271E+01 -0.51827302630E+02 -0.10039825541E+04  0.10053601403E+04  0.00000000000E+00 0. -1.
          1    1    1    2  502    0  0.19040509346E+03 -0.14411255461E+03 -0.39868847661E+02  0.24209926275E+03  0.00000000000E+00 0. -1.
         22    1    3    3    0    0 -0.19836156567E+03  0.14885754868E+03 -0.43952370197E+03  0.50466520103E+03  0.00000000000E+00 0.  1.
         22    1    3    3    0    0 -0.10974413181E+01  0.47082308562E+02 -0.29737515852E+02  0.55698007200E+02  0.00000000000E+00 0.  1.
</event>
<event>
 7    1  0.5139898E-006  0.1829377E+03  0.7818608E-02  0.1183955E+00
          2   -1    0    0  502    0  0.00000000000E+00  0.00000000000E+00  0.14521536504E+04  0.14521536504E+04  0.00000000000E+00 0. -1.
          1   -1    0    0  501    0 -0.00000000000E+00 -0.00000000000E+00 -0.11394117677E+04  0.11394117677E+04  0.00000000000E+00 0. -1.
         25    2    1    2    0    0 -0.54485005617E+02  0.22681427716E+03 -0.44233564222E+03  0.51546058897E+03  0.12500186495E+03 0.  0.
          2    1    1    2  501    0  0.14220030293E+03 -0.10821350314E+03 -0.64448037798E+03  0.66879447218E+03  0.00000000000E+00 0. -1.
          1    1    1    2  502    0 -0.87715297311E+02 -0.11860077402E+03  0.13995579029E+04  0.14073103569E+04  0.00000000000E+00 0. -1.
         22    1    3    3    0    0  0.32371026898E+02  0.12711484136E+03 -0.19527385110E+03  0.23524018194E+03  0.00000000000E+00 0.  1.
         22    1    3    3    0    0 -0.86856032514E+02  0.99699435794E+02 -0.24706179112E+03  0.28022040703E+03  0.00000000000E+00 0.  1.
</event>
<event>
 7    1  0.5139898E-006  0.1468242E+03  0.7818608E-02  0.1255948E+00
          2   -1    0    0  502    0  0.00000000000E+00  0.00000000000E+00  0.20187747262E+03  0.20187747262E+03  0.00000000000E+00 0. -1.
          1   -1    0    0  501    0 -0.00000000000E+00 -0.00000000000E+00 -0.72508977208E+03  0.72508977208E+03  0.00000000000E+00 0. -1.
         25    2    1    2    0    0  0.34279336314E+02 -0.26256096171E+02  0.51696657453E+02  0.14199333208E+03  0.12500042591E+03 0.  0.
          2    1    1    2  501    0  0.14288124356E+03  0.33797903643E+02 -0.58906640089E+03  0.60708860367E+03  0.00000000000E+00 0. -1.
          1    1    1    2  502    0 -0.17716057987E+03 -0.75418074719E+01  0.14157443973E+02  0.17788530895E+03  0.00000000000E+00 0. -1.
         22    1    3    3    0    0  0.23602795938E+02 -0.20155371777E+02  0.93448669280E+02  0.98468191706E+02  0.00000000000E+00 0. -1.
         22    1    3    3    0    0  0.10676540376E+02 -0.61007243940E+01 -0.41752011828E+02  0.43525140369E+02  0.00000000000E+00 0. -1.
</event>
<event>
 7    1  0.5139898E-006  0.1384947E+03  0.7818608E-02  0.1276856E+00
          2   -1    0    0  502    0  0.00000000000E+00  0.00000000000E+00  0.18273619019E+03  0.18273619019E+03  0.00000000000E+00 0. -1.
          1   -1    0    0  501    0 -0.00000000000E+00 -0.00000000000E+00 -0.33860982752E+03  0.33860982752E+03  0.00000000000E+00 0. -1.
         25    2    1    2    0    0 -0.76636154780E+02 -0.85107051400E+01 -0.16574443220E+03  0.22145252592E+03  0.12499788842E+03 0.  0.
          2    1    1    2  501    0 -0.74583530017E+02  0.20874559958E+01 -0.91245958200E+02  0.11786808436E+03  0.00000000000E+00 0. -1.
          1    1    1    2  502    0  0.15121968480E+03  0.64232491442E+01  0.10111675307E+03  0.18202540743E+03  0.00000000000E+00 0. -1.
         22    1    3    3    0    0 -0.64357115721E+02 -0.63555869960E+02 -0.10033812848E+03  0.13508858937E+03  0.00000000000E+00 0.  1.
         22    1    3    3    0    0 -0.12279039059E+02  0.55045164820E+02 -0.65406303722E+02  0.86363936553E+02  0.00000000000E+00 0.  1.
</event>
<event>
 7    1  0.5139898E-006  0.7320419E+02  0.7818608E-02  0.1430887E+00
          2   -1    0    0  502    0  0.00000000000E+00  0.00000000000E+00  0.89965182467E+02  0.89965182467E+02  0.00000000000E+00 0. -1.
          1   -1    0    0  501    0 -0.00000000000E+00 -0.00000000000E+00 -0.26788585229E+04  0.26788585229E+04  0.00000000000E+00 0. -1.
         25    2    1    2    0    0 -0.32673645273E+01  0.86403797725E+02 -0.37841439749E+03  0.40779684509E+03  0.12499807480E+03 0.  0.
          2    1    1    2  501    0 -0.31054729405E+02 -0.21999913407E+02 -0.22678673756E+04  0.22681866823E+04  0.00000000000E+00 0. -1.
          1    1    1    2  502    0  0.34322093932E+02 -0.64403884318E+02  0.57388432654E+02  0.92840177992E+02  0.00000000000E+00 0. -1.
         22    1    3    3    0    0  0.59819678870E+02  0.52481948471E+02 -0.21968499283E+03  0.23365411396E+03  0.00000000000E+00 0. -1.
         22    1    3    3    0    0 -0.63087043397E+02  0.33921849254E+02 -0.15872940466E+03  0.17414273112E+03  0.00000000000E+00 0. -1.
</event>
<event>
 7    1  0.5139898E-006  0.1579015E+03  0.7818608E-02  0.1214681E+00
          2   -1    0    0  502    0  0.00000000000E+00  0.00000000000E+00  0.99599657249E+03  0.99599657249E+03  0.00000000000E+00 0. -1.
          1   -1    0    0  501    0 -0.00000000000E+00 -0.00000000000E+00 -0.19468818175E+03  0.19468818175E+03  0.00000000000E+00 0. -1.
         25    2    1    2    0    0  0.25937432620E+03 -0.17980236144E+02  0.16006835752E+03  0.32991615190E+03  0.12499783286E+03 0.  0.
          2    1    1    2  501    0 -0.13707786994E+03  0.21952551395E+02 -0.58327926271E+02  0.15058022421E+03  0.00000000000E+00 0. -1.
          1    1    1    2  502    0 -0.12229645627E+03 -0.39723152504E+01  0.69956795949E+03  0.71018837814E+03  0.00000000000E+00 0. -1.
         22    1    3    3    0    0  0.25125313677E+03 -0.23728880790E+02  0.17839919758E+03  0.30905901090E+03  0.00000000000E+00 0. -1.
         22    1    3    3    0    0  0.81211894279E+01  0.57486446461E+01 -0.18330840064E+02  0.20857140994E+02  0.00000000000E+00 0. -1.
</event>
<event>
 7    1  0.5139898E-006  0.3171330E+02  0.7818608E-02  0.1602634E+00
          2   -1    0    0  502    0  0.00000000000E+00  0.00000000000E+00  0.23283981383E+04  0.23283981383E+04  0.00000000000E+00 0. -1.
          1   -1    0    0  501    0 -0.00000000000E+00 -0.00000000000E+00 -0.12011945486E+03  0.12011945486E+03  0.00000000000E+00 0. -1.
         25    2    1    2    0    0 -0.46148450984E+02 -0.25484655025E+02 -0.29640389189E+02  0.13886102793E+03  0.12499874095E+03 0.  0.
          2    1    1    2  501    0  0.27613125087E+02 -0.22226437290E+00 -0.30426848735E+02  0.41089258967E+02  0.00000000000E+00 0. -1.
          1    1    1    2  502    0  0.18535325897E+02  0.25706919398E+02  0.22683459213E+04  0.22685673062E+04  0.00000000000E+00 0. -1.
         22    1    3    3    0    0 -0.70840879839E+02 -0.14215227840E+02 -0.62994690908E+02  0.95858406212E+02  0.00000000000E+00 0. -1.
         22    1    3    3    0    0  0.24692428855E+02 -0.11269427185E+02  0.33354301719E+02  0.43002621723E+02  0.00000000000E+00 0. -1.
</event>
<event>
 7    1  0.5139898E-006  0.4286828E+02  0.7818608E-02  0.1544273E+00
          2   -1    0    0  502    0  0.00000000000E+00  0.00000000000E+00  0.22801851461E+03  0.22801851461E+03  0.00000000000E+00 0. -1.
          1   -1    0    0  501    0 -0.00000000000E+00 -0.00000000000E+00 -0.68270692222E+02  0.68270692222E+02  0.00000000000E+00 0. -1.
         25    2    1    2    0    0 -0.28619988548E+02  0.16223274179E+02  0.68836150532E+02  0.14644284293E+03  0.12499916902E+03 0.  0.
          2    1    1    2  501    0  0.45149872848E+02  0.80718748415E+01 -0.80917538686E+01  0.46574055679E+02  0.00000000000E+00 0. -1.
          1    1    1    2  502    0 -0.16529884300E+02 -0.24295149021E+02  0.99003425725E+02  0.10327230823E+03  0.00000000000E+00 0. -1.
         22    1    3    3    0    0 -0.15959820886E+01 -0.51337526743E+02  0.49083947593E+02  0.71044512260E+02  0.00000000000E+00 0. -1.
         22    1    3    3    0    0 -0.27024006460E+02  0.67560800923E+02  0.19752202939E+02  0.75398330667E+02  0.00000000000E+00 0. -1.
</event>
<event>
 7    1  0.5139898E-006  0.9449242E+02  0.7818608E-02  0.1313464E+00
          2   -1    0    0  502    0  0.00000000000E+00  0.00000000000E+00  0.95581312600E+03  0.95581312600E+03  0.00000000000E+00 0. -1.
          1   -1    0    0  501    0 -0.00000000000E+00 -0.00000000000E+00 -0.61018687672E+03  0.61018687672E+03  0.00000000000E+00 0. -1.
         25    2    1    2    0    0  0.82553291708E+01 -0.25219047715E+02  0.32073654773E+03  0.34525496472E+03  0.12499962714E+03 0.  0.
          2    1    1    2  501    0 -0.82989201491E+02  0.46952458111E+02 -0.59166421409E+03  0.59929815879E+03  0.00000000000E+00 0. -1.
          1    1    1    2  502    0  0.74733872320E+02 -0.21733410395E+02  0.61655391564E+03  0.62144687922E+03  0.00000000000E+00 0. -1.
         22    1    3    3    0    0  0.26694061497E+02  0.37183054890E+02  0.22427602075E+03  0.22889929221E+03  0.00000000000E+00 0.  1.
         22    1    3    3    0    0 -0.18438732326E+02 -0.62402102605E+02  0.96460526978E+02  0.11635567251E+03  0.00000000000E+00 0.  1.
</event>
<event>
 7    1  0.5139898E-006  0.9976280E+02  0.7818608E-02  0.1459989E+00
          2   -1    0    0  502    0  0.00000000000E+00  0.00000000000E+00  0.45922810019E+03  0.45922810019E+03  0.00000000000E+00 0. -1.
          1   -1    0    0  501    0 -0.00000000000E+00 -0.00000000000E+00 -0.82286632544E+03  0.82286632544E+03  0.00000000000E+00 0. -1.
         25    2    1    2    0    0 -0.10056175160E+03  0.58507111985E+01 -0.38467113545E+02  0.16508118056E+03  0.12500072257E+03 0.  0.
          2    1    1    2  501    0  0.95874509168E+02 -0.27862389161E+02 -0.71731205002E+03  0.72422704405E+03  0.00000000000E+00 0. -1.
          1    1    1    2  502    0  0.46872424330E+01  0.22011677963E+02  0.39214093831E+03  0.39278620101E+03  0.00000000000E+00 0. -1.
         22    1    3    3    0    0 -0.32576320016E+02  0.19448433799E+02 -0.76943013367E+02  0.85788609437E+02  0.00000000000E+00 0. -1.
         22    1    3    3    0    0 -0.67985431585E+02 -0.13597722601E+02  0.38475899823E+02  0.79292571120E+02  0.00000000000E+00 0. -1.
</event>
<event>
 7    1  0.5139898E-006  0.1066697E+03  0.7818608E-02  0.1383177E+00
          2   -1    0    0  502    0  0.00000000000E+00  0.00000000000E+00  0.17771503170E+04  0.17771503170E+04  0.00000000000E+00 0. -1.
          1   -1    0    0  501    0 -0.00000000000E+00 -0.00000000000E+00 -0.75444365048E+03  0.75444365048E+03  0.00000000000E+00 0. -1.
         25    2    1    2    0    0 -0.32095993513E+02  0.85368979068E+02  0.22360317828E+03  0.27192119655E+03  0.12499896163E+03 0.  0.
          2    1    1    2  501    0  0.89627355951E+00 -0.10699767280E+03 -0.72612771293E+03  0.73396918244E+03  0.00000000000E+00 0. -1.
          1    1    1    2  502    0  0.31199719953E+02  0.21628693733E+02  0.15252312011E+04  0.15257035884E+04  0.00000000000E+00 0. -1.
         22    1    3    3    0    0 -0.18305107415E+02  0.46396642480E+02  0.57813258674E+01  0.50211045793E+02  0.00000000000E+00 0. -1.
         22    1    3    3    0    0 -0.13790886098E+02  0.38972336589E+02  0.21782185242E+03  0.22171015076E+03  0.00000000000E+00 0. -1.
</event>
<event>
 7    1  0.5139898E-006  0.1570732E+03  0.7818608E-02  0.1343617E+00
          2   -1    0    0  502    0  0.00000000000E+00  0.00000000000E+00  0.27326071253E+04  0.27326071253E+04  0.00000000000E+00 0. -1.
          1   -1    0    0  501    0 -0.00000000000E+00 -0.00000000000E+00 -0.11530227267E+03  0.11530227267E+03  0.00000000000E+00 0. -1.
         25    2    1    2    0    0 -0.64234857399E+02  0.12186912254E+03  0.90346124663E+03  0.92241863397E+03  0.12504284147E+03 0.  0.
          2    1    1    2  501    0  0.10011034353E+03 -0.12287975578E+03 -0.46190230114E+02  0.16509104343E+03  0.00000000000E+00 0. -1.
          1    1    1    2  502    0 -0.35875486134E+02  0.10106332395E+01  0.17600338361E+04  0.17603997206E+04  0.00000000000E+00 0. -1.
         22    1    3    3    0    0 -0.53416923303E+02  0.73828221067E+02  0.23352353230E+03  0.25067352085E+03  0.00000000000E+00 0.  1.
         22    1    3    3    0    0 -0.10817934096E+02  0.48040901471E+02  0.66993771433E+03  0.67174511312E+03  0.00000000000E+00 0.  1.
</event>
<event>
 7    1  0.5139898E-006  0.3475929E+02  0.7818608E-02  0.1581802E+00
          2   -1    0    0  502    0  0.00000000000E+00  0.00000000000E+00  0.15020170570E+04  0.15020170570E+04  0.00000000000E+00 0. -1.
          1   -1    0    0  501    0 -0.00000000000E+00 -0.00000000000E+00 -0.34560588667E+03  0.34560588667E+03  0.00000000000E+00 0. -1.
         25    2    1    2    0    0  0.47941999535E+02  0.40279843733E+02  0.44321159639E+03  0.46474140760E+03  0.12500862225E+03 0.  0.
          2    1    1    2  501    0 -0.21360830591E+02 -0.19009530180E+02 -0.33395337602E+03  0.33517533423E+03  0.00000000000E+00 0. -1.
          1    1    1    2  502    0 -0.26581168945E+02 -0.21270313553E+02  0.10471529499E+04  0.10477062018E+04  0.00000000000E+00 0. -1.
         22    1    3    3    0    0  0.68169887129E+02  0.38491239384E+02  0.43633431924E+03  0.44330164354E+03  0.00000000000E+00 0. -1.
         22    1    3    3    0    0 -0.20227887594E+02  0.17886043495E+01  0.68772771505E+01  0.21439764062E+02  0.00000000000E+00 0. -1.
</event>
<event>
 7    1  0.5139898E-006  0.1177638E+03  0.7818608E-02  0.1389635E+00
          2   -1    0    0  502    0  0.00000000000E+00  0.00000000000E+00  0.13222290912E+04  0.13222290912E+04  0.00000000000E+00 0. -1.
          1   -1    0    0  501    0 -0.00000000000E+00 -0.00000000000E+00 -0.35706955139E+03  0.35706955139E+03  0.00000000000E+00 0. -1.
         25    2    1    2    0    0 -0.50366570920E+02  0.12225436325E+03  0.31181151152E+03  0.36101756959E+03  0.12499738413E+03 0.  0.
          2    1    1    2  501    0 -0.17187760100E+02 -0.27746788158E+02 -0.32823194568E+03  0.32985074430E+03  0.00000000000E+00 0. -1.
          1    1    1    2  502    0  0.67554331020E+02 -0.94507575094E+02  0.98157997397E+03  0.98843032870E+03  0.00000000000E+00 0. -1.
         22    1    3    3    0    0 -0.14891311139E+01 -0.25899737539E+02  0.43731384415E+02  0.50847299819E+02  0.00000000000E+00 0.  1.
         22    1    3    3    0    0 -0.48877439806E+02  0.14815410079E+03  0.26808012710E+03  0.31017026977E+03  0.00000000000E+00 0.  1.
</event>
<event>
 7    1  0.5139898E-006  0.1642695E+03  0.7818608E-02  0.1330064E+00
          2   -1    0    0  502    0  0.00000000000E+00  0.00000000000E+00  0.11431825593E+04  0.11431825593E+04  0.00000000000E+00 0. -1.
          1   -1    0    0  501    0 -0.00000000000E+00 -0.00000000000E+00 -0.20895757508E+03  0.20895757508E+03  0.00000000000E+00 0. -1.
         25    2    1    2    0    0 -0.34247579166E+02 -0.18128739732E+03 -0.81611257157E+02  0.23732630280E+03  0.12500143840E+03 0.  0.
          2    1    1    2  501    0 -0.25498024783E+02  0.28998812793E+02 -0.34519909734E+02  0.51794831588E+02  0.00000000000E+00 0. -1.
          1    1    1    2  502    0  0.59745603949E+02  0.15228858453E+03  0.10503561511E+04  0.10630190000E+04  0.00000000000E+00 0. -1.
         22    1    3    3    0    0 -0.52336825678E+02 -0.16832836670E+03 -0.10488984633E+03  0.20512304167E+03  0.00000000000E+00 0. -1.
         22    1    3    3    0    0  0.18089246513E+02 -0.12959030620E+02  0.23278589174E+02  0.32203261139E+02  0.00000000000E+00 0. -1.
</event>
<event>
 7    1  0.5139898E-006  0.5979294E+02  0.7818608E-02  0.1453899E+00
          2   -1    0    0  502    0  0.00000000000E+00  0.00000000000E+00  0.26228527096E+03  0.26228527096E+03  0.00000000000E+00 0. -1.
          1   -1    0    0  501    0 -0.00000000000E+00 -0.00000000000E+00 -0.14667224723E+03  0.14667224723E+03  0.00000000000E+00 0. -1.
         25    2    1    2    0    0  0.25181326743E+02  0.93304181542E+02  0.62953378669E+00  0.15800352886E+03  0.12499979723E+03 0.  0.
          2    1    1    2  501    0 -0.13266885039E+02 -0.36945192368E+02 -0.57208899216E+02  0.69381666363E+02  0.00000000000E+00 0. -1.
          1    1    1    2  502    0 -0.11914441704E+02 -0.56358989173E+02  0.17219238916E+03  0.18157232296E+03  0.00000000000E+00 0. -1.
         22    1    3    3    0    0 -0.27520523796E+02 -0.11492290550E+02  0.24139277570E+02  0.38368694188E+02  0.00000000000E+00 0.  1.
         22    1    3    3    0    0  0.52701850539E+02  0.10479647209E+03 -0.23509743783E+02  0.11963483467E+03  0.00000000000E+00 0.  1.
</event>
<event>
 7    1  0.5139898E-006  0.1264082E+03  0.7818608E-02  0.1310257E+00
          2   -1    0    0  502    0  0.00000000000E+00  0.00000000000E+00  0.13087001050E+04  0.13087001050E+04  0.00000000000E+00 0. -1.
          1   -1    0    0  501    0 -0.00000000000E+00 -0.00000000000E+00 -0.28141406237E+03  0.28141406237E+03  0.00000000000E+00 0. -1.
         25    2    1    2    0    0  0.71957780877E+02 -0.86464362784E+01  0.18391674729E+02  0.14566020723E+03  0.12500383667E+03 0.  0.
          2    1    1    2  501    0  0.57071845869E+02  0.18161098545E+02 -0.21017315268E+03  0.21854009975E+03  0.00000000000E+00 0. -1.
          1    1    1    2  502    0 -0.12902962675E+03 -0.95146622669E+01  0.12190675206E+04  0.12259138604E+04  0.00000000000E+00 0. -1.
         22    1    3    3    0    0  0.42991493767E+02 -0.39119199199E+02 -0.42257907965E+02  0.71863141233E+02  0.00000000000E+00 0. -1.
         22    1    3    3    0    0  0.28966287110E+02  0.30472762920E+02  0.60649582694E+02  0.73797065997E+02  0.00000000000E+00 0. -1.
</event>
<event>
 7    1  0.5139898E-006  0.7914132E+02  0.7818608E-02  0.1416623E+00
          2   -1    0    0  502    0  0.00000000000E+00  0.00000000000E+00  0.22038719811E+03  0.22038719811E+03  0.00000000000E+00 0. -1.
          1   -1    0    0  501    0 -0.00000000000E+00 -0.00000000000E+00 -0.37597145609E+03  0.37597145609E+03  0.00000000000E+00 0. -1.
         25    2    1    2    0    0 -0.37572167505E+02 -0.18313582815E+02  0.60032678227E+02  0.14483105688E+03  0.12500022998E+03 0.  0.
          2    1    1    2  501    0  0.70924924838E+02  0.39025815985E+02 -0.32519964280E+03  0.33512410679E+03  0.00000000000E+00 0. -1.
          1    1    1    2  502    0 -0.33352757334E+02 -0.20712233170E+02  0.10958270659E+03  0.11640349053E+03  0.00000000000E+00 0. -1.
         22    1    3    3    0    0 -0.58829161780E+02  0.12018878510E+02 -0.14351096000E+02  0.61735546266E+02  0.00000000000E+00 0. -1.
         22    1    3    3    0    0  0.21256994276E+02 -0.30332461325E+02  0.74383774227E+02  0.83095510612E+02  0.00000000000E+00 0. -1.
</event>
<event>
 7    1  0.5139898E-006  0.1395332E+03  0.7818608E-02  0.1283214E+00
          2   -1    0    0  502    0  0.00000000000E+00  0.00000000000E+00  0.21370845016E+04  0.21370845016E+04  0.00000000000E+00 0. -1.
          1   -1    0    0  501    0 -0.00000000000E+00 -0.00000000000E+00 -0.14558989815E+04  0.14558989815E+04  0.00000000000E+00 0. -1.
         25    2    1    2    0    0 -0.16281800286E+03  0.95771005204E+02  0.16666580089E+03  0.28121888616E+03  0.12499914102E+03 0.  0.
          2    1    1    2  501    0  0.93458516289E+02 -0.10275685008E+03 -0.13945360465E+04  0.14014364950E+04  0.00000000000E+00 0. -1.
          1    1    1    2  502    0  0.69359486570E+02  0.69858448754E+01  0.19090557657E+04  0.19103281020E+04  0.00000000000E+00 0. -1.
         22    1    3    3    0    0 -0.14520855195E+03  0.21695835813E+02  0.85371684639E+02  0.16983685521E+03  0.00000000000E+00 0.  1.
         22    1    3    3    0    0 -0.17609450910E+02  0.74075169391E+02  0.81294116249E+02  0.11138203095E+03  0.00000000000E+00 0.  1.
</event>
<event>
 7    1  0.5139898E-006  0.2733230E+02  0.7818608E-02  0.1647467E+00
          2   -1    0    0  502    0  0.00000000000E+00  0.00000000000E+00  0.66508004673E+02  0.66508004673E+02  0.00000000000E+00 0. -1.
          1   -1    0    0  501    0 -0.00000000000E+00 -0.00000000000E+00 -0.51486428286E+03  0.51486428286E+03  0.00000000000E+00 0. -1.
         25    2    1    2    0    0  0.51247922216E+02  0.28431589329E+01 -0.19375387063E+03  0.23622013976E+03  0.12499983584E+03 0.  0.
          2    1    1    2  501    0 -0.26602978914E+02 -0.16690079683E+01 -0.29587164102E+03  0.29706991102E+03  0.00000000000E+00 0. -1.
          1    1    1    2  502    0 -0.24644943302E+02 -0.11741509646E+01  0.41269233461E+02  0.48082236754E+02  0.00000000000E+00 0. -1.
         22    1    3    3    0    0 -0.74997751188E+01 -0.42812991786E+02 -0.21305484079E+02  0.48405811060E+02  0.00000000000E+00 0.  1.
         22    1    3    3    0    0  0.58747697335E+02  0.45656150719E+02 -0.17244838656E+03  0.18781432870E+03  0.00000000000E+00 0.  1.
</event>
<event>
 7    1  0.5139898E-006  0.6502836E+02  0.7818608E-02  0.1381546E+00
          2   -1    0    0  502    0  0.00000000000E+00  0.00000000000E+00  0.21944489287E+03  0.21944489287E+03  0.00000000000E+00 0. -1.
          1   -1    0    0  501    0 -0.00000000000E+00 -0.00000000000E+00 -0.50726687679E+03  0.50726687679E+03  0.00000000000E+00 0. -1.
         25    2    1    2    0    0 -0.88118509850E+01 -0.97102957464E+01 -0.13531316812E+03  0.18467319022E+03  0.12499038026E+03 0.  0.
          2    1    1    2  501    0  0.36218309719E+02 -0.51676008683E+02 -0.33846823472E+03  0.34430062699E+03  0.00000000000E+00 0. -1.
          1    1    1    2  502    0 -0.27406458734E+02  0.61386304429E+02  0.18595941892E+03  0.19773795244E+03  0.00000000000E+00 0. -1.
         22    1    3    3    0    0  0.41518272723E+02 -0.38273514709E+02 -0.10529456476E+03  0.11948043466E+03  0.00000000000E+00 0. -1.
         22    1    3    3    0    0 -0.50330123708E+02  0.28563218963E+02 -0.30018603357E+02  0.65192755560E+02  0.00000000000E+00 0. -1.
</event>
<event>
 7    1  0.5139898E-006  0.1318739E+03  0.7818608E-02  0.1263061E+00
          2   -1    0    0  502    0  0.00000000000E+00  0.00000000000E+00  0.96170817229E+03  0.96170817229E+03  0.00000000000E+00 0. -1.
          1   -1    0    0  501    0 -0.00000000000E+00 -0.00000000000E+00 -0.25835827296E+04  0.25835827296E+04  0.00000000000E+00 0. -1.
         25    2    1    2    0    0  0.11588994476E+03  0.73578042323E+02 -0.25508348887E-01  0.18565602985E+03  0.12499581257E+03 0.  0.
          2    1    1    2  501    0 -0.72642733634E+02  0.52352196556E+02 -0.24848298585E+04  0.24864426687E+04  0.00000000000E+00 0. -1.
          1    1    1    2  502    0 -0.43247211123E+02 -0.12593023888E+03  0.86298080952E+03  0.87319220332E+03  0.00000000000E+00 0. -1.
         22    1    3    3    0    0  0.12968084379E+03  0.62493154359E+02 -0.33493969587E+02  0.14779838154E+03  0.00000000000E+00 0.  1.
         22    1    3    3    0    0 -0.13790899036E+02  0.11084887964E+02  0.33468461238E+02  0.37857648303E+02  0.00000000000E+00 0.  1.
</event>
<event>
 7    1  0.5139898E-006  0.5782233E+02  0.7818608E-02  0.1545712E+00
          2   -1    0    0  502    0  0.00000000000E+00  0.00000000000E+00  0.29800753143E+04  0.29800753143E+04  0.00000000000E+00 0. -1.
          1   -1    0    0  501    0 -0.00000000000E+00 -0.00000000000E+00 -0.29425182716E+02  0.29425182716E+02  0.00000000000E+00 0. -1.
         25    2    1    2    0    0 -0.40434910924E+02 -0.42297913407E+02  0.21617587826E+04  0.21661603302E+04  0.12500178544E+03 0.  0.
          2    1    1    2  501    0  0.52479432639E+02  0.24387316142E+02  0.38444908519E+01  0.57996656358E+02  0.00000000000E+00 0. -1.
          1    1    1    2  502    0 -0.12044521715E+02  0.17910597265E+02  0.78504685808E+03  0.78534351043E+03  0.00000000000E+00 0. -1.
         22    1    3    3    0    0 -0.43236029541E+02 -0.52845390748E+02  0.53183521761E+03  0.53620023150E+03  0.00000000000E+00 0. -1.
         22    1    3    3    0    0  0.28011186171E+01  0.10547477341E+02  0.16299235650E+04  0.16299600987E+04  0.00000000000E+00 0. -1.
</event>
<event>
 7    1  0.5139898E-006  0.2203526E+03  0.7818608E-02  0.1253723E+00
          2   -1    0    0  502    0  0.00000000000E+00  0.00000000000E+00  0.29865166433E+03  0.29865166433E+03  0.00000000000E+00 0. -1.
          1   -1    0    0  501    0 -0.00000000000E+00 -0.00000000000E+00 -0.12420869945E+04  0.12420869945E+04  0.00000000000E+00 0. -1.
         25    2    1    2    0    0 -0.12962002540E+02  0.17188473847E+03 -0.86184501872E+03  0.88775796532E+03  0.12499996747E+03 0.  0.
          2    1    1    2  501    0  0.30376357138E+02  0.50290397242E+02 -0.32074768356E+03  0.32608422782E+03  0.00000000000E+00 0. -1.
          1    1    1    2  502    0 -0.17414354599E+02 -0.22217513571E+03  0.23915737209E+03  0.32689646571E+03  0.00000000000E+00 0. -1.
         22    1    3    3    0    0 -0.27380103115E+02  0.18423208238E+03 -0.83036313514E+03  0.85099592621E+03  0.00000000000E+00 0. -1.
         22    1    3    3    0    0  0.14418100575E+02 -0.12347343911E+02 -0.31481883578E+02  0.36762039110E+02  0.00000000000E+00 0. -1.
</event>
<event>
 7    1  0.5139898E-006  0.2542862E+03  0.7818608E-02  0.1162410E+00
          2   -1    0    0  502    0  0.00000000000E+00  0.00000000000E+00  0.15743244926E+04  0.15743244926E+04  0.00000000000E+00 0. -1.
          1   -1    0    0  501    0 -0.00000000000E+00 -0.00000000000E+00 -0.28757503089E+03  0.28757503089E+03  0.00000000000E+00 0. -1.
         25    2    1    2    0    0 -0.27841123347E+03  0.27545823231E+02  0.34662879847E+03  0.46265317451E+03  0.12499939463E+03 0.  0.
          2    1    1    2  501    0  0.21000464260E+03 -0.14462023370E+03 -0.15325407252E+03  0.29749583636E+03  0.00000000000E+00 0. -1.
          1    1    1    2  502    0  0.68406590869E+02  0.11707441047E+03  0.10933747358E+04  0.11017505126E+04  0.00000000000E+00 0. -1.
         22    1    3    3    0    0  0.10588831206E+01  0.93000646613E+01  0.64298979598E+02  0.64976697465E+02  0.00000000000E+00 0. -1.
         22    1    3    3    0    0 -0.27947011659E+03  0.18245758569E+02  0.28232981887E+03  0.39767647705E+03  0.00000000000E+00 0. -1.
</event>
<event>
 7    1  0.5139898E-006  0.9753882E+02  0.7818608E-02  0.1449691E+00
          2   -1    0    0  502    0  0.00000000000E+00  0.00000000000E+00  0.76351775194E+03  0.76351775194E+03  0.00000000000E+00 0. -1.
          1   -1    0    0  501    0 -0.00000000000E+00 -0.00000000000E+00 -0.99208036613E+02  0.99208036613E+02  0.00000000000E+00 0. -1.
         25    2    1    2    0    0  0.72464502208E+02  0.43837990287E+02  0.36545753274E+03  0.39542461861E+03  0.12501418836E+03 0.  0.
          2    1    1    2  501    0  0.64165192741E+01  0.23975923700E+02 -0.75128829833E+02  0.79122422290E+02  0.00000000000E+00 0. -1.
          1    1    1    2  502    0 -0.78881021482E+02 -0.67813913987E+02  0.37398101242E+03  0.38817874766E+03  0.00000000000E+00 0. -1.
         22    1    3    3    0    0 -0.34262936168E+02 -0.24064261295E+01  0.94873559250E+02  0.10089961311E+03  0.00000000000E+00 0. -1.
         22    1    3    3    0    0  0.10672743838E+03  0.46244416416E+02  0.27058397349E+03  0.29452500549E+03  0.00000000000E+00 0. -1.
</event>
<event>
 7    1  0.5139898E-006  0.5650627E+02  0.7818608E-02  0.1472606E+00
          2   -1    0    0  502    0  0.00000000000E+00  0.00000000000E+00  0.47911319033E+03  0.47911319033E+03  0.00000000000E+00 0. -1.
          1   -1    0    0  501    0 -0.00000000000E+00 -0.00000000000E+00 -0.33277304146E+02  0.33277304146E+02  0.00000000000E+00 0. -1.
         25    2    1    2    0    0  0.39863796457E+01  0.26641808270E+02  0.15988762982E+03  0.20473038312E+03  0.12499919373E+03 0.  0.
          2    1    1    2  501    0  0.20461268715E+02  0.29962906993E+02  0.39581452044E+02  0.53694791729E+02  0.00000000000E+00 0. -1.
          1    1    1    2  502    0 -0.24447648360E+02 -0.56604715263E+02  0.24636680432E+03  0.25396531962E+03  0.00000000000E+00 0. -1.
         22    1    3    3    0    0 -0.15876643634E+02 -0.13867375101E+02 -0.13854848781E+02  0.25225557278E+02  0.00000000000E+00 0.  1.
         22    1    3    3    0    0  0.19863023279E+02  0.40509183371E+02  0.17374247860E+03  0.17950482585E+03  0.00000000000E+00 0.  1.
</event>
<event>
 7    1  0.5139898E-006  0.1364607E+03  0.7818608E-02  0.1239952E+00
          2   -1    0    0  502    0  0.00000000000E+00  0.00000000000E+00  0.38696276807E+04  0.38696276807E+04  0.00000000000E+00 0. -1.
          1   -1    0    0  501    0 -0.00000000000E+00 -0.00000000000E+00 -0.38113075650E+02  0.38113075650E+02  0.00000000000E+00 0. -1.
         25    2    1    2    0    0  0.76994876562E+02 -0.12351329197E+03  0.27291438126E+04  0.27358793595E+04  0.12500470276E+03 0.  0.
          2    1    1    2  501    0  0.66139697229E+02  0.86565425580E+02  0.71190042346E+02  0.13013859760E+03  0.00000000000E+00 0. -1.
          1    1    1    2  502    0 -0.14313457379E+03  0.36947866387E+02  0.10311807501E+04  0.10417227992E+04  0.00000000000E+00 0. -1.
         22    1    3    3    0    0  0.50112098325E+02 -0.96362101245E+02  0.25669152921E+04  0.25692121348E+04  0.00000000000E+00 0.  1.
         22    1    3    3    0    0  0.26882778237E+02 -0.27151190721E+02  0.16222852055E+03  0.16666722474E+03  0.00000000000E+00 0.  1.
</event>
<event>
 7    1  0.5139898E-006  0.2028202E+03  0.7818608E-02  0.1275067E+00
          2   -1    0    0  502    0  0.00000000000E+00  0.00000000000E+00  0.40284222534E+03  0.40284222534E+03  0.00000000000E+00 0. -1.
          1   -1    0    0  501    0 -0.00000000000E+00 -0.00000000000E+00 -0.19258935894E+03  0.19258935894E+03  0.00000000000E+00 0. -1.
         25    2    1    2    0    0 -0.17769364716E+03  0.12478913776E+03 -0.12600323850E+02  0.25085996790E+03  0.12499837674E+03 0.  0.
          2    1    1    2  501    0  0.12717400887E+03 -0.13636907823E+03  0.10079632736E+03  0.21196616155E+03  0.00000000000E+00 0. -1.
          1    1    1    2  502    0  0.50519638292E+02  0.11579940472E+02  0.12205686289E+03  0.13260545484E+03  0.00000000000E+00 0. -1.
         22    1    3    3    0    0 -0.15098313970E+03  0.14900113752E+03 -0.22922262364E+02  0.21336044049E+03  0.00000000000E+00 0.  1.
         22    1    3    3    0    0 -0.26710507461E+02 -0.24211999756E+02  0.10321938514E+02  0.37499527406E+02  0.00000000000E+00 0.  1.
</event>
<event>
 7    1  0.5139898E-006  0.1002733E+03  0.7818608E-02  0.1317055E+00
          2   -1    0    0  502    0  0.00000000000E+00  0.00000000000E+00  0.82922056218E+02  0.82922056218E+02  0.00000000000E+00 0. -1.
          1   -1    0    0  501    0 -0.00000000000E+00 -0.00000000000E+00 -0.92146655336E+03  0.92146655336E+03  0.00000000000E+00 0. -1.
         25    2    1    2    0    0  0.47857505065E+02  0.10217519529E+03 -0.43786390465E+03  0.46912628795E+03  0.12499825488E+03 0.  0.
          2    1    1    2  501    0 -0.91200091161E+02 -0.45926550666E+02 -0.44163652130E+03  0.45328746026E+03  0.00000000000E+00 0. -1.
          1    1    1    2  502    0  0.43342586096E+02 -0.56248644621E+02  0.40955928812E+02  0.81974861367E+02  0.00000000000E+00 0. -1.
         22    1    3    3    0    0  0.85187382762E+02  0.96548039521E+02 -0.36533875271E+03  0.38736393527E+03  0.00000000000E+00 0. -1.
         22    1    3    3    0    0 -0.37329877698E+02  0.56271557665E+01 -0.72525151940E+02  0.81762352675E+02  0.00000000000E+00 0. -1.
</event>
<event>
 7    1  0.5139898E-006  0.1184514E+03  0.7818608E-02  0.1403359E+00
          2   -1    0    0  502    0  0.00000000000E+00  0.00000000000E+00  0.53683423892E+03  0.53683423892E+03  0.00000000000E+00 0. -1.
          1   -1    0    0  501    0 -0.00000000000E+00 -0.00000000000E+00 -0.94300399191E+03  0.94300399191E+03  0.00000000000E+00 0. -1.
         25    2    1    2    0    0  0.11737359979E+03 -0.30751493591E+02 -0.36141115596E+03  0.40120773730E+03  0.12500963375E+03 0.  0.
          2    1    1    2  501    0  0.10763966677E+01  0.29071937761E+02 -0.55452150449E+03  0.55528410308E+03  0.00000000000E+00 0. -1.
          1    1    1    2  502    0 -0.11844999646E+03  0.16795558298E+01  0.50976290746E+03  0.52334639044E+03  0.00000000000E+00 0. -1.
         22    1    3    3    0    0  0.12690953513E+03  0.35215392211E+01 -0.20766314992E+03  0.24339764826E+03  0.00000000000E+00 0. -1.
         22    1    3    3    0    0 -0.95359353348E+01 -0.34273032812E+02 -0.15374800604E+03  0.15781008904E+03  0.00000000000E+00 0. -1.
</event>
<event>
 7    1  0.5139898E-006  0.9455030E+02  0.7818608E-02  0.1367015E+00
          2   -1    0    0  502    0  0.00000000000E+00  0.00000000000E+00  0.88932205693E+03  0.88932205693E+03  0.00000000000E+00 0. -1.
          1   -1    0    0  501    0 -0.00000000000E+00 -0.00000000000E+00 -0.88023802633E+03  0.88023802633E+03  0.00000000000E+00 0. -1.
         25    2    1    2    0    0 -0.77796177521E+02  0.13326848173E+02 -0.27320820141E+02  0.15033816134E+03  0.12500114168E+03 0.  0.
          2    1    1    2  501    0  0.73013077757E+02 -0.62003328060E+02 -0.78778245298E+03  0.79358459879E+03  0.00000000000E+00 0. -1.
          1    1    1    2  502    0  0.47830997649E+01  0.48676479888E+02  0.82418730372E+03  0.82563732313E+03  0.00000000000E+00 0. -1.
         22    1    3    3    0    0  0.18662441383E+02 -0.72120041205E+01 -0.45819432639E+02  0.49997201214E+02  0.00000000000E+00 0.  1.
         22    1    3    3    0    0 -0.96458618905E+02  0.20538852293E+02  0.18498612498E+02  0.10034096013E+03  0.00000000000E+00 0.  1.
</event>
<event>
 7    1  0.5139898E-006  0.8804929E+02  0.7818608E-02  0.1332113E+00
          2   -1    0    0  502    0  0.00000000000E+00  0.00000000000E+00  0.27971965040E+04  0.27971965040E+04  0.00000000000E+00 0. -1.
          1   -1    0    0  501    0 -0.00000000000E+00 -0.00000000000E+00 -0.34793713217E+03  0.34793713217E+03  0.00000000000E+00 0. -1.
         25    2    1    2    0    0  0.66562580917E+02 -0.77359259688E+02  0.18056962211E+04  0.18128927738E+04  0.12500533648E+03 0.  0.
          2    1    1    2  501    0  0.33854790243E+01  0.88025528075E+02 -0.33740973045E+03  0.34871948793E+03  0.00000000000E+00 0. -1.
          1    1    1    2  502    0 -0.69948059941E+02 -0.10666268387E+02  0.98097288114E+03  0.98352137440E+03  0.00000000000E+00 0. -1.
         22    1    3    3    0    0  0.63246825735E+02 -0.30805866647E+02  0.16163210480E+04  0.16178513197E+04  0.00000000000E+00 0.  1.
         22    1    3    3    0    0  0.33157551813E+01 -0.46553393042E+02  0.18937517306E+03  0.19504145408E+03  0.00000000000E+00 0.  1.
</event>
<event>
 7    1  0.5139898E-006  0.4923513E+02  0.7818608E-02  0.1498474E+00
          2   -1    0    0  502    0  0.00000000000E+00  0.00000000000E+00  0.52887814084E+02  0.52887814084E+02  0.00000000000E+00 0. -1.
          1   -1    0    0  501    0 -0.00000000000E+00 -0.00000000000E+00 -0.50315581618E+03  0.50315581618E+03  0.00000000000E+00 0. -1.
         25    2    1    2    0    0 -0.56658134709E+01 -0.65239455155E+02 -0.20524935438E+03  0.24908093115E+03  0.12500289933E+03 0.  0.
          2    1    1    2  501    0  0.28566785306E+02  0.39122733902E+02 -0.26329394495E+03  0.26771318791E+03  0.00000000000E+00 0. -1.
          1    1    1    2  502    0 -0.22900971835E+02  0.26116721253E+02  0.18275297241E+02  0.39249511198E+02  0.00000000000E+00 0. -1.
         22    1    3    3    0    0 -0.44683242445E+02  0.12832314936E+02 -0.36533109454E+02  0.59126377772E+02  0.00000000000E+00 0.  1.
         22    1    3    3    0    0  0.39017428974E+02 -0.78071770092E+02 -0.16871624492E+03  0.18995455338E+03  0.00000000000E+00 0.  1.
</event>
<event>
 7    1  0.5139898E-006  0.9033249E+02  0.7818608E-02  0.1462735E+00
          2   -1    0    0  502    0  0.00000000000E+00  0.00000000000E+00  0.52126996682E+03  0.52126996682E+03  0.00000000000E+00 0. -1.
          1   -1    0    0  501    0 -0.00000000000E+00 -0.00000000000E+00 -0.32947377315E+03  0.32947377315E+03  0.00000000000E+00 0. -1.
         25    2    1    2    0    0  0.83862980770E+02 -0.19780812417E+02  0.76963597319E+02  0.17023160699E+03  0.12502449610E+03 0.  0.
          2    1    1    2  501    0 -0.90682863531E+02 -0.36098775365E+01 -0.27516970237E+03  0.28974950915E+03  0.00000000000E+00 0. -1.
          1    1    1    2  502    0  0.68198827605E+01  0.23390689954E+02  0.39000229872E+03  0.39076262383E+03  0.00000000000E+00 0. -1.
         22    1    3    3    0    0  0.66984079118E+01 -0.45827642040E+02 -0.13759915647E+02  0.48315388046E+02  0.00000000000E+00 0.  1.
         22    1    3    3    0    0  0.77164572859E+02  0.26046829622E+02  0.90723512965E+02  0.12191621895E+03  0.00000000000E+00 0.  1.
</event>
<event>
 7    1  0.5139898E-006  0.8485393E+02  0.7818608E-02  0.1451793E+00
          2   -1    0    0  502    0  0.00000000000E+00  0.00000000000E+00  0.13922402055E+04  0.13922402055E+04  0.00000000000E+00 0. -1.
          1   -1    0    0  501    0 -0.00000000000E+00 -0.00000000000E+00 -0.79664144224E+02  0.79664144224E+02  0.00000000000E+00 0. -1.
         25    2    1    2    0    0  0.28965596729E+02 -0.10564015229E+03  0.31977773517E+03  0.36039923421E+03  0.12502383986E+03 0.  0.
          2    1    1    2  501    0 -0.14626323896E+02  0.81483403183E+02 -0.30199251568E+02  0.88121899323E+02  0.00000000000E+00 0. -1.
          1    1    1    2  502    0 -0.14339272834E+02  0.24156749110E+02  0.10229975777E+04  0.10233832162E+04  0.00000000000E+00 0. -1.
         22    1    3    3    0    0  0.20150956001E+02  0.22151569294E+01  0.19151291490E+03  0.19258287702E+03  0.00000000000E+00 0.  1.
         22    1    3    3    0    0  0.88146407285E+01 -0.10785530922E+03  0.12826482027E+03  0.16781635718E+03  0.00000000000E+00 0.  1.
</event>
<event>
 7    1  0.5139898E-006  0.2360696E+03  0.7818608E-02  0.1264312E+00
          2   -1    0    0  502    0  0.00000000000E+00  0.00000000000E+00  0.14368396280E+04  0.14368396280E+04  0.00000000000E+00 0. -1.
          1   -1    0    0  501    0 -0.00000000000E+00 -0.00000000000E+00 -0.13466338669E+04  0.13466338669E+04  0.00000000000E+00 0. -1.
         25    2    1    2    0    0  0.24950818904E+03 -0.20161119024E+02  0.22087612439E+02  0.28066682586E+03  0.12500078960E+03 0.  0.
          2    1    1    2  501    0 -0.22648918243E+03  0.63884226092E+02 -0.12054878777E+04  0.12282424709E+04  0.00000000000E+00 0. -1.
          1    1    1    2  502    0 -0.23019006607E+02 -0.43723107068E+02  0.12736060264E+04  0.12745641982E+04  0.00000000000E+00 0. -1.
         22    1    3    3    0    0  0.15893939677E+03 -0.18896012894E+02  0.73924084885E+02  0.17630530756E+03  0.00000000000E+00 0. -1.
         22    1    3    3    0    0  0.90568792270E+02 -0.12651061302E+01 -0.51836472446E+02  0.10436151830E+03  0.00000000000E+00 0. -1.
</event>
<event>
 7    1  0.5139898E-006  0.6605435E+02  0.7818608E-02  0.1437352E+00
          2   -1    0    0  502    0  0.00000000000E+00  0.00000000000E+00  0.40151399607E+04  0.40151399607E+04  0.00000000000E+00 0. -1.
          1   -1    0    0  501    0 -0.00000000000E+00 -0.00000000000E+00 -0.32129912862E+02  0.32129912862E+02  0.00000000000E+00 0. -1.
         25    2    1    2    0    0 -0.93304084094E+02  0.20391064873E+02  0.16316115816E+04  0.16391776158E+04  0.12500182119E+03 0.  0.
          2    1    1    2  501    0  0.30379789075E+02 -0.26283245214E+02 -0.13477495946E+02  0.42371965499E+02  0.00000000000E+00 0. -1.
          1    1    1    2  502    0  0.62924295019E+02  0.58921803411E+01  0.23648759622E+04  0.23657202923E+04  0.00000000000E+00 0. -1.
         22    1    3    3    0    0 -0.30940980978E+02  0.69134359946E+02  0.94147785170E+03  0.94451969237E+03  0.00000000000E+00 0.  1.
         22    1    3    3    0    0 -0.62363103116E+02 -0.48743295073E+02  0.69013372992E+03  0.69465792345E+03  0.00000000000E+00 0.  1.
</event>
<event>
 7    1  0.5139898E-006  0.6045142E+02  0.7818608E-02  0.1534450E+00
          2   -1    0    0  502    0  0.00000000000E+00  0.00000000000E+00  0.21159626744E+04  0.21159626744E+04  0.00000000000E+00 0. -1.
          1   -1    0    0  501    0 -0.00000000000E+00 -0.00000000000E+00 -0.28886382387E+02  0.28886382387E+02  0.00000000000E+00 0. -1.
         25    2    1    2    0    0 -0.47174766692E+02 -0.27115360586E+02  0.42442397953E+03  0.44578213026E+03  0.12500116745E+03 0.  0.
          2    1    1    2  501    0  0.89301291734E+01 -0.20341297228E+02 -0.10663166251E+02  0.24641807857E+02  0.00000000000E+00 0. -1.
          1    1    1    2  502    0  0.38244637519E+02  0.47456657815E+02  0.16733154787E+04  0.16744251187E+04  0.00000000000E+00 0. -1.
         22    1    3    3    0    0 -0.47088383723E+02 -0.45904961600E+01  0.43741235054E+02  0.64433564085E+02  0.00000000000E+00 0.  1.
         22    1    3    3    0    0 -0.86382969763E-01 -0.22524864426E+02  0.38068274448E+03  0.38134856617E+03  0.00000000000E+00 0.  1.
</event>
<event>
 7    1  0.5139898E-006  0.5167427E+02  0.7818608E-02  0.1456905E+00
          2   -1    0    0  502    0  0.00000000000E+00  0.00000000000E+00  0.97354710589E+03  0.97354710589E+03  0.00000000000E+00 0. -1.
          1   -1    0    0  501    0 -0.00000000000E+00 -0.00000000000E+00 -0.14725037823E+04  0.14725037823E+04  0.00000000000E+00 0. -1.
         25    2    1    2    0    0 -0.16603844921E+02 -0.92162233218E+01  0.33449159628E+03  0.35758780305E+03  0.12499512978E+03 0.  0.
          2    1    1    2  501    0  0.13329582593E+01 -0.44415067746E+02 -0.14593780140E+04  0.14600543356E+04  0.00000000000E+00 0. -1.
          1    1    1    2  502    0  0.15270886661E+02  0.53631291068E+02  0.62592974136E+03  0.62840874952E+03  0.00000000000E+00 0. -1.
         22    1    3    3    0    0 -0.24585028393E+02 -0.24584258628E+02  0.33811332350E+03  0.33989620316E+03  0.00000000000E+00 0. -1.
         22    1    3    3    0    0  0.79811834723E+01  0.15368035307E+02 -0.36217272167E+01  0.17691599895E+02  0.00000000000E+00 0. -1.
</event>
<event>
 7    1  0.5139898E-006  0.1014240E+03  0.7818608E-02  0.1396761E+00
          2   -1    0    0  502    0  0.00000000000E+00  0.00000000000E+00  0.16213836149E+04  0.16213836149E+04  0.00000000000E+00 0. -1.
          1   -1    0    0  501    0 -0.00000000000E+00 -0.00000000000E+00 -0.62679728639E+03  0.62679728639E+03  0.00000000000E+00 0. -1.
         25    2    1    2    0    0  0.80150545252E+01  0.90903141327E+02  0.29109270243E+02  0.15747604874E+03  0.12499493634E+03 0.  0.
          2    1    1    2  501    0 -0.35049023394E+02  0.72845851798E+01 -0.56034526577E+03  0.56148759211E+03  0.00000000000E+00 0. -1.
          1    1    1    2  502    0  0.27033968869E+02 -0.98187726507E+02  0.15258223240E+04  0.15292172604E+04  0.00000000000E+00 0. -1.
         22    1    3    3    0    0  0.12842065885E+02  0.20961894755E+02 -0.47589431925E+02  0.53563735109E+02  0.00000000000E+00 0.  1.
         22    1    3    3    0    0 -0.48270113594E+01  0.69941246572E+02  0.76698702168E+02  0.10391231363E+03  0.00000000000E+00 0.  1.
</event>
<event>
 7    1  0.5139898E-006  0.8702964E+02  0.7818608E-02  0.1393147E+00
          2   -1    0    0  502    0  0.00000000000E+00  0.00000000000E+00  0.64532999081E+03  0.64532999081E+03  0.00000000000E+00 0. -1.
          1   -1    0    0  501    0 -0.00000000000E+00 -0.00000000000E+00 -0.30689222528E+03  0.30689222528E+03  0.00000000000E+00 0. -1.
         25    2    1    2    0    0  0.55959329417E+02  0.16892634922E+01  0.16236078330E+03  0.21241096003E+03  0.12499236707E+03 0.  0.
          2    1    1    2  501    0 -0.80144264886E+02 -0.37169641222E+02 -0.27389758428E+03  0.28779258520E+03  0.00000000000E+00 0. -1.
          1    1    1    2  502    0  0.24184935469E+02  0.35480377730E+02  0.44997456651E+03  0.45201867087E+03  0.00000000000E+00 0. -1.
         22    1    3    3    0    0  0.10497314075E+02 -0.59259007955E+02  0.60882560258E+02  0.85606715684E+02  0.00000000000E+00 0. -1.
         22    1    3    3    0    0  0.45462015342E+02  0.60948271448E+02  0.10147822304E+03  0.12680424434E+03  0.00000000000E+00 0. -1.
</event>
<event>
 7    1  0.5139898E-006  0.9165845E+02  0.7818608E-02  0.1404863E+00
          2   -1    0    0  502    0  0.00000000000E+00  0.00000000000E+00  0.20342908207E+04  0.20342908207E+04  0.00000000000E+00 0. -1.
          1   -1    0    0  501    0 -0.00000000000E+00 -0.00000000000E+00 -0.84766895647E+02  0.84766895647E+02  0.00000000000E+00 0. -1.
         25    2    1    2    0    0 -0.96513983036E+02 -0.32234491917E+02  0.54053684222E+03  0.56405652488E+03  0.12500269624E+03 0.  0.
          2    1    1    2  501    0  0.91362629307E+02 -0.45601006664E+01 -0.44021576243E+02  0.10151760304E+03  0.00000000000E+00 0. -1.
          1    1    1    2  502    0  0.51513537286E+01  0.36794592583E+02  0.14530086590E+04  0.14534835884E+04  0.00000000000E+00 0. -1.
         22    1    3    3    0    0 -0.43837912535E+01 -0.63455950792E+02  0.23068774310E+03  0.23929628107E+03  0.00000000000E+00 0.  1.
         22    1    3    3    0    0 -0.92130191782E+02  0.31221458875E+02  0.30984909913E+03  0.32476024381E+03  0.00000000000E+00 0.  1.
</event>
<event>
 7    1  0.5139898E-006  0.1456164E+03  0.7818608E-02  0.1276910E+00
          2   -1    0    0  502    0  0.00000000000E+00  0.00000000000E+00  0.16438992014E+03  0.16438992014E+03  0.00000000000E+00 0. -1.
          1   -1    0    0  501    0 -0.00000000000E+00 -0.00000000000E+00 -0.91922027073E+03  0.91922027073E+03  0.00000000000E+00 0. -1.
         25    2    1    2    0    0 -0.75081474118E+02 -0.12203990199E+03 -0.29365136174E+03  0.34983909620E+03  0.12500122217E+03 0.  0.
          2    1    1    2  501    0  0.10074190444E+02  0.15040746403E+03 -0.57787395292E+03  0.59721202266E+03  0.00000000000E+00 0. -1.
          1    1    1    2  502    0  0.65007283674E+02 -0.28367562040E+02  0.11669496408E+03  0.13655907201E+03  0.00000000000E+00 0. -1.
         22    1    3    3    0    0 -0.64726575790E+02  0.78368518894E+00 -0.12714417954E+03  0.14267370524E+03  0.00000000000E+00 0.  1.
         22    1    3    3    0    0 -0.10354898328E+02 -0.12282358717E+03 -0.16650718220E+03  0.20716539096E+03  0.00000000000E+00 0.  1.
</event>
<event>
 7    1  0.5139898E-006  0.7477403E+02  0.7818608E-02  0.1426483E+00
          2   -1    0    0  502    0  0.00000000000E+00  0.00000000000E+00  0.11122144828E+02  0.11122144828E+02  0.00000000000E+00 0. -1.
          1   -1    0    0  501    0 -0.00000000000E+00 -0.00000000000E+00 -0.36736289986E+04  0.36736289986E+04  0.00000000000E+00 0. -1.
         25    2    1    2    0    0  0.20496468661E+02  0.55706218577E+02 -0.67694089724E+03  0.69093899927E+03  0.12499773735E+03 0.  0.
          2    1    1    2  501    0  0.12631748406E+02 -0.75372677433E+02 -0.28866047508E+04  0.28876162468E+04  0.00000000000E+00 0. -1.
          1    1    1    2  502    0 -0.33128217067E+02  0.19666458856E+02 -0.98961205695E+02  0.10619589730E+03  0.00000000000E+00 0. -1.
         22    1    3    3    0    0  0.58988385380E+01  0.27773155470E+02 -0.64649370093E+03  0.64711687492E+03  0.00000000000E+00 0. -1.
         22    1    3    3    0    0  0.14597630123E+02  0.27933063106E+02 -0.30447196306E+02  0.43822124351E+02  0.00000000000E+00 0. -1.
</event>
<event>
 7    1  0.8711782E-006  0.6295925E+02  0.7818608E-02  0.1401428E+00
          2   -1    0    0  502    0  0.00000000000E+00  0.00000000000E+00  0.18059280578E+04  0.18059280578E+04  0.00000000000E+00 0. -1.
          1   -1    0    0  501    0 -0.00000000000E+00 -0.00000000000E+00 -0.69195687443E+03  0.69195687443E+03  0.00000000000E+00 0. -1.
         25    2    1    2    0    0  0.14656449365E+02 -0.57272356510E+01 -0.58858096281E+02  0.13905791998E+03  0.12500086750E+03 0.  0.
          2    1    1    2  501    0 -0.24942914888E+02  0.60340547061E+02 -0.59076256805E+03  0.59435977525E+03  0.00000000000E+00 0. -1.
          1    1    1    2  502    0  0.10286465523E+02 -0.54613311411E+02  0.17635918477E+04  0.17644672370E+04  0.00000000000E+00 0. -1.
         22    1    3    3    0    0 -0.10528445665E+02 -0.14776036260E+02  0.36098976508E+02  0.40401924714E+02  0.00000000000E+00 0. -1.
         22    1    3    3    0    0  0.25184895031E+02  0.90488006089E+01 -0.94957072789E+02  0.98655995271E+02  0.00000000000E+00 0. -1.
</event>
<event>
 7    1  0.5139898E-006  0.2263889E+03  0.7818608E-02  0.1318708E+00
          2   -1    0    0  502    0  0.00000000000E+00  0.00000000000E+00  0.18373703374E+03  0.18373703374E+03  0.00000000000E+00 0. -1.
          1   -1    0    0  501    0 -0.00000000000E+00 -0.00000000000E+00 -0.93768703003E+03  0.93768703003E+03  0.00000000000E+00 0. -1.
         25    2    1    2    0    0 -0.47091764612E+02 -0.21758478533E+03 -0.13013269443E+03  0.28656564886E+03  0.12499831937E+03 0.  0.
          2    1    1    2  501    0  0.17552123959E+02  0.22695288338E+03 -0.70877188397E+03  0.74442815089E+03  0.00000000000E+00 0. -1.
          1    1    1    2  502    0  0.29539640653E+02 -0.93680980413E+01  0.84954582105E+02  0.90430264024E+02  0.00000000000E+00 0. -1.
         22    1    3    3    0    0  0.37840269925E+02 -0.77561875732E+02 -0.73264388016E+02  0.11320512862E+03  0.00000000000E+00 0. -1.
         22    1    3    3    0    0 -0.84932034536E+02 -0.14002290960E+03 -0.56868306413E+02  0.17336052024E+03  0.00000000000E+00 0. -1.
</event>
<event>
 7    1  0.5139898E-006  0.1248361E+03  0.7818608E-02  0.1242317E+00
          2   -1    0    0  502    0  0.00000000000E+00  0.00000000000E+00  0.10630364788E+03  0.10630364788E+03  0.00000000000E+00 0. -1.
          1   -1    0    0  501    0 -0.00000000000E+00 -0.00000000000E+00 -0.10651342079E+04  0.10651342079E+04  0.00000000000E+00 0. -1.
         25    2    1    2    0    0  0.72204167226E+02 -0.12583758868E+03 -0.73380145270E+03  0.75837874674E+03  0.12500084413E+03 0.  0.
          2    1    1    2  501    0 -0.12596105525E+03  0.22747690994E+02 -0.26155271819E+03  0.29119318206E+03  0.00000000000E+00 0. -1.
          1    1    1    2  502    0  0.53756888026E+02  0.10308989769E+03  0.36523610841E+02  0.12186592700E+03  0.00000000000E+00 0. -1.
         22    1    3    3    0    0 -0.18112726577E+02 -0.74157917009E+02 -0.19094496002E+03  0.20563911417E+03  0.00000000000E+00 0.  1.
         22    1    3    3    0    0  0.90316893804E+02 -0.51679671670E+02 -0.54285649269E+03  0.55273963258E+03  0.00000000000E+00 0.  1.
</event>
<event>
 7    1  0.5139898E-006  0.7719738E+02  0.7818608E-02  0.1428464E+00
          2   -1    0    0  502    0  0.00000000000E+00  0.00000000000E+00  0.99958082317E+02  0.99958082317E+02  0.00000000000E+00 0. -1.
          1   -1    0    0  501    0 -0.00000000000E+00 -0.00000000000E+00 -0.56575808219E+03  0.56575808219E+03  0.00000000000E+00 0. -1.
         25    2    1    2    0    0 -0.58745629016E+02 -0.30519173129E+02 -0.32085654215E+02  0.14505445732E+03  0.12501534916E+03 0.  0.
          2    1    1    2  501    0  0.68242844910E+01 -0.36119402047E+02 -0.43462717027E+03  0.43617881562E+03  0.00000000000E+00 0. -1.
          1    1    1    2  502    0  0.51921344525E+02  0.66638575176E+02  0.91282460560E+00  0.84482891567E+02  0.00000000000E+00 0. -1.
         22    1    3    3    0    0 -0.75042778584E+02  0.28406637668E+02 -0.20684164541E+02  0.82862478505E+02  0.00000000000E+00 0. -1.
         22    1    3    3    0    0  0.16297149568E+02 -0.58925810798E+02 -0.11401489674E+02  0.62191978816E+02  0.00000000000E+00 0. -1.
</event>
<event>
 7    1  0.5139898E-006  0.4945019E+02  0.7818608E-02  0.1486114E+00
          2   -1    0    0  502    0  0.00000000000E+00  0.00000000000E+00  0.45637167299E+03  0.45637167299E+03  0.00000000000E+00 0. -1.
          1   -1    0    0  501    0 -0.00000000000E+00 -0.00000000000E+00 -0.99382998605E+03  0.99382998605E+03  0.00000000000E+00 0. -1.
         25    2    1    2    0    0  0.31941923347E+02  0.30209346057E+02 -0.46200918409E+02  0.14032850966E+03  0.12499869881E+03 0.  0.
          2    1    1    2  501    0  0.29138729877E+00 -0.49730848236E+02 -0.89900920591E+03  0.90038369293E+03  0.00000000000E+00 0. -1.
          1    1    1    2  502    0 -0.32233310646E+02  0.19521502178E+02  0.40775181126E+03  0.40948945645E+03  0.00000000000E+00 0. -1.
         22    1    3    3    0    0 -0.28337393107E+02 -0.28421706930E+02 -0.38947382963E+02  0.55925842976E+02  0.00000000000E+00 0. -1.
         22    1    3    3    0    0  0.60279316454E+02  0.58631052988E+02 -0.72535354456E+01  0.84402666682E+02  0.00000000000E+00 0. -1.
</event>
<event>
 7    1  0.5192354E-006  0.1349563E+03  0.7818608E-02  0.1346391E+00
          2   -1    0    0  502    0  0.00000000000E+00  0.00000000000E+00  0.12969879719E+04  0.12969879719E+04  0.00000000000E+00 0. -1.
          1   -1    0    0  501    0 -0.00000000000E+00 -0.00000000000E+00 -0.44275826371E+03  0.44275826371E+03  0.00000000000E+00 0. -1.
         25    2    1    2    0    0 -0.22629404450E+02  0.94682245317E+02 -0.60103865524E+02  0.16945177993E+03  0.12499845417E+03 0.  0.
          2    1    1    2  501    0  0.54222058026E+01  0.40425095859E+02 -0.32296094445E+03  0.32552628209E+03  0.00000000000E+00 0. -1.
          1    1    1    2  502    0  0.17207198648E+02 -0.13510734118E+03  0.12372945181E+04  0.12447681736E+04  0.00000000000E+00 0. -1.
         22    1    3    3    0    0  0.37402324879E+01  0.13760421397E+01 -0.71690420567E+02  0.71801108850E+02  0.00000000000E+00 0.  1.
         22    1    3    3    0    0 -0.26369636938E+02  0.93306203178E+02  0.11586555043E+02  0.97650671075E+02  0.00000000000E+00 0.  1.
</event>
<event>
 7    1  0.5139898E-006  0.1927352E+03  0.7818608E-02  0.1215890E+00
          2   -1    0    0  502    0  0.00000000000E+00  0.00000000000E+00  0.11125198553E+04  0.11125198553E+04  0.00000000000E+00 0. -1.
          1   -1    0    0  501    0 -0.00000000000E+00 -0.00000000000E+00 -0.96240347828E+03  0.96240347828E+03  0.00000000000E+00 0. -1.
         25    2    1    2    0    0  0.19841103067E+02  0.27651487587E+03 -0.18895719634E+03  0.35803067421E+03  0.12500798246E+03 0.  0.
          2    1    1    2  501    0 -0.31465465769E+02 -0.17822804243E+03 -0.67457099749E+03  0.69842776383E+03  0.00000000000E+00 0. -1.
          1    1    1    2  502    0  0.11624362702E+02 -0.98286833443E+02  0.10136445708E+04  0.10184648955E+04  0.00000000000E+00 0. -1.
         22    1    3    3    0    0  0.47977987642E+02  0.25721458071E+03 -0.19084780870E+03  0.32385816944E+03  0.00000000000E+00 0. -1.
         22    1    3    3    0    0 -0.28136884575E+02  0.19300295159E+02  0.18906123656E+01  0.34172504765E+02  0.00000000000E+00 0. -1.
</event>
<event>
 7    1  0.5139898E-006  0.1306313E+03  0.7818608E-02  0.1313405E+00
          2   -1    0    0  502    0  0.00000000000E+00  0.00000000000E+00  0.14770370888E+04  0.14770370888E+04  0.00000000000E+00 0. -1.
          1   -1    0    0  501    0 -0.00000000000E+00 -0.00000000000E+00 -0.32452163106E+03  0.32452163106E+03  0.00000000000E+00 0. -1.
         25    2    1    2    0    0  0.13612608323E+03  0.10527485187E+03  0.48524703977E+03  0.52981362054E+03  0.12499871171E+03 0.  0.
          2    1    1    2  501    0 -0.11890138086E+03 -0.51644754741E+02 -0.28746973493E+03  0.31534674180E+03  0.00000000000E+00 0. -1.
          1    1    1    2  502    0 -0.17224702370E+02 -0.53630097126E+02  0.95473815293E+03  0.95639835757E+03  0.00000000000E+00 0. -1.
         22    1    3    3    0    0  0.14069649967E+03  0.54488386263E+02  0.42441920128E+03  0.45043994902E+03  0.00000000000E+00 0.  1.
         22    1    3    3    0    0 -0.45704164385E+01  0.50786465604E+02  0.60827838496E+02  0.79373671523E+02  0.00000000000E+00 0.  1.
</event>
<event>
 7    1  0.5139898E-006  0.7797694E+02  0.7818608E-02  0.1384900E+00
          2   -1    0    0  502    0  0.00000000000E+00  0.00000000000E+00  0.80651394314E+03  0.80651394314E+03  0.00000000000E+00 0. -1.
          1   -1    0    0  501    0 -0.00000000000E+00 -0.00000000000E+00 -0.34945737187E+03  0.34945737187E+03  0.00000000000E+00 0. -1.
         25    2    1    2    0    0 -0.57181572783E+00 -0.27476478218E+02 -0.17360920782E+03  0.21568541772E+03  0.12499903419E+03 0.  0.
          2    1    1    2  501    0 -0.87800680378E+01 -0.50454141972E+02 -0.14854849014E+03  0.15712849506E+03  0.00000000000E+00 0. -1.
          1    1    1    2  502    0  0.93518837656E+01  0.77930620191E+02  0.77921426923E+03  0.78315740223E+03  0.00000000000E+00 0. -1.
         22    1    3    3    0    0 -0.22635523968E+02 -0.15851410061E+02  0.10746911178E+02  0.29650130626E+02  0.00000000000E+00 0. -1.
         22    1    3    3    0    0  0.22063708240E+02 -0.11625068157E+02 -0.18435611900E+03  0.18603528710E+03  0.00000000000E+00 0. -1.
</event>
<event>
 7    1  0.5139898E-006  0.6876137E+02  0.7818608E-02  0.1513554E+00
          2   -1    0    0  502    0  0.00000000000E+00  0.00000000000E+00  0.32039745078E+03  0.32039745078E+03  0.00000000000E+00 0. -1.
          1   -1    0    0  501    0 -0.00000000000E+00 -0.00000000000E+00 -0.31450409444E+03  0.31450409444E+03  0.00000000000E+00 0. -1.
         25    2    1    2    0    0 -0.59974519986E+02  0.63821802926E+02 -0.11929799789E+03  0.19371760143E+03  0.12499732489E+03 0.  0.
          2    1    1    2  501    0  0.42794431194E+02 -0.49382191595E+02 -0.15076479520E+03  0.16431672970E+03  0.00000000000E+00 0. -1.
          1    1    1    2  502    0  0.17180088792E+02 -0.14439611332E+02  0.27595614943E+03  0.27686721409E+03  0.00000000000E+00 0. -1.
         22    1    3    3    0    0 -0.65726215103E+01  0.91373950091E+02 -0.61476434665E+02  0.11032565489E+03  0.00000000000E+00 0.  1.
         22    1    3    3    0    0 -0.53401898476E+02 -0.27552147164E+02 -0.57821563224E+02  0.83391946541E+02  0.00000000000E+00 0.  1.
</event>
<event>
 7    1  0.5139898E-006  0.8908434E+02  0.7818608E-02  0.1354707E+00
          2   -1    0    0  502    0  0.00000000000E+00  0.00000000000E+00  0.34335219930E+03  0.34335219930E+03  0.00000000000E+00 0. -1.
          1   -1    0    0  501    0 -0.00000000000E+00 -0.00000000000E+00 -0.23723327317E+04  0.23723327317E+04  0.00000000000E+00 0. -1.
         25    2    1    2    0    0 -0.12635857757E+03 -0.22712989379E+02 -0.17594453636E+04  0.17685459029E+04  0.12499701148E+03 0.  0.
          2    1    1    2  501    0  0.70634950883E+02  0.82859579809E+01 -0.60379007024E+03  0.60796414558E+03  0.00000000000E+00 0. -1.
          1    1    1    2  502    0  0.55723626687E+02  0.14427031398E+02  0.33425490147E+03  0.33917488256E+03  0.00000000000E+00 0. -1.
         22    1    3    3    0    0 -0.14424994317E+03 -0.40200025735E+02 -0.13368770924E+04  0.13452376921E+04  0.00000000000E+00 0.  1.
         22    1    3    3    0    0  0.17891365601E+02  0.17487036357E+02 -0.42256827124E+03  0.42330821072E+03  0.00000000000E+00 0.  1.
</event>
<event>
 7    1  0.5139898E-006  0.9840216E+02  0.7818608E-02  0.1424332E+00
          2   -1    0    0  502    0  0.00000000000E+00  0.00000000000E+00  0.22045128898E+03  0.22045128898E+03  0.00000000000E+00 0. -1.
          1   -1    0    0  501    0 -0.00000000000E+00 -0.00000000000E+00 -0.79833060902E+03  0.79833060902E+03  0.00000000000E+00 0. -1.
         25    2    1    2    0    0  0.53436908820E+02  0.93563924086E+02 -0.27722501058E+03  0.32262760886E+03  0.12500062557E+03 0.  0.
          2    1    1    2  501    0 -0.23684007502E+02 -0.94194324401E+02 -0.49251438091E+03  0.50199991869E+03  0.00000000000E+00 0. -1.
          1    1    1    2  502    0 -0.29752901318E+02  0.63040031472E+00  0.19186007146E+03  0.19415437044E+03  0.00000000000E+00 0. -1.
         22    1    3    3    0    0  0.24621555072E+02  0.22410914573E+02  0.16945180567E+01  0.33336788351E+02  0.00000000000E+00 0. -1.
         22    1    3    3    0    0  0.28815353748E+02  0.71153009513E+02 -0.27891952864E+03  0.28929082051E+03  0.00000000000E+00 0. -1.
</event>
<event>
 7    1  0.5139898E-006  0.6382973E+02  0.7818608E-02  0.1385838E+00
          2   -1    0    0  502    0  0.00000000000E+00  0.00000000000E+00  0.27543986881E+04  0.27543986881E+04  0.00000000000E+00 0. -1.
          1   -1    0    0  501    0 -0.00000000000E+00 -0.00000000000E+00 -0.64358697867E+02  0.64358697867E+02  0.00000000000E+00 0. -1.
         25    2    1    2    0    0 -0.31268623928E+02  0.93534317487E+02  0.84037053029E+03  0.85532079613E+03  0.12499856288E+03 0.  0.
          2    1    1    2  501    0 -0.20961138872E+02 -0.59960486253E+02 -0.38480785678E+02  0.74265739886E+02  0.00000000000E+00 0. -1.
          1    1    1    2  502    0  0.52229762800E+02 -0.33573831233E+02  0.18881502457E+04  0.18891708500E+04  0.00000000000E+00 0. -1.
         22    1    3    3    0    0  0.10475593798E+02  0.10376772162E+03  0.71984130431E+03  0.72735753347E+03  0.00000000000E+00 0. -1.
         22    1    3    3    0    0 -0.41744217726E+02 -0.10233404130E+02  0.12052922598E+03  0.12796326266E+03  0.00000000000E+00 0. -1.
</event>
<event>
 7    1  0.5139898E-006  0.4828151E+02  0.7818608E-02  0.1505221E+00
          2   -1    0    0  502    0  0.00000000000E+00  0.00000000000E+00  0.59600156140E+03  0.59600156140E+03  0.00000000000E+00 0. -1.
          1   -1    0    0  501    0 -0.00000000000E+00 -0.00000000000E+00 -0.12720019612E+03  0.12720019612E+03  0.00000000000E+00 0. -1.
         25    2    1    2    0    0 -0.23134940041E+02  0.27688532333E+02  0.38342314988E+02  0.13563363121E+03  0.12499787407E+03 0.  0.
          2    1    1    2  501    0 -0.25388745854E+02 -0.22343621175E+02 -0.73679822973E+02  0.81071216449E+02  0.00000000000E+00 0. -1.
          1    1    1    2  502    0  0.48523685895E+02 -0.53449111575E+01  0.50413887326E+03  0.50649690986E+03  0.00000000000E+00 0. -1.
         22    1    3    3    0    0 -0.16866311700E+02  0.70102233756E+02  0.53901617592E+02  0.90023219377E+02  0.00000000000E+00 0. -1.
         22    1    3    3    0    0 -0.62686283407E+01 -0.42413701423E+02 -0.15559302604E+02  0.45610411829E+02  0.00000000000E+00 0. -1.
</event>
<event>
 7    1  0.5139898E-006  0.9100709E+02  0.7818608E-02  0.1300503E+00
          2   -1    0    0  502    0  0.00000000000E+00  0.00000000000E+00  0.26072948329E+04  0.26072948329E+04  0.00000000000E+00 0. -1.
          1   -1    0    0  501    0 -0.00000000000E+00 -0.00000000000E+00 -0.50779243282E+03  0.50779243282E+03  0.00000000000E+00 0. -1.
         25    2    1    2    0    0 -0.20196234736E+02  0.61237197109E+02  0.32673712546E+03  0.35572561764E+03  0.12500273471E+03 0.  0.
          2    1    1    2  501    0 -0.74759031250E+02 -0.51791626023E+02 -0.48809134824E+03  0.49649214445E+03  0.00000000000E+00 0. -1.
          1    1    1    2  502    0  0.94955265986E+02 -0.94455710862E+01  0.22608566229E+04  0.22628695036E+04  0.00000000000E+00 0. -1.
         22    1    3    3    0    0 -0.65766265088E+02  0.30588713960E+02  0.10725960001E+03  0.12948163129E+03  0.00000000000E+00 0. -1.
         22    1    3    3    0    0  0.45570030352E+02  0.30648483150E+02  0.21947752545E+03  0.22624398635E+03  0.00000000000E+00 0. -1.
</event>
<event>
 7    1  0.5139898E-006  0.6868107E+02  0.7818608E-02  0.1443456E+00
          2   -1    0    0  502    0  0.00000000000E+00  0.00000000000E+00  0.64861253407E+03  0.64861253407E+03  0.00000000000E+00 0. -1.
          1   -1    0    0  501    0 -0.00000000000E+00 -0.00000000000E+00 -0.12971938507E+04  0.12971938507E+04  0.00000000000E+00 0. -1.
         25    2    1    2    0    0 -0.37473730744E+02  0.65841133723E+02  0.50779418382E+03  0.52841113112E+03  0.12499621989E+03 0.  0.
          2    1    1    2  501    0  0.36896422726E+02  0.11162722540E+01 -0.12780126396E+04  0.12785456187E+04  0.00000000000E+00 0. -1.
          1    1    1    2  502    0  0.57730801844E+00 -0.66957405977E+02  0.12163713916E+03  0.13884963494E+03  0.00000000000E+00 0. -1.
         22    1    3    3    0    0 -0.39686672157E+01 -0.24919275000E+02  0.27716726949E+03  0.27831352081E+03  0.00000000000E+00 0. -1.
         22    1    3    3    0    0 -0.33505063529E+02  0.90760408724E+02  0.23062691433E+03  0.25009761032E+03  0.00000000000E+00 0. -1.
</event>
<event>
 7    1  0.5139898E-006  0.1620884E+03  0.7818608E-02  0.1224467E+00
          2   -1    0    0  502    0  0.00000000000E+00  0.00000000000E+00  0.40821658244E+03  0.40821658244E+03  0.00000000000E+00 0. -1.
          1   -1    0    0  501    0 -0.00000000000E+00 -0.00000000000E+00 -0.29440190788E+04  0.29440190788E+04  0.00000000000E+00 0. -1.
         25    2    1    2    0    0 -0.15265807488E+03 -0.14780182782E+03 -0.57063967825E+03  0.62161782149E+03  0.12501682074E+03 0.  0.
          2    1    1    2  501    0  0.15413090448E+03  0.40257645625E+02 -0.23375692929E+04  0.23429910826E+04  0.00000000000E+00 0. -1.
          1    1    1    2  502    0 -0.14728295950E+01  0.10754418219E+03  0.37240647485E+03  0.38762675715E+03  0.00000000000E+00 0. -1.
         22    1    3    3    0    0 -0.12304769789E+03 -0.16600340605E+03 -0.43481690278E+03  0.48141832715E+03  0.00000000000E+00 0.  1.
         22    1    3    3    0    0 -0.29610376991E+02  0.18201578232E+02 -0.13582277547E+03  0.14019949433E+03  0.00000000000E+00 0.  1.
</event>
<event>
 7    1  0.5139898E-006  0.1538391E+03  0.7818608E-02  0.1224060E+00
          2   -1    0    0  502    0  0.00000000000E+00  0.00000000000E+00  0.20293758670E+04  0.20293758670E+04  0.00000000000E+00 0. -1.
          1   -1    0    0  501    0 -0.00000000000E+00 -0.00000000000E+00 -0.37191417046E+03  0.37191417046E+03  0.00000000000E+00 0. -1.
         25    2    1    2    0    0 -0.12701901899E+03 -0.11783028079E+02 -0.16536941738E+03  0.24340257903E+03  0.12500040136E+03 0.  0.
          2    1    1    2  501    0  0.17812798855E+03  0.11346400805E+03 -0.98607414785E+02  0.23308171031E+03  0.00000000000E+00 0. -1.
          1    1    1    2  502    0 -0.51108969563E+02 -0.10168097997E+03  0.19214385287E+04  0.19248057481E+04  0.00000000000E+00 0. -1.
         22    1    3    3    0    0 -0.63074641498E+02 -0.65757169689E+02 -0.61094881818E+02  0.10970414919E+03  0.00000000000E+00 0.  1.
         22    1    3    3    0    0 -0.63944377493E+02  0.53974141610E+02 -0.10427453556E+03  0.13369842984E+03  0.00000000000E+00 0.  1.
</event>
<event>
 7    1  0.5139898E-006  0.5057451E+02  0.7818608E-02  0.1461351E+00
          2   -1    0    0  502    0  0.00000000000E+00  0.00000000000E+00  0.50814686826E+03  0.50814686826E+03  0.00000000000E+00 0. -1.
          1   -1    0    0  501    0 -0.00000000000E+00 -0.00000000000E+00 -0.22108034911E+03  0.22108034911E+03  0.00000000000E+00 0. -1.
         25    2    1    2    0    0  0.31403026437E+02  0.45493123265E+02 -0.63586821288E+02  0.15074454939E+03  0.12499944398E+03 0.  0.
          2    1    1    2  501    0 -0.51778300686E+02 -0.65438605101E+01 -0.10682765103E+03  0.11889474992E+03  0.00000000000E+00 0. -1.
          1    1    1    2  502    0  0.20375274249E+02 -0.38949262755E+02  0.45748099147E+03  0.45958791806E+03  0.00000000000E+00 0. -1.
         22    1    3    3    0    0 -0.34818717449E+02  0.59291088145E+02 -0.27279151016E+02  0.73972483387E+02  0.00000000000E+00 0.  1.
         22    1    3    3    0    0  0.66221743885E+02 -0.13797964881E+02 -0.36307670272E+02  0.76772066005E+02  0.00000000000E+00 0.  1.
</event>
<event>
 7    1  0.5139898E-006  0.4285698E+02  0.7818608E-02  0.1570521E+00
          2   -1    0    0  502    0  0.00000000000E+00  0.00000000000E+00  0.11328073871E+03  0.11328073871E+03  0.00000000000E+00 0. -1.
          1   -1    0    0  501    0 -0.00000000000E+00 -0.00000000000E+00 -0.13964799554E+04  0.13964799554E+04  0.00000000000E+00 0. -1.
         25    2    1    2    0    0 -0.40923050777E+02 -0.49525562151E+02 -0.61999305348E+02  0.15361167397E+03  0.12500062050E+03 0.  0.
          2    1    1    2  501    0  0.21351074540E+02  0.12760005409E+02 -0.12821148369E+04  0.12823560898E+04  0.00000000000E+00 0. -1.
          1    1    1    2  502    0  0.19571976237E+02  0.36765556742E+02  0.60914925531E+02  0.73792930345E+02  0.00000000000E+00 0. -1.
         22    1    3    3    0    0 -0.69055703623E+02 -0.40768188932E+02 -0.84532975388E+02  0.11651849364E+03  0.00000000000E+00 0.  1.
         22    1    3    3    0    0  0.28132652846E+02 -0.87573732189E+01  0.22533670040E+02  0.37093180334E+02  0.00000000000E+00 0.  1.
</event>
<event>
 7    1  0.5139898E-006  0.7300085E+02  0.7818608E-02  0.1357027E+00
          2   -1    0    0  502    0  0.00000000000E+00  0.00000000000E+00  0.46085095137E+03  0.46085095137E+03  0.00000000000E+00 0. -1.
          1   -1    0    0  501    0 -0.00000000000E+00 -0.00000000000E+00 -0.33103414664E+03  0.33103414664E+03  0.00000000000E+00 0. -1.
         25    2    1    2    0    0 -0.48011961649E+02 -0.10076608259E+03 -0.26308422188E+03  0.31192596481E+03  0.12500219142E+03 0.  0.
          2    1    1    2  501    0 -0.16437836166E+02  0.66888024864E+02 -0.10821712486E+02  0.69723165369E+02  0.00000000000E+00 0. -1.
          1    1    1    2  502    0  0.64449797815E+02  0.33878057727E+02  0.40372273910E+03  0.41023596783E+03  0.00000000000E+00 0. -1.
         22    1    3    3    0    0 -0.24344167243E+02 -0.11481387719E+03 -0.25867040735E+03  0.28405148215E+03  0.00000000000E+00 0. -1.
         22    1    3    3    0    0 -0.23667794406E+02  0.14047794597E+02 -0.44138145337E+01  0.27874482665E+02  0.00000000000E+00 0. -1.
</event>
<event>
 7    1  0.5139898E-006  0.6168637E+02  0.7818608E-02  0.1511017E+00
          2   -1    0    0  502    0  0.00000000000E+00  0.00000000000E+00  0.13839988360E+04  0.13839988360E+04  0.00000000000E+00 0. -1.
          1   -1    0    0  501    0 -0.00000000000E+00 -0.00000000000E+00 -0.22497792430E+03  0.22497792430E+03  0.00000000000E+00 0. -1.
         25    2    1    2    0    0 -0.46419391094E+02 -0.59874169955E+02  0.24302685336E+03  0.28359406059E+03  0.12499545453E+03 0.  0.
          2    1    1    2  501    0  0.21056440510E+02  0.57784473653E+02 -0.19992637625E+03  0.20917211812E+03  0.00000000000E+00 0. -1.
          1    1    1    2  502    0  0.25362950584E+02  0.20896963026E+01  0.11159204346E+04  0.11162105816E+04  0.00000000000E+00 0. -1.
         22    1    3    3    0    0  0.15438872463E+02  0.31756760700E+02  0.51354840357E+02  0.62323111774E+02  0.00000000000E+00 0. -1.
         22    1    3    3    0    0 -0.61858263557E+02 -0.91630930655E+02  0.19167201300E+03  0.22127094882E+03  0.00000000000E+00 0. -1.
</event>
<event>
 7    1  0.5139898E-006  0.6624581E+02  0.7818608E-02  0.1401284E+00
          2   -1    0    0  502    0  0.00000000000E+00  0.00000000000E+00  0.92254745367E+03  0.92254745367E+03  0.00000000000E+00 0. -1.
          1   -1    0    0  501    0 -0.00000000000E+00 -0.00000000000E+00 -0.16191091619E+03  0.16191091619E+03  0.00000000000E+00 0. -1.
         25    2    1    2    0    0 -0.28240388439E+02  0.31388167499E+02  0.12894739608E+03  0.18448674838E+03  0.12500077108E+03 0.  0.
          2    1    1    2  501    0 -0.40097719725E+02 -0.34468982660E+02 -0.12733177785E+03  0.13787428891E+03  0.00000000000E+00 0. -1.
          1    1    1    2  502    0  0.68338108164E+02  0.30808151609E+01  0.75902091925E+03  0.76209733257E+03  0.00000000000E+00 0. -1.
         22    1    3    3    0    0 -0.57141441758E+02  0.15432525964E+02  0.87424701918E+01  0.59830911817E+02  0.00000000000E+00 0. -1.
         22    1    3    3    0    0  0.28901053319E+02  0.15955641535E+02  0.12020492589E+03  0.12465583656E+03  0.00000000000E+00 0. -1.
</event>
<event>
 7    1  0.5139898E-006  0.5591383E+02  0.7818608E-02  0.1543859E+00
          2   -1    0    0  502    0  0.00000000000E+00  0.00000000000E+00  0.32409651438E+04  0.32409651438E+04  0.00000000000E+00 0. -1.
          1   -1    0    0  501    0 -0.00000000000E+00 -0.00000000000E+00 -0.61231068919E+03  0.61231068919E+03  0.00000000000E+00 0. -1.
         25    2    1    2    0    0 -0.40129158691E+02  0.58067323688E+02  0.25163278632E+04  0.25204194059E+04  0.12500361048E+03 0.  0.
          2    1    1    2  501    0  0.18410002695E+02 -0.13090593418E+02 -0.60919224263E+03  0.60961092536E+03  0.00000000000E+00 0. -1.
          1    1    1    2  502    0  0.21719155996E+02 -0.44976730270E+02  0.72151883401E+03  0.72324550177E+03  0.00000000000E+00 0. -1.
         22    1    3    3    0    0 -0.28704046035E+02  0.93262951059E+01  0.21956457599E+04  0.21958531839E+04  0.00000000000E+00 0. -1.
         22    1    3    3    0    0 -0.11425112656E+02  0.48741028582E+02  0.32068210332E+03  0.32456622199E+03  0.00000000000E+00 0. -1.
</event>
<event>
 7    1  0.5139898E-006  0.6068326E+02  0.7818608E-02  0.1478711E+00
          2   -1    0    0  502    0  0.00000000000E+00  0.00000000000E+00  0.18595205171E+04  0.18595205171E+04  0.00000000000E+00 0. -1.
          1   -1    0    0  501    0 -0.00000000000E+00 -0.00000000000E+00 -0.19301924222E+03  0.19301924222E+03  0.00000000000E+00 0. -1.
         25    2    1    2    0    0  0.45335656133E+02 -0.13171621504E+02  0.73255634962E+02  0.15238191725E+03  0.12500018929E+03 0.  0.
          2    1    1    2  501    0 -0.41965281068E+02  0.45346565172E+02 -0.14708063675E+03  0.15953090452E+03  0.00000000000E+00 0. -1.
          1    1    1    2  502    0 -0.33703750650E+01 -0.32174943668E+02  0.17403262767E+04  0.17406269375E+04  0.00000000000E+00 0. -1.
         22    1    3    3    0    0  0.76425231134E+01  0.66823340372E+01  0.10102143740E+03  0.10153025442E+03  0.00000000000E+00 0. -1.
         22    1    3    3    0    0  0.37693133019E+02 -0.19853955541E+02 -0.27765802443E+02  0.50851662831E+02  0.00000000000E+00 0. -1.
</event>
<event>
 7    1  0.5139898E-006  0.1618552E+03  0.7818608E-02  0.1306335E+00
          2   -1    0    0  502    0  0.00000000000E+00  0.00000000000E+00  0.17681512480E+04  0.17681512480E+04  0.00000000000E+00 0. -1.
          1   -1    0    0  501    0 -0.00000000000E+00 -0.00000000000E+00 -0.27476177821E+03  0.27476177821E+03  0.00000000000E+00 0. -1.
         25    2    1    2    0    0 -0.18642191084E+03  0.33349438246E+02 -0.75817961190E+02  0.23924683907E+03  0.12500149156E+03 0.  0.
          2    1    1    2  501    0  0.14681176009E+03 -0.54064637167E+01 -0.70703074357E+02  0.16303940467E+03  0.00000000000E+00 0. -1.
          1    1    1    2  502    0  0.39610150751E+02 -0.27942974529E+02  0.16399105053E+04  0.16406267824E+04  0.00000000000E+00 0. -1.
         22    1    3    3    0    0 -0.13007052457E+03  0.55712751582E+02 -0.10074015542E+03  0.17369752722E+03  0.00000000000E+00 0. -1.
         22    1    3    3    0    0 -0.56351386274E+02 -0.22363313336E+02  0.24922194225E+02  0.65549311845E+02  0.00000000000E+00 0. -1.
</event>
<event>
 7    1  0.5139898E-006  0.6738609E+02  0.7818608E-02  0.1460868E+00
          2   -1    0    0  502    0  0.00000000000E+00  0.00000000000E+00  0.82371002044E+03  0.82371002044E+03  0.00000000000E+00 0. -1.
          1   -1    0    0  501    0 -0.00000000000E+00 -0.00000000000E+00 -0.23796872827E+02  0.23796872827E+02  0.00000000000E+00 0. -1.
         25    2    1    2    0    0  0.36330595450E+02 -0.27086297402E+02  0.31264441068E+03  0.33973802533E+03  0.12498727397E+03 0.  0.
          2    1    1    2  501    0 -0.63395945044E+02  0.46151525461E+02  0.15356956053E+03  0.17243149095E+03  0.00000000000E+00 0. -1.
          1    1    1    2  502    0  0.27065349594E+02 -0.19065228059E+02  0.33369917640E+03  0.33533737698E+03  0.00000000000E+00 0. -1.
         22    1    3    3    0    0  0.26235474167E+02 -0.45414968941E+02  0.31439524148E+03  0.31873999965E+03  0.00000000000E+00 0.  1.
         22    1    3    3    0    0  0.10095121283E+02  0.18328671539E+02 -0.17508308050E+01  0.20998025684E+02  0.00000000000E+00 0.  1.
</event>
<event>
 7    1  0.5139898E-006  0.1110962E+03  0.7818608E-02  0.1399057E+00
          2   -1    0    0  502    0  0.00000000000E+00  0.00000000000E+00  0.10789485486E+03  0.10789485486E+03  0.00000000000E+00 0. -1.
          1   -1    0    0  501    0 -0.00000000000E+00 -0.00000000000E+00 -0.24773598885E+03  0.24773598885E+03  0.00000000000E+00 0. -1.
         25    2    1    2    0    0  0.57731968266E+02 -0.98492272839E+02 -0.33049512715E+02  0.17247132114E+03  0.12498151206E+03 0.  0.
          2    1    1    2  501    0  0.22685946710E+02  0.22697453182E+02 -0.48675556994E+02  0.58302113236E+02  0.00000000000E+00 0. -1.
          1    1    1    2  502    0 -0.80417914976E+02  0.75794819657E+02 -0.58116064284E+02  0.12485740933E+03  0.00000000000E+00 0. -1.
         22    1    3    3    0    0  0.96195445716E+02 -0.83134781709E+02 -0.18018072677E+02  0.12841186335E+03  0.00000000000E+00 0.  1.
         22    1    3    3    0    0 -0.38463477449E+02 -0.15357491130E+02 -0.15031440038E+02  0.44059457792E+02  0.00000000000E+00 0.  1.
</event>
<event>
 7    1  0.5139898E-006  0.9581478E+02  0.7818608E-02  0.1461273E+00
          2   -1    0    0  502    0  0.00000000000E+00  0.00000000000E+00  0.30785238810E+03  0.30785238810E+03  0.00000000000E+00 0. -1.
          1   -1    0    0  501    0 -0.00000000000E+00 -0.00000000000E+00 -0.11320437439E+04  0.11320437439E+04  0.00000000000E+00 0. -1.
         25    2    1    2    0    0  0.61772272040E+01 -0.76442907455E+02 -0.17564441035E+03  0.22881732889E+03  0.12499893951E+03 0.  0.
          2    1    1    2  501    0 -0.18899880732E+02  0.95861309928E+02 -0.92676128813E+03  0.93189757024E+03  0.00000000000E+00 0. -1.
          1    1    1    2  502    0  0.12722653528E+02 -0.19418402473E+02  0.27821434273E+03  0.27918123283E+03  0.00000000000E+00 0. -1.
         22    1    3    3    0    0 -0.33369561263E+02 -0.96225171797E+02 -0.11280771428E+03  0.15198155055E+03  0.00000000000E+00 0. -1.
         22    1    3    3    0    0  0.39546788467E+02  0.19782264342E+02 -0.62836696076E+02  0.76835778348E+02  0.00000000000E+00 0. -1.
</event>
<event>
 7    1  0.5139898E-006  0.1192910E+03  0.7818608E-02  0.1356185E+00
          2   -1    0    0  502    0  0.00000000000E+00  0.00000000000E+00  0.71157628296E+03  0.71157628296E+03  0.00000000000E+00 0. -1.
          1   -1    0    0  501    0 -0.00000000000E+00 -0.00000000000E+00 -0.33143614179E+03  0.33143614179E+03  0.00000000000E+00 0. -1.
         25    2    1    2    0    0 -0.59571370954E+02 -0.74608873118E+02 -0.31279722103E+01  0.15732060450E+03  0.12499902482E+03 0.  0.
          2    1    1    2  501    0  0.16853999953E+02 -0.38962214198E+02 -0.24355780657E+03  0.24722968388E+03  0.00000000000E+00 0. -1.
          1    1    1    2  502    0  0.42717371001E+02  0.11357108732E+03  0.62682591994E+03  0.63846213637E+03  0.00000000000E+00 0. -1.
         22    1    3    3    0    0 -0.34574764852E+02  0.27776308857E+02  0.21200224063E+02  0.49156761475E+02  0.00000000000E+00 0. -1.
         22    1    3    3    0    0 -0.24996606102E+02 -0.10238518198E+03 -0.24328196273E+02  0.10816384303E+03  0.00000000000E+00 0. -1.
</event>
<event>
 7    1  0.5139898E-006  0.1136552E+03  0.7818608E-02  0.1301212E+00
          2   -1    0    0  502    0  0.00000000000E+00  0.00000000000E+00  0.21259730704E+04  0.21259730704E+04  0.00000000000E+00 0. -1.
          1   -1    0    0  501    0 -0.00000000000E+00 -0.00000000000E+00 -0.20537533204E+03  0.20537533204E+03  0.00000000000E+00 0. -1.
         25    2    1    2    0    0  0.16931611298E+03 -0.15109479747E+02  0.14054710678E+03  0.25352564247E+03  0.12500207868E+03 0.  0.
          2    1    1    2  501    0 -0.66186158642E+02 -0.29222792880E+02 -0.13835782011E+03  0.15613284602E+03  0.00000000000E+00 0. -1.
          1    1    1    2  502    0 -0.10312995434E+03  0.44332272628E+02  0.19184084517E+04  0.19216899139E+04  0.00000000000E+00 0. -1.
         22    1    3    3    0    0  0.79262802631E+02  0.55263575206E+02  0.60777233729E+02  0.11415133273E+03  0.00000000000E+00 0. -1.
         22    1    3    3    0    0  0.90053310351E+02 -0.70373054953E+02  0.79769873049E+02  0.13937430974E+03  0.00000000000E+00 0. -1.
</event>
<event>
 7    1  0.5139898E-006  0.1477854E+03  0.7818608E-02  0.1419587E+00
          2   -1    0    0  502    0  0.00000000000E+00  0.00000000000E+00  0.17988877838E+03  0.17988877838E+03  0.00000000000E+00 0. -1.
          1   -1    0    0  501    0 -0.00000000000E+00 -0.00000000000E+00 -0.10693257450E+04  0.10693257450E+04  0.00000000000E+00 0. -1.
         25    2    1    2    0    0 -0.68841590195E+02 -0.14755350071E+03 -0.71890493705E+03  0.74763799937E+03  0.12500827767E+03 0.  0.
          2    1    1    2  501    0 -0.45681658454E+01  0.20035376286E+02 -0.30293794779E+03  0.30363412959E+03  0.00000000000E+00 0. -1.
          1    1    1    2  502    0  0.73409756040E+02  0.12751812442E+03  0.13240591820E+03  0.19794239443E+03  0.00000000000E+00 0. -1.
         22    1    3    3    0    0 -0.83224706902E+02 -0.47602270237E+02 -0.24495708741E+03  0.26305190104E+03  0.00000000000E+00 0.  1.
         22    1    3    3    0    0  0.14383116708E+02 -0.99951230468E+02 -0.47394784964E+03  0.48458609833E+03  0.00000000000E+00 0.  1.
</event>
<event>
 7    1  0.5139898E-006  0.1475479E+03  0.7818608E-02  0.1350525E+00
          2   -1    0    0  502    0  0.00000000000E+00  0.00000000000E+00  0.72931729721E+02  0.72931729721E+02  0.00000000000E+00 0. -1.
          1   -1    0    0  501    0 -0.00000000000E+00 -0.00000000000E+00 -0.12071281245E+04  0.12071281245E+04  0.00000000000E+00 0. -1.
         25    2    1    2    0    0 -0.74428539785E+02 -0.10206458348E+03 -0.31213523506E+03  0.35917949674E+03  0.12499887670E+03 0.  0.
          2    1    1    2  501    0 -0.34892349387E+02 -0.89046299033E+01 -0.74717419082E+03  0.74804146937E+03  0.00000000000E+00 0. -1.
          1    1    1    2  502    0  0.10932088917E+03  0.11096921338E+03 -0.74886968881E+02  0.17283888809E+03  0.00000000000E+00 0. -1.
         22    1    3    3    0    0  0.15691099153E+02 -0.70716979842E+02 -0.19549698329E+03  0.20848542469E+03  0.00000000000E+00 0.  1.
         22    1    3    3    0    0 -0.90119638938E+02 -0.31347603635E+02 -0.11663825177E+03  0.15069407205E+03  0.00000000000E+00 0.  1.
</event>
<event>
 7    1  0.5139898E-006  0.8678298E+02  0.7818608E-02  0.1381780E+00
          2   -1    0    0  502    0  0.00000000000E+00  0.00000000000E+00  0.19527942085E+03  0.19527942085E+03  0.00000000000E+00 0. -1.
          1   -1    0    0  501    0 -0.00000000000E+00 -0.00000000000E+00 -0.11477804362E+04  0.11477804362E+04  0.00000000000E+00 0. -1.
         25    2    1    2    0    0  0.20301206375E+02  0.41488659886E+02 -0.23797368225E+03  0.27273807863E+03  0.12498455190E+03 0.  0.
          2    1    1    2  501    0 -0.52033653024E+02 -0.76423877034E+02 -0.88684831299E+03  0.89165466425E+03  0.00000000000E+00 0. -1.
          1    1    1    2  502    0  0.31732446649E+02  0.34935217148E+02  0.17232097990E+03  0.17866711416E+03  0.00000000000E+00 0. -1.
         22    1    3    3    0    0  0.23327118866E+02 -0.39536073988E+02 -0.12889360195E+03  0.13682403387E+03  0.00000000000E+00 0.  1.
         22    1    3    3    0    0 -0.30259124904E+01  0.81024733874E+02 -0.10908008029E+03  0.13591404476E+03  0.00000000000E+00 0.  1.
</event>
<event>
 7    1  0.5139898E-006  0.8594330E+02  0.7818608E-02  0.1434897E+00
          2   -1    0    0  502    0  0.00000000000E+00  0.00000000000E+00  0.21752303009E+04  0.21752303009E+04  0.00000000000E+00 0. -1.
          1   -1    0    0  501    0 -0.00000000000E+00 -0.00000000000E+00 -0.59609064011E+02  0.59609064011E+02  0.00000000000E+00 0. -1.
         25    2    1    2    0    0 -0.52749491351E+02  0.24626724456E+02  0.17714103195E+03  0.22448440605E+03  0.12500127586E+03 0.  0.
          2    1    1    2  501    0 -0.31382825264E+02 -0.20537982320E+01 -0.27902741547E+02  0.42043582085E+02  0.00000000000E+00 0. -1.
          1    1    1    2  502    0  0.84132316615E+02 -0.22572926224E+02  0.19663829464E+04  0.19683113767E+04  0.00000000000E+00 0. -1.
         22    1    3    3    0    0 -0.97375297781E+01  0.56556191971E+02  0.15716198106E+03  0.16731201579E+03  0.00000000000E+00 0. -1.
         22    1    3    3    0    0 -0.43011961573E+02 -0.31929467514E+02  0.19979050886E+02  0.57172390263E+02  0.00000000000E+00 0. -1.
</event>
<event>
 7    1  0.5139898E-006  0.2099281E+03  0.7818608E-02  0.1361555E+00
          2   -1    0    0  502    0  0.00000000000E+00  0.00000000000E+00  0.20912846904E+04  0.20912846904E+04  0.00000000000E+00 0. -1.
          1   -1    0    0  501    0 -0.00000000000E+00 -0.00000000000E+00 -0.17259964301E+03  0.17259964301E+03  0.00000000000E+00 0. -1.
         25    2    1    2    0    0 -0.19919550343E+03  0.10892156784E+02  0.91019737436E+03  0.94015211701E+03  0.12501701950E+03 0.  0.
          2    1    1    2  501    0 -0.16281557509E+02  0.16325389185E+02 -0.14660050018E+03  0.14840254074E+03  0.00000000000E+00 0. -1.
          1    1    1    2  502    0  0.21547706094E+03 -0.27217545968E+02  0.11550881732E+04  0.11753296756E+04  0.00000000000E+00 0. -1.
         22    1    3    3    0    0 -0.38075995524E+02  0.35491885841E+02  0.90445388899E+02  0.10435431840E+03  0.00000000000E+00 0. -1.
         22    1    3    3    0    0 -0.16111950791E+03 -0.24599729057E+02  0.81975198546E+03  0.83579779861E+03  0.00000000000E+00 0. -1.
</event>
<event>
 7    1  0.5139898E-006  0.8495447E+02  0.7818608E-02  0.1357126E+00
          2   -1    0    0  502    0  0.00000000000E+00  0.00000000000E+00  0.28711166346E+02  0.28711166346E+02  0.00000000000E+00 0. -1.
          1   -1    0    0  501    0 -0.00000000000E+00 -0.00000000000E+00 -0.13812597245E+04  0.13812597245E+04  0.00000000000E+00 0. -1.
         25    2    1    2    0    0 -0.89868870554E+02  0.62089319753E+02 -0.68354402428E+03  0.70341214748E+03  0.12499887428E+03 0.  0.
          2    1    1    2  501    0  0.57255074930E+02  0.14799947283E+02 -0.58541494128E+03  0.58839428577E+03  0.00000000000E+00 0. -1.
          1    1    1    2  502    0  0.32613795625E+02 -0.76889267036E+02 -0.83589592586E+02  0.11816445760E+03  0.00000000000E+00 0. -1.
         22    1    3    3    0    0 -0.89586735303E+02  0.26201024731E+02 -0.22674132949E+03  0.24520176863E+03  0.00000000000E+00 0. -1.
         22    1    3    3    0    0 -0.28213525105E+00  0.35888295022E+02 -0.45680269479E+03  0.45821037885E+03  0.00000000000E+00 0. -1.
</event>
<event>
 7    1  0.6443183E-006  0.9889970E+02  0.7818608E-02  0.1312742E+00
          2   -1    0    0  502    0  0.00000000000E+00  0.00000000000E+00  0.80354521974E+03  0.80354521974E+03  0.00000000000E+00 0. -1.
          1   -1    0    0  501    0 -0.00000000000E+00 -0.00000000000E+00 -0.22502850044E+04  0.22502850044E+04  0.00000000000E+00 0. -1.
         25    2    1    2    0    0  0.38889534979E+02 -0.71031721041E+02 -0.26297611938E+03  0.30222388121E+03  0.12499973473E+03 0.  0.
          2    1    1    2  501    0 -0.98436306427E+02  0.25685091962E+02 -0.19645793036E+04  0.19672115470E+04  0.00000000000E+00 0. -1.
          1    1    1    2  502    0  0.59546771448E+02  0.45346629079E+02  0.78081563837E+03  0.78439479593E+03  0.00000000000E+00 0. -1.
         22    1    3    3    0    0 -0.99904436455E+01  0.19612305017E+02 -0.25284684704E+01  0.22155013544E+02  0.00000000000E+00 0. -1.
         22    1    3    3    0    0  0.48879978625E+02 -0.90644026058E+02 -0.26044765091E+03  0.28006886767E+03  0.00000000000E+00 0. -1.
</event>
<event>
 7    1  0.5139898E-006  0.1220500E+03  0.7818608E-02  0.1323115E+00
          2   -1    0    0  502    0  0.00000000000E+00  0.00000000000E+00  0.85999063890E+03  0.85999063890E+03  0.00000000000E+00 0. -1.
          1   -1    0    0  501    0 -0.00000000000E+00 -0.00000000000E+00 -0.33421598813E+03  0.33421598813E+03  0.00000000000E+00 0. -1.
         25    2    1    2    0    0 -0.19027481177E+02  0.10089520320E+03 -0.13379800788E+03  0.20990614454E+03  0.12496717782E+03 0.  0.
          2    1    1    2  501    0  0.70190536659E+02 -0.12179176563E+03 -0.13079168029E+03  0.19200627397E+03  0.00000000000E+00 0. -1.
          1    1    1    2  502    0 -0.51163055483E+02  0.20896562429E+02  0.79036433895E+03  0.79229420852E+03  0.00000000000E+00 0. -1.
         22    1    3    3    0    0  0.13145987071E+02  0.94991968247E+02 -0.14626593208E+03  0.17490001113E+03  0.00000000000E+00 0. -1.
         22    1    3    3    0    0 -0.32173468248E+02  0.59032349491E+01  0.12467924199E+02  0.35006133402E+02  0.00000000000E+00 0. -1.
</event>
<event>
 7    1  0.5139898E-006  0.1598073E+03  0.7818608E-02  0.1307319E+00
          2   -1    0    0  502    0  0.00000000000E+00  0.00000000000E+00  0.18040896237E+03  0.18040896237E+03  0.00000000000E+00 0. -1.
          1   -1    0    0  501    0 -0.00000000000E+00 -0.00000000000E+00 -0.21398731778E+04  0.21398731778E+04  0.00000000000E+00 0. -1.
         25    2    1    2    0    0  0.12634868422E+03 -0.34163734243E+02 -0.33821179423E+03  0.38359330068E+03  0.12500180729E+03 0.  0.
          2    1    1    2  501    0 -0.16517553326E+03  0.48383648597E+01 -0.17712784011E+04  0.17789697976E+04  0.00000000000E+00 0. -1.
          1    1    1    2  502    0  0.38826849041E+02  0.29325369383E+02  0.15002597996E+03  0.15771904184E+03  0.00000000000E+00 0. -1.
         22    1    3    3    0    0  0.65536116560E+02 -0.26132513356E+02 -0.44211145209E+02  0.83261733039E+02  0.00000000000E+00 0. -1.
         22    1    3    3    0    0  0.60812567664E+02 -0.80312208874E+01 -0.29400064902E+03  0.30033156764E+03  0.00000000000E+00 0. -1.
</event>
<event>
 7    1  0.5139898E-006  0.1225794E+03  0.7818608E-02  0.1333096E+00
          2   -1    0    0  502    0  0.00000000000E+00  0.00000000000E+00  0.26795186989E+04  0.26795186989E+04  0.00000000000E+00 0. -1.
          1   -1    0    0  501    0 -0.00000000000E+00 -0.00000000000E+00 -0.31927545242E+03  0.31927545242E+03  0.00000000000E+00 0. -1.
         25    2    1    2    0    0 -0.10703818437E+03 -0.13299596490E+03  0.21886355330E+03  0.30442305060E+03  0.12500815645E+03 0.  0.
          2    1    1    2  501    0  0.26459935052E+02  0.42882805362E+02 -0.27267492214E+03  0.27729168094E+03  0.00000000000E+00 0. -1.
          1    1    1    2  502    0  0.80578249320E+02  0.90113159540E+02  0.24140546153E+04  0.24170794197E+04  0.00000000000E+00 0. -1.
         22    1    3    3    0    0 -0.85573926780E+02 -0.86871376430E+02  0.22217737901E+03  0.25344096103E+03  0.00000000000E+00 0.  1.
         22    1    3    3    0    0 -0.21464257592E+02 -0.46124588472E+02 -0.33138257078E+01  0.50982089566E+02  0.00000000000E+00 0.  1.
</event>
<event>
 7    1  0.5139898E-006  0.1224881E+03  0.7818608E-02  0.1340354E+00
          2   -1    0    0  502    0  0.00000000000E+00  0.00000000000E+00  0.92559285801E+02  0.92559285801E+02  0.00000000000E+00 0. -1.
          1   -1    0    0  501    0 -0.00000000000E+00 -0.00000000000E+00 -0.62427345769E+03  0.62427345769E+03  0.00000000000E+00 0. -1.
         25    2    1    2    0    0 -0.12039850340E+03 -0.66950477302E+02 -0.34752240308E+03  0.39417612302E+03  0.12499931716E+03 0.  0.
          2    1    1    2  501    0  0.40602709500E+02 -0.24338957941E+02 -0.19524850680E+03  0.20090531178E+03  0.00000000000E+00 0. -1.
          1    1    1    2  502    0  0.79795793898E+02  0.91289435243E+02  0.11056737996E+02  0.12175130868E+03  0.00000000000E+00 0. -1.
         22    1    3    3    0    0 -0.11810607715E+03 -0.70423096613E+02 -0.35767877011E+03  0.38320041830E+03  0.00000000000E+00 0.  1.
         22    1    3    3    0    0 -0.22924262459E+01  0.34726193111E+01  0.10156367031E+02  0.10975704726E+02  0.00000000000E+00 0.  1.
</event>
<event>
 7    1  0.5139898E-006  0.6771418E+02  0.7818608E-02  0.1401774E+00
          2   -1    0    0  502    0  0.00000000000E+00  0.00000000000E+00  0.30581711698E+03  0.30581711698E+03  0.00000000000E+00 0. -1.
          1   -1    0    0  501    0 -0.00000000000E+00 -0.00000000000E+00 -0.29559959183E+03  0.29559959183E+03  0.00000000000E+00 0. -1.
         25    2    1    2    0    0  0.21174648464E+01 -0.35903157152E+02  0.45124442488E+02  0.13767639962E+03  0.12500022140E+03 0.  0.
          2    1    1    2  501    0 -0.46450077997E+02 -0.22310592405E+02 -0.24026841125E+03  0.24573213409E+03  0.00000000000E+00 0. -1.
          1    1    1    2  502    0  0.44332613150E+02  0.58213749558E+02  0.20536149392E+03  0.21800817510E+03  0.00000000000E+00 0. -1.
         22    1    3    3    0    0  0.30802615839E+02  0.65765207613E+01 -0.32111050871E+02  0.44979677143E+02  0.00000000000E+00 0. -1.
         22    1    3    3    0    0 -0.28685150993E+02 -0.42479677914E+02  0.77235493359E+02  0.92696722474E+02  0.00000000000E+00 0. -1.
</event>
<event>
 7    1  0.5139898E-006  0.8470910E+02  0.7818608E-02  0.1327511E+00
          2   -1    0    0  502    0  0.00000000000E+00  0.00000000000E+00  0.10534500037E+04  0.10534500037E+04  0.00000000000E+00 0. -1.
          1   -1    0    0  501    0 -0.00000000000E+00 -0.00000000000E+00 -0.97970778992E+03  0.97970778992E+03  0.00000000000E+00 0. -1.
         25    2    1    2    0    0 -0.12456596815E+03  0.88725573182E+02  0.44035647055E+03  0.48262646849E+03  0.12500231669E+03 0.  0.
          2    1    1    2  501    0  0.59217502427E+02 -0.48567271498E+02 -0.95454800885E+03  0.95761547275E+03  0.00000000000E+00 0. -1.
          1    1    1    2  502    0  0.65348465721E+02 -0.40158301685E+02  0.58793375208E+03  0.59291585238E+03  0.00000000000E+00 0. -1.
         22    1    3    3    0    0 -0.12857980137E+03  0.22234770541E+02  0.27633110427E+03  0.30559127856E+03  0.00000000000E+00 0. -1.
         22    1    3    3    0    0  0.40138332262E+01  0.66490802642E+02  0.16402536628E+03  0.17703518994E+03  0.00000000000E+00 0. -1.
</event>
<event>
 7    1  0.5139898E-006  0.9950993E+02  0.7818608E-02  0.1353865E+00
          2   -1    0    0  502    0  0.00000000000E+00  0.00000000000E+00  0.44226932081E+03  0.44226932081E+03  0.00000000000E+00 0. -1.
          1   -1    0    0  501    0 -0.00000000000E+00 -0.00000000000E+00 -0.62928474148E+03  0.62928474148E+03  0.00000000000E+00 0. -1.
         25    2    1    2    0    0 -0.34334521894E+00 -0.71772687990E+02 -0.16046036897E+03  0.21569293756E+03  0.12499790668E+03 0.  0.
          2    1    1    2  501    0  0.49293061621E+02 -0.16240500640E+02 -0.43352241453E+03  0.43661796079E+03  0.00000000000E+00 0. -1.
          1    1    1    2  502    0 -0.48949716402E+02  0.88013188629E+02  0.40696736283E+03  0.41924316395E+03  0.00000000000E+00 0. -1.
         22    1    3    3    0    0 -0.29327796017E+02  0.23185738884E+02 -0.16616125275E+02  0.40912024223E+02  0.00000000000E+00 0. -1.
         22    1    3    3    0    0  0.28984450798E+02 -0.94958426874E+02 -0.14384424370E+03  0.17478091334E+03  0.00000000000E+00 0. -1.
</event>
<event>
 7    1  0.5139898E-006  0.8228751E+02  0.7818608E-02  0.1482509E+00
          2   -1    0    0  502    0  0.00000000000E+00  0.00000000000E+00  0.58252597873E+03  0.58252597873E+03  0.00000000000E+00 0. -1.
          1   -1    0    0  501    0 -0.00000000000E+00 -0.00000000000E+00 -0.37903647675E+03  0.37903647675E+03  0.00000000000E+00 0. -1.
         25    2    1    2    0    0  0.34240804319E+02  0.85993649298E+02 -0.23242598685E+03  0.27966925777E+03  0.12500285589E+03 0.  0.
          2    1    1    2  501    0 -0.13041624698E+02 -0.76503486673E+02 -0.11047481425E+03  0.13500945164E+03  0.00000000000E+00 0. -1.
          1    1    1    2  502    0 -0.21199179621E+02 -0.94901626245E+01  0.54639030309E+03  0.54688374607E+03  0.00000000000E+00 0. -1.
         22    1    3    3    0    0 -0.16200431593E+02  0.10147264290E+03 -0.15140722488E+03  0.18298442279E+03  0.00000000000E+00 0.  1.
         22    1    3    3    0    0  0.50441235912E+02 -0.15478993598E+02 -0.81018761972E+02  0.96684834978E+02  0.00000000000E+00 0.  1.
</event>
<event>
 7    1  0.5139898E-006  0.1441786E+03  0.7818608E-02  0.1259799E+00
          2   -1    0    0  502    0  0.00000000000E+00  0.00000000000E+00  0.94989953490E+03  0.94989953490E+03  0.00000000000E+00 0. -1.
          1   -1    0    0  501    0 -0.00000000000E+00 -0.00000000000E+00 -0.71045819201E+03  0.71045819201E+03  0.00000000000E+00 0. -1.
         25    2    1    2    0    0 -0.83832426427E+02  0.58465083507E+01 -0.13780521218E+03  0.20414983423E+03  0.12499928372E+03 0.  0.
          2    1    1    2  501    0  0.16808273177E+03  0.14056576906E+01 -0.52436100552E+03  0.55064348239E+03  0.00000000000E+00 0. -1.
          1    1    1    2  502    0 -0.84250305340E+02 -0.72521660413E+01  0.90160756059E+03  0.90556441029E+03  0.00000000000E+00 0. -1.
         22    1    3    3    0    0 -0.18937164597E+02  0.19312737941E+02 -0.13513821884E+03  0.13781849020E+03  0.00000000000E+00 0. -1.
         22    1    3    3    0    0 -0.64895261830E+02 -0.13466229591E+02 -0.26669933455E+01  0.66331344030E+02  0.00000000000E+00 0. -1.
</event>
<event>
 7    1  0.5139898E-006  0.1142156E+03  0.7818608E-02  0.1295152E+00
          2   -1    0    0  502    0  0.00000000000E+00  0.00000000000E+00  0.76186822115E+03  0.76186822115E+03  0.00000000000E+00 0. -1.
          1   -1    0    0  501    0 -0.00000000000E+00 -0.00000000000E+00 -0.73360552983E+03  0.73360552983E+03  0.00000000000E+00 0. -1.
         25    2    1    2    0    0  0.89046860268E+02 -0.10937998941E+03  0.40750646758E+02  0.19281787763E+03  0.12499917326E+03 0.  0.
          2    1    1    2  501    0 -0.10824251762E+03  0.35695639562E+02 -0.65035165445E+03  0.66026350478E+03  0.00000000000E+00 0. -1.
          1    1    1    2  502    0  0.19195657355E+02  0.73684349851E+02  0.63786369901E+03  0.64239236856E+03  0.00000000000E+00 0. -1.
         22    1    3    3    0    0  0.29262582994E+02 -0.10316270189E+03 -0.18040106102E+02  0.10873953859E+03  0.00000000000E+00 0. -1.
         22    1    3    3    0    0  0.59784277273E+02 -0.62172875194E+01  0.58790752860E+02  0.84078339036E+02  0.00000000000E+00 0. -1.
</event>
<event>
 7    1  0.5139898E-006  0.5458326E+02  0.7818608E-02  0.1475504E+00
          2   -1    0    0  502    0  0.00000000000E+00  0.00000000000E+00  0.11507131394E+04  0.11507131394E+04  0.00000000000E+00 0. -1.
          1   -1    0    0  501    0 -0.00000000000E+00 -0.00000000000E+00 -0.29530025213E+03  0.29530025213E+03  0.00000000000E+00 0. -1.
         25    2    1    2    0    0  0.14282848460E+02 -0.12973947394E+02  0.19122972882E+02  0.12791842615E+03  0.12500045034E+03 0.  0.
          2    1    1    2  501    0  0.34795851399E+02 -0.11959281330E+02 -0.23878927928E+03  0.24160731691E+03  0.00000000000E+00 0. -1.
          1    1    1    2  502    0 -0.49078699859E+02  0.24933228724E+02  0.10750791937E+04  0.10764876485E+04  0.00000000000E+00 0. -1.
         22    1    3    3    0    0 -0.16224817919E+02  0.23443894526E+02  0.59236565501E+02  0.65740638873E+02  0.00000000000E+00 0. -1.
         22    1    3    3    0    0  0.30507666379E+02 -0.36417841921E+02 -0.40113592619E+02  0.62177787279E+02  0.00000000000E+00 0. -1.
</event>
<event>
 7    1  0.5139898E-006  0.2158617E+03  0.7818608E-02  0.1185140E+00
          2   -1    0    0  502    0  0.00000000000E+00  0.00000000000E+00  0.47034390231E+03  0.47034390231E+03  0.00000000000E+00 0. -1.
          1   -1    0    0  501    0 -0.00000000000E+00 -0.00000000000E+00 -0.79815153813E+03  0.79815153813E+03  0.00000000000E+00 0. -1.
         25    2    1    2    0    0 -0.12622099432E+03  0.95425083539E+02 -0.16407179476E+03  0.25996474954E+03  0.12499772474E+03 0.  0.
          2    1    1    2  501    0  0.42274774578E+02  0.11590398341E+03 -0.54816914771E+03  0.56188104118E+03  0.00000000000E+00 0. -1.
          1    1    1    2  502    0  0.83946219746E+02 -0.21132906695E+03  0.38443330664E+03  0.44664964973E+03  0.00000000000E+00 0. -1.
         22    1    3    3    0    0 -0.47325634490E+02  0.33263617101E+02  0.10278269206E+02  0.58752248641E+02  0.00000000000E+00 0.  1.
         22    1    3    3    0    0 -0.78895359834E+02  0.62161466438E+02 -0.17435006396E+03  0.20121250089E+03  0.00000000000E+00 0.  1.
</event>
<event>
 7    1  0.5139898E-006  0.1807129E+03  0.7818608E-02  0.1348453E+00
          2   -1    0    0  502    0  0.00000000000E+00  0.00000000000E+00  0.46708641634E+03  0.46708641634E+03  0.00000000000E+00 0. -1.
          1   -1    0    0  501    0 -0.00000000000E+00 -0.00000000000E+00 -0.18548835446E+04  0.18548835446E+04  0.00000000000E+00 0. -1.
         25    2    1    2    0    0 -0.79395251760E+02 -0.14084423479E+03 -0.47599923203E+03  0.51801655722E+03  0.12500072074E+03 0.  0.
          2    1    1    2  501    0 -0.29626613110E+02 -0.42266322313E+01 -0.13392455238E+04  0.13395798496E+04  0.00000000000E+00 0. -1.
          1    1    1    2  502    0  0.10902186487E+03  0.14507086702E+03  0.42744762752E+03  0.46437355410E+03  0.00000000000E+00 0. -1.
         22    1    3    3    0    0  0.49304764249E+01  0.20530052648E+02 -0.34534564604E+02  0.40477509951E+02  0.00000000000E+00 0.  1.
         22    1    3    3    0    0 -0.84325728185E+02 -0.16137428744E+03 -0.44146466742E+03  0.47753904726E+03  0.00000000000E+00 0.  1.
</event>
<event>
 7    1  0.5139898E-006  0.6209519E+02  0.7818608E-02  0.1422636E+00
          2   -1    0    0  502    0  0.00000000000E+00  0.00000000000E+00  0.91257488601E+03  0.91257488601E+03  0.00000000000E+00 0. -1.
          1   -1    0    0  501    0 -0.00000000000E+00 -0.00000000000E+00 -0.73492124469E+03  0.73492124469E+03  0.00000000000E+00 0. -1.
         25    2    1    2    0    0  0.63486799533E+02 -0.72499296138E+01  0.14484093032E+03  0.20170477764E+03  0.12499114781E+03 0.  0.
          2    1    1    2  501    0 -0.23776399795E+02 -0.41439717716E+02 -0.70434370582E+03  0.70596219680E+03  0.00000000000E+00 0. -1.
          1    1    1    2  502    0 -0.39710399738E+02  0.48689647330E+02  0.73715641681E+03  0.73982915626E+03  0.00000000000E+00 0. -1.
         22    1    3    3    0    0  0.99439879532E+02  0.31987548472E+01  0.83725363955E+02  0.13003252764E+03  0.00000000000E+00 0. -1.
         22    1    3    3    0    0 -0.35953079999E+02 -0.10448684461E+02  0.61115566363E+02  0.71672250002E+02  0.00000000000E+00 0. -1.
</event>
<event>
 7    1  0.5139898E-006  0.2810711E+03  0.7818608E-02  0.1316300E+00
          2   -1    0    0  502    0  0.00000000000E+00  0.00000000000E+00  0.19841812930E+04  0.19841812930E+04  0.00000000000E+00 0. -1.
          1   -1    0    0  501    0 -0.00000000000E+00 -0.00000000000E+00 -0.56813240689E+03  0.56813240689E+03  0.00000000000E+00 0. -1.
         25    2    1    2    0    0  0.23160751670E+03 -0.11148136432E+03 -0.12359104208E+03  0.31139658130E+03  0.12499179486E+03 0.  0.
          2    1    1    2  501    0  0.24476340336E+02 -0.71720065080E+01 -0.33962257875E+03  0.34057895547E+03  0.00000000000E+00 0. -1.
          1    1    1    2  502    0 -0.25608385704E+03  0.11865337083E+03  0.18792625070E+04  0.19003381631E+04  0.00000000000E+00 0. -1.
         22    1    3    3    0    0  0.16401894469E+03 -0.11338771475E+03 -0.13770274367E+03  0.24232423256E+03  0.00000000000E+00 0. -1.
         22    1    3    3    0    0  0.67588572019E+02  0.19063504280E+01  0.14111701590E+02  0.69072348746E+02  0.00000000000E+00 0. -1.
</event>
<event>
 7    1  0.5139898E-006  0.7511802E+02  0.7818608E-02  0.1356673E+00
          2   -1    0    0  502    0  0.00000000000E+00  0.00000000000E+00  0.11574313463E+04  0.11574313463E+04  0.00000000000E+00 0. -1.
          1   -1    0    0  501    0 -0.00000000000E+00 -0.00000000000E+00 -0.33108372991E+03  0.33108372991E+03  0.00000000000E+00 0. -1.
         25    2    1    2    0    0 -0.10991343447E+02  0.27409187792E+01  0.34036186459E+01  0.12556773819E+03  0.12500939960E+03 0.  0.
          2    1    1    2  501    0 -0.62111300863E+02 -0.25487395208E+02 -0.26446135027E+03  0.27285019112E+03  0.00000000000E+00 0. -1.
          1    1    1    2  502    0  0.73102644310E+02  0.22746476429E+02  0.10874053480E+04  0.10900971469E+04  0.00000000000E+00 0. -1.
         22    1    3    3    0    0  0.15921569719E+02  0.39425868480E+02  0.46422647663E+02  0.62952027003E+02  0.00000000000E+00 0.  1.
         22    1    3    3    0    0 -0.26912913166E+02 -0.36684949701E+02 -0.43019029017E+02  0.62615711185E+02  0.00000000000E+00 0.  1.
</event>
<event>
 7    1  0.5139898E-006  0.5349618E+02  0.7818608E-02  0.1467238E+00
          2   -1    0    0  502    0  0.00000000000E+00  0.00000000000E+00  0.24943053801E+03  0.24943053801E+03  0.00000000000E+00 0. -1.
          1   -1    0    0  501    0 -0.00000000000E+00 -0.00000000000E+00 -0.11448951993E+04  0.11448951993E+04  0.00000000000E+00 0. -1.
         25    2    1    2    0    0 -0.67818749887E+02  0.61734985121E+02 -0.44811940612E+03  0.47418135110E+03  0.12500544134E+03 0.  0.
          2    1    1    2  501    0  0.23570932125E+02 -0.32102732806E+02 -0.68015579667E+03  0.68132083634E+03  0.00000000000E+00 0. -1.
          1    1    1    2  502    0  0.44247817763E+02 -0.29632252315E+02  0.23281054148E+03  0.23882354988E+03  0.00000000000E+00 0. -1.
         22    1    3    3    0    0 -0.58840448993E+02 -0.49863184880E+01 -0.77164836048E+02  0.97167246190E+02  0.00000000000E+00 0. -1.
         22    1    3    3    0    0 -0.89783008937E+01  0.66721303609E+02 -0.37095457008E+03  0.37701410491E+03  0.00000000000E+00 0. -1.
</event>
<event>
 7    1  0.5139898E-006  0.1290225E+03  0.7818608E-02  0.1290642E+00
          2   -1    0    0  502    0  0.00000000000E+00  0.00000000000E+00  0.92041057375E+03  0.92041057375E+03  0.00000000000E+00 0. -1.
          1   -1    0    0  501    0 -0.00000000000E+00 -0.00000000000E+00 -0.60702847188E+03  0.60702847188E+03  0.00000000000E+00 0. -1.
         25    2    1    2    0    0 -0.38963182723E+02 -0.46625633562E+02 -0.13290866143E+03  0.19230669243E+03  0.12500028943E+03 0.  0.
          2    1    1    2  501    0 -0.46336553163E+02 -0.52866740659E+02 -0.43677442685E+03  0.44239560167E+03  0.00000000000E+00 0. -1.
          1    1    1    2  502    0  0.85299735886E+02  0.99492374221E+02  0.88306519015E+03  0.89273675152E+03  0.00000000000E+00 0. -1.
         22    1    3    3    0    0 -0.13539009360E+02  0.18193186017E+02  0.16114447300E+02  0.27820355923E+02  0.00000000000E+00 0. -1.
         22    1    3    3    0    0 -0.25424173363E+02 -0.64818819579E+02 -0.14902310873E+03  0.16448633651E+03  0.00000000000E+00 0. -1.
</event>
<event>
 7    1  0.5139898E-006  0.1183595E+03  0.7818608E-02  0.1436495E+00
          2   -1    0    0  502    0  0.00000000000E+00  0.00000000000E+00  0.75170885810E+02  0.75170885810E+02  0.00000000000E+00 0. -1.
          1   -1    0    0  501    0 -0.00000000000E+00 -0.00000000000E+00 -0.12105952180E+04  0.12105952180E+04  0.00000000000E+00 0. -1.
         25    2    1    2    0    0  0.10122131003E+03  0.80534623935E+02 -0.12979512195E+03  0.22181856161E+03  0.12500048535E+03 0.  0.
          2    1    1    2  501    0 -0.59468611211E+01 -0.21765904015E+02 -0.92670662667E+03  0.92698127902E+03  0.00000000000E+00 0. -1.
          1    1    1    2  502    0 -0.95274448904E+02 -0.58768719920E+02 -0.78922583591E+02  0.13696626320E+03  0.00000000000E+00 0. -1.
         22    1    3    3    0    0  0.35101863377E+02  0.10395778005E+03 -0.78039839042E+02  0.13464611885E+03  0.00000000000E+00 0. -1.
         22    1    3    3    0    0  0.66119446649E+02 -0.23423156111E+02 -0.51755282908E+02  0.87172442757E+02  0.00000000000E+00 0. -1.
</event>
<event>
 7    1  0.5139898E-006  0.2930080E+02  0.7818608E-02  0.1623560E+00
          2   -1    0    0  502    0  0.00000000000E+00  0.00000000000E+00  0.37913519047E+03  0.37913519047E+03  0.00000000000E+00 0. -1.
          1   -1    0    0  501    0 -0.00000000000E+00 -0.00000000000E+00 -0.11725167245E+04  0.11725167245E+04  0.00000000000E+00 0. -1.
         25    2    1    2    0    0 -0.15939869028E+00  0.56881638161E+01 -0.74731403248E+02  0.14574036896E+03  0.12499236735E+03 0.  0.
          2    1    1    2  501    0 -0.22972034302E+02 -0.18427211563E+02 -0.10615689948E+04  0.10619774043E+04  0.00000000000E+00 0. -1.
          1    1    1    2  502    0  0.23131432993E+02  0.12739047747E+02  0.34291886403E+03  0.34393414172E+03  0.00000000000E+00 0. -1.
         22    1    3    3    0    0  0.35389321235E+02 -0.40476252022E+02 -0.37334504623E+01  0.53894987592E+02  0.00000000000E+00 0.  1.
         22    1    3    3    0    0 -0.35548719925E+02  0.46164415838E+02 -0.70997952786E+02  0.91845381363E+02  0.00000000000E+00 0.  1.
</event>
<event>
 7    1  0.5139898E-006  0.7238703E+02  0.7818608E-02  0.1407533E+00
          2   -1    0    0  502    0  0.00000000000E+00  0.00000000000E+00  0.27131796594E+03  0.27131796594E+03  0.00000000000E+00 0. -1.
          1   -1    0    0  501    0 -0.00000000000E+00 -0.00000000000E+00 -0.64372925221E+03  0.64372925221E+03  0.00000000000E+00 0. -1.
         25    2    1    2    0    0  0.34685888667E+02  0.14120472157E+02 -0.15968422458E+03  0.20622290868E+03  0.12500535140E+03 0.  0.
          2    1    1    2  501    0 -0.77727140785E+02  0.23066223311E+01 -0.45531148443E+03  0.46190407746E+03  0.00000000000E+00 0. -1.
          1    1    1    2  502    0  0.43041252118E+02 -0.16427094489E+02  0.24258442274E+03  0.24692023201E+03  0.00000000000E+00 0. -1.
         22    1    3    3    0    0  0.47130683074E+02  0.26147475937E+02 -0.91161747172E+01  0.54663483481E+02  0.00000000000E+00 0.  1.
         22    1    3    3    0    0 -0.12444794407E+02 -0.12027003779E+02 -0.15056804986E+03  0.15155942520E+03  0.00000000000E+00 0.  1.
</event>
<event>
 7    1  0.5139898E-006  0.6175711E+02  0.7818608E-02  0.1476025E+00
          2   -1    0    0  502    0  0.00000000000E+00  0.00000000000E+00  0.71326051658E+03  0.71326051658E+03  0.00000000000E+00 0. -1.
          1   -1    0    0  501    0 -0.00000000000E+00 -0.00000000000E+00 -0.67035391301E+03  0.67035391301E+03  0.00000000000E+00 0. -1.
         25    2    1    2    0    0 -0.61683619343E+02  0.18707662749E+00 -0.32138347343E+02  0.14304447776E+03  0.12499578135E+03 0.  0.
          2    1    1    2  501    0  0.53591133972E+02  0.31185572157E+02 -0.58071213541E+03  0.58401295685E+03  0.00000000000E+00 0. -1.
          1    1    1    2  502    0  0.80924853710E+01 -0.31372648785E+02  0.65575708632E+03  0.65655699499E+03  0.00000000000E+00 0. -1.
         22    1    3    3    0    0 -0.89809054108E+02  0.29408796976E+02 -0.38401101259E+02  0.10200582394E+03  0.00000000000E+00 0. -1.
         22    1    3    3    0    0  0.28125434765E+02 -0.29221720349E+02  0.62627539165E+01  0.41038653822E+02  0.00000000000E+00 0. -1.
</event>
<event>
 7    1  0.5139898E-006  0.1040061E+03  0.7818608E-02  0.1345246E+00
          2   -1    0    0  502    0  0.00000000000E+00  0.00000000000E+00  0.76950367572E+03  0.76950367572E+03  0.00000000000E+00 0. -1.
          1   -1    0    0  501    0 -0.00000000000E+00 -0.00000000000E+00 -0.87055445838E+03  0.87055445838E+03  0.00000000000E+00 0. -1.
         25    2    1    2    0    0  0.13830025580E+03  0.56029119496E+02 -0.82977150466E+01  0.19483329246E+03  0.12499974716E+03 0.  0.
          2    1    1    2  501    0 -0.53432695461E+02  0.12628405169E+01 -0.76417399430E+03  0.76604082220E+03  0.00000000000E+00 0. -1.
          1    1    1    2  502    0 -0.84867560338E+02 -0.57291960013E+02  0.67142092668E+03  0.67918401944E+03  0.00000000000E+00 0. -1.
         22    1    3    3    0    0  0.40903985046E+02 -0.40195587555E+02 -0.81179256426E+01  0.57919961743E+02  0.00000000000E+00 0.  1.
         22    1    3    3    0    0  0.97396270754E+02  0.96224707051E+02 -0.17978940394E+00  0.13691333072E+03  0.00000000000E+00 0.  1.
</event>
<event>
 7    1  0.5139898E-006  0.1179321E+03  0.7818608E-02  0.1269621E+00
          2   -1    0    0  502    0  0.00000000000E+00  0.00000000000E+00  0.16550880647E+04  0.16550880647E+04  0.00000000000E+00 0. -1.
          1   -1    0    0  501    0 -0.00000000000E+00 -0.00000000000E+00 -0.35713869275E+03  0.35713869275E+03  0.00000000000E+00 0. -1.
         25    2    1    2    0    0 -0.71522220655E+02  0.92042056217E+02  0.36069663276E+03  0.39914160413E+03  0.12499916441E+03 0.  0.
          2    1    1    2  501    0  0.89100840240E+02  0.29755593991E+02 -0.32834515722E+03  0.34151851689E+03  0.00000000000E+00 0. -1.
          1    1    1    2  502    0 -0.17578619585E+02 -0.12179765021E+03  0.12655978964E+04  0.12715666364E+04  0.00000000000E+00 0. -1.
         22    1    3    3    0    0  0.13411771259E+02  0.53868637424E+02  0.49723628883E+02  0.74526136191E+02  0.00000000000E+00 0.  1.
         22    1    3    3    0    0 -0.84933991914E+02  0.38173418792E+02  0.31097300388E+03  0.32461546794E+03  0.00000000000E+00 0.  1.
</event>
<event>
 7    1  0.5139898E-006  0.2075993E+03  0.7818608E-02  0.1345452E+00
          2   -1    0    0  502    0  0.00000000000E+00  0.00000000000E+00  0.13211264485E+04  0.13211264485E+04  0.00000000000E+00 0. -1.
          1   -1    0    0  501    0 -0.00000000000E+00 -0.00000000000E+00 -0.12329749667E+04  0.12329749667E+04  0.00000000000E+00 0. -1.
         25    2    1    2    0    0  0.12602249938E+03 -0.13258746256E+03  0.70177728089E+02  0.23240181730E+03  0.12499834233E+03 0.  0.
          2    1    1    2  501    0 -0.14004828547E+03  0.15534141489E+03 -0.11422134299E+04  0.11612045457E+04  0.00000000000E+00 0. -1.
          1    1    1    2  502    0  0.14025786088E+02 -0.22753952324E+02  0.11601871837E+04  0.11604950522E+04  0.00000000000E+00 0. -1.
         22    1    3    3    0    0  0.10294386844E+03 -0.22179875020E+02  0.54344920475E+02  0.11850214043E+03  0.00000000000E+00 0.  1.
         22    1    3    3    0    0  0.23078630940E+02 -0.11040758754E+03  0.15832807614E+02  0.11389967687E+03  0.00000000000E+00 0.  1.
</event>
<event>
 7    1  0.5139898E-006  0.6158073E+02  0.7818608E-02  0.1491163E+00
          2   -1    0    0  502    0  0.00000000000E+00  0.00000000000E+00  0.33282780341E+03  0.33282780341E+03  0.00000000000E+00 0. -1.
          1   -1    0    0  501    0 -0.00000000000E+00 -0.00000000000E+00 -0.18936723370E+04  0.18936723370E+04  0.00000000000E+00 0. -1.
         25    2    1    2    0    0 -0.28350820973E+02  0.67677180214E+02 -0.22924952094E+03  0.27122814546E+03  0.12500157706E+03 0.  0.
          2    1    1    2  501    0  0.28553728629E+02 -0.61705303631E+01 -0.16402692725E+04  0.16405293893E+04  0.00000000000E+00 0. -1.
          1    1    1    2  502    0 -0.20290765622E+00 -0.61506649851E+02  0.30867425983E+03  0.31474260567E+03  0.00000000000E+00 0. -1.
         22    1    3    3    0    0  0.35854443034E+02  0.10420794131E+02 -0.14891312623E+03  0.15352281003E+03  0.00000000000E+00 0. -1.
         22    1    3    3    0    0 -0.64205264006E+02  0.57256386084E+02 -0.80336394701E+02  0.11770533542E+03  0.00000000000E+00 0. -1.
</event>
<event>
 7    1  0.5139898E-006  0.9610016E+02  0.7818608E-02  0.1314734E+00
          2   -1    0    0  502    0  0.00000000000E+00  0.00000000000E+00  0.15942113573E+03  0.15942113573E+03  0.00000000000E+00 0. -1.
          1   -1    0    0  501    0 -0.00000000000E+00 -0.00000000000E+00 -0.11527287731E+04  0.11527287731E+04  0.00000000000E+00 0. -1.
         25    2    1    2    0    0  0.51343610362E+02  0.18711465274E+02 -0.20509594480E+03  0.24632170378E+03  0.12499499959E+03 0.  0.
          2    1    1    2  501    0 -0.44729220967E+02 -0.94077806982E+02 -0.91352639888E+03  0.91944647394E+03  0.00000000000E+00 0. -1.
          1    1    1    2  502    0 -0.66143893943E+01  0.75366341708E+02  0.12531470627E+03  0.14638173116E+03  0.00000000000E+00 0. -1.
         22    1    3    3    0    0 -0.60167830990E+00  0.30242958211E+02  0.40448504296E+01  0.30518180698E+02  0.00000000000E+00 0.  1.
         22    1    3    3    0    0  0.51945288672E+02 -0.11531492937E+02 -0.20914079523E+03  0.21580352308E+03  0.00000000000E+00 0.  1.
</event>
<event>
 7    1  0.5139898E-006  0.8662050E+02  0.7818608E-02  0.1457016E+00
          2   -1    0    0  502    0  0.00000000000E+00  0.00000000000E+00  0.39940116912E+04  0.39940116912E+04  0.00000000000E+00 0. -1.
          1   -1    0    0  501    0 -0.00000000000E+00 -0.00000000000E+00 -0.74187826693E+02  0.74187826693E+02  0.00000000000E+00 0. -1.
         25    2    1    2    0    0 -0.74188338205E+02 -0.74646204368E+01  0.21003594653E+04  0.21053963623E+04  0.12499731493E+03 0.  0.
          2    1    1    2  501    0  0.85204483472E+02 -0.16622502811E+02 -0.45253018741E+02  0.97897636890E+02  0.00000000000E+00 0. -1.
          1    1    1    2  502    0 -0.11016145267E+02  0.24087123247E+02  0.18647174179E+04  0.18649055187E+04  0.00000000000E+00 0. -1.
         22    1    3    3    0    0 -0.75566810834E+02 -0.38905712258E+02  0.77209073713E+03  0.77675485432E+03  0.00000000000E+00 0.  1.
         22    1    3    3    0    0  0.13784726292E+01  0.31441091821E+02  0.13282687282E+04  0.13286415079E+04  0.00000000000E+00 0.  1.
</event>
<event>
 7    1  0.5139898E-006  0.6856619E+02  0.7818608E-02  0.1517941E+00
          2   -1    0    0  502    0  0.00000000000E+00  0.00000000000E+00  0.58381407905E+03  0.58381407905E+03  0.00000000000E+00 0. -1.
          1   -1    0    0  501    0 -0.00000000000E+00 -0.00000000000E+00 -0.65509801128E+02  0.65509801128E+02  0.00000000000E+00 0. -1.
         25    2    1    2    0    0 -0.16758154335E+02  0.58537823690E+02  0.10522338871E+03  0.17436237396E+03  0.12499105320E+03 0.  0.
          2    1    1    2  501    0 -0.86399790914E+00 -0.71459282898E+02  0.11022287693E+02  0.72309518258E+02  0.00000000000E+00 0. -1.
          1    1    1    2  502    0  0.17622152244E+02  0.12921459208E+02  0.40205860151E+03  0.40265198796E+03  0.00000000000E+00 0. -1.
         22    1    3    3    0    0 -0.39872937205E+02  0.14247589012E+02 -0.14401628021E+02  0.44724174712E+02  0.00000000000E+00 0.  1.
         22    1    3    3    0    0  0.23114782870E+02  0.44290234678E+02  0.11962501673E+03  0.12963819925E+03  0.00000000000E+00 0.  1.
</event>
<event>
 7    1  0.5139898E-006  0.1678774E+03  0.7818608E-02  0.1184237E+00
          2   -1    0    0  502    0  0.00000000000E+00  0.00000000000E+00  0.69337902421E+03  0.69337902421E+03  0.00000000000E+00 0. -1.
          1   -1    0    0  501    0 -0.00000000000E+00 -0.00000000000E+00 -0.22462799324E+03  0.22462799324E+03  0.00000000000E+00 0. -1.
         25    2    1    2    0    0 -0.81646761194E+02  0.10399187038E+03 -0.81963731318E+02  0.19955867229E+03  0.12500043087E+03 0.  0.
          2    1    1    2  501    0  0.14808109520E+03  0.61233728624E+02  0.23483185420E+02  0.16195382142E+03  0.00000000000E+00 0. -1.
          1    1    1    2  502    0 -0.66434334002E+02 -0.16522559900E+03  0.52723157686E+03  0.55649452373E+03  0.00000000000E+00 0. -1.
         22    1    3    3    0    0 -0.63071329650E+02  0.10655818012E+03 -0.11013458865E+03  0.16571742815E+03  0.00000000000E+00 0. -1.
         22    1    3    3    0    0 -0.18575431544E+02 -0.25663097438E+01  0.28170857329E+02  0.33841244147E+02  0.00000000000E+00 0. -1.
</event>
<event>
 7    1  0.5139898E-006  0.1525295E+03  0.7818608E-02  0.1252064E+00
          2   -1    0    0  502    0  0.00000000000E+00  0.00000000000E+00  0.80598147523E+02  0.80598147523E+02  0.00000000000E+00 0. -1.
          1   -1    0    0  501    0 -0.00000000000E+00 -0.00000000000E+00 -0.18122100843E+04  0.18122100843E+04  0.00000000000E+00 0. -1.
         25    2    1    2    0    0  0.27847862221E+02 -0.13193604666E+03 -0.63832877657E+03  0.66428257156E+03  0.12500033620E+03 0.  0.
          2    1    1    2  501    0 -0.11369583670E+03  0.12322584515E+03 -0.11243743456E+04  0.11368065012E+04  0.00000000000E+00 0. -1.
          1    1    1    2  502    0  0.85847974482E+02  0.87102015108E+01  0.31091185354E+02  0.91719159065E+02  0.00000000000E+00 0. -1.
         22    1    3    3    0    0  0.28702328365E+02 -0.75551447605E+02 -0.13167087104E+03  0.15449615908E+03  0.00000000000E+00 0.  1.
         22    1    3    3    0    0 -0.85446614411E+00 -0.56384599053E+02 -0.50665790553E+03  0.50978641249E+03  0.00000000000E+00 0.  1.
</event>
<event>
 7    1  0.5139898E-006  0.1677336E+03  0.7818608E-02  0.1343845E+00
          2   -1    0    0  502    0  0.00000000000E+00  0.00000000000E+00  0.22385283876E+04  0.22385283876E+04  0.00000000000E+00 0. -1.
          1   -1    0    0  501    0 -0.00000000000E+00 -0.00000000000E+00 -0.29414802699E+03  0.29414802699E+03  0.00000000000E+00 0. -1.
         25    2    1    2    0    0  0.19645159136E+03 -0.33554778839E+02  0.16084702591E+03  0.28498005100E+03  0.12499085083E+03 0.  0.
          2    1    1    2  501    0 -0.33484167201E+02  0.19851553626E+01 -0.22743160768E+03  0.22989185820E+03  0.00000000000E+00 0. -1.
          1    1    1    2  502    0 -0.16296742416E+03  0.31569623476E+02  0.20109649424E+04  0.20178045054E+04  0.00000000000E+00 0. -1.
         22    1    3    3    0    0  0.94861042877E+02  0.36995942431E+02  0.11366538347E+03  0.15260123397E+03  0.00000000000E+00 0. -1.
         22    1    3    3    0    0  0.10159054849E+03 -0.70550721270E+02  0.47181642443E+02  0.13237881703E+03  0.00000000000E+00 0. -1.
</event>
<event>
 7    1  0.5139898E-006  0.1205940E+03  0.7818608E-02  0.1261970E+00
          2   -1    0    0  502    0  0.00000000000E+00  0.00000000000E+00  0.39304346371E+03  0.39304346371E+03  0.00000000000E+00 0. -1.
          1   -1    0    0  501    0 -0.00000000000E+00 -0.00000000000E+00 -0.90564220126E+03  0.90564220126E+03  0.00000000000E+00 0. -1.
         25    2    1    2    0    0 -0.82190997214E+02 -0.77418822400E+02  0.26353608439E+02  0.17049407607E+03  0.12499873284E+03 0.  0.
          2    1    1    2  501    0 -0.58736121496E+01  0.12257869827E+03 -0.82056690411E+03  0.82969276284E+03  0.00000000000E+00 0. -1.
          1    1    1    2  502    0  0.88064609364E+02 -0.45159875874E+02  0.28161455812E+03  0.29849882606E+03  0.00000000000E+00 0. -1.
         22    1    3    3    0    0 -0.60272393035E+02  0.19151256245E+02  0.32831470836E+02  0.71256139772E+02  0.00000000000E+00 0.  1.
         22    1    3    3    0    0 -0.21918604179E+02 -0.96570078645E+02 -0.64778623978E+01  0.99237936294E+02  0.00000000000E+00 0.  1.
</event>
<event>
 7    1  0.5139898E-006  0.1060384E+03  0.7818608E-02  0.1299245E+00
          2   -1    0    0  502    0  0.00000000000E+00  0.00000000000E+00  0.15285149587E+04  0.15285149587E+04  0.00000000000E+00 0. -1.
          1   -1    0    0  501    0 -0.00000000000E+00 -0.00000000000E+00 -0.33295454049E+03  0.33295454049E+03  0.00000000000E+00 0. -1.
         25    2    1    2    0    0 -0.32542988504E+02 -0.17537996979E+03  0.30588998602E+03  0.37551377320E+03  0.12499892165E+03 0.  0.
          2    1    1    2  501    0  0.38863618378E+02  0.96667701256E+02 -0.28767729499E+03  0.30596282675E+03  0.00000000000E+00 0. -1.
          1    1    1    2  502    0 -0.63206298733E+01  0.78712268531E+02  0.11773477272E+04  0.11799928993E+04  0.00000000000E+00 0. -1.
         22    1    3    3    0    0 -0.12091257562E+02 -0.67915656075E+02  0.23558392152E+03  0.24547610664E+03  0.00000000000E+00 0.  1.
         22    1    3    3    0    0 -0.20451730942E+02 -0.10746431371E+03  0.70306064492E+02  0.13003766656E+03  0.00000000000E+00 0.  1.
</event>
<event>
 7    1  0.5139898E-006  0.1896157E+03  0.7818608E-02  0.1287820E+00
          2   -1    0    0  502    0  0.00000000000E+00  0.00000000000E+00  0.37755427998E+03  0.37755427998E+03  0.00000000000E+00 0. -1.
          1   -1    0    0  501    0 -0.00000000000E+00 -0.00000000000E+00 -0.13892868126E+04  0.13892868126E+04  0.00000000000E+00 0. -1.
         25    2    1    2    0    0  0.14640784534E+03 -0.13117556745E+03  0.39875855887E+02  0.23634182766E+03  0.12500035579E+03 0.  0.
          2    1    1    2  501    0 -0.16831040578E+03  0.87212056986E+02 -0.12814870819E+04  0.12954317723E+04  0.00000000000E+00 0. -1.
          1    1    1    2  502    0  0.21902560442E+02  0.43963510463E+02  0.22987869340E+03  0.23506749262E+03  0.00000000000E+00 0. -1.
         22    1    3    3    0    0  0.94291185959E+02 -0.66401672389E+02 -0.39000063881E+02  0.12174159038E+03  0.00000000000E+00 0. -1.
         22    1    3    3    0    0  0.52116659378E+02 -0.64773895060E+02  0.78875919768E+02  0.11460023728E+03  0.00000000000E+00 0. -1.
</event>
<event>
 7    1  0.5139898E-006  0.8895521E+02  0.7818608E-02  0.1348460E+00
          2   -1    0    0  502    0  0.00000000000E+00  0.00000000000E+00  0.13045568065E+04  0.13045568065E+04  0.00000000000E+00 0. -1.
          1   -1    0    0  501    0 -0.00000000000E+00 -0.00000000000E+00 -0.33477171733E+03  0.33477171733E+03  0.00000000000E+00 0. -1.
         25    2    1    2    0    0  0.13626673866E+02  0.43969440771E+02  0.68290219727E+03  0.69577287313E+03  0.12500192788E+03 0.  0.
          2    1    1    2  501    0  0.32828036478E+02 -0.83182174972E+02 -0.32070226848E+03  0.33293677961E+03  0.00000000000E+00 0. -1.
          1    1    1    2  502    0 -0.46454710344E+02  0.39212734202E+02  0.60758516036E+03  0.61061887109E+03  0.00000000000E+00 0. -1.
         22    1    3    3    0    0  0.48588906308E+02 -0.22817765657E+02  0.37248839978E+03  0.37633647208E+03  0.00000000000E+00 0.  1.
         22    1    3    3    0    0 -0.34962232442E+02  0.66787206428E+02  0.31041379750E+03  0.31943640105E+03  0.00000000000E+00 0.  1.
</event>
<event>
 7    1  0.5139898E-006  0.2804952E+02  0.7818608E-02  0.1631893E+00
          2   -1    0    0  502    0  0.00000000000E+00  0.00000000000E+00  0.17999611465E+04  0.17999611465E+04  0.00000000000E+00 0. -1.
          1   -1    0    0  501    0 -0.00000000000E+00 -0.00000000000E+00 -0.86118681889E+02  0.86118681889E+02  0.00000000000E+00 0. -1.
         25    2    1    2    0    0 -0.53336562488E+01  0.19374876325E+02  0.75028251391E+01  0.12682673398E+03  0.12499957738E+03 0.  0.
          2    1    1    2  501    0 -0.22622001681E+02 -0.17082156914E+02 -0.18716742564E+02  0.33968684065E+02  0.00000000000E+00 0. -1.
          1    1    1    2  502    0  0.27955657930E+02 -0.22927194109E+01  0.17250563821E+04  0.17252844104E+04  0.00000000000E+00 0. -1.
         22    1    3    3    0    0 -0.34321847842E+02 -0.41895609979E+02 -0.13590755826E+02  0.55838517340E+02  0.00000000000E+00 0.  1.
         22    1    3    3    0    0  0.28988191593E+02  0.61270486304E+02  0.21093580965E+02  0.70988216640E+02  0.00000000000E+00 0.  1.
</event>
<event>
 7    1  0.5139898E-006  0.9478993E+02  0.7818608E-02  0.1310204E+00
          2   -1    0    0  502    0  0.00000000000E+00  0.00000000000E+00  0.18854253625E+04  0.18854253625E+04  0.00000000000E+00 0. -1.
          1   -1    0    0  501    0 -0.00000000000E+00 -0.00000000000E+00 -0.42329863677E+03  0.42329863677E+03  0.00000000000E+00 0. -1.
         25    2    1    2    0    0 -0.57129090978E+02 -0.54365452023E+02  0.44776418198E+03  0.47152625479E+03  0.12499964351E+03 0.  0.
          2    1    1    2  501    0 -0.11898527302E+02  0.94620101184E+02 -0.40475214403E+03  0.41583510746E+03  0.00000000000E+00 0. -1.
          1    1    1    2  502    0  0.69027618281E+02 -0.40254649161E+02  0.14191146877E+04  0.14213626370E+04  0.00000000000E+00 0. -1.
         22    1    3    3    0    0 -0.72761876614E+02  0.15145131880E+02  0.18767907357E+03  0.20185911018E+03  0.00000000000E+00 0.  1.
         22    1    3    3    0    0  0.15632785636E+02 -0.69510583904E+02  0.26008510841E+03  0.26966714460E+03  0.00000000000E+00 0.  1.
</event>
<event>
 7    1  0.5139898E-006  0.6369632E+02  0.7818608E-02  0.1484787E+00
          2   -1    0    0  502    0  0.00000000000E+00  0.00000000000E+00  0.91774815677E+02  0.91774815677E+02  0.00000000000E+00 0. -1.
          1   -1    0    0  501    0 -0.00000000000E+00 -0.00000000000E+00 -0.16321393116E+04  0.16321393116E+04  0.00000000000E+00 0. -1.
         25    2    1    2    0    0  0.81160604150E+02  0.41843751299E+02 -0.50931690347E+03  0.53232263312E+03  0.12500293749E+03 0.  0.
          2    1    1    2  501    0 -0.28730286562E+02 -0.68214348914E+01 -0.10987091491E+04  0.10991058892E+04  0.00000000000E+00 0. -1.
          1    1    1    2  502    0 -0.52430317588E+02 -0.35022316407E+02  0.67661556739E+02  0.92485604876E+02  0.00000000000E+00 0. -1.
         22    1    3    3    0    0  0.88980381837E+02  0.49451788821E+01 -0.46787300758E+03  0.47628469886E+03  0.00000000000E+00 0. -1.
         22    1    3    3    0    0 -0.78197776874E+01  0.36898572417E+02 -0.41443895892E+02  0.56037934260E+02  0.00000000000E+00 0. -1.
</event>
<event>
 7    1  0.5139898E-006  0.2256748E+03  0.7818608E-02  0.1307447E+00
          2   -1    0    0  502    0  0.00000000000E+00  0.00000000000E+00  0.85148625911E+03  0.85148625911E+03  0.00000000000E+00 0. -1.
          1   -1    0    0  501    0 -0.00000000000E+00 -0.00000000000E+00 -0.84470371731E+03  0.84470371731E+03  0.00000000000E+00 0. -1.
         25    2    1    2    0    0 -0.20685780434E+03 -0.44935132910E+02 -0.58272599019E+02  0.25264452472E+03  0.12499697071E+03 0.  0.
          2    1    1    2  501    0 -0.19939348602E+02  0.28050985421E+02 -0.67165217501E+03  0.67253332973E+03  0.00000000000E+00 0. -1.
          1    1    1    2  502    0  0.22679715294E+03  0.16884147489E+02  0.73670731583E+03  0.77101212197E+03  0.00000000000E+00 0. -1.
         22    1    3    3    0    0 -0.87249278864E+02 -0.56048565342E+02  0.24761104905E+02  0.10661609004E+03  0.00000000000E+00 0. -1.
         22    1    3    3    0    0 -0.11960852548E+03  0.11113432432E+02 -0.83033703924E+02  0.14602843468E+03  0.00000000000E+00 0. -1.
</event>
<event>
 7    1  0.5139898E-006  0.8170347E+02  0.7818608E-02  0.1326929E+00
          2   -1    0    0  502    0  0.00000000000E+00  0.00000000000E+00  0.78477985124E+02  0.78477985124E+02  0.00000000000E+00 0. -1.
          1   -1    0    0  501    0 -0.00000000000E+00 -0.00000000000E+00 -0.22054702647E+04  0.22054702647E+04  0.00000000000E+00 0. -1.
         25    2    1    2    0    0 -0.14160463899E+03 -0.63739521003E+02 -0.17139339163E+03  0.26289789924E+03  0.12500004164E+03 0.  0.
          2    1    1    2  501    0  0.79226761303E+02  0.13948723843E+02 -0.19375534315E+04  0.19392227171E+04  0.00000000000E+00 0. -1.
          1    1    1    2  502    0  0.62377877685E+02  0.49790797160E+02 -0.18045456468E+02  0.81827633508E+02  0.00000000000E+00 0. -1.
         22    1    3    3    0    0 -0.14191838315E+03 -0.78377720380E+02 -0.10102723146E+03  0.19102459533E+03  0.00000000000E+00 0.  1.
         22    1    3    3    0    0  0.31374415906E+00  0.14638199377E+02 -0.70366160178E+02  0.71873303908E+02  0.00000000000E+00 0.  1.
</event>
<event>
 7    1  0.5139898E-006  0.1258892E+03  0.7818608E-02  0.1372945E+00
          2   -1    0    0  502    0  0.00000000000E+00  0.00000000000E+00  0.10459300761E+04  0.10459300761E+04  0.00000000000E+00 0. -1.
          1   -1    0    0  501    0 -0.00000000000E+00 -0.00000000000E+00 -0.22446138340E+03  0.22446138340E+03  0.00000000000E+00 0. -1.
         25    2    1    2    0    0  0.10321928763E+03  0.21083445232E+02 -0.43924960850E+00  0.16347793072E+03  0.12500443148E+03 0.  0.
          2    1    1    2  501    0  0.11823711824E+02  0.32916036864E+02 -0.13609531062E+03  0.14051761177E+03  0.00000000000E+00 0. -1.
          1    1    1    2  502    0 -0.11504299946E+03 -0.53999482096E+02  0.95800325295E+03  0.96639591703E+03  0.00000000000E+00 0. -1.
         22    1    3    3    0    0 -0.18220284478E+02  0.35261395561E+02 -0.97146624904E+01  0.40862200756E+02  0.00000000000E+00 0.  1.
         22    1    3    3    0    0  0.12143957211E+03 -0.14177950328E+02  0.92754128819E+01  0.12261572996E+03  0.00000000000E+00 0.  1.
</event>
<event>
 7    1  0.5139898E-006  0.1535811E+03  0.7818608E-02  0.1220659E+00
          2   -1    0    0  502    0  0.00000000000E+00  0.00000000000E+00  0.14982283858E+04  0.14982283858E+04  0.00000000000E+00 0. -1.
          1   -1    0    0  501    0 -0.00000000000E+00 -0.00000000000E+00 -0.55245199377E+03  0.55245199377E+03  0.00000000000E+00 0. -1.
         25    2    1    2    0    0 -0.14129956622E+03  0.11954668948E+03  0.55524096703E+03  0.59847706965E+03  0.12500117222E+03 0.  0.
          2    1    1    2  501    0 -0.12340872952E+02 -0.11747446605E+03 -0.51772930774E+03  0.53103312836E+03  0.00000000000E+00 0. -1.
          1    1    1    2  502    0  0.15364043917E+03 -0.20722234259E+01  0.90826473277E+03  0.92117018159E+03  0.00000000000E+00 0. -1.
         22    1    3    3    0    0 -0.87197625307E+02  0.14037848534E+03  0.41926916212E+03  0.45066193017E+03  0.00000000000E+00 0.  1.
         22    1    3    3    0    0 -0.54101940908E+02 -0.20831795861E+02  0.13597180491E+03  0.14781513948E+03  0.00000000000E+00 0.  1.
</event>
<event>
 7    1  0.5139898E-006  0.9370540E+02  0.7818608E-02  0.1409745E+00
          2   -1    0    0  502    0  0.00000000000E+00  0.00000000000E+00  0.81184868377E+03  0.81184868377E+03  0.00000000000E+00 0. -1.
          1   -1    0    0  501    0 -0.00000000000E+00 -0.00000000000E+00 -0.17765223299E+03  0.17765223299E+03  0.00000000000E+00 0. -1.
         25    2    1    2    0    0 -0.77212405803E+02  0.28078837798E+02 -0.29055993518E+02  0.15237975585E+03  0.12500064996E+03 0.  0.
          2    1    1    2  501    0  0.10067362077E+03 -0.21357651663E+01 -0.57207866724E+02  0.11581225940E+03  0.00000000000E+00 0. -1.
          1    1    1    2  502    0 -0.23461214970E+02 -0.25943072632E+02  0.72046031103E+03  0.72130890151E+03  0.00000000000E+00 0. -1.
         22    1    3    3    0    0 -0.77799177072E+02  0.71096931557E+02 -0.29181708316E+02  0.10935747679E+03  0.00000000000E+00 0.  1.
         22    1    3    3    0    0  0.58677126941E+00 -0.43018093759E+02  0.12571479764E+00  0.43022279058E+02  0.00000000000E+00 0.  1.
</event>
<event>
 7    1  0.5139898E-006  0.1785109E+03  0.7818608E-02  0.1365644E+00
          2   -1    0    0  502    0  0.00000000000E+00  0.00000000000E+00  0.16573041885E+03  0.16573041885E+03  0.00000000000E+00 0. -1.
          1   -1    0    0  501    0 -0.00000000000E+00 -0.00000000000E+00 -0.14620754483E+04  0.14620754483E+04  0.00000000000E+00 0. -1.
         25    2    1    2    0    0  0.13525889937E+03  0.77154804028E+02 -0.13551487709E+03  0.24129869079E+03  0.12495176119E+03 0.  0.
          2    1    1    2  501    0 -0.16041534300E+03 -0.84488567780E+02 -0.12655947153E+04  0.12785153045E+04  0.00000000000E+00 0. -1.
          1    1    1    2  502    0  0.25156443632E+02  0.73337637522E+01  0.10476456294E+03  0.10799187190E+03  0.00000000000E+00 0. -1.
         22    1    3    3    0    0  0.84920664279E+02  0.10902742354E+03 -0.79028137444E+02  0.15919781661E+03  0.00000000000E+00 0.  1.
         22    1    3    3    0    0  0.50338235087E+02 -0.31872619510E+02 -0.56486739647E+02  0.82100874185E+02  0.00000000000E+00 0.  1.
</event>
<event>
 7    1  0.5139898E-006  0.1065629E+03  0.7818608E-02  0.1302538E+00
          2   -1    0    0  502    0  0.00000000000E+00  0.00000000000E+00  0.15515681240E+04  0.15515681240E+04  0.00000000000E+00 0. -1.
          1   -1    0    0  501    0 -0.00000000000E+00 -0.00000000000E+00 -0.36250835622E+03  0.36250835622E+03  0.00000000000E+00 0. -1.
         25    2    1    2    0    0  0.13259371075E+02  0.39430177128E+02  0.28239830302E+03  0.31161634752E+03  0.12500158681E+03 0.  0.
          2    1    1    2  501    0 -0.83164824071E+02 -0.69832271073E+02 -0.33823056338E+03  0.35523632704E+03  0.00000000000E+00 0. -1.
          1    1    1    2  502    0  0.69905452995E+02  0.30402093944E+02  0.12448920281E+04  0.12472238057E+04  0.00000000000E+00 0. -1.
         22    1    3    3    0    0 -0.94254811422E+01 -0.34859012458E+02  0.17723834894E+03  0.18087958088E+03  0.00000000000E+00 0. -1.
         22    1    3    3    0    0  0.22684852217E+02  0.74289189586E+02  0.10515995408E+03  0.13073676664E+03  0.00000000000E+00 0. -1.
</event>
<event>
 7    1  0.5139898E-006  0.5001293E+02  0.7818608E-02  0.1577028E+00
          2   -1    0    0  502    0  0.00000000000E+00  0.00000000000E+00  0.34891282130E+04  0.34891282130E+04  0.00000000000E+00 0. -1.
          1   -1    0    0  501    0 -0.00000000000E+00 -0.00000000000E+00 -0.22778791913E+03  0.22778791913E+03  0.00000000000E+00 0. -1.
         25    2    1    2    0    0  0.68637734265E+02 -0.13752423521E+02  0.55046448704E+03  0.56880239255E+03  0.12499897026E+03 0.  0.
          2    1    1    2  501    0 -0.20212972676E+02  0.32235831166E+01 -0.21792980213E+03  0.21888890883E+03  0.00000000000E+00 0. -1.
          1    1    1    2  502    0 -0.48424761588E+02  0.10528840405E+02  0.29288056090E+04  0.29292248308E+04  0.00000000000E+00 0. -1.
         22    1    3    3    0    0  0.24354719376E+02  0.52169555792E+02  0.15282830559E+03  0.16331352025E+03  0.00000000000E+00 0.  1.
         22    1    3    3    0    0  0.44283014889E+02 -0.65921979313E+02  0.39763618145E+03  0.40548887230E+03  0.00000000000E+00 0.  1.
</event>
<event>
 7    1  0.5139898E-006  0.1244361E+03  0.7818608E-02  0.1265793E+00
          2   -1    0    0  502    0  0.00000000000E+00  0.00000000000E+00  0.12107055161E+04  0.12107055161E+04  0.00000000000E+00 0. -1.
          1   -1    0    0  501    0 -0.00000000000E+00 -0.00000000000E+00 -0.78352639496E+03  0.78352639496E+03  0.00000000000E+00 0. -1.
         25    2    1    2    0    0  0.16199661253E+03 -0.10306775339E+03  0.20628210136E+03  0.30829112908E+03  0.12500100266E+03 0.  0.
          2    1    1    2  501    0 -0.92262772684E+02  0.49959098026E+01 -0.72578416063E+03  0.73164200683E+03  0.00000000000E+00 0. -1.
          1    1    1    2  502    0 -0.69733839844E+02  0.98071843591E+02  0.94668118043E+03  0.95429877517E+03  0.00000000000E+00 0. -1.
         22    1    3    3    0    0  0.15912539592E+03 -0.79896501103E+02  0.21856163121E+03  0.28191049848E+03  0.00000000000E+00 0.  1.
         22    1    3    3    0    0  0.28712166117E+01 -0.23171252291E+02 -0.12279529851E+02  0.26380630601E+02  0.00000000000E+00 0.  1.
</event>
<event>
 7    1  0.5139898E-006  0.1028563E+03  0.7818608E-02  0.1369313E+00
          2   -1    0    0  502    0  0.00000000000E+00  0.00000000000E+00  0.33008823584E+03  0.33008823584E+03  0.00000000000E+00 0. -1.
          1   -1    0    0  501    0 -0.00000000000E+00 -0.00000000000E+00 -0.24231396759E+03  0.24231396759E+03  0.00000000000E+00 0. -1.
         25    2    1    2    0    0  0.73868550876E+02  0.73755353527E+01  0.65713150507E+02  0.15954739955E+03  0.12500477280E+03 0.  0.
          2    1    1    2  501    0  0.32000297470E+02  0.30361757371E+02 -0.17799985525E+03  0.18338430636E+03  0.00000000000E+00 0. -1.
          1    1    1    2  502    0 -0.10586884835E+03 -0.37737292724E+02  0.20006097300E+03  0.22947049752E+03  0.00000000000E+00 0. -1.
         22    1    3    3    0    0  0.46998921259E+02  0.31392214293E+02  0.96708730343E+02  0.11201316102E+03  0.00000000000E+00 0.  1.
         22    1    3    3    0    0  0.26869629617E+02 -0.24016678941E+02 -0.30995579836E+02  0.47534238528E+02  0.00000000000E+00 0.  1.
</event>
<event>
 7    1  0.5139898E-006  0.1364035E+03  0.7818608E-02  0.1230637E+00
          2   -1    0    0  502    0  0.00000000000E+00  0.00000000000E+00  0.10434106594E+03  0.10434106594E+03  0.00000000000E+00 0. -1.
          1   -1    0    0  501    0 -0.00000000000E+00 -0.00000000000E+00 -0.15018810663E+04  0.15018810663E+04  0.00000000000E+00 0. -1.
         25    2    1    2    0    0  0.18645810847E+03  0.16160101216E+03 -0.32796964408E+03  0.42903415104E+03  0.12499880788E+03 0.  0.
          2    1    1    2  501    0 -0.10398868178E+03 -0.74584604623E+02 -0.10474971884E+04  0.10552852074E+04  0.00000000000E+00 0. -1.
          1    1    1    2  502    0 -0.82469426698E+02 -0.87016407534E+02 -0.22073167843E+02  0.12190277379E+03  0.00000000000E+00 0. -1.
         22    1    3    3    0    0  0.46264484821E+02  0.77491578675E+02 -0.41812100231E+02  0.99466572511E+02  0.00000000000E+00 0.  1.
         22    1    3    3    0    0  0.14019362365E+03  0.84109433483E+02 -0.28615754385E+03  0.32956757853E+03  0.00000000000E+00 0.  1.
</event>
<event>
 7    1  0.5139898E-006  0.1484457E+03  0.7818608E-02  0.1246177E+00
          2   -1    0    0  502    0  0.00000000000E+00  0.00000000000E+00  0.61858223964E+02  0.61858223964E+02  0.00000000000E+00 0. -1.
          1   -1    0    0  501    0 -0.00000000000E+00 -0.00000000000E+00 -0.26666825544E+04  0.26666825544E+04  0.00000000000E+00 0. -1.
         25    2    1    2    0    0 -0.50627849817E+02  0.36155368047E+02 -0.11992226554E+04  0.12073225295E+04  0.12498929256E+03 0.  0.
          2    1    1    2  501    0 -0.78349535034E+02  0.52009733890E+02 -0.13531547087E+04  0.13564185665E+04  0.00000000000E+00 0. -1.
          1    1    1    2  502    0  0.12897738485E+03 -0.88165101937E+02 -0.52446966355E+02  0.16479968229E+03  0.00000000000E+00 0. -1.
         22    1    3    3    0    0  0.10465389962E+01  0.82213987237E+01 -0.18268020690E+01  0.84866864349E+01  0.00000000000E+00 0.  1.
         22    1    3    3    0    0 -0.51674388813E+02  0.27933969323E+02 -0.11973958533E+04  0.11988358430E+04  0.00000000000E+00 0.  1.
</event>
<event>
 7    1  0.5139898E-006  0.7059174E+02  0.7818608E-02  0.1382450E+00
          2   -1    0    0  502    0  0.00000000000E+00  0.00000000000E+00  0.54857390633E+03  0.54857390633E+03  0.00000000000E+00 0. -1.
          1   -1    0    0  501    0 -0.00000000000E+00 -0.00000000000E+00 -0.45572876803E+03  0.45572876803E+03  0.00000000000E+00 0. -1.
         25    2    1    2    0    0 -0.64882820839E+02 -0.10781638536E+03  0.18801181599E+02  0.17836094865E+03  0.12499996074E+03 0.  0.
          2    1    1    2  501    0  0.41025444721E+02  0.55273768483E+02 -0.37091922893E+03  0.37725237042E+03  0.00000000000E+00 0. -1.
          1    1    1    2  502    0  0.23857376118E+02  0.52542616873E+02  0.44496318563E+03  0.44868935529E+03  0.00000000000E+00 0. -1.
         22    1    3    3    0    0 -0.34951694630E+02 -0.34814570085E+02 -0.52482882374E+02  0.72028662281E+02  0.00000000000E+00 0.  1.
         22    1    3    3    0    0 -0.29931126209E+02 -0.73001815271E+02  0.71284063972E+02  0.10633228637E+03  0.00000000000E+00 0.  1.
</event>
<event>
 7    1  0.5139898E-006  0.2391746E+03  0.7818608E-02  0.1312551E+00
          2   -1    0    0  502    0  0.00000000000E+00  0.00000000000E+00  0.41641188641E+02  0.41641188641E+02  0.00000000000E+00 0. -1.
          1   -1    0    0  501    0 -0.00000000000E+00 -0.00000000000E+00 -0.33561204273E+04  0.33561204273E+04  0.00000000000E+00 0. -1.
         25    2    1    2    0    0  0.20560881144E+03 -0.71842079441E+02 -0.85804354265E+03  0.89403320077E+03  0.12498149972E+03 0.  0.
          2    1    1    2  501    0 -0.22842062489E+03  0.92838008408E+02 -0.24601754017E+04  0.24725003306E+04  0.00000000000E+00 0. -1.
          1    1    1    2  502    0  0.22811813451E+02 -0.20995928967E+02  0.37397057110E+01  0.31228084554E+02  0.00000000000E+00 0. -1.
         22    1    3    3    0    0 -0.62070171428E+01 -0.24922546716E+02 -0.18789721928E+03  0.18964447108E+03  0.00000000000E+00 0. -1.
         22    1    3    3    0    0  0.21181582859E+03 -0.46919532725E+02 -0.67014632336E+03  0.70438872969E+03  0.00000000000E+00 0. -1.
</event>
<event>
 7    1  0.5139898E-006  0.5543505E+02  0.7818608E-02  0.1434291E+00
          2   -1    0    0  502    0  0.00000000000E+00  0.00000000000E+00  0.49274331684E+03  0.49274331684E+03  0.00000000000E+00 0. -1.
          1   -1    0    0  501    0 -0.00000000000E+00 -0.00000000000E+00 -0.17760134422E+03  0.17760134422E+03  0.00000000000E+00 0. -1.
         25    2    1    2    0    0  0.28053268818E+02  0.91893406054E+02  0.31285982457E+03  0.35033946532E+03  0.12500034866E+03 0.  0.
          2    1    1    2  501    0 -0.33855528567E+02 -0.43257087548E+02 -0.15015756110E+03  0.15988954185E+03  0.00000000000E+00 0. -1.
          1    1    1    2  502    0  0.58022597494E+01 -0.48636318506E+02  0.15243970914E+03  0.16011565389E+03  0.00000000000E+00 0. -1.
         22    1    3    3    0    0  0.17044438447E+01  0.11804108563E+03  0.20887999663E+03  0.23993219046E+03  0.00000000000E+00 0. -1.
         22    1    3    3    0    0  0.26348824973E+02 -0.26147679577E+02  0.10397982794E+03  0.11040727487E+03  0.00000000000E+00 0. -1.
</event>
<event>
 7    1  0.5139898E-006  0.1056689E+03  0.7818608E-02  0.1277530E+00
          2   -1    0    0  502    0  0.00000000000E+00  0.00000000000E+00  0.21230158659E+04  0.21230158659E+04  0.00000000000E+00 0. -1.
          1   -1    0    0  501    0 -0.00000000000E+00 -0.00000000000E+00 -0.34743838954E+02  0.34743838954E+02  0.00000000000E+00 0. -1.
         25    2    1    2    0    0  0.27731466527E+02 -0.89085991639E+02  0.38603585990E+03  0.41635916149E+03  0.12500367231E+03 0.  0.
          2    1    1    2  501    0  0.67940501865E+02  0.10604452540E+03  0.20215811748E+03  0.23817904531E+03  0.00000000000E+00 0. -1.
          1    1    1    2  502    0 -0.95671968392E+02 -0.16958533765E+02  0.15000780496E+04  0.15032214980E+04  0.00000000000E+00 0. -1.
         22    1    3    3    0    0 -0.30956117929E+02  0.15356828549E+02  0.63519695011E+02  0.72310891811E+02  0.00000000000E+00 0.  1.
         22    1    3    3    0    0  0.58687584455E+02 -0.10444282019E+03  0.32251616489E+03  0.34404826968E+03  0.00000000000E+00 0.  1.
</event>
<event>
 7    1  0.5139898E-006  0.1053140E+03  0.7818608E-02  0.1367985E+00
          2   -1    0    0  502    0  0.00000000000E+00  0.00000000000E+00  0.53294355956E+03  0.53294355956E+03  0.00000000000E+00 0. -1.
          1   -1    0    0  501    0 -0.00000000000E+00 -0.00000000000E+00 -0.16971202897E+04  0.16971202897E+04  0.00000000000E+00 0. -1.
         25    2    1    2    0    0  0.10504981631E+03 -0.10344018774E+03  0.67483511789E+02  0.20472971835E+03  0.12499958746E+03 0.  0.
          2    1    1    2  501    0 -0.69195227317E+02  0.78704122466E+02 -0.16256095372E+04  0.16289839427E+04  0.00000000000E+00 0. -1.
          1    1    1    2  502    0 -0.35854588994E+02  0.24736065276E+02  0.39394929522E+03  0.39635018819E+03  0.00000000000E+00 0. -1.
         22    1    3    3    0    0  0.42687218225E+02 -0.31003767166E+02 -0.35990081481E+02  0.63864842779E+02  0.00000000000E+00 0. -1.
         22    1    3    3    0    0  0.62362598086E+02 -0.72436420576E+02  0.10347359327E+03  0.14086487557E+03  0.00000000000E+00 0. -1.
</event>
<event>
 7    1  0.5139898E-006  0.4515292E+02  0.7818608E-02  0.1578203E+00
          2   -1    0    0  502    0  0.00000000000E+00  0.00000000000E+00  0.14815323708E+04  0.14815323708E+04  0.00000000000E+00 0. -1.
          1   -1    0    0  501    0 -0.00000000000E+00 -0.00000000000E+00 -0.37745456254E+03  0.37745456254E+03  0.00000000000E+00 0. -1.
         25    2    1    2    0    0  0.31149686102E+02  0.45799583599E+02  0.11586674539E+04  0.11667061725E+04  0.12500047772E+03 0.  0.
          2    1    1    2  501    0 -0.22100856038E+02 -0.42570245366E+01 -0.37167591442E+03  0.37235675831E+03  0.00000000000E+00 0. -1.
          1    1    1    2  502    0 -0.90488300640E+01 -0.41542559062E+02  0.31708626881E+03  0.31992400254E+03  0.00000000000E+00 0. -1.
         22    1    3    3    0    0  0.61469911998E+02  0.45283191517E+02  0.38789331990E+03  0.39533573724E+03  0.00000000000E+00 0.  1.
         22    1    3    3    0    0 -0.30320225895E+02  0.51639208223E+00  0.77077413395E+03  0.77137043521E+03  0.00000000000E+00 0.  1.
</event>
<event>
 7    1  0.5139898E-006  0.6450612E+02  0.7818608E-02  0.1492557E+00
          2   -1    0    0  502    0  0.00000000000E+00  0.00000000000E+00  0.12950011982E+02  0.12950011982E+02  0.00000000000E+00 0. -1.
          1   -1    0    0  501    0 -0.00000000000E+00 -0.00000000000E+00 -0.26429065399E+04  0.26429065399E+04  0.00000000000E+00 0. -1.
         25    2    1    2    0    0  0.63034381259E+00 -0.74956405468E+02 -0.75757300921E+03  0.77146849523E+03  0.12501165862E+03 0.  0.
          2    1    1    2  501    0 -0.22618988982E+02  0.15849365760E+02 -0.17094857354E+04  0.17097088351E+04  0.00000000000E+00 0. -1.
          1    1    1    2  502    0  0.21988645170E+02  0.59107039708E+02 -0.16289778330E+03  0.17467922161E+03  0.00000000000E+00 0. -1.
         22    1    3    3    0    0  0.21819692616E+02  0.22310321451E+02 -0.37005523232E+03  0.37136871758E+03  0.00000000000E+00 0.  1.
         22    1    3    3    0    0 -0.21189348804E+02 -0.97266726919E+02 -0.38751777689E+03  0.40009977765E+03  0.00000000000E+00 0.  1.
</event>
<event>
 7    1  0.5139898E-006  0.9034382E+02  0.7818608E-02  0.1342409E+00
          2   -1    0    0  502    0  0.00000000000E+00  0.00000000000E+00  0.11891696698E+04  0.11891696698E+04  0.00000000000E+00 0. -1.
          1   -1    0    0  501    0 -0.00000000000E+00 -0.00000000000E+00 -0.12450506862E+04  0.12450506862E+04  0.00000000000E+00 0. -1.
         25    2    1    2    0    0  0.39899469235E+02  0.56578462759E+02  0.81969937293E+02  0.16473495577E+03  0.12500177975E+03 0.  0.
          2    1    1    2  501    0 -0.89238487334E+02 -0.17320709847E+02 -0.12010165171E+04  0.12044518209E+04  0.00000000000E+00 0. -1.
          1    1    1    2  502    0  0.49339018099E+02 -0.39257752912E+02  0.10631655634E+04  0.10650335793E+04  0.00000000000E+00 0. -1.
         22    1    3    3    0    0  0.78543163616E+02  0.14400378168E+02  0.24209252934E+02  0.83441520659E+02  0.00000000000E+00 0. -1.
         22    1    3    3    0    0 -0.38643694382E+02  0.42178084591E+02  0.57760684359E+02  0.81293435115E+02  0.00000000000E+00 0. -1.
</event>
<event>
 7    1  0.5139898E-006  0.8054286E+02  0.7818608E-02  0.1451607E+00
          2   -1    0    0  502    0  0.00000000000E+00  0.00000000000E+00  0.12944923154E+04  0.12944923154E+04  0.00000000000E+00 0. -1.
          1   -1    0    0  501    0 -0.00000000000E+00 -0.00000000000E+00 -0.32674517504E+03  0.32674517504E+03  0.00000000000E+00 0. -1.
         25    2    1    2    0    0 -0.52803249680E+02 -0.33225434485E+02  0.14438553448E+03  0.20090429479E+03  0.12499296151E+03 0.  0.
          2    1    1    2  501    0 -0.26417012868E+02  0.13433079809E+02 -0.29625964760E+03  0.29773828272E+03  0.00000000000E+00 0. -1.
          1    1    1    2  502    0  0.79220262548E+02  0.19792354675E+02  0.11196212535E+04  0.11225949129E+04  0.00000000000E+00 0. -1.
         22    1    3    3    0    0  0.39594374038E+02  0.45925435341E+01  0.41110254900E+02  0.57261321758E+02  0.00000000000E+00 0. -1.
         22    1    3    3    0    0 -0.92397623717E+02 -0.37817978019E+02  0.10327527958E+03  0.14364297303E+03  0.00000000000E+00 0. -1.
</event>
<event>
 7    1  0.5139898E-006  0.4525037E+02  0.7818608E-02  0.1540780E+00
          2   -1    0    0  502    0  0.00000000000E+00  0.00000000000E+00  0.42646120659E+03  0.42646120659E+03  0.00000000000E+00 0. -1.
          1   -1    0    0  501    0 -0.00000000000E+00 -0.00000000000E+00 -0.17193369439E+04  0.17193369439E+04  0.00000000000E+00 0. -1.
         25    2    1    2    0    0 -0.65131257539E+02 -0.17848966866E+01 -0.95051868123E+03  0.96091412298E+03  0.12499968721E+03 0.  0.
          2    1    1    2  501    0  0.41119678930E+02 -0.13523506562E+02 -0.76252478873E+03  0.76375242498E+03  0.00000000000E+00 0. -1.
          1    1    1    2  502    0  0.24011578608E+02  0.15308403248E+02  0.42016773264E+03  0.42113160255E+03  0.00000000000E+00 0. -1.
         22    1    3    3    0    0  0.26444349770E+02  0.28465201899E+02 -0.41197979340E+03  0.41380783164E+03  0.00000000000E+00 0. -1.
         22    1    3    3    0    0 -0.91575607309E+02 -0.30250098585E+02 -0.53853888783E+03  0.54710629134E+03  0.00000000000E+00 0. -1.
</event>
<event>
 7    1  0.5139898E-006  0.5876174E+02  0.7818608E-02  0.1420737E+00
          2   -1    0    0  502    0  0.00000000000E+00  0.00000000000E+00  0.35637231470E+03  0.35637231470E+03  0.00000000000E+00 0. -1.
          1   -1    0    0  501    0 -0.00000000000E+00 -0.00000000000E+00 -0.69954043546E+03  0.69954043546E+03  0.00000000000E+00 0. -1.
         25    2    1    2    0    0 -0.11242996298E+02 -0.38115375787E+01  0.10107044064E+03  0.16118693021E+03  0.12500023886E+03 0.  0.
          2    1    1    2  501    0  0.28067145908E+02  0.52197244965E+02 -0.66523505517E+03  0.66786974456E+03  0.00000000000E+00 0. -1.
          1    1    1    2  502    0 -0.16824149610E+02 -0.48385707387E+02  0.22099649377E+03  0.22685607541E+03  0.00000000000E+00 0. -1.
         22    1    3    3    0    0  0.50512041502E+01 -0.30346847809E+02 -0.19657172698E+02  0.36508222002E+02  0.00000000000E+00 0.  1.
         22    1    3    3    0    0 -0.16294200448E+02  0.26535310230E+02  0.12072761334E+03  0.12467870821E+03  0.00000000000E+00 0.  1.
</event>
<event>
 7    1  0.5139898E-006  0.1383757E+03  0.7818608E-02  0.1366668E+00
          2   -1    0    0  502    0  0.00000000000E+00  0.00000000000E+00  0.93014523773E+03  0.93014523773E+03  0.00000000000E+00 0. -1.
          1   -1    0    0  501    0 -0.00000000000E+00 -0.00000000000E+00 -0.72082180115E+02  0.72082180115E+02  0.00000000000E+00 0. -1.
         25    2    1    2    0    0 -0.38006378902E+02 -0.12780875855E+03  0.30712948592E+03  0.35739763487E+03  0.12499993878E+03 0.  0.
          2    1    1    2  501    0  0.70972885145E+02  0.12175956388E+03  0.60697737321E+02  0.15344952635E+03  0.00000000000E+00 0. -1.
          1    1    1    2  502    0 -0.32966506243E+02  0.60491946737E+01  0.49023583438E+03  0.49138025663E+03  0.00000000000E+00 0. -1.
         22    1    3    3    0    0 -0.59779084982E+00 -0.43581387115E+01 -0.12215868450E+02  0.12983765591E+02  0.00000000000E+00 0. -1.
         22    1    3    3    0    0 -0.37408588052E+02 -0.12345061984E+03  0.31934535437E+03  0.34441386928E+03  0.00000000000E+00 0. -1.
</event>
<event>
 7    1  0.5139898E-006  0.3016846E+02  0.7818608E-02  0.1619700E+00
          2   -1    0    0  502    0  0.00000000000E+00  0.00000000000E+00  0.22962568969E+03  0.22962568969E+03  0.00000000000E+00 0. -1.
          1   -1    0    0  501    0 -0.00000000000E+00 -0.00000000000E+00 -0.77116603507E+03  0.77116603507E+03  0.00000000000E+00 0. -1.
         25    2    1    2    0    0  0.55481202935E+02 -0.51996241785E-01  0.55552162495E+02  0.14761491069E+03  0.12500381002E+03 0.  0.
          2    1    1    2  501    0 -0.26233152100E+02  0.16986606270E+00 -0.72322346050E+03  0.72369909558E+03  0.00000000000E+00 0. -1.
          1    1    1    2  502    0 -0.29248050834E+02 -0.11786982092E+00  0.12613095263E+03  0.12947771848E+03  0.00000000000E+00 0. -1.
         22    1    3    3    0    0  0.45313776821E+01 -0.33627030978E+02 -0.28112092221E+02  0.44063594101E+02  0.00000000000E+00 0. -1.
         22    1    3    3    0    0  0.50949825253E+02  0.33575034736E+02  0.83664254716E+02  0.10355131659E+03  0.00000000000E+00 0. -1.
</event>
<event>
 7    1  0.5139898E-006  0.6227611E+02  0.7818608E-02  0.1481456E+00
          2   -1    0    0  502    0  0.00000000000E+00  0.00000000000E+00  0.34021347637E+04  0.34021347637E+04  0.00000000000E+00 0. -1.
          1   -1    0    0  501    0 -0.00000000000E+00 -0.00000000000E+00 -0.63026341944E+02  0.63026341944E+02  0.00000000000E+00 0. -1.
         25    2    1    2    0    0 -0.44055980972E+02  0.75162638639E+02  0.13174620670E+04  0.13262436422E+04  0.12500219480E+03 0.  0.
          2    1    1    2  501    0  0.17392564198E+02 -0.59509890887E+02 -0.42098260386E+02  0.74941256530E+02  0.00000000000E+00 0. -1.
          1    1    1    2  502    0  0.26663416774E+02 -0.15652747752E+02  0.20637446151E+04  0.20639762069E+04  0.00000000000E+00 0. -1.
         22    1    3    3    0    0 -0.50584382704E+02 -0.48818172926E+01  0.21768997768E+03  0.22354314638E+03  0.00000000000E+00 0. -1.
         22    1    3    3    0    0  0.65284017320E+01  0.80044455932E+02  0.10997720893E+04  0.11027004958E+04  0.00000000000E+00 0. -1.
</event>
<event>
 7    1  0.5139898E-006  0.4869085E+02  0.7818608E-02  0.1453506E+00
          2   -1    0    0  502    0  0.00000000000E+00  0.00000000000E+00  0.10477783615E+04  0.10477783615E+04  0.00000000000E+00 0. -1.
          1   -1    0    0  501    0 -0.00000000000E+00 -0.00000000000E+00 -0.13308367747E+04  0.13308367747E+04  0.00000000000E+00 0. -1.
         25    2    1    2    0    0 -0.44876537282E+01  0.27235760703E+02  0.21406395100E+03  0.24942463501E+03  0.12500939059E+03 0.  0.
          2    1    1    2  501    0  0.48295204114E+02 -0.67880519176E+01 -0.13119869386E+04  0.13128930769E+04  0.00000000000E+00 0. -1.
          1    1    1    2  502    0 -0.43807550386E+02 -0.20447708786E+02  0.81486457435E+03  0.81629742422E+03  0.00000000000E+00 0. -1.
         22    1    3    3    0    0 -0.54512858776E+02  0.46414000942E+02  0.95855846174E+02  0.11964219365E+03  0.00000000000E+00 0. -1.
         22    1    3    3    0    0  0.50025205048E+02 -0.19178240238E+02  0.11820810483E+03  0.12978244136E+03  0.00000000000E+00 0. -1.
</event>
<event>
 7    1  0.5139898E-006  0.7955785E+02  0.7818608E-02  0.1429001E+00
          2   -1    0    0  502    0  0.00000000000E+00  0.00000000000E+00  0.57036556671E+03  0.57036556671E+03  0.00000000000E+00 0. -1.
          1   -1    0    0  501    0 -0.00000000000E+00 -0.00000000000E+00 -0.70213772963E+03  0.70213772963E+03  0.00000000000E+00 0. -1.
         25    2    1    2    0    0 -0.32686717219E+02 -0.42863589606E+02 -0.12769908000E+03  0.18665632907E+03  0.12501128490E+03 0.  0.
          2    1    1    2  501    0  0.67989082883E+02  0.46813215842E+02 -0.54124411377E+03  0.54750267877E+03  0.00000000000E+00 0. -1.
          1    1    1    2  502    0 -0.35302365663E+02 -0.39496262355E+01  0.53717103086E+03  0.53834428850E+03  0.00000000000E+00 0. -1.
         22    1    3    3    0    0 -0.61160460569E+02  0.99756957328E+01 -0.10608926261E+03  0.12286190656E+03  0.00000000000E+00 0.  1.
         22    1    3    3    0    0  0.28473743349E+02 -0.52839285339E+02 -0.21609817391E+02  0.63794422508E+02  0.00000000000E+00 0.  1.
</event>
<event>
 7    1  0.5139898E-006  0.3562437E+02  0.7818608E-02  0.1544351E+00
          2   -1    0    0  502    0  0.00000000000E+00  0.00000000000E+00  0.60400385914E+02  0.60400385914E+02  0.00000000000E+00 0. -1.
          1   -1    0    0  501    0 -0.00000000000E+00 -0.00000000000E+00 -0.26375122358E+03  0.26375122358E+03  0.00000000000E+00 0. -1.
         25    2    1    2    0    0  0.42075064021E+02  0.12119085131E+02 -0.11562464337E+03  0.17581554636E+03  0.12499945980E+03 0.  0.
          2    1    1    2  501    0 -0.13507465001E+02 -0.33402602909E+02 -0.10333938962E+03  0.10944046298E+03  0.00000000000E+00 0. -1.
          1    1    1    2  502    0 -0.28567599020E+02  0.21283517778E+02  0.15613195321E+02  0.38895600148E+02  0.00000000000E+00 0. -1.
         22    1    3    3    0    0  0.57546811909E+02 -0.33375187054E+02 -0.10845261492E+03  0.12723013933E+03  0.00000000000E+00 0. -1.
         22    1    3    3    0    0 -0.15471747887E+02  0.45494272185E+02 -0.71720284558E+01  0.48585407032E+02  0.00000000000E+00 0. -1.
</event>
<event>
 7    1  0.5139898E-006  0.7266957E+02  0.7818608E-02  0.1406488E+00
          2   -1    0    0  502    0  0.00000000000E+00  0.00000000000E+00  0.26814820211E+03  0.26814820211E+03  0.00000000000E+00 0. -1.
          1   -1    0    0  501    0 -0.00000000000E+00 -0.00000000000E+00 -0.42617182262E+03  0.42617182262E+03  0.00000000000E+00 0. -1.
         25    2    1    2    0    0 -0.30884517766E+02  0.89572931351E+01  0.89323388054E+01  0.12937636047E+03  0.12499747771E+03 0.  0.
          2    1    1    2  501    0  0.74852678821E+02  0.54471100515E+01 -0.35932999970E+03  0.36708397298E+03  0.00000000000E+00 0. -1.
          1    1    1    2  502    0 -0.43968161056E+02 -0.14404403187E+02  0.19237404039E+03  0.19785969128E+03  0.00000000000E+00 0. -1.
         22    1    3    3    0    0 -0.35634385863E+01  0.24025749451E+02  0.62684152982E+02  0.67225276246E+02  0.00000000000E+00 0.  1.
         22    1    3    3    0    0 -0.27321079179E+02 -0.15068456315E+02 -0.53751814177E+02  0.62151084227E+02  0.00000000000E+00 0.  1.
</event>
<event>
 7    1  0.5139898E-006  0.7947823E+02  0.7818608E-02  0.1408993E+00
          2   -1    0    0  502    0  0.00000000000E+00  0.00000000000E+00  0.22472805179E+03  0.22472805179E+03  0.00000000000E+00 0. -1.
          1   -1    0    0  501    0 -0.00000000000E+00 -0.00000000000E+00 -0.85142530502E+03  0.85142530502E+03  0.00000000000E+00 0. -1.
         25    2    1    2    0    0  0.27241167422E+02  0.11557316760E+03 -0.48076541308E+03  0.51074403781E+03  0.12499940591E+03 0.  0.
          2    1    1    2  501    0 -0.11756896020E+00 -0.41482333133E+02 -0.34697102609E+03  0.34944197047E+03  0.00000000000E+00 0. -1.
          1    1    1    2  502    0 -0.27123598461E+02 -0.74090834462E+02  0.20103918594E+03  0.21596734852E+03  0.00000000000E+00 0. -1.
         22    1    3    3    0    0  0.28929752473E+02  0.28121134508E+02 -0.35653335195E+03  0.35880880680E+03  0.00000000000E+00 0. -1.
         22    1    3    3    0    0 -0.16885850515E+01  0.87452033088E+02 -0.12423206113E+03  0.15193523101E+03  0.00000000000E+00 0. -1.
</event>
<event>
 7    1  0.5139898E-006  0.8675579E+02  0.7818608E-02  0.1422825E+00
          2   -1    0    0  502    0  0.00000000000E+00  0.00000000000E+00  0.97111808061E+03  0.97111808061E+03  0.00000000000E+00 0. -1.
          1   -1    0    0  501    0 -0.00000000000E+00 -0.00000000000E+00 -0.40824947973E+02  0.40824947973E+02  0.00000000000E+00 0. -1.
         25    2    1    2    0    0  0.56689588295E+02  0.63328891742E+02  0.43687919359E+03  0.46229210654E+03  0.12500521600E+03 0.  0.
          2    1    1    2  501    0 -0.27306281146E+02  0.20501988954E+02 -0.12224721912E+02  0.36268558931E+02  0.00000000000E+00 0. -1.
          1    1    1    2  502    0 -0.29383307149E+02 -0.83830880696E+02  0.50563866095E+03  0.51338236310E+03  0.00000000000E+00 0. -1.
         22    1    3    3    0    0  0.42975392411E+02 -0.13489966833E+02  0.48656917801E+02  0.66305046625E+02  0.00000000000E+00 0.  1.
         22    1    3    3    0    0  0.13714195884E+02  0.76818858575E+02  0.38822227579E+03  0.39598705992E+03  0.00000000000E+00 0.  1.
</event>
<event>
 7    1  0.5139898E-006  0.7091328E+02  0.7818608E-02  0.1447961E+00
          2   -1    0    0  502    0  0.00000000000E+00  0.00000000000E+00  0.59529665012E+03  0.59529665012E+03  0.00000000000E+00 0. -1.
          1   -1    0    0  501    0 -0.00000000000E+00 -0.00000000000E+00 -0.39284250185E+03  0.39284250185E+03  0.00000000000E+00 0. -1.
         25    2    1    2    0    0 -0.35651019723E+02 -0.17450533154E+02  0.30129768026E+03  0.32861608572E+03  0.12503088958E+03 0.  0.
          2    1    1    2  501    0  0.53515205291E+02  0.47055713725E+02 -0.37474655403E+03  0.38146178989E+03  0.00000000000E+00 0. -1.
          1    1    1    2  502    0 -0.17864185568E+02 -0.29605180571E+02  0.27590302203E+03  0.27806127636E+03  0.00000000000E+00 0. -1.
         22    1    3    3    0    0  0.24916676467E+02 -0.21086534853E+02  0.24055516750E+03  0.24275969874E+03  0.00000000000E+00 0.  1.
         22    1    3    3    0    0 -0.60567696190E+02  0.36360016992E+01  0.60742512760E+02  0.85856386987E+02  0.00000000000E+00 0.  1.
</event>
<event>
 7    1  0.5139898E-006  0.5003829E+02  0.7818608E-02  0.1453399E+00
          2   -1    0    0  502    0  0.00000000000E+00  0.00000000000E+00  0.39151166042E+03  0.39151166042E+03  0.00000000000E+00 0. -1.
          1   -1    0    0  501    0 -0.00000000000E+00 -0.00000000000E+00 -0.32108852980E+03  0.32108852980E+03  0.00000000000E+00 0. -1.
         25    2    1    2    0    0  0.70681173551E+02 -0.28102794943E+01  0.68196236601E+02  0.15899829928E+03  0.12500402603E+03 0.  0.
          2    1    1    2  501    0 -0.38642427322E+02 -0.31686371754E+02 -0.27139591403E+03  0.27595834015E+03  0.00000000000E+00 0. -1.
          1    1    1    2  502    0 -0.32038746228E+02  0.34496651248E+02  0.27362280805E+03  0.27764355079E+03  0.00000000000E+00 0. -1.
         22    1    3    3    0    0 -0.26735467476E+02  0.29604050853E+02  0.28029654452E+02  0.48752913520E+02  0.00000000000E+00 0.  1.
         22    1    3    3    0    0  0.97416641026E+02 -0.32414330347E+02  0.40166582149E+02  0.11024538576E+03  0.00000000000E+00 0.  1.
</event>
<event>
 7    1  0.5139898E-006  0.6639715E+02  0.7818608E-02  0.1381806E+00
          2   -1    0    0  502    0  0.00000000000E+00  0.00000000000E+00  0.23646505844E+04  0.23646505844E+04  0.00000000000E+00 0. -1.
          1   -1    0    0  501    0 -0.00000000000E+00 -0.00000000000E+00 -0.12965950077E+03  0.12965950077E+03  0.00000000000E+00 0. -1.
         25    2    1    2    0    0 -0.25965483640E+02  0.84681079140E+01  0.21943011335E+03  0.25400595920E+03  0.12499414974E+03 0.  0.
          2    1    1    2  501    0  0.17515768402E+02  0.59133118951E+02 -0.10332073240E+03  0.12032747668E+03  0.00000000000E+00 0. -1.
          1    1    1    2  502    0  0.84497152381E+01 -0.67601226865E+02  0.21188817027E+04  0.21199766493E+04  0.00000000000E+00 0. -1.
         22    1    3    3    0    0  0.87017266599E+01 -0.20651092877E+02  0.20538414406E+03  0.20660308399E+03  0.00000000000E+00 0.  1.
         22    1    3    3    0    0 -0.34667210300E+02  0.29119200791E+02  0.14045969298E+02  0.47402875211E+02  0.00000000000E+00 0.  1.
</event>
<event>
 7    1  0.5139898E-006  0.5254987E+02  0.7818608E-02  0.1550793E+00
          2   -1    0    0  502    0  0.00000000000E+00  0.00000000000E+00  0.20548348727E+04  0.20548348727E+04  0.00000000000E+00 0. -1.
          1   -1    0    0  501    0 -0.00000000000E+00 -0.00000000000E+00 -0.34035618564E+02  0.34035618564E+02  0.00000000000E+00 0. -1.
         25    2    1    2    0    0 -0.95285035173E+01  0.71399474082E+02  0.79914940876E+03  0.81206759019E+03  0.12500126492E+03 0.  0.
          2    1    1    2  501    0  0.10633395545E+02 -0.20377610184E+02 -0.22171086668E+02  0.31935453366E+02  0.00000000000E+00 0. -1.
          1    1    1    2  502    0 -0.11048920281E+01 -0.51021863898E+02  0.12438209321E+04  0.12448674478E+04  0.00000000000E+00 0. -1.
         22    1    3    3    0    0 -0.52154947941E+02  0.17335325776E+02  0.15908840859E+03  0.16831450877E+03  0.00000000000E+00 0.  1.
         22    1    3    3    0    0  0.42626444424E+02  0.54064148306E+02  0.64006100017E+03  0.64375308142E+03  0.00000000000E+00 0.  1.
</event>
<event>
 7    1  0.5139898E-006  0.1063397E+03  0.7818608E-02  0.1428522E+00
          2   -1    0    0  502    0  0.00000000000E+00  0.00000000000E+00  0.36489666166E+02  0.36489666166E+02  0.00000000000E+00 0. -1.
          1   -1    0    0  501    0 -0.00000000000E+00 -0.00000000000E+00 -0.11868798151E+04  0.11868798151E+04  0.00000000000E+00 0. -1.
         25    2    1    2    0    0 -0.11552696026E+03 -0.54736366456E+02 -0.44940633778E+03  0.48366734649E+03  0.12500198905E+03 0.  0.
          2    1    1    2  501    0  0.89686207067E+02  0.48125250148E+02 -0.70536589292E+03  0.71267152205E+03  0.00000000000E+00 0. -1.
          1    1    1    2  502    0  0.25840753195E+02  0.66111163078E+01  0.43820817546E+01  0.27030612738E+02  0.00000000000E+00 0. -1.
         22    1    3    3    0    0 -0.73874026752E+02  0.27275517644E+02 -0.28043349457E+03  0.29128039853E+03  0.00000000000E+00 0. -1.
         22    1    3    3    0    0 -0.41652933510E+02 -0.82011884100E+02 -0.16897284321E+03  0.19238694796E+03  0.00000000000E+00 0. -1.
</event>
<event>
 7    1  0.5139898E-006  0.1179620E+03  0.7818608E-02  0.1350273E+00
          2   -1    0    0  502    0  0.00000000000E+00  0.00000000000E+00  0.18217895186E+04  0.18217895186E+04  0.00000000000E+00 0. -1.
          1   -1    0    0  501    0 -0.00000000000E+00 -0.00000000000E+00 -0.14181460949E+03  0.14181460949E+03  0.00000000000E+00 0. -1.
         25    2    1    2    0    0  0.89792905926E+02 -0.80052717191E+02  0.24367800077E+03  0.29912439262E+03  0.12500092287E+03 0.  0.
          2    1    1    2  501    0 -0.36951684110E+02 -0.25925678986E+02 -0.10726811956E+03  0.11637876637E+03  0.00000000000E+00 0. -1.
          1    1    1    2  502    0 -0.52841221816E+02  0.10597839618E+03  0.15435650279E+04  0.15481009691E+04  0.00000000000E+00 0. -1.
         22    1    3    3    0    0  0.57768094861E+02 -0.31062640940E+02  0.22979403122E+03  0.23897141509E+03  0.00000000000E+00 0.  1.
         22    1    3    3    0    0  0.32024811064E+02 -0.48990076251E+02  0.13883969544E+02  0.60152977525E+02  0.00000000000E+00 0.  1.
</event>
<event>
 7    1  0.5139898E-006  0.1268044E+03  0.7818608E-02  0.1299655E+00
          2   -1    0    0  502    0  0.00000000000E+00  0.00000000000E+00  0.30735383419E+04  0.30735383419E+04  0.00000000000E+00 0. -1.
          1   -1    0    0  501    0 -0.00000000000E+00 -0.00000000000E+00 -0.89187464743E+02  0.89187464743E+02  0.00000000000E+00 0. -1.
         25    2    1    2    0    0 -0.10114976204E+03  0.49623229972E+02  0.32423083471E+03  0.36530449550E+03  0.12501200320E+03 0.  0.
          2    1    1    2  501    0  0.73609163317E+02 -0.10936543163E+03 -0.45799919045E+01  0.13190937376E+03  0.00000000000E+00 0. -1.
          1    1    1    2  502    0  0.27540598725E+02  0.59742201661E+02  0.26647000344E+04  0.26655119374E+04  0.00000000000E+00 0. -1.
         22    1    3    3    0    0  0.29188553185E+02  0.14553789180E+02  0.50703897488E+02  0.60288221379E+02  0.00000000000E+00 0. -1.
         22    1    3    3    0    0 -0.13033831523E+03  0.35069440792E+02  0.27352693722E+03  0.30501627412E+03  0.00000000000E+00 0. -1.
</event>
<event>
 7    1  0.5139898E-006  0.2366598E+03  0.7818608E-02  0.1285024E+00
          2   -1    0    0  502    0  0.00000000000E+00  0.00000000000E+00  0.14895997571E+04  0.14895997571E+04  0.00000000000E+00 0. -1.
          1   -1    0    0  501    0 -0.00000000000E+00 -0.00000000000E+00 -0.40264496562E+03  0.40264496562E+03  0.00000000000E+00 0. -1.
         25    2    1    2    0    0  0.79377829879E+01  0.27117183246E+03  0.80513411863E+03  0.85875707499E+03  0.12500237492E+03 0.  0.
          2    1    1    2  501    0  0.99517267085E+01 -0.23494472700E+03 -0.33832803068E+03  0.41202417156E+03  0.00000000000E+00 0. -1.
          1    1    1    2  502    0 -0.17889509696E+02 -0.36227105461E+02  0.62014870355E+03  0.62146347619E+03  0.00000000000E+00 0. -1.
         22    1    3    3    0    0  0.20321704661E+02  0.24280365289E+03  0.54747999335E+03  0.59925030551E+03  0.00000000000E+00 0. -1.
         22    1    3    3    0    0 -0.12383921673E+02  0.28368179566E+02  0.25765412528E+03  0.25950676947E+03  0.00000000000E+00 0. -1.
</event>
<event>
 7    1  0.5139898E-006  0.5372383E+02  0.7818608E-02  0.1495822E+00
          2   -1    0    0  502    0  0.00000000000E+00  0.00000000000E+00  0.10067808386E+04  0.10067808386E+04  0.00000000000E+00 0. -1.
          1   -1    0    0  501    0 -0.00000000000E+00 -0.00000000000E+00 -0.29956150039E+04  0.29956150039E+04  0.00000000000E+00 0. -1.
         25    2    1    2    0    0  0.84748059548E+02  0.98265302631E+01  0.13128474343E+03  0.20034718011E+03  0.12499805769E+03 0.  0.
          2    1    1    2  501    0 -0.53675068281E+02 -0.57581610152E+00 -0.29605279314E+04  0.29610145182E+04  0.00000000000E+00 0. -1.
          1    1    1    2  502    0 -0.31072991267E+02 -0.92507141616E+01  0.84040902262E+03  0.84103414426E+03  0.00000000000E+00 0. -1.
         22    1    3    3    0    0  0.10308203807E+03 -0.11670818083E+02  0.51727142871E+02  0.11592157641E+03  0.00000000000E+00 0. -1.
         22    1    3    3    0    0 -0.18333978520E+02  0.21497348346E+02  0.79557600555E+02  0.84425603701E+02  0.00000000000E+00 0. -1.
</event>
<event>
 7    1  0.5139898E-006  0.6861664E+02  0.7818608E-02  0.1508843E+00
          2   -1    0    0  502    0  0.00000000000E+00  0.00000000000E+00  0.75299061636E+03  0.75299061636E+03  0.00000000000E+00 0. -1.
          1   -1    0    0  501    0 -0.00000000000E+00 -0.00000000000E+00 -0.63708072669E+03  0.63708072669E+03  0.00000000000E+00 0. -1.
         25    2    1    2    0    0 -0.67897707784E+01  0.88398829848E+02 -0.79040493968E+02  0.17243559839E+03  0.12500472712E+03 0.  0.
          2    1    1    2  501    0  0.13803771048E+02 -0.66265523541E+02 -0.50891040510E+03  0.51339211538E+03  0.00000000000E+00 0. -1.
          1    1    1    2  502    0 -0.70140002698E+01 -0.22133306306E+02  0.70386078875E+03  0.70424362928E+03  0.00000000000E+00 0. -1.
         22    1    3    3    0    0 -0.17987625593E+02  0.10681934246E+03 -0.96207142662E+02  0.14487836587E+03  0.00000000000E+00 0.  1.
         22    1    3    3    0    0  0.11197854815E+02 -0.18420512607E+02  0.17166648694E+02  0.27557232527E+02  0.00000000000E+00 0.  1.
</event>
<event>
 7    1  0.5139898E-006  0.5808647E+02  0.7818608E-02  0.1464683E+00
          2   -1    0    0  502    0  0.00000000000E+00  0.00000000000E+00  0.56221148926E+03  0.56221148926E+03  0.00000000000E+00 0. -1.
          1   -1    0    0  501    0 -0.00000000000E+00 -0.00000000000E+00 -0.52941594749E+03  0.52941594749E+03  0.00000000000E+00 0. -1.
         25    2    1    2    0    0  0.68295402572E+02 -0.30863769915E+02 -0.13196883152E+02  0.14634647936E+03  0.12500519985E+03 0.  0.
          2    1    1    2  501    0 -0.33885887891E+02 -0.15734595683E+02 -0.44717010912E+03  0.44872813305E+03  0.00000000000E+00 0. -1.
          1    1    1    2  502    0 -0.34409514681E+02  0.46598365599E+02  0.49316253405E+03  0.49655282434E+03  0.00000000000E+00 0. -1.
         22    1    3    3    0    0 -0.22559650746E+02  0.83989396497E+01  0.29907502342E+02  0.38391909634E+02  0.00000000000E+00 0. -1.
         22    1    3    3    0    0  0.90855053318E+02 -0.39262709565E+02 -0.43104385494E+02  0.10795456973E+03  0.00000000000E+00 0. -1.
</event>
<event>
 7    1  0.1028614E-005  0.8258943E+02  0.7818608E-02  0.1414110E+00
          2   -1    0    0  502    0  0.00000000000E+00  0.00000000000E+00  0.22391623176E+04  0.22391623176E+04  0.00000000000E+00 0. -1.
          1   -1    0    0  501    0 -0.00000000000E+00 -0.00000000000E+00 -0.79400485086E+03  0.79400485086E+03  0.00000000000E+00 0. -1.
         25    2    1    2    0    0  0.35451591640E+02 -0.98071162195E+02 -0.86960360989E+02  0.18455673433E+03  0.12499726237E+03 0.  0.
          2    1    1    2  501    0 -0.35057772966E+02  0.15572486560E+02 -0.65690972115E+03  0.65802882271E+03  0.00000000000E+00 0. -1.
          1    1    1    2  502    0 -0.39381867316E+00  0.82498675635E+02  0.21890275489E+04  0.21905816115E+04  0.00000000000E+00 0. -1.
         22    1    3    3    0    0 -0.20266222009E+02 -0.10127522708E+03 -0.74566076088E+02  0.12738716999E+03  0.00000000000E+00 0.  1.
         22    1    3    3    0    0  0.55717813648E+02  0.32040648823E+01 -0.12394284901E+02  0.57169564348E+02  0.00000000000E+00 0.  1.
</event>
<event>
 7    1  0.5139898E-006  0.6531236E+02  0.7818608E-02  0.1407216E+00
          2   -1    0    0  502    0  0.00000000000E+00  0.00000000000E+00  0.27894244254E+03  0.27894244254E+03  0.00000000000E+00 0. -1.
          1   -1    0    0  501    0 -0.00000000000E+00 -0.00000000000E+00 -0.49439014614E+03  0.49439014614E+03  0.00000000000E+00 0. -1.
         25    2    1    2    0    0  0.50369482667E+02  0.81360336780E+02 -0.37810964008E+02  0.16189920058E+03  0.12500037186E+03 0.  0.
          2    1    1    2  501    0 -0.56820169196E+02 -0.30581688062E+02 -0.38881862923E+03  0.39413664852E+03  0.00000000000E+00 0. -1.
          1    1    1    2  502    0  0.64506865284E+01 -0.50778648718E+02  0.21118188963E+03  0.21729673958E+03  0.00000000000E+00 0. -1.
         22    1    3    3    0    0  0.36888183326E+02  0.63162531103E+02 -0.83438358868E+02  0.11096036741E+03  0.00000000000E+00 0.  1.
         22    1    3    3    0    0  0.13481299341E+02  0.18197805677E+02  0.45627394860E+02  0.50938833174E+02  0.00000000000E+00 0.  1.
</event>
<event>
 7    1  0.5139898E-006  0.6499593E+02  0.7818608E-02  0.1410340E+00
          2   -1    0    0  502    0  0.00000000000E+00  0.00000000000E+00  0.29433543276E+03  0.29433543276E+03  0.00000000000E+00 0. -1.
          1   -1    0    0  501    0 -0.00000000000E+00 -0.00000000000E+00 -0.54111597365E+03  0.54111597365E+03  0.00000000000E+00 0. -1.
         25    2    1    2    0    0  0.14127263479E+02  0.36969463991E+02  0.47526408530E+01  0.13120191236E+03  0.12500013348E+03 0.  0.
          2    1    1    2  501    0 -0.62277833556E+02 -0.22790217115E+02 -0.47276560783E+03  0.47739422126E+03  0.00000000000E+00 0. -1.
          1    1    1    2  502    0  0.48150570077E+02 -0.14179246876E+02  0.22123242609E+03  0.22685527279E+03  0.00000000000E+00 0. -1.
         22    1    3    3    0    0  0.40313484103E+02  0.22293932095E+02 -0.50479117310E+02  0.68339868987E+02  0.00000000000E+00 0.  1.
         22    1    3    3    0    0 -0.26186220624E+02  0.14675531896E+02  0.55231758163E+02  0.62862043371E+02  0.00000000000E+00 0.  1.
</event>
<event>
 7    1  0.5139898E-006  0.1803663E+03  0.7818608E-02  0.1212704E+00
          2   -1    0    0  502    0  0.00000000000E+00  0.00000000000E+00  0.23670418213E+03  0.23670418213E+03  0.00000000000E+00 0. -1.
          1   -1    0    0  501    0 -0.00000000000E+00 -0.00000000000E+00 -0.79050300647E+03  0.79050300647E+03  0.00000000000E+00 0. -1.
         25    2    1    2    0    0  0.22717102647E+03 -0.33254585262E+02 -0.59159723722E+03  0.64678161331E+03  0.12500648591E+03 0.  0.
          2    1    1    2  501    0 -0.12033668776E+03  0.56768762783E+02 -0.12613828381E+03  0.18334251414E+03  0.00000000000E+00 0. -1.
          1    1    1    2  502    0 -0.10683433870E+03 -0.23514177521E+02  0.16393669669E+03  0.19708306115E+03  0.00000000000E+00 0. -1.
         22    1    3    3    0    0  0.56678001469E+02 -0.19419137561E+02 -0.47583076800E+02  0.76509136395E+02  0.00000000000E+00 0. -1.
         22    1    3    3    0    0  0.17049302500E+03 -0.13835447701E+02 -0.54401416042E+03  0.57027247692E+03  0.00000000000E+00 0. -1.
</event>
<event>
 7    1  0.5139898E-006  0.6758663E+02  0.7818608E-02  0.1383158E+00
          2   -1    0    0  502    0  0.00000000000E+00  0.00000000000E+00  0.35924082754E+03  0.35924082754E+03  0.00000000000E+00 0. -1.
          1   -1    0    0  501    0 -0.00000000000E+00 -0.00000000000E+00 -0.30247023452E+03  0.30247023452E+03  0.00000000000E+00 0. -1.
         25    2    1    2    0    0 -0.15443024601E+02  0.82719007549E+01 -0.27224761291E+02  0.12912312177E+03  0.12499872638E+03 0.  0.
          2    1    1    2  501    0  0.73786453396E+02  0.54061842578E+01 -0.21514179446E+03  0.22750749275E+03  0.00000000000E+00 0. -1.
          1    1    1    2  502    0 -0.58343428795E+02 -0.13678085013E+02  0.29913714877E+03  0.30508044754E+03  0.00000000000E+00 0. -1.
         22    1    3    3    0    0 -0.40530379017E+01 -0.40151093553E+02  0.32198993006E+02  0.51626665400E+02  0.00000000000E+00 0. -1.
         22    1    3    3    0    0 -0.11389986699E+02  0.48422994307E+02 -0.59423754297E+02  0.77496456367E+02  0.00000000000E+00 0. -1.
</event>
<event>
 7    1  0.5139898E-006  0.1549799E+03  0.7818608E-02  0.1299969E+00
          2   -1    0    0  502    0  0.00000000000E+00  0.00000000000E+00  0.11692013748E+04  0.11692013748E+04  0.00000000000E+00 0. -1.
          1   -1    0    0  501    0 -0.00000000000E+00 -0.00000000000E+00 -0.19113560496E+03  0.19113560496E+03  0.00000000000E+00 0. -1.
         25    2    1    2    0    0  0.13382033038E+03 -0.11193460393E+03 -0.17149671031E+02  0.21530555009E+03  0.12500052921E+03 0.  0.
          2    1    1    2  501    0 -0.80634260950E+02  0.11912021597E+03 -0.44617474872E+01  0.14391461734E+03  0.00000000000E+00 0. -1.
          1    1    1    2  502    0 -0.53186069426E+02 -0.71856120436E+01  0.99967718835E+03  0.10011168123E+04  0.00000000000E+00 0. -1.
         22    1    3    3    0    0  0.54409357388E+02 -0.76732907285E+02  0.49055449065E+02  0.10608842687E+03  0.00000000000E+00 0.  1.
         22    1    3    3    0    0  0.79410972988E+02 -0.35201696645E+02 -0.66205120096E+02  0.10921712322E+03  0.00000000000E+00 0.  1.
</event>
<event>
 7    1  0.5139898E-006  0.3518334E+02  0.7818608E-02  0.1552431E+00
          2   -1    0    0  502    0  0.00000000000E+00  0.00000000000E+00  0.23282384344E+04  0.23282384344E+04  0.00000000000E+00 0. -1.
          1   -1    0    0  501    0 -0.00000000000E+00 -0.00000000000E+00 -0.27952382045E+02  0.27952382045E+02  0.00000000000E+00 0. -1.
         25    2    1    2    0    0 -0.12470800821E+02 -0.61328178724E+01  0.26629638960E+03  0.29450257127E+03  0.12499946017E+03 0.  0.
          2    1    1    2  501    0  0.33570932895E+00  0.37863464055E+02  0.12444273947E+02  0.39857427979E+02  0.00000000000E+00 0. -1.
          1    1    1    2  502    0  0.12135091492E+02 -0.31730646183E+02  0.20215453888E+04  0.20218308172E+04  0.00000000000E+00 0. -1.
         22    1    3    3    0    0  0.26163440428E+02  0.30275937173E+01  0.11112951212E+01  0.26361466492E+02  0.00000000000E+00 0.  1.
         22    1    3    3    0    0 -0.38634241249E+02 -0.91604115896E+01  0.26518509448E+03  0.26814110478E+03  0.00000000000E+00 0.  1.
</event>
<event>
 7    1  0.5139898E-006  0.6812009E+02  0.7818608E-02  0.1449831E+00
          2   -1    0    0  502    0  0.00000000000E+00  0.00000000000E+00  0.47467383040E+03  0.47467383040E+03  0.00000000000E+00 0. -1.
          1   -1    0    0  501    0 -0.00000000000E+00 -0.00000000000E+00 -0.13620002540E+04  0.13620002540E+04  0.00000000000E+00 0. -1.
         25    2    1    2    0    0 -0.47572384232E+02 -0.88707664255E+02 -0.16830356683E+03  0.23255795856E+03  0.12499972817E+03 0.  0.
          2    1    1    2  501    0  0.22964053704E+02  0.63118297135E+02 -0.11598843785E+04  0.11618274565E+04  0.00000000000E+00 0. -1.
          1    1    1    2  502    0  0.24608330529E+02  0.25589367119E+02  0.44086152175E+03  0.44228866931E+03  0.00000000000E+00 0. -1.
         22    1    3    3    0    0 -0.50969851967E+02 -0.80981786974E+01 -0.68420683425E+01  0.52060735751E+02  0.00000000000E+00 0. -1.
         22    1    3    3    0    0  0.33974677347E+01 -0.80609485557E+02 -0.16146149848E+03  0.18049722281E+03  0.00000000000E+00 0. -1.
</event>
<event>
 7    1  0.5139898E-006  0.7012474E+02  0.7818608E-02  0.1387487E+00
          2   -1    0    0  502    0  0.00000000000E+00  0.00000000000E+00  0.12712104354E+04  0.12712104354E+04  0.00000000000E+00 0. -1.
          1   -1    0    0  501    0 -0.00000000000E+00 -0.00000000000E+00 -0.54794309531E+03  0.54794309531E+03  0.00000000000E+00 0. -1.
         25    2    1    2    0    0  0.18225955967E+02 -0.11030164996E+03 -0.39080009684E+03  0.42526292454E+03  0.12500079936E+03 0.  0.
          2    1    1    2  501    0 -0.47105437638E+01  0.56195598708E+02 -0.13358088536E+03  0.14499650848E+03  0.00000000000E+00 0. -1.
          1    1    1    2  502    0 -0.13515412203E+02  0.54106051255E+02  0.12476483223E+04  0.12488940977E+04  0.00000000000E+00 0. -1.
         22    1    3    3    0    0 -0.16748531799E+02 -0.12656403925E+03 -0.27455770620E+03  0.30278854566E+03  0.00000000000E+00 0.  1.
         22    1    3    3    0    0  0.34974487766E+02  0.16262389287E+02 -0.11624239064E+03  0.12247437888E+03  0.00000000000E+00 0.  1.
</event>
<event>
 7    1  0.5139898E-006  0.4043508E+02  0.7818608E-02  0.1556306E+00
          2   -1    0    0  502    0  0.00000000000E+00  0.00000000000E+00  0.38815162317E+03  0.38815162317E+03  0.00000000000E+00 0. -1.
          1   -1    0    0  501    0 -0.00000000000E+00 -0.00000000000E+00 -0.58773396908E+03  0.58773396908E+03  0.00000000000E+00 0. -1.
         25    2    1    2    0    0  0.99505321542E+01  0.76127308040E+01  0.10249288192E+03  0.16212740261E+03  0.12499414816E+03 0.  0.
          2    1    1    2  501    0 -0.23679073637E+02 -0.32972404760E+02 -0.55636226739E+03  0.55784124138E+03  0.00000000000E+00 0. -1.
          1    1    1    2  502    0  0.13728541483E+02  0.25359673956E+02  0.25428703957E+03  0.25591694826E+03  0.00000000000E+00 0. -1.
         22    1    3    3    0    0  0.14991188446E+02 -0.52552454797E+02  0.81658334935E+02  0.98257721837E+02  0.00000000000E+00 0.  1.
         22    1    3    3    0    0 -0.50406562919E+01  0.60165185601E+02  0.20834546982E+02  0.63869680774E+02  0.00000000000E+00 0.  1.
</event>
<event>
 7    1  0.5139898E-006  0.2342131E+03  0.7818608E-02  0.1229110E+00
          2   -1    0    0  502    0  0.00000000000E+00  0.00000000000E+00  0.82140518490E+03  0.82140518490E+03  0.00000000000E+00 0. -1.
          1   -1    0    0  501    0 -0.00000000000E+00 -0.00000000000E+00 -0.24895767055E+04  0.24895767055E+04  0.00000000000E+00 0. -1.
         25    2    1    2    0    0 -0.33814316380E+02 -0.16895586131E+03 -0.11362322361E+03  0.24130058389E+03  0.12500497501E+03 0.  0.
          2    1    1    2  501    0  0.73219392899E+01 -0.70551846760E+02 -0.22923904217E+04  0.22934875232E+04  0.00000000000E+00 0. -1.
          1    1    1    2  502    0  0.26492377090E+02  0.23950770807E+03  0.73784212466E+03  0.77619378328E+03  0.00000000000E+00 0. -1.
         22    1    3    3    0    0 -0.17852273370E+02 -0.18741959982E+03 -0.10384003458E+03  0.21500596002E+03  0.00000000000E+00 0. -1.
         22    1    3    3    0    0 -0.15962043010E+02  0.18463738510E+02 -0.97831890221E+01  0.26294623866E+02  0.00000000000E+00 0. -1.
</event>
<event>
 7    1  0.5139898E-006  0.6924250E+02  0.7818608E-02  0.1366961E+00
          2   -1    0    0  502    0  0.00000000000E+00  0.00000000000E+00  0.10111997118E+04  0.10111997118E+04  0.00000000000E+00 0. -1.
          1   -1    0    0  501    0 -0.00000000000E+00 -0.00000000000E+00 -0.35980023791E+02  0.35980023791E+02  0.00000000000E+00 0. -1.
         25    2    1    2    0    0 -0.28517654791E+02 -0.72566308060E+02  0.60053942055E+03  0.61834605016E+03  0.12500046567E+03 0.  0.
          2    1    1    2  501    0 -0.41536172589E+02  0.55400999362E+02  0.27932979805E+02  0.74664420740E+02  0.00000000000E+00 0. -1.
          1    1    1    2  502    0  0.70053827381E+02  0.17165308699E+02  0.34674728765E+03  0.35416926469E+03  0.00000000000E+00 0. -1.
         22    1    3    3    0    0 -0.45497710157E+02 -0.98230484224E+02  0.36230862694E+03  0.37813596869E+03  0.00000000000E+00 0. -1.
         22    1    3    3    0    0  0.16980055366E+02  0.25664176164E+02  0.23823079361E+03  0.24021008147E+03  0.00000000000E+00 0. -1.
</event>
<event>
 7    1  0.5139898E-006  0.3939590E+02  0.7818608E-02  0.1595011E+00
          2   -1    0    0  502    0  0.00000000000E+00  0.00000000000E+00  0.90790061344E+02  0.90790061344E+02  0.00000000000E+00 0. -1.
          1   -1    0    0  501    0 -0.00000000000E+00 -0.00000000000E+00 -0.44498624362E+03  0.44498624362E+03  0.00000000000E+00 0. -1.
         25    2    1    2    0    0 -0.49314518235E+02  0.12085356538E+02 -0.88589079188E+02  0.16140529805E+03  0.12500267091E+03 0.  0.
          2    1    1    2  501    0  0.38272388588E+02  0.84023788593E+01 -0.31623310504E+03  0.31865145915E+03  0.00000000000E+00 0. -1.
          1    1    1    2  502    0  0.11042129648E+02 -0.20487735397E+02  0.50626001954E+02  0.55719547761E+02  0.00000000000E+00 0. -1.
         22    1    3    3    0    0 -0.51664176214E+02  0.63631032911E+02 -0.65290088077E+02  0.10478974690E+03  0.00000000000E+00 0. -1.
         22    1    3    3    0    0  0.23496579783E+01 -0.51545676373E+02 -0.23298991111E+02  0.56615551152E+02  0.00000000000E+00 0. -1.
</event>
<event>
 7    1  0.5139898E-006  0.6788045E+02  0.7818608E-02  0.1438877E+00
          2   -1    0    0  502    0  0.00000000000E+00  0.00000000000E+00  0.14647610164E+03  0.14647610164E+03  0.00000000000E+00 0. -1.
          1   -1    0    0  501    0 -0.00000000000E+00 -0.00000000000E+00 -0.13002139236E+04  0.13002139236E+04  0.00000000000E+00 0. -1.
         25    2    1    2    0    0 -0.57094924594E+02  0.35101444778E+02 -0.25163273666E+02  0.14405969905E+03  0.12501225823E+03 0.  0.
          2    1    1    2  501    0  0.27029029592E+02  0.27622219788E+02 -0.12013434420E+04  0.12019649001E+04  0.00000000000E+00 0. -1.
          1    1    1    2  502    0  0.30065895002E+02 -0.62723664566E+02  0.72768893637E+02  0.10066542614E+03  0.00000000000E+00 0. -1.
         22    1    3    3    0    0 -0.60870984392E+02 -0.32726561679E+02  0.58985638424E+01  0.69362076350E+02  0.00000000000E+00 0.  1.
         22    1    3    3    0    0  0.37760597978E+01  0.67828006457E+02 -0.31061837509E+02  0.74697622700E+02  0.00000000000E+00 0.  1.
</event>
<event>
 7    1  0.5139898E-006  0.4776256E+03  0.7818608E-02  0.1193844E+00
          2   -1    0    0  502    0  0.00000000000E+00  0.00000000000E+00  0.31926078476E+04  0.31926078476E+04  0.00000000000E+00 0. -1.
          1   -1    0    0  501    0 -0.00000000000E+00 -0.00000000000E+00 -0.12084620063E+04  0.12084620063E+04  0.00000000000E+00 0. -1.
         25    2    1    2    0    0 -0.41429177095E+03 -0.27320775497E+03  0.57954760528E+03  0.77316256152E+03  0.12499908361E+03 0.  0.
          2    1    1    2  501    0  0.42095641227E+03  0.22300604411E+03 -0.10603468634E+04  0.11624420276E+04  0.00000000000E+00 0. -1.
          1    1    1    2  502    0 -0.66646413203E+01  0.50201710853E+02  0.24649450994E+04  0.24654652648E+04  0.00000000000E+00 0. -1.
         22    1    3    3    0    0 -0.30544229301E+03 -0.16362568050E+03  0.32298921844E+03  0.47369863089E+03  0.00000000000E+00 0. -1.
         22    1    3    3    0    0 -0.10884947794E+03 -0.10958207447E+03  0.25655838683E+03  0.29946393063E+03  0.00000000000E+00 0. -1.
</event>
<event>
 7    1  0.5139898E-006  0.8073925E+02  0.7818608E-02  0.1446758E+00
          2   -1    0    0  502    0  0.00000000000E+00  0.00000000000E+00  0.27835192237E+04  0.27835192237E+04  0.00000000000E+00 0. -1.
          1   -1    0    0  501    0 -0.00000000000E+00 -0.00000000000E+00 -0.77194497042E+03  0.77194497042E+03  0.00000000000E+00 0. -1.
         25    2    1    2    0    0 -0.10402876380E+03  0.22540070951E+02  0.44257747174E+03  0.47204365125E+03  0.12498140544E+03 0.  0.
          2    1    1    2  501    0  0.29929152589E+02  0.65650100540E+01 -0.75622040411E+03  0.75684090344E+03  0.00000000000E+00 0. -1.
          1    1    1    2  502    0  0.74099611206E+02 -0.29105081005E+02  0.23252171857E+04  0.23265796395E+04  0.00000000000E+00 0. -1.
         22    1    3    3    0    0  0.35508832570E+01  0.45271487604E+02  0.20904796019E+03  0.21392327134E+03  0.00000000000E+00 0. -1.
         22    1    3    3    0    0 -0.10757964705E+03 -0.22731416652E+02  0.23352951155E+03  0.25812037992E+03  0.00000000000E+00 0. -1.
</event>
<event>
 7    1  0.5139898E-006  0.5911212E+02  0.7818608E-02  0.1457958E+00
          2   -1    0    0  502    0  0.00000000000E+00  0.00000000000E+00  0.40730041393E+03  0.40730041393E+03  0.00000000000E+00 0. -1.
          1   -1    0    0  501    0 -0.00000000000E+00 -0.00000000000E+00 -0.48270218375E+03  0.48270218375E+03  0.00000000000E+00 0. -1.
         25    2    1    2    0    0  0.43185142997E+02  0.19653819266E+02  0.83609185587E+01  0.13396478202E+03  0.12500171469E+03 0.  0.
          2    1    1    2  501    0  0.14724340318E+02 -0.35624018737E+02 -0.41631891917E+03  0.41809965243E+03  0.00000000000E+00 0. -1.
          1    1    1    2  502    0 -0.57909483314E+02  0.15970199471E+02  0.33255623079E+03  0.33793816323E+03  0.00000000000E+00 0. -1.
         22    1    3    3    0    0 -0.91163482283E+01  0.69059378623E+01 -0.51908894010E+02  0.53153862138E+02  0.00000000000E+00 0.  1.
         22    1    3    3    0    0  0.52301491225E+02  0.12747881404E+02  0.60269812569E+02  0.80810919879E+02  0.00000000000E+00 0.  1.
</event>
<event>
 7    1  0.5139898E-006  0.3398975E+02  0.7818608E-02  0.1603957E+00
          2   -1    0    0  502    0  0.00000000000E+00  0.00000000000E+00  0.62145095896E+02  0.62145095896E+02  0.00000000000E+00 0. -1.
          1   -1    0    0  501    0 -0.00000000000E+00 -0.00000000000E+00 -0.99188182816E+03  0.99188182816E+03  0.00000000000E+00 0. -1.
         25    2    1    2    0    0 -0.42001393564E+02  0.41011365254E+02 -0.22093671047E+03  0.26054291633E+03  0.12499412817E+03 0.  0.
          2    1    1    2  501    0  0.16646596936E+02 -0.19397638865E+02 -0.74433460587E+03  0.74477337699E+03  0.00000000000E+00 0. -1.
          1    1    1    2  502    0  0.25354796628E+02 -0.21613726389E+02  0.35534584076E+02  0.48710630728E+02  0.00000000000E+00 0. -1.
         22    1    3    3    0    0 -0.79991691319E+02  0.52222964355E+02 -0.12974438724E+03  0.16111956649E+03  0.00000000000E+00 0.  1.
         22    1    3    3    0    0  0.37990297755E+02 -0.11211599101E+02 -0.91192323228E+02  0.99423349842E+02  0.00000000000E+00 0.  1.
</event>
<event>
 7    1  0.5139898E-006  0.1588402E+03  0.7818608E-02  0.1319715E+00
          2   -1    0    0  502    0  0.00000000000E+00  0.00000000000E+00  0.35861360663E+03  0.35861360663E+03  0.00000000000E+00 0. -1.
          1   -1    0    0  501    0 -0.00000000000E+00 -0.00000000000E+00 -0.40559802018E+04  0.40559802018E+04  0.00000000000E+00 0. -1.
         25    2    1    2    0    0  0.10987977922E+03 -0.44467508317E+02 -0.81919448118E+02  0.19075278620E+03  0.12499961714E+03 0.  0.
          2    1    1    2  501    0 -0.14161263431E+03  0.74617931779E+02 -0.39164260570E+04  0.39196957834E+04  0.00000000000E+00 0. -1.
          1    1    1    2  502    0  0.31732855090E+02 -0.30150423462E+02  0.30097890994E+03  0.30414523892E+03  0.00000000000E+00 0. -1.
         22    1    3    3    0    0  0.61423537351E+02  0.49331191607E+01  0.22402265630E+02  0.65567126753E+02  0.00000000000E+00 0. -1.
         22    1    3    3    0    0  0.48456241868E+02 -0.49400627478E+02 -0.10432171375E+03  0.12518565944E+03  0.00000000000E+00 0. -1.
</event>
<event>
 7    1  0.5139898E-006  0.1086320E+03  0.7818608E-02  0.1278913E+00
          2   -1    0    0  502    0  0.00000000000E+00  0.00000000000E+00  0.24882238167E+04  0.24882238167E+04  0.00000000000E+00 0. -1.
          1   -1    0    0  501    0 -0.00000000000E+00 -0.00000000000E+00 -0.46138792701E+03  0.46138792701E+03  0.00000000000E+00 0. -1.
         25    2    1    2    0    0 -0.14083201638E+02 -0.17136643178E+03  0.31274863843E+03  0.37815512509E+03  0.12499918911E+03 0.  0.
          2    1    1    2  501    0  0.57261008387E+02  0.73629031051E+02 -0.42225994030E+03  0.43243902978E+03  0.00000000000E+00 0. -1.
          1    1    1    2  502    0 -0.43177806750E+02  0.97737400734E+02  0.21363471915E+04  0.21390175888E+04  0.00000000000E+00 0. -1.
         22    1    3    3    0    0 -0.61176172013E+02 -0.47406505939E+02  0.14461561630E+03  0.16402309991E+03  0.00000000000E+00 0. -1.
         22    1    3    3    0    0  0.47092970375E+02 -0.12395992585E+03  0.16813302213E+03  0.21413202517E+03  0.00000000000E+00 0. -1.
</event>
<event>
 7    1  0.5139898E-006  0.5508082E+02  0.7818608E-02  0.1477423E+00
          2   -1    0    0  502    0  0.00000000000E+00  0.00000000000E+00  0.68183015429E+03  0.68183015429E+03  0.00000000000E+00 0. -1.
          1   -1    0    0  501    0 -0.00000000000E+00 -0.00000000000E+00 -0.11561060998E+03  0.11561060998E+03  0.00000000000E+00 0. -1.
         25    2    1    2    0    0 -0.11927432849E+02  0.81085205504E+02  0.33630102753E+03  0.36802257301E+03  0.12500063569E+03 0.  0.
          2    1    1    2  501    0 -0.10771936119E+02 -0.34317104829E+02 -0.94368548911E+02  0.10099069915E+03  0.00000000000E+00 0. -1.
          1    1    1    2  502    0  0.22699368968E+02 -0.46768100674E+02  0.32428706570E+03  0.32842749211E+03  0.00000000000E+00 0. -1.
         22    1    3    3    0    0 -0.19690812381E+02  0.45035843855E+01  0.25596986170E+03  0.25676561387E+03  0.00000000000E+00 0. -1.
         22    1    3    3    0    0  0.77633795322E+01  0.76581621118E+02  0.80331165827E+02  0.11125695914E+03  0.00000000000E+00 0. -1.
</event>
<event>
 7    1  0.5139898E-006  0.8385736E+02  0.7818608E-02  0.1328083E+00
          2   -1    0    0  502    0  0.00000000000E+00  0.00000000000E+00  0.31244056950E+04  0.31244056950E+04  0.00000000000E+00 0. -1.
          1   -1    0    0  501    0 -0.00000000000E+00 -0.00000000000E+00 -0.38236714569E+03  0.38236714569E+03  0.00000000000E+00 0. -1.
         25    2    1    2    0    0  0.14370216027E+03  0.55696292812E+02  0.52877351371E+02  0.20536002580E+03  0.12499735202E+03 0.  0.
          2    1    1    2  501    0 -0.67484754397E+02 -0.44927735732E+02 -0.30025404612E+03  0.31100672939E+03  0.00000000000E+00 0. -1.
          1    1    1    2  502    0 -0.76217405870E+02 -0.10768557079E+02  0.29894152440E+04  0.29904060855E+04  0.00000000000E+00 0. -1.
         22    1    3    3    0    0  0.31006155915E+02  0.49851170300E+02 -0.29443946024E+02  0.65676988683E+02  0.00000000000E+00 0.  1.
         22    1    3    3    0    0  0.11269600435E+03  0.58451225113E+01  0.82321297395E+02  0.13968303712E+03  0.00000000000E+00 0.  1.
</event>
<event>
 7    1  0.5139898E-006  0.1609579E+03  0.7818608E-02  0.1280933E+00
          2   -1    0    0  502    0  0.00000000000E+00  0.00000000000E+00  0.31479445029E+03  0.31479445029E+03  0.00000000000E+00 0. -1.
          1   -1    0    0  501    0 -0.00000000000E+00 -0.00000000000E+00 -0.73265740712E+03  0.73265740712E+03  0.00000000000E+00 0. -1.
         25    2    1    2    0    0 -0.16175021493E+03 -0.66775035601E+02 -0.24022614346E+03  0.32241257098E+03  0.12497691192E+03 0.  0.
          2    1    1    2  501    0  0.11618927218E+03  0.10845950019E+03 -0.43355715654E+03  0.46177399032E+03  0.00000000000E+00 0. -1.
          1    1    1    2  502    0  0.45560942751E+02 -0.41684464593E+02  0.25592034317E+03  0.26326529612E+03  0.00000000000E+00 0. -1.
         22    1    3    3    0    0 -0.10756334189E+03  0.29711789942E+01 -0.63755914810E+02  0.12507404646E+03  0.00000000000E+00 0. -1.
         22    1    3    3    0    0 -0.54186873038E+02 -0.69746214596E+02 -0.17647022865E+03  0.19733852452E+03  0.00000000000E+00 0. -1.
</event>
<event>
 7    1  0.5139898E-006  0.5465747E+02  0.7818608E-02  0.1545047E+00
          2   -1    0    0  502    0  0.00000000000E+00  0.00000000000E+00  0.23070790586E+02  0.23070790586E+02  0.00000000000E+00 0. -1.
          1   -1    0    0  501    0 -0.00000000000E+00 -0.00000000000E+00 -0.23898734596E+04  0.23898734596E+04  0.00000000000E+00 0. -1.
         25    2    1    2    0    0 -0.45139515271E+02 -0.65664443311E+01 -0.87458995812E+03  0.88465432153E+03  0.12499991889E+03 0.  0.
          2    1    1    2  501    0 -0.16462544717E+01 -0.22872833407E+02 -0.14676026376E+04  0.14677817885E+04  0.00000000000E+00 0. -1.
          1    1    1    2  502    0  0.46785769743E+02  0.29439277738E+02 -0.24610073323E+02  0.60508140222E+02  0.00000000000E+00 0. -1.
         22    1    3    3    0    0 -0.82573032899E+02  0.16203925641E+02 -0.44918664755E+03  0.45700056598E+03  0.00000000000E+00 0. -1.
         22    1    3    3    0    0  0.37433517628E+02 -0.22770369972E+02 -0.42540331057E+03  0.42765375555E+03  0.00000000000E+00 0. -1.
</event>
<event>
 7    1  0.5139898E-006  0.4770837E+02  0.7818608E-02  0.1553925E+00
          2   -1    0    0  502    0  0.00000000000E+00  0.00000000000E+00  0.40698926932E+03  0.40698926932E+03  0.00000000000E+00 0. -1.
          1   -1    0    0  501    0 -0.00000000000E+00 -0.00000000000E+00 -0.13482807691E+03  0.13482807691E+03  0.00000000000E+00 0. -1.
         25    2    1    2    0    0  0.42448003450E+02 -0.64527896792E+01 -0.56300797853E+01  0.13227845090E+03  0.12498967670E+03 0.  0.
          2    1    1    2  501    0 -0.45697411317E+02 -0.18148532807E+02 -0.56173709737E+02  0.74653253846E+02  0.00000000000E+00 0. -1.
          1    1    1    2  502    0  0.32494078675E+01  0.24601322486E+02  0.33396498193E+03  0.33488564149E+03  0.00000000000E+00 0. -1.
         22    1    3    3    0    0  0.44868541337E+02 -0.48138595690E+02 -0.41018388099E+02  0.77543655826E+02  0.00000000000E+00 0.  1.
         22    1    3    3    0    0 -0.24205378872E+01  0.41685806010E+02  0.35388308314E+02  0.54734795073E+02  0.00000000000E+00 0.  1.
</event>
<event>
 7    1  0.5139898E-006  0.1251392E+03  0.7818608E-02  0.1266936E+00
          2   -1    0    0  502    0  0.00000000000E+00  0.00000000000E+00  0.83201656983E+03  0.83201656983E+03  0.00000000000E+00 0. -1.
          1   -1    0    0  501    0 -0.00000000000E+00 -0.00000000000E+00 -0.54918968816E+03  0.54918968816E+03  0.00000000000E+00 0. -1.
         25    2    1    2    0    0  0.12004284689E+03 -0.17620627352E+03  0.26993967498E+03  0.36599335969E+03  0.12499910116E+03 0.  0.
          2    1    1    2  501    0 -0.76139675172E+02  0.96654387842E+02 -0.48947329596E+03  0.50470132582E+03  0.00000000000E+00 0. -1.
          1    1    1    2  502    0 -0.43903171722E+02  0.79551885679E+02  0.50236050266E+03  0.51051157248E+03  0.00000000000E+00 0. -1.
         22    1    3    3    0    0 -0.26198949061E+02 -0.22341741026E+02  0.30410632999E+02  0.45938490652E+02  0.00000000000E+00 0. -1.
         22    1    3    3    0    0  0.14624179596E+03 -0.15386453249E+03  0.23952904198E+03  0.32005486904E+03  0.00000000000E+00 0. -1.
</event>
<event>
 7    1  0.5139898E-006  0.6621483E+02  0.7818608E-02  0.1404434E+00
          2   -1    0    0  502    0  0.00000000000E+00  0.00000000000E+00  0.48859406811E+03  0.48859406811E+03  0.00000000000E+00 0. -1.
          1   -1    0    0  501    0 -0.00000000000E+00 -0.00000000000E+00 -0.15368006242E+03  0.15368006242E+03  0.00000000000E+00 0. -1.
         25    2    1    2    0    0 -0.17091471886E+02  0.91643622402E+01  0.29027813024E+03  0.31663977476E+03  0.12499300028E+03 0.  0.
          2    1    1    2  501    0  0.36019345767E+02 -0.57171486416E+02 -0.12838517102E+03  0.14508178475E+03  0.00000000000E+00 0. -1.
          1    1    1    2  502    0 -0.18927873881E+02  0.48007124176E+02  0.17302104646E+03  0.18055257101E+03  0.00000000000E+00 0. -1.
         22    1    3    3    0    0 -0.55966979898E+02  0.45930200774E+02  0.18169789029E+03  0.19559143518E+03  0.00000000000E+00 0. -1.
         22    1    3    3    0    0  0.38875508012E+02 -0.36765838533E+02  0.10858023995E+03  0.12104833958E+03  0.00000000000E+00 0. -1.
</event>
<event>
 7    1  0.5139898E-006  0.9757183E+02  0.7818608E-02  0.1308009E+00
          2   -1    0    0  502    0  0.00000000000E+00  0.00000000000E+00  0.11767901890E+03  0.11767901890E+03  0.00000000000E+00 0. -1.
          1   -1    0    0  501    0 -0.00000000000E+00 -0.00000000000E+00 -0.13876113654E+04  0.13876113654E+04  0.00000000000E+00 0. -1.
         25    2    1    2    0    0  0.13461860564E+03 -0.99005372981E+02 -0.32126748669E+03  0.38309618729E+03  0.12500263137E+03 0.  0.
          2    1    1    2  501    0 -0.73719147998E+02  0.28932237135E+02 -0.10085906305E+04  0.10116949377E+04  0.00000000000E+00 0. -1.
          1    1    1    2  502    0 -0.60899457645E+02  0.70073135846E+02  0.59925770676E+02  0.11049925927E+03  0.00000000000E+00 0. -1.
         22    1    3    3    0    0  0.75247201947E+02 -0.76685508797E+01 -0.49728405459E+02  0.90519955716E+02  0.00000000000E+00 0.  1.
         22    1    3    3    0    0  0.59371403697E+02 -0.91336822101E+02 -0.27153908123E+03  0.29257623157E+03  0.00000000000E+00 0.  1.
</event>
<event>
 7    1  0.5139898E-006  0.1017799E+03  0.7818608E-02  0.1445431E+00
          2   -1    0    0  502    0  0.00000000000E+00  0.00000000000E+00  0.20420703279E+03  0.20420703279E+03  0.00000000000E+00 0. -1.
          1   -1    0    0  501    0 -0.00000000000E+00 -0.00000000000E+00 -0.16211417567E+03  0.16211417567E+03  0.00000000000E+00 0. -1.
         25    2    1    2    0    0 -0.77360800836E+02 -0.66492042290E+02  0.10014622840E+02  0.16164937654E+03  0.12499737226E+03 0.  0.
          2    1    1    2  501    0  0.91397514594E+02  0.46354901451E+02 -0.53526494658E+02  0.11561733517E+03  0.00000000000E+00 0. -1.
          1    1    1    2  502    0 -0.14036713757E+02  0.20137140839E+02  0.85604728933E+02  0.89054496742E+02  0.00000000000E+00 0. -1.
         22    1    3    3    0    0 -0.76062699267E+02 -0.11630965637E+01 -0.33523894653E+02  0.83130851831E+02  0.00000000000E+00 0.  1.
         22    1    3    3    0    0 -0.12981015693E+01 -0.65328945727E+02  0.43538517492E+02  0.78518524712E+02  0.00000000000E+00 0.  1.
</event>
<event>
 7    1  0.5139898E-006  0.7247221E+02  0.7818608E-02  0.1397172E+00
          2   -1    0    0  502    0  0.00000000000E+00  0.00000000000E+00  0.75278678999E+03  0.75278678999E+03  0.00000000000E+00 0. -1.
          1   -1    0    0  501    0 -0.00000000000E+00 -0.00000000000E+00 -0.15023461015E+03  0.15023461015E+03  0.00000000000E+00 0. -1.
         25    2    1    2    0    0 -0.82079692607E+02 -0.65535218574E+02  0.20251352310E+02  0.16453254099E+03  0.12501559488E+03 0.  0.
          2    1    1    2  501    0  0.65736224370E+02  0.18350068306E+02 -0.62029761734E+02  0.92226176014E+02  0.00000000000E+00 0. -1.
          1    1    1    2  502    0  0.16343468237E+02  0.47185150268E+02  0.64433058926E+03  0.64626268313E+03  0.00000000000E+00 0. -1.
         22    1    3    3    0    0 -0.12305607607E+02  0.36043062243E+02 -0.59398552035E+01  0.38546234502E+02  0.00000000000E+00 0. -1.
         22    1    3    3    0    0 -0.69774085001E+02 -0.10157828082E+03  0.26191207514E+02  0.12598630649E+03  0.00000000000E+00 0. -1.
</event>
<event>
 7    1  0.5139898E-006  0.7514131E+02  0.7818608E-02  0.1346165E+00
          2   -1    0    0  502    0  0.00000000000E+00  0.00000000000E+00  0.22553986365E+04  0.22553986365E+04  0.00000000000E+00 0. -1.
          1   -1    0    0  501    0 -0.00000000000E+00 -0.00000000000E+00 -0.21231029968E+04  0.21231029968E+04  0.00000000000E+00 0. -1.
         25    2    1    2    0    0  0.47004230038E+02  0.13032611158E+03  0.10228343384E+03  0.21279377432E+03  0.12499998621E+03 0.  0.
          2    1    1    2  501    0 -0.48661691944E+02 -0.56947390134E+02 -0.20665270643E+04  0.20678842021E+04  0.00000000000E+00 0. -1.
          1    1    1    2  502    0  0.16574619068E+01 -0.73378721447E+02  0.20965392702E+04  0.20978236569E+04  0.00000000000E+00 0. -1.
         22    1    3    3    0    0 -0.13850137028E+02  0.79982211426E+02  0.10625701512E+03  0.13371437358E+03  0.00000000000E+00 0. -1.
         22    1    3    3    0    0  0.60854367066E+02  0.50343900155E+02 -0.39735812795E+01  0.79079400744E+02  0.00000000000E+00 0. -1.
</event>
<event>
 7    1  0.5139898E-006  0.4790043E+02  0.7818608E-02  0.1515728E+00
          2   -1    0    0  502    0  0.00000000000E+00  0.00000000000E+00  0.13024714430E+04  0.13024714430E+04  0.00000000000E+00 0. -1.
          1   -1    0    0  501    0 -0.00000000000E+00 -0.00000000000E+00 -0.85645714545E+02  0.85645714545E+02  0.00000000000E+00 0. -1.
         25    2    1    2    0    0 -0.78829345532E+02  0.92059164856E+01  0.41704381609E+02  0.15382589247E+03  0.12499734051E+03 0.  0.
          2    1    1    2  501    0  0.31616793967E+02 -0.28809797235E+01 -0.20454740246E+02  0.37766626847E+02  0.00000000000E+00 0. -1.
          1    1    1    2  502    0  0.47212551565E+02 -0.63249367621E+01  0.11955760871E+04  0.11965246382E+04  0.00000000000E+00 0. -1.
         22    1    3    3    0    0 -0.17795245414E+01  0.50685027414E+02  0.42725650599E+02  0.66314552932E+02  0.00000000000E+00 0. -1.
         22    1    3    3    0    0 -0.77049820990E+02 -0.41479110928E+02 -0.10212689895E+01  0.87511339541E+02  0.00000000000E+00 0. -1.
</event>
<event>
 7    1  0.5139898E-006  0.8523677E+02  0.7818608E-02  0.1454251E+00
          2   -1    0    0  502    0  0.00000000000E+00  0.00000000000E+00  0.33866753200E+02  0.33866753200E+02  0.00000000000E+00 0. -1.
          1   -1    0    0  501    0 -0.00000000000E+00 -0.00000000000E+00 -0.11907916144E+04  0.11907916144E+04  0.00000000000E+00 0. -1.
         25    2    1    2    0    0  0.13745009718E+02 -0.59349208948E+02 -0.26783762846E+03  0.30178333153E+03  0.12499972030E+03 0.  0.
          2    1    1    2  501    0 -0.18793764670E+02  0.86347373217E+02 -0.89097261976E+03  0.89534422633E+03  0.00000000000E+00 0. -1.
          1    1    1    2  502    0  0.50487549518E+01 -0.26998164269E+02  0.18853870291E+01  0.27530809735E+02  0.00000000000E+00 0. -1.
         22    1    3    3    0    0  0.11334969548E+02 -0.82760336937E+02 -0.91551615703E+02  0.12393326124E+03  0.00000000000E+00 0.  1.
         22    1    3    3    0    0  0.24100401706E+01  0.23411127989E+02 -0.17628601275E+03  0.17785007028E+03  0.00000000000E+00 0.  1.
</event>
<event>
 7    1  0.5139898E-006  0.2984669E+02  0.7818608E-02  0.1626861E+00
          2   -1    0    0  502    0  0.00000000000E+00  0.00000000000E+00  0.76162200796E+02  0.76162200796E+02  0.00000000000E+00 0. -1.
          1   -1    0    0  501    0 -0.00000000000E+00 -0.00000000000E+00 -0.11810534918E+04  0.11810534918E+04  0.00000000000E+00 0. -1.
         25    2    1    2    0    0 -0.29196705763E+02 -0.19148912239E+02 -0.24917981383E+03  0.28095201284E+03  0.12499730170E+03 0.  0.
          2    1    1    2  501    0  0.29259682353E+02 -0.62815295624E+01 -0.91304918431E+03  0.91353948989E+03  0.00000000000E+00 0. -1.
          1    1    1    2  502    0 -0.62976590321E-01  0.25430441802E+02  0.57337707126E+02  0.62724189869E+02  0.00000000000E+00 0. -1.
         22    1    3    3    0    0  0.40494470475E+02  0.24158228993E+02 -0.78480616947E+02  0.91556700484E+02  0.00000000000E+00 0.  1.
         22    1    3    3    0    0 -0.69691176238E+02 -0.43307141233E+02 -0.17069919688E+03  0.18939531236E+03  0.00000000000E+00 0.  1.
</event>
<event>
 7    1  0.5139898E-006  0.6685554E+02  0.7818608E-02  0.1506473E+00
          2   -1    0    0  502    0  0.00000000000E+00  0.00000000000E+00  0.89067213948E+03  0.89067213948E+03  0.00000000000E+00 0. -1.
          1   -1    0    0  501    0 -0.00000000000E+00 -0.00000000000E+00 -0.33242045969E+03  0.33242045969E+03  0.00000000000E+00 0. -1.
         25    2    1    2    0    0 -0.22055365297E+02  0.67682206294E+02  0.57429873334E+03  0.59204013114E+03  0.12500064628E+03 0.  0.
          2    1    1    2  501    0  0.41102711130E+02 -0.52727070398E+02 -0.31960884500E+03  0.32652624798E+03  0.00000000000E+00 0. -1.
          1    1    1    2  502    0 -0.19047345832E+02 -0.14955135896E+02  0.30356179144E+03  0.30452622005E+03  0.00000000000E+00 0. -1.
         22    1    3    3    0    0  0.25428109106E+02  0.11798379709E+02  0.24075508818E+02  0.36951598359E+02  0.00000000000E+00 0.  1.
         22    1    3    3    0    0 -0.47483474403E+02  0.55883826585E+02  0.55022322453E+03  0.55508853278E+03  0.00000000000E+00 0.  1.
</event>
<event>
 7    1  0.5139898E-006  0.1163519E+03  0.7818608E-02  0.1307214E+00
          2   -1    0    0  502    0  0.00000000000E+00  0.00000000000E+00  0.85241171697E+03  0.85241171697E+03  0.00000000000E+00 0. -1.
          1   -1    0    0  501    0 -0.00000000000E+00 -0.00000000000E+00 -0.10412847901E+03  0.10412847901E+03  0.00000000000E+00 0. -1.
         25    2    1    2    0    0 -0.72431498370E+02  0.10263369492E+03  0.69310168707E+02  0.19028668145E+03  0.12500049744E+03 0.  0.
          2    1    1    2  501    0  0.65376422757E+02  0.14167728703E+02 -0.98030835043E+01  0.67608443521E+02  0.00000000000E+00 0. -1.
          1    1    1    2  502    0  0.70550756133E+01 -0.11680142362E+03  0.68877615275E+03  0.69864507101E+03  0.00000000000E+00 0. -1.
         22    1    3    3    0    0 -0.98751660565E+02  0.10011407372E+03  0.79978110076E+02  0.16177520302E+03  0.00000000000E+00 0.  1.
         22    1    3    3    0    0  0.26320162195E+02  0.25196212045E+01 -0.10667941369E+02  0.28511478426E+02  0.00000000000E+00 0.  1.
</event>
<event>
 7    1  0.5139898E-006  0.1332925E+03  0.7818608E-02  0.1315333E+00
          2   -1    0    0  502    0  0.00000000000E+00  0.00000000000E+00  0.51824650318E+03  0.51824650318E+03  0.00000000000E+00 0. -1.
          1   -1    0    0  501    0 -0.00000000000E+00 -0.00000000000E+00 -0.43644005359E+03  0.43644005359E+03  0.00000000000E+00 0. -1.
         25    2    1    2    0    0  0.43044033350E+02  0.81559981501E+02 -0.23394934377E+03  0.28082431506E+03  0.12500072436E+03 0.  0.
          2    1    1    2  501    0  0.52491938832E+02  0.13708446677E+02 -0.16544071222E+03  0.17410903025E+03  0.00000000000E+00 0. -1.
          1    1    1    2  502    0 -0.95535972182E+02 -0.95268428178E+02  0.48119650558E+03  0.49975321146E+03  0.00000000000E+00 0. -1.
         22    1    3    3    0    0 -0.23341352019E+02 -0.20204394048E+02 -0.72198483408E+02  0.78521699289E+02  0.00000000000E+00 0. -1.
         22    1    3    3    0    0  0.66385385369E+02  0.10176437555E+03 -0.16175086036E+03  0.20230261577E+03  0.00000000000E+00 0. -1.
</event>
<event>
 7    1  0.5139898E-006  0.3521551E+02  0.7818608E-02  0.1621634E+00
          2   -1    0    0  502    0  0.00000000000E+00  0.00000000000E+00  0.97960382818E+03  0.97960382818E+03  0.00000000000E+00 0. -1.
          1   -1    0    0  501    0 -0.00000000000E+00 -0.00000000000E+00 -0.64601091817E+02  0.64601091817E+02  0.00000000000E+00 0. -1.
         25    2    1    2    0    0 -0.36713987379E+02 -0.42966200923E+02  0.15475370522E+03  0.20680512020E+03  0.12500254866E+03 0.  0.
          2    1    1    2  501    0  0.22821317519E+02  0.25623977122E+02 -0.30757854673E+02  0.46080867623E+02  0.00000000000E+00 0. -1.
          1    1    1    2  502    0  0.13892669860E+02  0.17342223801E+02  0.79100688582E+03  0.79131893217E+03  0.00000000000E+00 0. -1.
         22    1    3    3    0    0 -0.48387035199E+02 -0.71866445560E+02  0.55783950079E+02  0.10304339018E+03  0.00000000000E+00 0. -1.
         22    1    3    3    0    0  0.11673047820E+02  0.28900244637E+02  0.98969755138E+02  0.10376173002E+03  0.00000000000E+00 0. -1.
</event>
<event>
 7    1  0.5139898E-006  0.7872938E+02  0.7818608E-02  0.1449386E+00
          2   -1    0    0  502    0  0.00000000000E+00  0.00000000000E+00  0.75530934723E+03  0.75530934723E+03  0.00000000000E+00 0. -1.
          1   -1    0    0  501    0 -0.00000000000E+00 -0.00000000000E+00 -0.22625655212E+03  0.22625655212E+03  0.00000000000E+00 0. -1.
         25    2    1    2    0    0  0.85698982658E+02  0.17715350346E+02  0.51587819545E+02  0.16107302812E+03  0.12500027198E+03 0.  0.
          2    1    1    2  501    0 -0.80486729035E+01 -0.29749046508E+02 -0.16772636541E+03  0.17053422107E+03  0.00000000000E+00 0. -1.
          1    1    1    2  502    0 -0.77650309755E+02  0.12033696162E+02  0.64519134097E+03  0.64995865016E+03  0.00000000000E+00 0. -1.
         22    1    3    3    0    0 -0.38283662741E-01 -0.44898824372E+02  0.25934349614E+02  0.51850712488E+02  0.00000000000E+00 0. -1.
         22    1    3    3    0    0  0.85737266321E+02  0.62614174718E+02  0.25653469931E+02  0.10922231563E+03  0.00000000000E+00 0. -1.
</event>
<event>
 7    1  0.5139898E-006  0.1405803E+03  0.7818608E-02  0.1329317E+00
          2   -1    0    0  502    0  0.00000000000E+00  0.00000000000E+00  0.43137126768E+04  0.43137126768E+04  0.00000000000E+00 0. -1.
          1   -1    0    0  501    0 -0.00000000000E+00 -0.00000000000E+00 -0.21050602466E+03  0.21050602466E+03  0.00000000000E+00 0. -1.
         25    2    1    2    0    0 -0.24451737300E+02 -0.18162713074E+03 -0.10222764899E+03  0.24425795803E+03  0.12500062306E+03 0.  0.
          2    1    1    2  501    0  0.18564840152E+02  0.41451964950E+02 -0.21813081866E+02  0.50385803840E+02  0.00000000000E+00 0. -1.
          1    1    1    2  502    0  0.58868971479E+01  0.14017516579E+03  0.42272473829E+04  0.42295749395E+04  0.00000000000E+00 0. -1.
         22    1    3    3    0    0 -0.46381623022E+02 -0.15266421234E+03 -0.28519317921E+02  0.16208321374E+03  0.00000000000E+00 0.  1.
         22    1    3    3    0    0  0.21929885723E+02 -0.28962918402E+02 -0.73708331064E+02  0.82174744286E+02  0.00000000000E+00 0.  1.
</event>
<event>
 7    1  0.5139898E-006  0.9522322E+02  0.7818608E-02  0.1335444E+00
          2   -1    0    0  502    0  0.00000000000E+00  0.00000000000E+00  0.13110727657E+04  0.13110727657E+04  0.00000000000E+00 0. -1.
          1   -1    0    0  501    0 -0.00000000000E+00 -0.00000000000E+00 -0.50478618445E+03  0.50478618445E+03  0.00000000000E+00 0. -1.
         25    2    1    2    0    0 -0.82222279122E+02  0.65225428502E+02  0.12565647451E+03  0.20597602345E+03  0.12498685108E+03 0.  0.
          2    1    1    2  501    0  0.57420218453E+02  0.27224944365E+02 -0.46044028111E+03  0.46480483168E+03  0.00000000000E+00 0. -1.
          1    1    1    2  502    0  0.24802060670E+02 -0.92450372867E+02  0.11410703878E+04  0.11450780950E+04  0.00000000000E+00 0. -1.
         22    1    3    3    0    0  0.60470954801E+01 -0.15084421121E+02 -0.14582278017E+02  0.21834604564E+02  0.00000000000E+00 0. -1.
         22    1    3    3    0    0 -0.88269374602E+02  0.80309849623E+02  0.14023875253E+03  0.18414141889E+03  0.00000000000E+00 0. -1.
</event>
<event>
 7    1  0.5139898E-006  0.1184436E+03  0.7818608E-02  0.1421859E+00
          2   -1    0    0  502    0  0.00000000000E+00  0.00000000000E+00  0.72210524644E+03  0.72210524644E+03  0.00000000000E+00 0. -1.
          1   -1    0    0  501    0 -0.00000000000E+00 -0.00000000000E+00 -0.23386604087E+04  0.23386604087E+04  0.00000000000E+00 0. -1.
         25    2    1    2    0    0 -0.12223241905E+03  0.63280973367E+02 -0.62311654177E+01  0.18603428218E+03  0.12499872346E+03 0.  0.
          2    1    1    2  501    0  0.97308149740E+02 -0.66975641507E+02 -0.22407201577E+04  0.22438318649E+04  0.00000000000E+00 0. -1.
          1    1    1    2  502    0  0.24924269308E+02  0.36946681396E+01  0.63039616084E+03  0.63089950814E+03  0.00000000000E+00 0. -1.
         22    1    3    3    0    0  0.19190757241E+02  0.33211706886E+02  0.12266790333E+02  0.40271289808E+02  0.00000000000E+00 0.  1.
         22    1    3    3    0    0 -0.14142317629E+03  0.30069266481E+02 -0.18497955751E+02  0.14576299237E+03  0.00000000000E+00 0.  1.
</event>
<event>
 7    1  0.5139898E-006  0.2170352E+03  0.7818608E-02  0.1203923E+00
          2   -1    0    0  502    0  0.00000000000E+00  0.00000000000E+00  0.23183845050E+03  0.23183845050E+03  0.00000000000E+00 0. -1.
          1   -1    0    0  501    0 -0.00000000000E+00 -0.00000000000E+00 -0.16928882809E+04  0.16928882809E+04  0.00000000000E+00 0. -1.
         25    2    1    2    0    0 -0.96678494198E+02 -0.96072568220E+02  0.94475148989E+02  0.20767012337E+03  0.12499862702E+03 0.  0.
          2    1    1    2  501    0  0.10358103626E+03  0.19570557424E+03 -0.15945354176E+04  0.16098362962E+04  0.00000000000E+00 0. -1.
          1    1    1    2  502    0 -0.69025420652E+01 -0.99633006024E+02  0.39010438156E+02  0.10722031179E+03  0.00000000000E+00 0. -1.
         22    1    3    3    0    0 -0.10120097483E+03 -0.39576334860E+02  0.10374945160E+03  0.15023938330E+03  0.00000000000E+00 0.  1.
         22    1    3    3    0    0  0.45224806338E+01 -0.56496233360E+02 -0.92743026146E+01  0.57430740061E+02  0.00000000000E+00 0.  1.
</event>
<event>
 7    1  0.5139898E-006  0.7312774E+02  0.7818608E-02  0.1416517E+00
          2   -1    0    0  502    0  0.00000000000E+00  0.00000000000E+00  0.16196884657E+04  0.16196884657E+04  0.00000000000E+00 0. -1.
          1   -1    0    0  501    0 -0.00000000000E+00 -0.00000000000E+00 -0.10179502128E+04  0.10179502128E+04  0.00000000000E+00 0. -1.
         25    2    1    2    0    0  0.58507404199E+02  0.91015289593E+02  0.77483552349E+02  0.18258099012E+03  0.12500087113E+03 0.  0.
          2    1    1    2  501    0 -0.21865619625E+02 -0.69435707680E+02 -0.96372496976E+03  0.96647050662E+03  0.00000000000E+00 0. -1.
          1    1    1    2  502    0 -0.36641784575E+02 -0.21579581913E+02  0.14879796702E+04  0.14885871818E+04  0.00000000000E+00 0. -1.
         22    1    3    3    0    0  0.93116533277E+02  0.41795578973E+02  0.31386899088E+02  0.10678340988E+03  0.00000000000E+00 0. -1.
         22    1    3    3    0    0 -0.34609129078E+02  0.49219710620E+02  0.46096653260E+02  0.75797580244E+02  0.00000000000E+00 0. -1.
</event>
<event>
 7    1  0.5139898E-006  0.7683568E+02  0.7818608E-02  0.1379534E+00
          2   -1    0    0  502    0  0.00000000000E+00  0.00000000000E+00  0.42217736335E+02  0.42217736335E+02  0.00000000000E+00 0. -1.
          1   -1    0    0  501    0 -0.00000000000E+00 -0.00000000000E+00 -0.21844987502E+04  0.21844987502E+04  0.00000000000E+00 0. -1.
         25    2    1    2    0    0  0.12082187778E+03 -0.28524794119E+01 -0.71127174890E+03  0.73221494258E+03  0.12500063426E+03 0.  0.
          2    1    1    2  501    0 -0.70904745493E+02 -0.18493921480E+02 -0.14379090719E+04  0.14397749849E+04  0.00000000000E+00 0. -1.
          1    1    1    2  502    0 -0.49917132287E+02  0.21346400892E+02  0.68998069716E+01  0.54726559028E+02  0.00000000000E+00 0. -1.
         22    1    3    3    0    0  0.58601068300E+02  0.13545759442E+02 -0.60499175700E+03  0.60797417613E+03  0.00000000000E+00 0.  1.
         22    1    3    3    0    0  0.62220809479E+02 -0.16398238853E+02 -0.10627999190E+03  0.12424076645E+03  0.00000000000E+00 0.  1.
</event>
<event>
 7    1  0.5139898E-006  0.4603225E+02  0.7818608E-02  0.1542708E+00
          2   -1    0    0  502    0  0.00000000000E+00  0.00000000000E+00  0.58986954050E+03  0.58986954050E+03  0.00000000000E+00 0. -1.
          1   -1    0    0  501    0 -0.00000000000E+00 -0.00000000000E+00 -0.25327562384E+03  0.25327562384E+03  0.00000000000E+00 0. -1.
         25    2    1    2    0    0  0.41252638547E+02  0.57754992146E+02  0.49094239470E+00  0.14374489216E+03  0.12499973477E+03 0.  0.
          2    1    1    2  501    0 -0.32116023014E+02 -0.31664210023E+02 -0.17847246243E+03  0.18408281011E+03  0.00000000000E+00 0. -1.
          1    1    1    2  502    0 -0.91366155331E+01 -0.26090782123E+02  0.51457543670E+03  0.51531746207E+03  0.00000000000E+00 0. -1.
         22    1    3    3    0    0  0.80190704488E+02  0.26753597873E+02  0.25152059971E+02  0.88198243782E+02  0.00000000000E+00 0. -1.
         22    1    3    3    0    0 -0.38938065941E+02  0.31001394273E+02 -0.24661117576E+02  0.55546648379E+02  0.00000000000E+00 0. -1.
</event>
<event>
 7    1  0.5139898E-006  0.1233995E+03  0.7818608E-02  0.1280691E+00
          2   -1    0    0  502    0  0.00000000000E+00  0.00000000000E+00  0.31253408238E+04  0.31253408238E+04  0.00000000000E+00 0. -1.
          1   -1    0    0  501    0 -0.00000000000E+00 -0.00000000000E+00 -0.11692052221E+03  0.11692052221E+03  0.00000000000E+00 0. -1.
         25    2    1    2    0    0  0.24998134147E+02  0.82233730898E+02  0.61325865667E+03  0.63174286330E+03  0.12500228852E+03 0.  0.
          2    1    1    2  501    0 -0.10496007828E+03 -0.71094249463E+02 -0.69474474630E+02  0.14456041285E+03  0.00000000000E+00 0. -1.
          1    1    1    2  502    0  0.79961944129E+02 -0.11139481435E+02  0.24646361195E+04  0.24659580698E+04  0.00000000000E+00 0. -1.
         22    1    3    3    0    0  0.43806344539E+02  0.69252030229E+02  0.17879593674E+03  0.19667950200E+03  0.00000000000E+00 0. -1.
         22    1    3    3    0    0 -0.18808210392E+02  0.12981700669E+02  0.43446271993E+03  0.43506336130E+03  0.00000000000E+00 0. -1.
</event>
<event>
 7    1  0.5139898E-006  0.8325484E+02  0.7818608E-02  0.1341386E+00
          2   -1    0    0  502    0  0.00000000000E+00  0.00000000000E+00  0.65899424349E+03  0.65899424349E+03  0.00000000000E+00 0. -1.
          1   -1    0    0  501    0 -0.00000000000E+00 -0.00000000000E+00 -0.11756316201E+03  0.11756316201E+03  0.00000000000E+00 0. -1.
         25    2    1    2    0    0  0.11256600317E+03 -0.81496998000E+02  0.33087668507E+03  0.38002849435E+03  0.12501763892E+03 0.  0.
          2    1    1    2  501    0 -0.63424823650E+02  0.27242598162E+02 -0.74888890896E+02  0.10184897343E+03  0.00000000000E+00 0. -1.
          1    1    1    2  502    0 -0.49141179518E+02  0.54254399839E+02  0.28544328730E+03  0.29467993771E+03  0.00000000000E+00 0. -1.
         22    1    3    3    0    0  0.72171605122E+02 -0.11246157524E+03  0.21047828197E+03  0.24931396606E+03  0.00000000000E+00 0. -1.
         22    1    3    3    0    0  0.40394398046E+02  0.30964577238E+02  0.12039840310E+03  0.13071452829E+03  0.00000000000E+00 0. -1.
</event>
<event>
 7    1  0.5139898E-006  0.6212559E+02  0.7818608E-02  0.1495894E+00
          2   -1    0    0  502    0  0.00000000000E+00  0.00000000000E+00  0.24646821347E+02  0.24646821347E+02  0.00000000000E+00 0. -1.
          1   -1    0    0  501    0 -0.00000000000E+00 -0.00000000000E+00 -0.66045449569E+03  0.66045449569E+03  0.00000000000E+00 0. -1.
         25    2    1    2    0    0  0.41558252241E+02 -0.71567612462E+01 -0.36292158377E+03  0.38615527033E+03  0.12500203709E+03 0.  0.
          2    1    1    2  501    0 -0.69247300390E+02  0.11465752426E+02 -0.25767022332E+03  0.26705916212E+03  0.00000000000E+00 0. -1.
          1    1    1    2  502    0  0.27689048149E+02 -0.43089911794E+01 -0.15215867263E+02  0.31886884591E+02  0.00000000000E+00 0. -1.
         22    1    3    3    0    0  0.31481419361E+02 -0.18229920980E+02 -0.36841548981E+03  0.37020721618E+03  0.00000000000E+00 0.  1.
         22    1    3    3    0    0  0.10076832880E+02  0.11073159733E+02  0.54939060411E+01  0.15948054143E+02  0.00000000000E+00 0.  1.
</event>
<event>
 7    1  0.5139898E-006  0.8065890E+02  0.7818608E-02  0.1352429E+00
          2   -1    0    0  502    0  0.00000000000E+00  0.00000000000E+00  0.22056248172E+03  0.22056248172E+03  0.00000000000E+00 0. -1.
          1   -1    0    0  501    0 -0.00000000000E+00 -0.00000000000E+00 -0.16699030192E+03  0.16699030192E+03  0.00000000000E+00 0. -1.
         25    2    1    2    0    0  0.72544206545E+01 -0.78266637973E+02 -0.47991833435E+02  0.15526340891E+03  0.12500086732E+03 0.  0.
          2    1    1    2  501    0  0.58852901935E+02  0.27152956395E+02 -0.33884991575E+02  0.73137813483E+02  0.00000000000E+00 0. -1.
          1    1    1    2  502    0 -0.66107322589E+02  0.51113681579E+02  0.13544900481E+03  0.15915156125E+03  0.00000000000E+00 0. -1.
         22    1    3    3    0    0 -0.41052287841E+02 -0.69771153339E+02 -0.64505817866E+02  0.10350992568E+03  0.00000000000E+00 0.  1.
         22    1    3    3    0    0  0.48306708496E+02 -0.84954846342E+01  0.16513984431E+02  0.51753483232E+02  0.00000000000E+00 0.  1.
</event>
<event>
 7    1  0.5139898E-006  0.1292693E+03  0.7818608E-02  0.1379751E+00
          2   -1    0    0  502    0  0.00000000000E+00  0.00000000000E+00  0.20671807192E+04  0.20671807192E+04  0.00000000000E+00 0. -1.
          1   -1    0    0  501    0 -0.00000000000E+00 -0.00000000000E+00 -0.21057257863E+04  0.21057257863E+04  0.00000000000E+00 0. -1.
         25    2    1    2    0    0 -0.12716109929E+03 -0.94349564457E+01  0.43835053231E+01  0.17861276955E+03  0.12499737097E+03 0.  0.
          2    1    1    2  501    0  0.12262135394E+03  0.41325403112E+02 -0.20164059071E+04  0.20205535300E+04  0.00000000000E+00 0. -1.
          1    1    1    2  502    0  0.45397453495E+01 -0.31890446666E+02  0.19734773347E+04  0.19737402059E+04  0.00000000000E+00 0. -1.
         22    1    3    3    0    0 -0.11209567541E+03  0.66052039527E+01  0.53803652897E+02  0.12451466673E+03  0.00000000000E+00 0.  1.
         22    1    3    3    0    0 -0.15065423880E+02 -0.16040160398E+02 -0.49420147574E+02  0.54098102819E+02  0.00000000000E+00 0.  1.
</event>
<event>
 7    1  0.5629195E-006  0.8371544E+02  0.7818608E-02  0.1350808E+00
          2   -1    0    0  502    0  0.00000000000E+00  0.00000000000E+00  0.66999118625E+03  0.66999118625E+03  0.00000000000E+00 0. -1.
          1   -1    0    0  501    0 -0.00000000000E+00 -0.00000000000E+00 -0.16449332392E+04  0.16449332392E+04  0.00000000000E+00 0. -1.
         25    2    1    2    0    0 -0.36966763515E+02  0.12849390416E+02 -0.27216367178E+03  0.30204203457E+03  0.12499871188E+03 0.  0.
          2    1    1    2  501    0  0.47130253599E+02 -0.75343616314E+02 -0.13548412263E+04  0.13577528015E+04  0.00000000000E+00 0. -1.
          1    1    1    2  502    0 -0.10163490084E+02  0.62494225898E+02  0.65206284520E+03  0.65512958938E+03  0.00000000000E+00 0. -1.
         22    1    3    3    0    0 -0.37718676009E+02  0.65728972313E+02 -0.18728129138E+03  0.20203286470E+03  0.00000000000E+00 0.  1.
         22    1    3    3    0    0  0.75191249443E+00 -0.52879581897E+02 -0.84882380407E+02  0.10000916987E+03  0.00000000000E+00 0.  1.
</event>
<event>
 7    1  0.5139898E-006  0.7995921E+02  0.7818608E-02  0.1362021E+00
          2   -1    0    0  502    0  0.00000000000E+00  0.00000000000E+00  0.26392508116E+04  0.26392508116E+04  0.00000000000E+00 0. -1.
          1   -1    0    0  501    0 -0.00000000000E+00 -0.00000000000E+00 -0.53719192316E+03  0.53719192316E+03  0.00000000000E+00 0. -1.
         25    2    1    2    0    0 -0.10146253495E+02  0.12809709417E+03  0.43588262190E+03  0.47130908268E+03  0.12500711720E+03 0.  0.
          2    1    1    2  501    0  0.33266958953E+02 -0.72407970211E+02 -0.51600402434E+03  0.52212044381E+03  0.00000000000E+00 0. -1.
          1    1    1    2  502    0 -0.23120705458E+02 -0.55689123955E+02  0.21821802909E+04  0.21830132082E+04  0.00000000000E+00 0. -1.
         22    1    3    3    0    0  0.12155522231E+02  0.11957486253E+03  0.19374895970E+03  0.22800123652E+03  0.00000000000E+00 0. -1.
         22    1    3    3    0    0 -0.22301775726E+02  0.85222316329E+01  0.24213366220E+03  0.24330784616E+03  0.00000000000E+00 0. -1.
</event>
<event>
 7    1  0.5139898E-006  0.1511945E+03  0.7818608E-02  0.1314825E+00
          2   -1    0    0  502    0  0.00000000000E+00  0.00000000000E+00  0.17713778138E+04  0.17713778138E+04  0.00000000000E+00 0. -1.
          1   -1    0    0  501    0 -0.00000000000E+00 -0.00000000000E+00 -0.13512954802E+04  0.13512954802E+04  0.00000000000E+00 0. -1.
         25    2    1    2    0    0  0.18459496353E+03 -0.71960717463E+02 -0.87239939228E+02  0.24997742849E+03  0.12499704933E+03 0.  0.
          2    1    1    2  501    0 -0.45978611761E+02  0.13949704859E+02 -0.11788562567E+04  0.11798350312E+04  0.00000000000E+00 0. -1.
          1    1    1    2  502    0 -0.13861635177E+03  0.58011012604E+02  0.16861785295E+04  0.16928608342E+04  0.00000000000E+00 0. -1.
         22    1    3    3    0    0  0.26904299529E+02 -0.69484564764E+02 -0.12881235591E+02  0.75616613941E+02  0.00000000000E+00 0.  1.
         22    1    3    3    0    0  0.15769066400E+03 -0.24761526995E+01 -0.74358703637E+02  0.17436081455E+03  0.00000000000E+00 0.  1.
</event>
<event>
 7    1  0.5139898E-006  0.9295788E+02  0.7818608E-02  0.1353591E+00
          2   -1    0    0  502    0  0.00000000000E+00  0.00000000000E+00  0.14096901148E+04  0.14096901148E+04  0.00000000000E+00 0. -1.
          1   -1    0    0  501    0 -0.00000000000E+00 -0.00000000000E+00 -0.30201404947E+03  0.30201404947E+03  0.00000000000E+00 0. -1.
         25    2    1    2    0    0  0.94396790741E+02  0.10666731469E+03 -0.13380541849E+03  0.23198590492E+03  0.12499959976E+03 0.  0.
          2    1    1    2  501    0 -0.19623715192E+02 -0.52114501603E+02 -0.11094075111E+03  0.12413243626E+03  0.00000000000E+00 0. -1.
          1    1    1    2  502    0 -0.74773075549E+02 -0.54552813087E+02  0.13524222350E+04  0.13555858231E+04  0.00000000000E+00 0. -1.
         22    1    3    3    0    0  0.39950644039E+02  0.17981004397E+02 -0.11908022501E+03  0.12688368874E+03  0.00000000000E+00 0.  1.
         22    1    3    3    0    0  0.54446146702E+02  0.88686310294E+02 -0.14725193476E+02  0.10510221619E+03  0.00000000000E+00 0.  1.
</event>
<event>
 7    1  0.5139898E-006  0.6808229E+02  0.7818608E-02  0.1449120E+00
          2   -1    0    0  502    0  0.00000000000E+00  0.00000000000E+00  0.21820112261E+04  0.21820112261E+04  0.00000000000E+00 0. -1.
          1   -1    0    0  501    0 -0.00000000000E+00 -0.00000000000E+00 -0.23807255536E+02  0.23807255536E+02  0.00000000000E+00 0. -1.
         25    2    1    2    0    0  0.68678768383E+01 -0.55389770222E+02  0.29962478419E+03  0.32941605876E+03  0.12499893634E+03 0.  0.
          2    1    1    2  501    0 -0.41334860080E+02  0.64723134596E+02  0.16028387055E+03  0.17773174721E+03  0.00000000000E+00 0. -1.
          1    1    1    2  502    0  0.34466983242E+02 -0.93333643737E+01  0.16982953158E+04  0.16986706756E+04  0.00000000000E+00 0. -1.
         22    1    3    3    0    0  0.48511645816E+02  0.76884723827E+01  0.56759985801E+02  0.75061230842E+02  0.00000000000E+00 0.  1.
         22    1    3    3    0    0 -0.41643768978E+02 -0.63078242605E+02  0.24286479839E+03  0.25435482791E+03  0.00000000000E+00 0.  1.
</event>
<event>
 7    1  0.5139898E-006  0.1309174E+03  0.7818608E-02  0.1239596E+00
          2   -1    0    0  502    0  0.00000000000E+00  0.00000000000E+00  0.20522285292E+04  0.20522285292E+04  0.00000000000E+00 0. -1.
          1   -1    0    0  501    0 -0.00000000000E+00 -0.00000000000E+00 -0.11037894771E+03  0.11037894771E+03  0.00000000000E+00 0. -1.
         25    2    1    2    0    0 -0.51848880653E+02 -0.14321674848E+03  0.36353067779E+03  0.41350011506E+03  0.12501379120E+03 0.  0.
          2    1    1    2  501    0 -0.59655541962E+02  0.11966291481E+03 -0.29772069319E+02  0.13698311202E+03  0.00000000000E+00 0. -1.
          1    1    1    2  502    0  0.11150442262E+03  0.23553833671E+02  0.16080909730E+04  0.16121242498E+04  0.00000000000E+00 0. -1.
         22    1    3    3    0    0  0.23982138525E+02 -0.10467651015E+03  0.24598758178E+03  0.26840679040E+03  0.00000000000E+00 0. -1.
         22    1    3    3    0    0 -0.75831019177E+02 -0.38540238336E+02  0.11754309601E+03  0.14509332466E+03  0.00000000000E+00 0. -1.
</event>
<event>
 7    1  0.5139898E-006  0.1090416E+03  0.7818608E-02  0.1365765E+00
          2   -1    0    0  502    0  0.00000000000E+00  0.00000000000E+00  0.25447567464E+04  0.25447567464E+04  0.00000000000E+00 0. -1.
          1   -1    0    0  501    0 -0.00000000000E+00 -0.00000000000E+00 -0.46616672081E+02  0.46616672081E+02  0.00000000000E+00 0. -1.
         25    2    1    2    0    0  0.50989501553E+02  0.12700046500E+03  0.17603912441E+04  0.17701218266E+04  0.12499960439E+03 0.  0.
          2    1    1    2  501    0 -0.64885891242E+02 -0.86461576437E+02  0.29972442844E+02  0.11217901057E+03  0.00000000000E+00 0. -1.
          1    1    1    2  502    0  0.13896389689E+02 -0.40538888559E+02  0.70777638731E+03  0.70907258131E+03  0.00000000000E+00 0. -1.
         22    1    3    3    0    0  0.54141413558E+02  0.31853306925E+02  0.12045700853E+04  0.12062068713E+04  0.00000000000E+00 0.  1.
         22    1    3    3    0    0 -0.31519120054E+01  0.95147158071E+02  0.55582115881E+03  0.56391495531E+03  0.00000000000E+00 0.  1.
</event>
<event>
 7    1  0.5139898E-006  0.2988191E+02  0.7818608E-02  0.1615143E+00
          2   -1    0    0  502    0  0.00000000000E+00  0.00000000000E+00  0.96067468964E+02  0.96067468964E+02  0.00000000000E+00 0. -1.
          1   -1    0    0  501    0 -0.00000000000E+00 -0.00000000000E+00 -0.60489282254E+03  0.60489282254E+03  0.00000000000E+00 0. -1.
         25    2    1    2    0    0 -0.23629602685E+02  0.48581123064E+02 -0.18525613910E+03  0.22992113346E+03  0.12500162758E+03 0.  0.
          2    1    1    2  501    0  0.34296625493E+01 -0.26987917627E+02 -0.39385162329E+03  0.39479008530E+03  0.00000000000E+00 0. -1.
          1    1    1    2  502    0  0.20199940135E+02 -0.21593205436E+02  0.70282408823E+02  0.76249072732E+02  0.00000000000E+00 0. -1.
         22    1    3    3    0    0  0.18359675011E+02 -0.28019571629E+02 -0.11456804978E+02  0.35403847829E+02  0.00000000000E+00 0. -1.
         22    1    3    3    0    0 -0.41989277696E+02  0.76600694692E+02 -0.17379933412E+03  0.19451728564E+03  0.00000000000E+00 0. -1.
</event>
<event>
 7    1  0.5139898E-006  0.4810474E+02  0.7818608E-02  0.1578154E+00
          2   -1    0    0  502    0  0.00000000000E+00  0.00000000000E+00  0.34142512453E+04  0.34142512453E+04  0.00000000000E+00 0. -1.
          1   -1    0    0  501    0 -0.00000000000E+00 -0.00000000000E+00 -0.11981689068E+04  0.11981689068E+04  0.00000000000E+00 0. -1.
         25    2    1    2    0    0  0.33543022466E+02 -0.38272687404E+02  0.20741604096E+04  0.20785468056E+04  0.12500194155E+03 0.  0.
          2    1    1    2  501    0 -0.19572988754E+02 -0.79671137169E+01 -0.11954462967E+04  0.11956330646E+04  0.00000000000E+00 0. -1.
          1    1    1    2  502    0 -0.13970033712E+02  0.46239801121E+02  0.13373682257E+04  0.13382402819E+04  0.00000000000E+00 0. -1.
         22    1    3    3    0    0  0.14850676290E+02  0.45067284132E+02  0.57457079214E+03  0.57652684054E+03  0.00000000000E+00 0. -1.
         22    1    3    3    0    0  0.18692346176E+02 -0.83339971536E+02  0.14995896175E+04  0.15020199651E+04  0.00000000000E+00 0. -1.
</event>
<event>
 7    1  0.5139898E-006  0.4408474E+02  0.7818608E-02  0.1595503E+00
          2   -1    0    0  502    0  0.00000000000E+00  0.00000000000E+00  0.27638554165E+04  0.27638554165E+04  0.00000000000E+00 0. -1.
          1   -1    0    0  501    0 -0.00000000000E+00 -0.00000000000E+00 -0.12518742714E+02  0.12518742714E+02  0.00000000000E+00 0. -1.
         25    2    1    2    0    0 -0.38899017317E+02  0.28860697217E+02  0.16745738748E+04  0.16799310881E+04  0.12499890066E+03 0.  0.
          2    1    1    2  501    0  0.43245934001E+02 -0.85848295897E+01  0.40176832510E+02  0.59649710622E+02  0.00000000000E+00 0. -1.
          1    1    1    2  502    0 -0.43469166845E+01 -0.20275867627E+02  0.10365859665E+04  0.10367933606E+04  0.00000000000E+00 0. -1.
         22    1    3    3    0    0  0.25929625996E+02  0.30272620070E+02  0.20006081785E+03  0.20399291132E+03  0.00000000000E+00 0.  1.
         22    1    3    3    0    0 -0.64828643312E+02 -0.14119228532E+01  0.14745130569E+04  0.14759381767E+04  0.00000000000E+00 0.  1.
</event>
<event>
 7    1  0.5139898E-006  0.1301311E+03  0.7818608E-02  0.1343785E+00
          2   -1    0    0  502    0  0.00000000000E+00  0.00000000000E+00  0.20825143071E+04  0.20825143071E+04  0.00000000000E+00 0. -1.
          1   -1    0    0  501    0 -0.00000000000E+00 -0.00000000000E+00 -0.97371980589E+02  0.97371980589E+02  0.00000000000E+00 0. -1.
         25    2    1    2    0    0 -0.33725115330E+02  0.15196867536E+03  0.17456986476E+03  0.26520053778E+03  0.12499930344E+03 0.  0.
          2    1    1    2  501    0 -0.23540423164E+02 -0.36291433637E+02 -0.40417201265E+02  0.59201096580E+02  0.00000000000E+00 0. -1.
          1    1    1    2  502    0  0.57265538494E+02 -0.11567724173E+03  0.18509896630E+04  0.18554846533E+04  0.00000000000E+00 0. -1.
         22    1    3    3    0    0  0.26680586572E+02  0.13397800584E+03  0.11860505706E+03  0.18091191036E+03  0.00000000000E+00 0.  1.
         22    1    3    3    0    0 -0.60405701902E+02  0.17990669529E+02  0.55964807691E+02  0.84288627419E+02  0.00000000000E+00 0.  1.
</event>
<event>
 7    1  0.5139898E-006  0.6283014E+02  0.7818608E-02  0.1420791E+00
          2   -1    0    0  502    0  0.00000000000E+00  0.00000000000E+00  0.63370911098E+02  0.63370911098E+02  0.00000000000E+00 0. -1.
          1   -1    0    0  501    0 -0.00000000000E+00 -0.00000000000E+00 -0.69794077927E+03  0.69794077927E+03  0.00000000000E+00 0. -1.
         25    2    1    2    0    0  0.12591660769E+02  0.16267773577E+02 -0.18257944379E+03  0.22222346169E+03  0.12499929300E+03 0.  0.
          2    1    1    2  501    0 -0.31274209743E+02 -0.60363538644E+02 -0.47920643158E+03  0.48400479032E+03  0.00000000000E+00 0. -1.
          1    1    1    2  502    0  0.18682548973E+02  0.44095765066E+02  0.27216007201E+02  0.55083438354E+02  0.00000000000E+00 0. -1.
         22    1    3    3    0    0  0.51826962725E+02  0.44774731700E+02 -0.14668658525E+03  0.16188812481E+03  0.00000000000E+00 0.  1.
         22    1    3    3    0    0 -0.39235301956E+02 -0.28506958123E+02 -0.35892858543E+02  0.60335336871E+02  0.00000000000E+00 0.  1.
</event>
<event>
 7    1  0.5139898E-006  0.7472078E+02  0.7818608E-02  0.1392315E+00
          2   -1    0    0  502    0  0.00000000000E+00  0.00000000000E+00  0.25694887999E+04  0.25694887999E+04  0.00000000000E+00 0. -1.
          1   -1    0    0  501    0 -0.00000000000E+00 -0.00000000000E+00 -0.95056775261E+03  0.95056775261E+03  0.00000000000E+00 0. -1.
         25    2    1    2    0    0 -0.11496208703E+02 -0.21981337343E+02  0.11780790267E+04  0.11849523711E+04  0.12500634689E+03 0.  0.
          2    1    1    2  501    0  0.24973600376E+02  0.70490345417E+02 -0.94519713604E+03  0.94815093497E+03  0.00000000000E+00 0. -1.
          1    1    1    2  502    0 -0.13477391674E+02 -0.48509008074E+02  0.13860391566E+04  0.13869532464E+04  0.00000000000E+00 0. -1.
         22    1    3    3    0    0  0.56970579008E+02 -0.75024103285E+01  0.53261391985E+03  0.53570469538E+03  0.00000000000E+00 0. -1.
         22    1    3    3    0    0 -0.68466787710E+02 -0.14478927015E+02  0.64546510682E+03  0.64924767576E+03  0.00000000000E+00 0. -1.
</event>
<event>
 7    1  0.5139898E-006  0.8244326E+02  0.7818608E-02  0.1374435E+00
          2   -1    0    0  502    0  0.00000000000E+00  0.00000000000E+00  0.14059634856E+04  0.14059634856E+04  0.00000000000E+00 0. -1.
          1   -1    0    0  501    0 -0.00000000000E+00 -0.00000000000E+00 -0.67984388139E+03  0.67984388139E+03  0.00000000000E+00 0. -1.
         25    2    1    2    0    0 -0.90496453609E+02  0.78079696908E+02  0.52784253243E+02  0.18082479854E+03  0.12500153276E+03 0.  0.
          2    1    1    2  501    0  0.52457319689E+02 -0.56007768139E+01 -0.61339090170E+03  0.61565537225E+03  0.00000000000E+00 0. -1.
          1    1    1    2  502    0  0.38039133920E+02 -0.72478920094E+02  0.12867262527E+04  0.12893271962E+04  0.00000000000E+00 0. -1.
         22    1    3    3    0    0 -0.88614340592E+02  0.28412782311E+02  0.81259577486E+02  0.12354313615E+03  0.00000000000E+00 0. -1.
         22    1    3    3    0    0 -0.18821130176E+01  0.49666914597E+02 -0.28475324243E+02  0.57281662387E+02  0.00000000000E+00 0. -1.
</event>
<event>
 7    1  0.5139898E-006  0.6005660E+02  0.7818608E-02  0.1404658E+00
          2   -1    0    0  502    0  0.00000000000E+00  0.00000000000E+00  0.36463281743E+03  0.36463281743E+03  0.00000000000E+00 0. -1.
          1   -1    0    0  501    0 -0.00000000000E+00 -0.00000000000E+00 -0.47120450146E+03  0.47120450146E+03  0.00000000000E+00 0. -1.
         25    2    1    2    0    0 -0.47498484481E+02 -0.20206419829E+01 -0.30876318907E+03  0.33648206111E+03  0.12500112601E+03 0.  0.
          2    1    1    2  501    0  0.43870686394E+02 -0.57926285927E+02 -0.13689846692E+03  0.15498800589E+03  0.00000000000E+00 0. -1.
          1    1    1    2  502    0  0.36277980869E+01  0.59946927910E+02  0.33908997196E+03  0.34436725188E+03  0.00000000000E+00 0. -1.
         22    1    3    3    0    0  0.27529964520E+02  0.27957992241E+02 -0.18183547741E+03  0.18602066854E+03  0.00000000000E+00 0.  1.
         22    1    3    3    0    0 -0.75028449000E+02 -0.29978634224E+02 -0.12692771166E+03  0.15046139257E+03  0.00000000000E+00 0.  1.
</event>
<event>
 7    1  0.5139898E-006  0.3149142E+03  0.7818608E-02  0.1126776E+00
          2   -1    0    0  502    0  0.00000000000E+00  0.00000000000E+00  0.30728836200E+04  0.30728836200E+04  0.00000000000E+00 0. -1.
          1   -1    0    0  501    0 -0.00000000000E+00 -0.00000000000E+00 -0.14740897622E+03  0.14740897622E+03  0.00000000000E+00 0. -1.
         25    2    1    2    0    0  0.23972371153E+03  0.35866625075E+03  0.22748413449E+04  0.23187575701E+04  0.12499834829E+03 0.  0.
          2    1    1    2  501    0 -0.23914589483E+03 -0.19096830511E+03  0.93940861027E+02  0.32013206328E+03  0.00000000000E+00 0. -1.
          1    1    1    2  502    0 -0.57781670219E+00 -0.16769794564E+03  0.55669243779E+03  0.58140296278E+03  0.00000000000E+00 0. -1.
         22    1    3    3    0    0  0.65555849314E+02  0.12792002477E+03  0.48975634501E+03  0.51041392966E+03  0.00000000000E+00 0. -1.
         22    1    3    3    0    0  0.17416786221E+03  0.23074622598E+03  0.17850849999E+04  0.18083436404E+04  0.00000000000E+00 0. -1.
</event>
<event>
 7    1  0.5139898E-006  0.4960820E+02  0.7818608E-02  0.1462628E+00
          2   -1    0    0  502    0  0.00000000000E+00  0.00000000000E+00  0.66294488023E+02  0.66294488023E+02  0.00000000000E+00 0. -1.
          1   -1    0    0  501    0 -0.00000000000E+00 -0.00000000000E+00 -0.11882691625E+04  0.11882691625E+04  0.00000000000E+00 0. -1.
         25    2    1    2    0    0 -0.12857649172E+02 -0.32359409236E+01 -0.13021476738E+03  0.18098712037E+03  0.12499864655E+03 0.  0.
          2    1    1    2  501    0 -0.20678714897E+02 -0.39291136859E+02 -0.10140412986E+04  0.10150128856E+04  0.00000000000E+00 0. -1.
          1    1    1    2  502    0  0.33536364070E+02  0.42527077783E+02  0.22281391473E+02  0.58563644573E+02  0.00000000000E+00 0. -1.
         22    1    3    3    0    0 -0.47361077543E+02  0.30676335749E+02 -0.11844113638E+03  0.13119608237E+03  0.00000000000E+00 0.  1.
         22    1    3    3    0    0  0.34503428371E+02 -0.33912276672E+02 -0.11773630995E+02  0.49791038001E+02  0.00000000000E+00 0.  1.
</event>
<event>
 7    1  0.5139898E-006  0.8953343E+02  0.7818608E-02  0.1371708E+00
          2   -1    0    0  502    0  0.00000000000E+00  0.00000000000E+00  0.11208770011E+04  0.11208770011E+04  0.00000000000E+00 0. -1.
          1   -1    0    0  501    0 -0.00000000000E+00 -0.00000000000E+00 -0.53868725447E+02  0.53868725447E+02  0.00000000000E+00 0. -1.
         25    2    1    2    0    0 -0.77599201934E+01 -0.99296864303E+02  0.52973524926E+03  0.55332027023E+03  0.12499521397E+03 0.  0.
          2    1    1    2  501    0 -0.42718730105E+02  0.25365257098E+02 -0.22500054718E+02  0.54539331054E+02  0.00000000000E+00 0. -1.
          1    1    1    2  502    0  0.50478650299E+02  0.73931607205E+02  0.55977308109E+03  0.56688612524E+03  0.00000000000E+00 0. -1.
         22    1    3    3    0    0  0.58359168357E+01 -0.11495595278E+03  0.28014323414E+03  0.30286822322E+03  0.00000000000E+00 0.  1.
         22    1    3    3    0    0 -0.13595837029E+02  0.15659088479E+02  0.24959201513E+03  0.25045204701E+03  0.00000000000E+00 0.  1.
</event>
<event>
 7    1  0.5139898E-006  0.7604740E+02  0.7818608E-02  0.1384510E+00
          2   -1    0    0  502    0  0.00000000000E+00  0.00000000000E+00  0.13060478307E+04  0.13060478307E+04  0.00000000000E+00 0. -1.
          1   -1    0    0  501    0 -0.00000000000E+00 -0.00000000000E+00 -0.27953574452E+03  0.27953574452E+03  0.00000000000E+00 0. -1.
         25    2    1    2    0    0  0.89500474242E+02 -0.84075663353E+02 -0.39197771552E+02  0.17955086442E+03  0.12499198199E+03 0.  0.
          2    1    1    2  501    0 -0.23564730576E+02  0.47113026462E+02 -0.16489686991E+03  0.17310664775E+03  0.00000000000E+00 0. -1.
          1    1    1    2  502    0 -0.65935743666E+02  0.36962636891E+02  0.12306067276E+04  0.12329260630E+04  0.00000000000E+00 0. -1.
         22    1    3    3    0    0  0.85543441170E+02 -0.85722281530E+02 -0.75687940521E+02  0.14280985337E+03  0.00000000000E+00 0.  1.
         22    1    3    3    0    0  0.39570330716E+01  0.16466181769E+01  0.36490168969E+02  0.36741011058E+02  0.00000000000E+00 0.  1.
</event>
<event>
 7    1  0.5139898E-006  0.6321596E+02  0.7818608E-02  0.1399408E+00
          2   -1    0    0  502    0  0.00000000000E+00  0.00000000000E+00  0.13828285851E+04  0.13828285851E+04  0.00000000000E+00 0. -1.
          1   -1    0    0  501    0 -0.00000000000E+00 -0.00000000000E+00 -0.29902680564E+03  0.29902680564E+03  0.00000000000E+00 0. -1.
         25    2    1    2    0    0 -0.10466777612E+03  0.37996432328E+02  0.61381528573E+03  0.63623355662E+03  0.12499944537E+03 0.  0.
          2    1    1    2  501    0  0.46387334821E+02 -0.31798759203E+02 -0.28392206345E+03  0.28943856694E+03  0.00000000000E+00 0. -1.
          1    1    1    2  502    0  0.58280441298E+02 -0.61976731241E+01  0.75390855720E+03  0.75618326721E+03  0.00000000000E+00 0. -1.
         22    1    3    3    0    0 -0.75708391735E+02  0.32490331290E+02  0.14718958466E+03  0.16867766906E+03  0.00000000000E+00 0.  1.
         22    1    3    3    0    0 -0.28959384384E+02  0.55061010376E+01  0.46662570107E+03  0.46755588756E+03  0.00000000000E+00 0.  1.
</event>
<event>
 7    1  0.5139898E-006  0.1111937E+03  0.7818608E-02  0.1336506E+00
          2   -1    0    0  502    0  0.00000000000E+00  0.00000000000E+00  0.20685961862E+03  0.20685961862E+03  0.00000000000E+00 0. -1.
          1   -1    0    0  501    0 -0.00000000000E+00 -0.00000000000E+00 -0.16773097305E+04  0.16773097305E+04  0.00000000000E+00 0. -1.
         25    2    1    2    0    0 -0.10715322871E+03 -0.15630535263E+01 -0.33274354459E+03  0.37125920204E+03  0.12502348211E+03 0.  0.
          2    1    1    2  501    0  0.78707666402E+01  0.53341725687E+02 -0.13079949869E+04  0.13091058683E+04  0.00000000000E+00 0. -1.
          1    1    1    2  502    0  0.99282462068E+02 -0.51778672160E+02  0.17028841965E+03  0.20380427874E+03  0.00000000000E+00 0. -1.
         22    1    3    3    0    0 -0.73985119287E+02 -0.51302596749E+02 -0.11844829248E+03  0.14878088688E+03  0.00000000000E+00 0.  1.
         22    1    3    3    0    0 -0.33168109421E+02  0.49739543222E+02 -0.21429525210E+03  0.22247831516E+03  0.00000000000E+00 0.  1.
</event>
<event>
 7    1  0.5139898E-006  0.8718568E+02  0.7818608E-02  0.1316303E+00
          2   -1    0    0  502    0  0.00000000000E+00  0.00000000000E+00  0.37265107392E+03  0.37265107392E+03  0.00000000000E+00 0. -1.
          1   -1    0    0  501    0 -0.00000000000E+00 -0.00000000000E+00 -0.15445696379E+04  0.15445696379E+04  0.00000000000E+00 0. -1.
         25    2    1    2    0    0 -0.15096016855E+01 -0.36587823185E+02 -0.11548740415E+03  0.17407911939E+03  0.12500100635E+03 0.  0.
          2    1    1    2  501    0 -0.80542408342E+02  0.41886031424E+02 -0.13933655108E+04  0.13963197935E+04  0.00000000000E+00 0. -1.
          1    1    1    2  502    0  0.82052010028E+02 -0.52982082394E+01  0.33693435094E+03  0.34682179891E+03  0.00000000000E+00 0. -1.
         22    1    3    3    0    0  0.57845848165E+02 -0.16747653290E+02 -0.85764779826E+02  0.10479610441E+03  0.00000000000E+00 0.  1.
         22    1    3    3    0    0 -0.59355449851E+02 -0.19840169895E+02 -0.29722624322E+02  0.69283014982E+02  0.00000000000E+00 0.  1.
</event>
<event>
 7    1  0.5139898E-006  0.1096151E+03  0.7818608E-02  0.1349317E+00
          2   -1    0    0  502    0  0.00000000000E+00  0.00000000000E+00  0.14796631127E+04  0.14796631127E+04  0.00000000000E+00 0. -1.
          1   -1    0    0  501    0 -0.00000000000E+00 -0.00000000000E+00 -0.65621604468E+02  0.65621604468E+02  0.00000000000E+00 0. -1.
         25    2    1    2    0    0  0.11366255166E+03 -0.85309472833E+02  0.62187998875E+03  0.65004334995E+03  0.12499901840E+03 0.  0.
          2    1    1    2  501    0 -0.48673252006E+02  0.54235877710E+01 -0.35948906417E+02  0.60752157473E+02  0.00000000000E+00 0. -1.
          1    1    1    2  502    0 -0.64989299651E+02  0.79885885062E+02  0.82811042595E+03  0.83448920979E+03  0.00000000000E+00 0. -1.
         22    1    3    3    0    0  0.13393652902E+03 -0.47395184054E+02  0.41211501063E+03  0.43591751428E+03  0.00000000000E+00 0. -1.
         22    1    3    3    0    0 -0.20273977359E+02 -0.37914288779E+02  0.20976497812E+03  0.21412583566E+03  0.00000000000E+00 0. -1.
</event>
<event>
 7    1  0.5139898E-006  0.7425032E+02  0.7818608E-02  0.1432442E+00
          2   -1    0    0  502    0  0.00000000000E+00  0.00000000000E+00  0.30610400448E+02  0.30610400448E+02  0.00000000000E+00 0. -1.
          1   -1    0    0  501    0 -0.00000000000E+00 -0.00000000000E+00 -0.12764602536E+04  0.12764602536E+04  0.00000000000E+00 0. -1.
         25    2    1    2    0    0  0.30846015650E+02  0.37732668479E+02 -0.29209585428E+03  0.32144473873E+03  0.12502600138E+03 0.  0.
          2    1    1    2  501    0  0.95501136893E+01  0.35832023331E+02 -0.85593415606E+03  0.85673707640E+03  0.00000000000E+00 0. -1.
          1    1    1    2  502    0 -0.40396129339E+02 -0.73564691810E+02 -0.97819842789E+02  0.12888883889E+03  0.00000000000E+00 0. -1.
         22    1    3    3    0    0 -0.39325086083E+02  0.38452159328E+02 -0.18818318916E+03  0.19605597067E+03  0.00000000000E+00 0.  1.
         22    1    3    3    0    0  0.70171101732E+02 -0.71949084993E+00 -0.10391266512E+03  0.12538876807E+03  0.00000000000E+00 0.  1.
</event>
<event>
 7    1  0.5139898E-006  0.6243237E+02  0.7818608E-02  0.1419279E+00
          2   -1    0    0  502    0  0.00000000000E+00  0.00000000000E+00  0.43444685539E+03  0.43444685539E+03  0.00000000000E+00 0. -1.
          1   -1    0    0  501    0 -0.00000000000E+00 -0.00000000000E+00 -0.31279778012E+03  0.31279778012E+03  0.00000000000E+00 0. -1.
         25    2    1    2    0    0 -0.23215316734E+02  0.10216180268E+03  0.88489679113E+02  0.18557810997E+03  0.12503130301E+03 0.  0.
          2    1    1    2  501    0 -0.37463253520E+01 -0.48614998185E+02 -0.25893362875E+03  0.26348449119E+03  0.00000000000E+00 0. -1.
          1    1    1    2  502    0  0.26961642086E+02 -0.53546804490E+02  0.29209302490E+03  0.29818203435E+03  0.00000000000E+00 0. -1.
         22    1    3    3    0    0 -0.41833458855E+02  0.10344982494E+03  0.11028069051E+03  0.15688765171E+03  0.00000000000E+00 0. -1.
         22    1    3    3    0    0  0.18618142122E+02 -0.12880222624E+01 -0.21791011395E+02  0.28690458258E+02  0.00000000000E+00 0. -1.
</event>
<event>
 7    1  0.5139898E-006  0.9258729E+02  0.7818608E-02  0.1386817E+00
          2   -1    0    0  502    0  0.00000000000E+00  0.00000000000E+00  0.20266490696E+04  0.20266490696E+04  0.00000000000E+00 0. -1.
          1   -1    0    0  501    0 -0.00000000000E+00 -0.00000000000E+00 -0.27793631418E+02  0.27793631418E+02  0.00000000000E+00 0. -1.
         25    2    1    2    0    0 -0.73783984958E+01 -0.12616412012E+03  0.60803217485E+03  0.63348231466E+03  0.12499956547E+03 0.  0.
          2    1    1    2  501    0 -0.14500716810E+02  0.39915357903E+02  0.19461017503E+02  0.46714428036E+02  0.00000000000E+00 0. -1.
          1    1    1    2  502    0  0.21879115306E+02  0.86248762218E+02  0.13713622458E+04  0.13742459583E+04  0.00000000000E+00 0. -1.
         22    1    3    3    0    0  0.26690612720E+02 -0.10911710239E+02  0.24911782127E+02  0.38105788490E+02  0.00000000000E+00 0. -1.
         22    1    3    3    0    0 -0.34069011216E+02 -0.11525240988E+03  0.58312039272E+03  0.59537652617E+03  0.00000000000E+00 0. -1.
</event>
<event>
 7    1  0.5139898E-006  0.4226723E+02  0.7818608E-02  0.1515601E+00
          2   -1    0    0  502    0  0.00000000000E+00  0.00000000000E+00  0.11019241240E+03  0.11019241240E+03  0.00000000000E+00 0. -1.
          1   -1    0    0  501    0 -0.00000000000E+00 -0.00000000000E+00 -0.59718496315E+03  0.59718496315E+03  0.00000000000E+00 0. -1.
         25    2    1    2    0    0  0.63896618891E+02 -0.13089471083E+02 -0.66696054573E+02  0.15597317514E+03  0.12500062203E+03 0.  0.
          2    1    1    2  501    0 -0.39714048204E+02 -0.13592231686E+02 -0.47991896157E+03  0.48175114329E+03  0.00000000000E+00 0. -1.
          1    1    1    2  502    0 -0.24182570687E+02  0.26681702769E+02  0.59622465389E+02  0.69653057124E+02  0.00000000000E+00 0. -1.
         22    1    3    3    0    0  0.22596293264E+01  0.15777450690E+01  0.35567014652E+02  0.35673628011E+02  0.00000000000E+00 0.  1.
         22    1    3    3    0    0  0.61636989564E+02 -0.14667216152E+02 -0.10226306923E+03  0.12029954713E+03  0.00000000000E+00 0.  1.
</event>
<event>
 7    1  0.5139898E-006  0.1281934E+03  0.7818608E-02  0.1267115E+00
          2   -1    0    0  502    0  0.00000000000E+00  0.00000000000E+00  0.11806990902E+04  0.11806990902E+04  0.00000000000E+00 0. -1.
          1   -1    0    0  501    0 -0.00000000000E+00 -0.00000000000E+00 -0.50231953511E+03  0.50231953511E+03  0.00000000000E+00 0. -1.
         25    2    1    2    0    0 -0.82226905483E+00 -0.20572182305E+03 -0.11190233009E+03  0.26545870872E+03  0.12499619975E+03 0.  0.
          2    1    1    2  501    0 -0.30950230660E+02  0.82958647058E+02 -0.30365330069E+03  0.31629951141E+03  0.00000000000E+00 0. -1.
          1    1    1    2  502    0  0.31772499715E+02  0.12276317599E+03  0.10939351859E+04  0.11012604052E+04  0.00000000000E+00 0. -1.
         22    1    3    3    0    0 -0.26004076267E+02 -0.28545238078E+02  0.19673976265E+02  0.43337142747E+02  0.00000000000E+00 0.  1.
         22    1    3    3    0    0  0.25181807212E+02 -0.17717658497E+03 -0.13157630635E+03  0.22212156597E+03  0.00000000000E+00 0.  1.
</event>
<event>
 7    1  0.5139898E-006  0.7882048E+02  0.7818608E-02  0.1393565E+00
          2   -1    0    0  502    0  0.00000000000E+00  0.00000000000E+00  0.12878477582E+03  0.12878477582E+03  0.00000000000E+00 0. -1.
          1   -1    0    0  501    0 -0.00000000000E+00 -0.00000000000E+00 -0.45868113596E+03  0.45868113596E+03  0.00000000000E+00 0. -1.
         25    2    1    2    0    0  0.22050343417E+02 -0.31773098866E+02 -0.99187345121E+02  0.16418775388E+03  0.12499496645E+03 0.  0.
          2    1    1    2  501    0 -0.48821928818E+02  0.70710312716E+02 -0.31507417949E+03  0.32658118078E+03  0.00000000000E+00 0. -1.
          1    1    1    2  502    0  0.26771585400E+02 -0.38937213850E+02  0.84365164468E+02  0.96696977114E+02  0.00000000000E+00 0. -1.
         22    1    3    3    0    0  0.32170969009E+01 -0.70163130166E+02 -0.99051700118E+02  0.12142674270E+03  0.00000000000E+00 0.  1.
         22    1    3    3    0    0  0.18833246516E+02  0.38390031300E+02 -0.13564500273E+00  0.42761011180E+02  0.00000000000E+00 0.  1.
</event>
<event>
 7    1  0.5139898E-006  0.1007537E+03  0.7818608E-02  0.1339641E+00
          2   -1    0    0  502    0  0.00000000000E+00  0.00000000000E+00  0.25904954586E+04  0.25904954586E+04  0.00000000000E+00 0. -1.
          1   -1    0    0  501    0 -0.00000000000E+00 -0.00000000000E+00 -0.74444177770E+03  0.74444177770E+03  0.00000000000E+00 0. -1.
         25    2    1    2    0    0  0.10271250626E+03 -0.10574363326E+03  0.72958424703E+03  0.75475131045E+03  0.12499916882E+03 0.  0.
          2    1    1    2  501    0 -0.53124110133E+02  0.23044972226E+02 -0.72945240330E+03  0.73174725862E+03  0.00000000000E+00 0. -1.
          1    1    1    2  502    0 -0.49588396127E+02  0.82698661033E+02  0.18459218372E+04  0.18484386672E+04  0.00000000000E+00 0. -1.
         22    1    3    3    0    0  0.36968159368E+02  0.21410272703E+02  0.27096117802E+03  0.27430822915E+03  0.00000000000E+00 0.  1.
         22    1    3    3    0    0  0.65744346892E+02 -0.12715390596E+03  0.45862306901E+03  0.48044308131E+03  0.00000000000E+00 0.  1.
</event>
<event>
 7    1  0.5139898E-006  0.9138110E+02  0.7818608E-02  0.1313036E+00
          2   -1    0    0  502    0  0.00000000000E+00  0.00000000000E+00  0.13953522381E+04  0.13953522381E+04  0.00000000000E+00 0. -1.
          1   -1    0    0  501    0 -0.00000000000E+00 -0.00000000000E+00 -0.78776846002E+02  0.78776846002E+02  0.00000000000E+00 0. -1.
         25    2    1    2    0    0 -0.13585124194E+03 -0.28664933601E+02  0.33053213432E+03  0.37967581157E+03  0.12499996686E+03 0.  0.
          2    1    1    2  501    0  0.52774312852E+02  0.61172792605E+02 -0.20992243493E+02  0.83474025535E+02  0.00000000000E+00 0. -1.
          1    1    1    2  502    0  0.83076929091E+02 -0.32507859004E+02  0.10070355013E+04  0.10109792470E+04  0.00000000000E+00 0. -1.
         22    1    3    3    0    0 -0.64524749367E+01  0.27182568725E+01 -0.11037778872E+02  0.13071186467E+02  0.00000000000E+00 0. -1.
         22    1    3    3    0    0 -0.12939876701E+03 -0.31383190474E+02  0.34156991319E+03  0.36660462510E+03  0.00000000000E+00 0. -1.
</event>
<event>
 7    1  0.5139898E-006  0.8799033E+02  0.7818608E-02  0.1322725E+00
          2   -1    0    0  502    0  0.00000000000E+00  0.00000000000E+00  0.96887943178E+03  0.96887943178E+03  0.00000000000E+00 0. -1.
          1   -1    0    0  501    0 -0.00000000000E+00 -0.00000000000E+00 -0.97838809440E+03  0.97838809440E+03  0.00000000000E+00 0. -1.
         25    2    1    2    0    0 -0.43766137219E+02  0.14282330298E+03  0.21277139121E+02  0.19593797844E+03  0.12500001641E+03 0.  0.
          2    1    1    2  501    0 -0.87057328201E+01 -0.86571959571E+02 -0.88720561075E+03  0.89146188349E+03  0.00000000000E+00 0. -1.
          1    1    1    2  502    0  0.52471870039E+02 -0.56251343411E+02  0.85641980901E+03  0.85986766426E+03  0.00000000000E+00 0. -1.
         22    1    3    3    0    0 -0.77441592922E+02  0.93862440097E+02 -0.20362236388E+02  0.12337738304E+03  0.00000000000E+00 0.  1.
         22    1    3    3    0    0  0.33675455703E+02  0.48960862885E+02  0.41639375510E+02  0.72560595395E+02  0.00000000000E+00 0.  1.
</event>
<event>
 7    1  0.5139898E-006  0.1003268E+03  0.7818608E-02  0.1326263E+00
          2   -1    0    0  502    0  0.00000000000E+00  0.00000000000E+00  0.12009440511E+04  0.12009440511E+04  0.00000000000E+00 0. -1.
          1   -1    0    0  501    0 -0.00000000000E+00 -0.00000000000E+00 -0.13218994250E+03  0.13218994250E+03  0.00000000000E+00 0. -1.
         25    2    1    2    0    0  0.48367169169E+02 -0.11115819844E+03  0.91651277370E+03  0.93290663312E+03  0.12499437444E+03 0.  0.
          2    1    1    2  501    0  0.15875671111E+02  0.99011220331E+02 -0.98823947770E+02  0.14078860514E+03  0.00000000000E+00 0. -1.
          1    1    1    2  502    0 -0.64242840280E+02  0.12146978108E+02  0.25106528265E+03  0.25943875531E+03  0.00000000000E+00 0. -1.
         22    1    3    3    0    0  0.55762967566E+02  0.39720096900E+01  0.22530030693E+03  0.23213253480E+03  0.00000000000E+00 0. -1.
         22    1    3    3    0    0 -0.73957983965E+01 -0.11513020813E+03  0.69121246677E+03  0.70077409832E+03  0.00000000000E+00 0. -1.
</event>
<event>
 7    1  0.5139898E-006  0.7478603E+02  0.7818608E-02  0.1391258E+00
          2   -1    0    0  502    0  0.00000000000E+00  0.00000000000E+00  0.23668276780E+03  0.23668276780E+03  0.00000000000E+00 0. -1.
          1   -1    0    0  501    0 -0.00000000000E+00 -0.00000000000E+00 -0.22096830104E+03  0.22096830104E+03  0.00000000000E+00 0. -1.
         25    2    1    2    0    0  0.70983529989E+02  0.22161553297E+02  0.69221510814E+02  0.16106295237E+03  0.12497944268E+03 0.  0.
          2    1    1    2  501    0 -0.70420418555E+02  0.28565735203E+02 -0.16082954441E+03  0.17787967543E+03  0.00000000000E+00 0. -1.
          1    1    1    2  502    0 -0.56311143426E+00 -0.50727288500E+02  0.10732250035E+03  0.11870844104E+03  0.00000000000E+00 0. -1.
         22    1    3    3    0    0  0.28344968306E+02 -0.36899600464E+02 -0.15766970962E+02  0.49128557032E+02  0.00000000000E+00 0.  1.
         22    1    3    3    0    0  0.42638561683E+02  0.59061153761E+02  0.84988481776E+02  0.11193439534E+03  0.00000000000E+00 0.  1.
</event>
<event>
 7    1  0.5139898E-006  0.1078122E+03  0.7818608E-02  0.1365161E+00
          2   -1    0    0  502    0  0.00000000000E+00  0.00000000000E+00  0.12524826795E+04  0.12524826795E+04  0.00000000000E+00 0. -1.
          1   -1    0    0  501    0 -0.00000000000E+00 -0.00000000000E+00 -0.24834623130E+03  0.24834623130E+03  0.00000000000E+00 0. -1.
         25    2    1    2    0    0 -0.14002317273E+03 -0.49206178528E+02  0.18475876759E+03  0.26793365621E+03  0.12499962009E+03 0.  0.
          2    1    1    2  501    0  0.39393063410E+02  0.18596537000E+02 -0.20173237987E+03  0.20638216425E+03  0.00000000000E+00 0. -1.
          1    1    1    2  502    0  0.10063010932E+03  0.30609641527E+02  0.10211100605E+04  0.10265130904E+04  0.00000000000E+00 0. -1.
         22    1    3    3    0    0 -0.12102434220E+03 -0.46063251885E+02  0.61816094429E+02  0.14349196531E+03  0.00000000000E+00 0.  1.
         22    1    3    3    0    0 -0.18998830529E+02 -0.31429266426E+01  0.12294267316E+03  0.12444169090E+03  0.00000000000E+00 0.  1.
</event>
<event>
 7    1  0.5139898E-006  0.8910905E+02  0.7818608E-02  0.1475865E+00
          2   -1    0    0  502    0  0.00000000000E+00  0.00000000000E+00  0.12009553226E+04  0.12009553226E+04  0.00000000000E+00 0. -1.
          1   -1    0    0  501    0 -0.00000000000E+00 -0.00000000000E+00 -0.19443891910E+03  0.19443891910E+03  0.00000000000E+00 0. -1.
         25    2    1    2    0    0  0.72557823155E+01  0.90562603941E+02  0.25134437296E+03  0.29504897005E+03  0.12500267718E+03 0.  0.
          2    1    1    2  501    0 -0.28860081087E+02 -0.84348883174E+02 -0.16092699068E+03  0.18397047237E+03  0.00000000000E+00 0. -1.
          1    1    1    2  502    0  0.21604298772E+02 -0.62137207667E+01  0.91609902123E+03  0.91637479928E+03  0.00000000000E+00 0. -1.
         22    1    3    3    0    0 -0.29246110334E+02  0.10271181644E+03  0.22303584092E+03  0.24728533831E+03  0.00000000000E+00 0. -1.
         22    1    3    3    0    0  0.36501892649E+02 -0.12149212500E+02  0.28308532038E+02  0.47763631745E+02  0.00000000000E+00 0. -1.
</event>
<event>
 7    1  0.5139898E-006  0.1227776E+03  0.7818608E-02  0.1258892E+00
          2   -1    0    0  502    0  0.00000000000E+00  0.00000000000E+00  0.94349351074E+03  0.94349351074E+03  0.00000000000E+00 0. -1.
          1   -1    0    0  501    0 -0.00000000000E+00 -0.00000000000E+00 -0.14117439823E+03  0.14117439823E+03  0.00000000000E+00 0. -1.
         25    2    1    2    0    0 -0.37109500197E+02  0.40248411981E+02  0.23516379455E+02  0.13847847332E+03  0.12500487109E+03 0.  0.
          2    1    1    2  501    0  0.44430327358E+02  0.89800896214E+02 -0.46652645164E+02  0.11052024362E+03  0.00000000000E+00 0. -1.
          1    1    1    2  502    0 -0.73208271608E+01 -0.13004930819E+03  0.82545537822E+03  0.83566919203E+03  0.00000000000E+00 0. -1.
         22    1    3    3    0    0 -0.67484835896E+02  0.64380947966E+02  0.30410252458E+00  0.93269512785E+02  0.00000000000E+00 0. -1.
         22    1    3    3    0    0  0.30375335699E+02 -0.24132535985E+02  0.23212276931E+02  0.45208960530E+02  0.00000000000E+00 0. -1.
</event>
<event>
 7    1  0.5139898E-006  0.1134128E+03  0.7818608E-02  0.1414183E+00
          2   -1    0    0  502    0  0.00000000000E+00  0.00000000000E+00  0.29552858857E+04  0.29552858857E+04  0.00000000000E+00 0. -1.
          1   -1    0    0  501    0 -0.00000000000E+00 -0.00000000000E+00 -0.66311276662E+03  0.66311276662E+03  0.00000000000E+00 0. -1.
         25    2    1    2    0    0  0.11429417417E+03  0.26125441571E+02  0.12186262132E+04  0.12306176813E+04  0.12499733267E+03 0.  0.
          2    1    1    2  501    0 -0.13274851916E+02  0.24561330377E+02 -0.65497407383E+03  0.65556885072E+03  0.00000000000E+00 0. -1.
          1    1    1    2  502    0 -0.10101932226E+03 -0.50686771947E+02  0.17285209797E+04  0.17322121203E+04  0.00000000000E+00 0. -1.
         22    1    3    3    0    0  0.24846428820E+02 -0.48678041199E+02  0.36769651442E+03  0.37173595930E+03  0.00000000000E+00 0.  1.
         22    1    3    3    0    0  0.89447745353E+02  0.74803482770E+02  0.85092969876E+03  0.85888172202E+03  0.00000000000E+00 0.  1.
</event>
<event>
 7    1  0.5139898E-006  0.6340084E+02  0.7818608E-02  0.1421916E+00
          2   -1    0    0  502    0  0.00000000000E+00  0.00000000000E+00  0.19336010984E+03  0.19336010984E+03  0.00000000000E+00 0. -1.
          1   -1    0    0  501    0 -0.00000000000E+00 -0.00000000000E+00 -0.19771851674E+04  0.19771851674E+04  0.00000000000E+00 0. -1.
         25    2    1    2    0    0 -0.38234865076E+02  0.33229536850E+02 -0.92051995065E+03  0.93034997910E+03  0.12501198763E+03 0.  0.
          2    1    1    2  501    0  0.35997089546E+02  0.30299105756E+02 -0.10458453453E+04  0.10469032012E+04  0.00000000000E+00 0. -1.
          1    1    1    2  502    0  0.22377755304E+01 -0.63528642605E+02  0.18254023847E+03  0.19329209692E+03  0.00000000000E+00 0. -1.
         22    1    3    3    0    0 -0.15489065968E+02  0.78745890237E+02 -0.66397279096E+03  0.66880542277E+03  0.00000000000E+00 0.  1.
         22    1    3    3    0    0 -0.22745799108E+02 -0.45516353387E+02 -0.25654715969E+03  0.26154455633E+03  0.00000000000E+00 0.  1.
</event>
<event>
 7    1  0.5139898E-006  0.4087842E+02  0.7818608E-02  0.1584632E+00
          2   -1    0    0  502    0  0.00000000000E+00  0.00000000000E+00  0.26023768283E+02  0.26023768283E+02  0.00000000000E+00 0. -1.
          1   -1    0    0  501    0 -0.00000000000E+00 -0.00000000000E+00 -0.27792114310E+04  0.27792114310E+04  0.00000000000E+00 0. -1.
         25    2    1    2    0    0  0.62605144539E+02  0.38045937902E+01 -0.30639339230E+03  0.33680312465E+03  0.12500221949E+03 0.  0.
          2    1    1    2  501    0 -0.39461018335E+02 -0.97467835775E+01 -0.24440412542E+04  0.24443792308E+04  0.00000000000E+00 0. -1.
          1    1    1    2  502    0 -0.23144126204E+02  0.59421897874E+01 -0.27530162102E+01  0.24052843812E+02  0.00000000000E+00 0. -1.
         22    1    3    3    0    0  0.76731368869E+02 -0.14601565754E+02 -0.30353729923E+03  0.31342590945E+03  0.00000000000E+00 0. -1.
         22    1    3    3    0    0 -0.14126224330E+02  0.18406159544E+02 -0.28560930630E+01  0.23377215202E+02  0.00000000000E+00 0. -1.
</event>
<event>
 7    1  0.5139898E-006  0.4331494E+02  0.7818608E-02  0.1514362E+00
          2   -1    0    0  502    0  0.00000000000E+00  0.00000000000E+00  0.81577123732E+02  0.81577123732E+02  0.00000000000E+00 0. -1.
          1   -1    0    0  501    0 -0.00000000000E+00 -0.00000000000E+00 -0.23026163948E+03  0.23026163948E+03  0.00000000000E+00 0. -1.
         25    2    1    2    0    0 -0.60870628679E+01 -0.12088633171E+02  0.13436823885E+02  0.12644476531E+03  0.12499817219E+03 0.  0.
          2    1    1    2  501    0 -0.88821429001E+01  0.44204391633E+02 -0.12989555177E+03  0.13749827298E+03  0.00000000000E+00 0. -1.
          1    1    1    2  502    0  0.14969205768E+02 -0.32115758462E+02 -0.32225787864E+02  0.47895724928E+02  0.00000000000E+00 0. -1.
         22    1    3    3    0    0 -0.23187804665E+02 -0.31038823980E+02 -0.46957615461E+02  0.60877750690E+02  0.00000000000E+00 0. -1.
         22    1    3    3    0    0  0.17100741797E+02  0.18950190810E+02  0.60394439347E+02  0.65567014617E+02  0.00000000000E+00 0. -1.
</event>
<event>
 7    1  0.5139898E-006  0.8579562E+02  0.7818608E-02  0.1410839E+00
          2   -1    0    0  502    0  0.00000000000E+00  0.00000000000E+00  0.24683557217E+04  0.24683557217E+04  0.00000000000E+00 0. -1.
          1   -1    0    0  501    0 -0.00000000000E+00 -0.00000000000E+00 -0.19206548106E+03  0.19206548106E+03  0.00000000000E+00 0. -1.
         25    2    1    2    0    0  0.21212784965E+02  0.52180749573E+02  0.88708330989E+03  0.89761631166E+03  0.12500172559E+03 0.  0.
          2    1    1    2  501    0 -0.56991363839E+02 -0.64617151991E+02 -0.17662274130E+03  0.19651713571E+03  0.00000000000E+00 0. -1.
          1    1    1    2  502    0  0.35778578874E+02  0.12436402418E+02  0.15658296720E+04  0.15662877554E+04  0.00000000000E+00 0. -1.
         22    1    3    3    0    0  0.72638017182E+02  0.16423189775E+02  0.48233179677E+03  0.48804709289E+03  0.00000000000E+00 0. -1.
         22    1    3    3    0    0 -0.51425232217E+02  0.35757559798E+02  0.40475151311E+03  0.40956921876E+03  0.00000000000E+00 0. -1.
</event>
<event>
 7    1  0.5139898E-006  0.5996441E+02  0.7818608E-02  0.1423394E+00
          2   -1    0    0  502    0  0.00000000000E+00  0.00000000000E+00  0.70333719672E+03  0.70333719672E+03  0.00000000000E+00 0. -1.
          1   -1    0    0  501    0 -0.00000000000E+00 -0.00000000000E+00 -0.21590639956E+03  0.21590639956E+03  0.00000000000E+00 0. -1.
         25    2    1    2    0    0 -0.12706857618E+02  0.55845537813E+02  0.24890467315E+03  0.28435834344E+03  0.12500377133E+03 0.  0.
          2    1    1    2  501    0 -0.35928173404E+02 -0.48493790175E+02 -0.19215207998E+03  0.20140730665E+03  0.00000000000E+00 0. -1.
          1    1    1    2  502    0  0.48635031021E+02 -0.73517476375E+01  0.43067820399E+03  0.43347794619E+03  0.00000000000E+00 0. -1.
         22    1    3    3    0    0 -0.36742039832E+02  0.82673965172E+02  0.11860392528E+03  0.14917055038E+03  0.00000000000E+00 0. -1.
         22    1    3    3    0    0  0.24035182215E+02 -0.26828427360E+02  0.13030074787E+03  0.13518779306E+03  0.00000000000E+00 0. -1.
</event>
<event>
 7    1  0.5139898E-006  0.4283083E+02  0.7818608E-02  0.1570673E+00
          2   -1    0    0  502    0  0.00000000000E+00  0.00000000000E+00  0.12539722466E+04  0.12539722466E+04  0.00000000000E+00 0. -1.
          1   -1    0    0  501    0 -0.00000000000E+00 -0.00000000000E+00 -0.99636826859E+01  0.99636826859E+01  0.00000000000E+00 0. -1.
         25    2    1    2    0    0 -0.22143969930E+02  0.32928492500E+02  0.59636965821E+03  0.61061924903E+03  0.12499782812E+03 0.  0.
          2    1    1    2  501    0  0.21359361685E+02  0.12729508646E+02  0.44062666393E+03  0.44132767836E+03  0.00000000000E+00 0. -1.
          1    1    1    2  502    0  0.78460824442E+00 -0.45658001146E+02  0.20701224180E+03  0.21198900192E+03  0.00000000000E+00 0. -1.
         22    1    3    3    0    0 -0.28499801628E+02  0.13953393784E+02  0.29281201638E+02  0.43177826025E+02  0.00000000000E+00 0. -1.
         22    1    3    3    0    0  0.63558316984E+01  0.18975098716E+02  0.56708845657E+03  0.56744142301E+03  0.00000000000E+00 0. -1.
</event>
<event>
 7    1  0.5139898E-006  0.9114755E+02  0.7818608E-02  0.1308480E+00
          2   -1    0    0  502    0  0.00000000000E+00  0.00000000000E+00  0.31032178805E+04  0.31032178805E+04  0.00000000000E+00 0. -1.
          1   -1    0    0  501    0 -0.00000000000E+00 -0.00000000000E+00 -0.42706870680E+03  0.42706870680E+03  0.00000000000E+00 0. -1.
         25    2    1    2    0    0 -0.13561074211E+03 -0.88995462845E+01  0.60416377195E+02  0.19426861832E+03  0.12498272732E+03 0.  0.
          2    1    1    2  501    0  0.75192887742E+02 -0.50051008715E+02 -0.35386961087E+03  0.36521606665E+03  0.00000000000E+00 0. -1.
          1    1    1    2  502    0  0.60417854373E+02  0.58950555000E+02  0.29696024074E+04  0.29708019023E+04  0.00000000000E+00 0. -1.
         22    1    3    3    0    0  0.39516730287E+01  0.24093150604E+02  0.43475981004E+02  0.49862376097E+02  0.00000000000E+00 0. -1.
         22    1    3    3    0    0 -0.13956241514E+03 -0.32992696888E+02  0.16940396191E+02  0.14440624222E+03  0.00000000000E+00 0. -1.
</event>
<event>
 7    1  0.8184389E-006  0.1506661E+03  0.7818608E-02  0.1245074E+00
          2   -1    0    0  502    0  0.00000000000E+00  0.00000000000E+00  0.18854832534E+04  0.18854832534E+04  0.00000000000E+00 0. -1.
          1   -1    0    0  501    0 -0.00000000000E+00 -0.00000000000E+00 -0.72260962842E+03  0.72260962842E+03  0.00000000000E+00 0. -1.
         25    2    1    2    0    0 -0.15407166824E+03 -0.28258184551E+02 -0.28310681014E+03  0.34685734013E+03  0.12499577794E+03 0.  0.
          2    1    1    2  501    0  0.17340711280E+02  0.92070103804E+02 -0.39912353549E+03  0.40997219523E+03  0.00000000000E+00 0. -1.
          1    1    1    2  502    0  0.13673095696E+03 -0.63811919254E+02  0.18451039706E+04  0.18512633464E+04  0.00000000000E+00 0. -1.
         22    1    3    3    0    0 -0.58608316175E+02 -0.63196569654E+02 -0.19155325068E+03  0.21005091999E+03  0.00000000000E+00 0.  1.
         22    1    3    3    0    0 -0.95463352066E+02  0.34938385103E+02 -0.91553559456E+02  0.13680642014E+03  0.00000000000E+00 0.  1.
</event>
<event>
 7    1  0.5139898E-006  0.1347675E+03  0.7818608E-02  0.1233066E+00
          2   -1    0    0  502    0  0.00000000000E+00  0.00000000000E+00  0.14719843005E+03  0.14719843005E+03  0.00000000000E+00 0. -1.
          1   -1    0    0  501    0 -0.00000000000E+00 -0.00000000000E+00 -0.61578809763E+03  0.61578809763E+03  0.00000000000E+00 0. -1.
         25    2    1    2    0    0  0.82814498342E+02  0.31962279797E+02 -0.11639768795E+03  0.19249013897E+03  0.12499681346E+03 0.  0.
          2    1    1    2  501    0 -0.10052382837E+03  0.10163663976E+03 -0.40212322783E+03  0.42677644848E+03  0.00000000000E+00 0. -1.
          1    1    1    2  502    0  0.17709330027E+02 -0.13359891956E+03  0.49931248206E+02  0.14371994024E+03  0.00000000000E+00 0. -1.
         22    1    3    3    0    0  0.10740446417E+03 -0.24186951087E+01 -0.63561520426E+02  0.12482642304E+03  0.00000000000E+00 0.  1.
         22    1    3    3    0    0 -0.24589965827E+02  0.34380974906E+02 -0.52836167526E+02  0.67663715931E+02  0.00000000000E+00 0.  1.
</event>
<event>
 7    1  0.5139898E-006  0.5670156E+02  0.7818608E-02  0.1520876E+00
          2   -1    0    0  502    0  0.00000000000E+00  0.00000000000E+00  0.80522865941E+03  0.80522865941E+03  0.00000000000E+00 0. -1.
          1   -1    0    0  501    0 -0.00000000000E+00 -0.00000000000E+00 -0.13921216184E+04  0.13921216184E+04  0.00000000000E+00 0. -1.
         25    2    1    2    0    0 -0.22921700771E+02  0.75815675692E+02 -0.28809564600E+02  0.15076030352E+03  0.12500102823E+03 0.  0.
          2    1    1    2  501    0  0.26095496121E+02 -0.50100311411E+02 -0.13014983242E+04  0.13027236484E+04  0.00000000000E+00 0. -1.
          1    1    1    2  502    0 -0.31737953498E+01 -0.25715364282E+02  0.74341492982E+03  0.74386632591E+03  0.00000000000E+00 0. -1.
         22    1    3    3    0    0 -0.60601302538E+02 -0.67015682757E+00  0.47868411143E+00  0.60606898270E+02  0.00000000000E+00 0. -1.
         22    1    3    3    0    0  0.37679601767E+02  0.76485832520E+02 -0.29288248711E+02  0.90153405250E+02  0.00000000000E+00 0. -1.
</event>
<event>
 7    1  0.5139898E-006  0.1044067E+03  0.7818608E-02  0.1340411E+00
          2   -1    0    0  502    0  0.00000000000E+00  0.00000000000E+00  0.57219529052E+03  0.57219529052E+03  0.00000000000E+00 0. -1.
          1   -1    0    0  501    0 -0.00000000000E+00 -0.00000000000E+00 -0.95020667146E+03  0.95020667146E+03  0.00000000000E+00 0. -1.
         25    2    1    2    0    0  0.76431526272E+02 -0.47605353380E+02 -0.44874460511E+02  0.16045745261E+03  0.12499931606E+03 0.  0.
          2    1    1    2  501    0 -0.29275595467E+02 -0.47162379333E+02 -0.84117078367E+03  0.84300037830E+03  0.00000000000E+00 0. -1.
          1    1    1    2  502    0 -0.47155930805E+02  0.94767732713E+02  0.50803386324E+03  0.51894413107E+03  0.00000000000E+00 0. -1.
         22    1    3    3    0    0  0.30401246200E+02  0.29284978476E+02 -0.56029057899E+02  0.70150559969E+02  0.00000000000E+00 0. -1.
         22    1    3    3    0    0  0.46030280072E+02 -0.76890331856E+02  0.11154597388E+02  0.90306892646E+02  0.00000000000E+00 0. -1.
</event>
<event>
 7    1  0.5139898E-006  0.4780754E+02  0.7818608E-02  0.1510333E+00
          2   -1    0    0  502    0  0.00000000000E+00  0.00000000000E+00  0.23326902152E+03  0.23326902152E+03  0.00000000000E+00 0. -1.
          1   -1    0    0  501    0 -0.00000000000E+00 -0.00000000000E+00 -0.13237748848E+04  0.13237748848E+04  0.00000000000E+00 0. -1.
         25    2    1    2    0    0 -0.78085313128E+02 -0.96025678646E+01  0.39857039799E+02  0.15298177727E+03  0.12500126046E+03 0.  0.
          2    1    1    2  501    0  0.32867253222E+02  0.28336083844E+01 -0.12631721881E+04  0.12636028896E+04  0.00000000000E+00 0. -1.
          1    1    1    2  502    0  0.45218059906E+02  0.67689594803E+01  0.13280928506E+03  0.14045923947E+03  0.00000000000E+00 0. -1.
         22    1    3    3    0    0 -0.95010936662E+02 -0.45473761413E+02  0.15581200858E+02  0.10647870624E+03  0.00000000000E+00 0.  1.
         22    1    3    3    0    0  0.16925623533E+02  0.35871193548E+02  0.24275838940E+02  0.46503071026E+02  0.00000000000E+00 0.  1.
</event>
<event>
 7    1  0.5139898E-006  0.6266408E+02  0.7818608E-02  0.1438735E+00
          2   -1    0    0  502    0  0.00000000000E+00  0.00000000000E+00  0.67414799141E+03  0.67414799141E+03  0.00000000000E+00 0. -1.
          1   -1    0    0  501    0 -0.00000000000E+00 -0.00000000000E+00 -0.32225454568E+03  0.32225454568E+03  0.00000000000E+00 0. -1.
         25    2    1    2    0    0 -0.93976254214E+02 -0.34633751462E+02  0.10679117677E+03  0.19251079428E+03  0.12500006953E+03 0.  0.
          2    1    1    2  501    0  0.33545979265E+02  0.25119155354E+02 -0.27602390837E+03  0.27918721798E+03  0.00000000000E+00 0. -1.
          1    1    1    2  502    0  0.60430274949E+02  0.95145961070E+01  0.52112617733E+03  0.52470452482E+03  0.00000000000E+00 0. -1.
         22    1    3    3    0    0 -0.31757877115E+02 -0.11712786632E+02  0.12018912707E+03  0.12486464029E+03  0.00000000000E+00 0.  1.
         22    1    3    3    0    0 -0.62218377099E+02 -0.22920964829E+02 -0.13397950297E+02  0.67646153991E+02  0.00000000000E+00 0.  1.
</event>
<event>
 7    1  0.5139898E-006  0.9627531E+02  0.7818608E-02  0.1454275E+00
          2   -1    0    0  502    0  0.00000000000E+00  0.00000000000E+00  0.45266096273E+03  0.45266096273E+03  0.00000000000E+00 0. -1.
          1   -1    0    0  501    0 -0.00000000000E+00 -0.00000000000E+00 -0.11489344090E+03  0.11489344090E+03  0.00000000000E+00 0. -1.
         25    2    1    2    0    0  0.46008583327E+00  0.91991712363E+02 -0.43115258749E+01  0.15527033636E+03  0.12501040467E+03 0.  0.
          2    1    1    2  501    0  0.24258054615E+02  0.16291429642E+01 -0.23671682592E+02  0.33933108865E+02  0.00000000000E+00 0. -1.
          1    1    1    2  502    0 -0.24718140448E+02 -0.93620855327E+02  0.36575073029E+03  0.37835095841E+03  0.00000000000E+00 0. -1.
         22    1    3    3    0    0 -0.63693715303E+01 -0.12512121061E+02 -0.41754135009E+02  0.44051445578E+02  0.00000000000E+00 0.  1.
         22    1    3    3    0    0  0.68294573636E+01  0.10450383342E+03  0.37442609134E+02  0.11121889078E+03  0.00000000000E+00 0.  1.
</event>
<event>
 7    1  0.5139898E-006  0.9830555E+02  0.7818608E-02  0.1302986E+00
          2   -1    0    0  502    0  0.00000000000E+00  0.00000000000E+00  0.30019495703E+03  0.30019495703E+03  0.00000000000E+00 0. -1.
          1   -1    0    0  501    0 -0.00000000000E+00 -0.00000000000E+00 -0.71608239319E+03  0.71608239319E+03  0.00000000000E+00 0. -1.
         25    2    1    2    0    0  0.27999049978E+02  0.82600232159E+02 -0.22224116974E+03  0.26948442458E+03  0.12499588957E+03 0.  0.
          2    1    1    2  501    0 -0.82284708602E+02  0.12833766673E+01 -0.45740189685E+03  0.46474607645E+03  0.00000000000E+00 0. -1.
          1    1    1    2  502    0  0.54285658624E+02 -0.83883608826E+02  0.26375563043E+03  0.28204684920E+03  0.00000000000E+00 0. -1.
         22    1    3    3    0    0  0.26969837299E+02  0.64967777791E+01 -0.18061808538E+03  0.18273607474E+03  0.00000000000E+00 0.  1.
         22    1    3    3    0    0  0.10292126798E+01  0.76103454380E+02 -0.41623084358E+02  0.86748349833E+02  0.00000000000E+00 0.  1.
</event>
<event>
 7    1  0.5139898E-006  0.5662461E+02  0.7818608E-02  0.1442683E+00
          2   -1    0    0  502    0  0.00000000000E+00  0.00000000000E+00  0.11262941030E+04  0.11262941030E+04  0.00000000000E+00 0. -1.
          1   -1    0    0  501    0 -0.00000000000E+00 -0.00000000000E+00 -0.61501661861E+02  0.61501661861E+02  0.00000000000E+00 0. -1.
         25    2    1    2    0    0 -0.18244761070E+02 -0.54726627347E+01  0.50515510787E+02  0.13615481166E+03  0.12499397811E+03 0.  0.
          2    1    1    2  501    0 -0.33814859352E+02  0.29738081488E+02  0.10522006348E+02  0.46244035520E+02  0.00000000000E+00 0. -1.
          1    1    1    2  502    0  0.52059620422E+02 -0.24265418754E+02  0.10037549240E+04  0.10053969177E+04  0.00000000000E+00 0. -1.
         22    1    3    3    0    0  0.46778400237E+02 -0.28420851531E+02  0.36505185574E+02  0.65792036784E+02  0.00000000000E+00 0. -1.
         22    1    3    3    0    0 -0.65023161307E+02  0.22948188796E+02  0.14010325213E+02  0.70362774874E+02  0.00000000000E+00 0. -1.
</event>
<event>
 7    1  0.5139898E-006  0.5387353E+02  0.7818608E-02  0.1526015E+00
          2   -1    0    0  502    0  0.00000000000E+00  0.00000000000E+00  0.13798111090E+04  0.13798111090E+04  0.00000000000E+00 0. -1.
          1   -1    0    0  501    0 -0.00000000000E+00 -0.00000000000E+00 -0.19685322561E+04  0.19685322561E+04  0.00000000000E+00 0. -1.
         25    2    1    2    0    0  0.13386083663E+02  0.25096053621E+02 -0.15907329855E+03  0.20430120335E+03  0.12500267292E+03 0.  0.
          2    1    1    2  501    0 -0.31309510021E+02 -0.44416023510E+02 -0.17863038376E+04  0.17871302327E+04  0.00000000000E+00 0. -1.
          1    1    1    2  502    0  0.17923426358E+02  0.19319969889E+02  0.13566559890E+04  0.13569119290E+04  0.00000000000E+00 0. -1.
         22    1    3    3    0    0  0.11325351158E+01 -0.34663930426E+02 -0.81439291040E+00  0.34691986743E+02  0.00000000000E+00 0. -1.
         22    1    3    3    0    0  0.12253548547E+02  0.59759984047E+02 -0.15825890564E+03  0.16960921661E+03  0.00000000000E+00 0. -1.
</event>
<event>
 7    1  0.5139898E-006  0.8233805E+02  0.7818608E-02  0.1440912E+00
          2   -1    0    0  502    0  0.00000000000E+00  0.00000000000E+00  0.11467861861E+04  0.11467861861E+04  0.00000000000E+00 0. -1.
          1   -1    0    0  501    0 -0.00000000000E+00 -0.00000000000E+00 -0.12109106362E+03  0.12109106362E+03  0.00000000000E+00 0. -1.
         25    2    1    2    0    0 -0.10861842427E+02  0.76633823649E+02  0.58776204847E+02  0.15833816627E+03  0.12500244035E+03 0.  0.
          2    1    1    2  501    0  0.42067601228E+02 -0.73333168099E+02 -0.45923817242E+02  0.96210361222E+02  0.00000000000E+00 0. -1.
          1    1    1    2  502    0 -0.31205758801E+02 -0.33006555501E+01  0.10128427349E+04  0.10133287223E+04  0.00000000000E+00 0. -1.
         22    1    3    3    0    0 -0.32243319167E+02 -0.66273287586E+01 -0.22630626445E+02  0.39946193444E+02  0.00000000000E+00 0.  1.
         22    1    3    3    0    0  0.21381476740E+02  0.83261152407E+02  0.81406831292E+02  0.11839197282E+03  0.00000000000E+00 0.  1.
</event>
<event>
 7    1  0.5139898E-006  0.4550575E+02  0.7818608E-02  0.1539263E+00
          2   -1    0    0  502    0  0.00000000000E+00  0.00000000000E+00  0.10496389559E+04  0.10496389559E+04  0.00000000000E+00 0. -1.
          1   -1    0    0  501    0 -0.00000000000E+00 -0.00000000000E+00 -0.86949804880E+02  0.86949804880E+02  0.00000000000E+00 0. -1.
         25    2    1    2    0    0  0.34933946117E+02 -0.39216243752E+01  0.14989987951E+03  0.19831787252E+03  0.12499697978E+03 0.  0.
          2    1    1    2  501    0 -0.33117722877E+02  0.32461379884E+02 -0.53903556248E+02  0.71106385991E+02  0.00000000000E+00 0. -1.
          1    1    1    2  502    0 -0.18162232405E+01 -0.28539755509E+02  0.86669282777E+03  0.86716450228E+03  0.00000000000E+00 0. -1.
         22    1    3    3    0    0  0.61401108769E+02  0.82903281626E+01  0.15659805092E+03  0.16840954620E+03  0.00000000000E+00 0. -1.
         22    1    3    3    0    0 -0.26467162652E+02 -0.12211952538E+02 -0.66981714004E+01  0.29908326328E+02  0.00000000000E+00 0. -1.
</event>
<event>
 7    1  0.5139898E-006  0.1367874E+03  0.7818608E-02  0.1221828E+00
          2   -1    0    0  502    0  0.00000000000E+00  0.00000000000E+00  0.14884237285E+04  0.14884237285E+04  0.00000000000E+00 0. -1.
          1   -1    0    0  501    0 -0.00000000000E+00 -0.00000000000E+00 -0.81482183818E+03  0.81482183818E+03  0.00000000000E+00 0. -1.
         25    2    1    2    0    0  0.76546507407E+02  0.19854348677E+02  0.19082476709E+03  0.24143711461E+03  0.12499690242E+03 0.  0.
          2    1    1    2  501    0  0.14120711991E+02 -0.13605661690E+03 -0.77926987846E+03  0.79118413848E+03  0.00000000000E+00 0. -1.
          1    1    1    2  502    0 -0.90667219398E+02  0.11620226823E+03  0.12620470017E+04  0.12706243136E+04  0.00000000000E+00 0. -1.
         22    1    3    3    0    0  0.18344607984E+02  0.69086158528E+02  0.98620333436E+02  0.12180062442E+03  0.00000000000E+00 0.  1.
         22    1    3    3    0    0  0.58201899423E+02 -0.49231809852E+02  0.92204433658E+02  0.11963649019E+03  0.00000000000E+00 0.  1.
</event>
<event>
 7    1  0.5139898E-006  0.3757890E+03  0.7818608E-02  0.1069109E+00
          2   -1    0    0  502    0  0.00000000000E+00  0.00000000000E+00  0.15782867003E+04  0.15782867003E+04  0.00000000000E+00 0. -1.
          1   -1    0    0  501    0 -0.00000000000E+00 -0.00000000000E+00 -0.12644879520E+04  0.12644879520E+04  0.00000000000E+00 0. -1.
         25    2    1    2    0    0 -0.19637805310E+01  0.38758373855E+03  0.51731612072E+03  0.65838002736E+03  0.12499312322E+03 0.  0.
          2    1    1    2  501    0  0.27362679898E+03 -0.26517627730E+03 -0.11398197406E+04  0.12018232500E+04  0.00000000000E+00 0. -1.
          1    1    1    2  502    0 -0.27166301845E+03 -0.12240746124E+03  0.93630236819E+03  0.98257137493E+03  0.00000000000E+00 0. -1.
         22    1    3    3    0    0 -0.61337216821E+01  0.36209690973E+03  0.40573800713E+03  0.54385211685E+03  0.00000000000E+00 0. -1.
         22    1    3    3    0    0  0.41699411510E+01  0.25486828816E+02  0.11157811360E+03  0.11452791051E+03  0.00000000000E+00 0. -1.
</event>
<event>
 7    1  0.5139898E-006  0.4476612E+02  0.7818608E-02  0.1585615E+00
          2   -1    0    0  502    0  0.00000000000E+00  0.00000000000E+00  0.13369902000E+04  0.13369902000E+04  0.00000000000E+00 0. -1.
          1   -1    0    0  501    0 -0.00000000000E+00 -0.00000000000E+00 -0.28732064124E+03  0.28732064124E+03  0.00000000000E+00 0. -1.
         25    2    1    2    0    0 -0.38852767403E+02 -0.30046079148E+02 -0.14820881446E+03  0.20000571554E+03  0.12499651659E+03 0.  0.
          2    1    1    2  501    0 -0.50121823067E+01  0.21101467122E+02 -0.11178866731E+03  0.11387317518E+03  0.00000000000E+00 0. -1.
          1    1    1    2  502    0  0.43864949709E+02  0.89446120259E+01  0.13096670405E+04  0.13104319505E+04  0.00000000000E+00 0. -1.
         22    1    3    3    0    0  0.38136976253E+02  0.16447135809E+02 -0.66999975755E+02  0.78828509978E+02  0.00000000000E+00 0.  1.
         22    1    3    3    0    0 -0.76989743656E+02 -0.46493214957E+02 -0.81208838700E+02  0.12117720556E+03  0.00000000000E+00 0.  1.
</event>
<event>
 7    1  0.5139898E-006  0.4113064E+02  0.7818608E-02  0.1586923E+00
          2   -1    0    0  502    0  0.00000000000E+00  0.00000000000E+00  0.25221316025E+03  0.25221316025E+03  0.00000000000E+00 0. -1.
          1   -1    0    0  501    0 -0.00000000000E+00 -0.00000000000E+00 -0.15990967429E+04  0.15990967429E+04  0.00000000000E+00 0. -1.
         25    2    1    2    0    0  0.34292717604E+02 -0.28067846823E+02 -0.69326717074E+03  0.70583822550E+03  0.12499774414E+03 0.  0.
          2    1    1    2  501    0 -0.13607951926E+02  0.39045308487E+02 -0.89851006421E+03  0.89946097634E+03  0.00000000000E+00 0. -1.
          1    1    1    2  502    0 -0.20684765678E+02 -0.10977461664E+02  0.24489365233E+03  0.24601070129E+03  0.00000000000E+00 0. -1.
         22    1    3    3    0    0 -0.20393702261E+02 -0.27166131941E+02 -0.51188142479E+02  0.61433929933E+02  0.00000000000E+00 0.  1.
         22    1    3    3    0    0  0.54686419864E+02 -0.90171488191E+00 -0.64207902826E+03  0.64440429556E+03  0.00000000000E+00 0.  1.
</event>
<event>
 7    1  0.5139898E-006  0.1280885E+03  0.7818608E-02  0.1246894E+00
          2   -1    0    0  502    0  0.00000000000E+00  0.00000000000E+00  0.36781893010E+03  0.36781893010E+03  0.00000000000E+00 0. -1.
          1   -1    0    0  501    0 -0.00000000000E+00 -0.00000000000E+00 -0.12296904030E+04  0.12296904030E+04  0.00000000000E+00 0. -1.
         25    2    1    2    0    0  0.23063674339E+02 -0.43169585222E+02  0.87079552204E+02  0.16000797235E+03  0.12499662651E+03 0.  0.
          2    1    1    2  501    0 -0.65556370564E+02 -0.11004102021E+03 -0.11634621637E+04  0.11704917215E+04  0.00000000000E+00 0. -1.
          1    1    1    2  502    0  0.42492696225E+02  0.15321060543E+03  0.21451113860E+03  0.26700963921E+03  0.00000000000E+00 0. -1.
         22    1    3    3    0    0  0.46749164668E+02 -0.72735625715E+02  0.30038439602E+02  0.91532854752E+02  0.00000000000E+00 0.  1.
         22    1    3    3    0    0 -0.23685490329E+02  0.29566040493E+02  0.57041112602E+02  0.68475117594E+02  0.00000000000E+00 0.  1.
</event>
<event>
 7    1  0.5139898E-006  0.7800338E+02  0.7818608E-02  0.1401298E+00
          2   -1    0    0  502    0  0.00000000000E+00  0.00000000000E+00  0.18841008519E+04  0.18841008519E+04  0.00000000000E+00 0. -1.
          1   -1    0    0  501    0 -0.00000000000E+00 -0.00000000000E+00 -0.94456309114E+03  0.94456309114E+03  0.00000000000E+00 0. -1.
         25    2    1    2    0    0 -0.49272219902E+02 -0.32364365344E+02  0.15713345221E+02  0.13909680848E+03  0.12500323641E+03 0.  0.
          2    1    1    2  501    0  0.78649365760E+02 -0.15934501663E+01 -0.88083923980E+03  0.88434497126E+03  0.00000000000E+00 0. -1.
          1    1    1    2  502    0 -0.29377145858E+02  0.33957815510E+02  0.18046636554E+04  0.18052221633E+04  0.00000000000E+00 0. -1.
         22    1    3    3    0    0 -0.67778755277E+02 -0.56679285470E+02  0.42880004184E+02  0.98209957882E+02  0.00000000000E+00 0.  1.
         22    1    3    3    0    0  0.18506535375E+02  0.24314920126E+02 -0.27166658964E+02  0.40886850595E+02  0.00000000000E+00 0.  1.
</event>
<event>
 7    1  0.5139898E-006  0.4791793E+02  0.7818608E-02  0.1464885E+00
          2   -1    0    0  502    0  0.00000000000E+00  0.00000000000E+00  0.45540526261E+03  0.45540526261E+03  0.00000000000E+00 0. -1.
          1   -1    0    0  501    0 -0.00000000000E+00 -0.00000000000E+00 -0.60589719968E+02  0.60589719968E+02  0.00000000000E+00 0. -1.
         25    2    1    2    0    0  0.75796337666E+02  0.77319773055E+01  0.14565417363E+03  0.20648930389E+03  0.12497130089E+03 0.  0.
          2    1    1    2  501    0 -0.35832110616E+02 -0.28897463647E+02 -0.94309696026E+01  0.46988793813E+02  0.00000000000E+00 0. -1.
          1    1    1    2  502    0 -0.39964227050E+02  0.21165486341E+02  0.25859233861E+03  0.26251688488E+03  0.00000000000E+00 0. -1.
         22    1    3    3    0    0  0.19565273087E+02 -0.17843860214E+02  0.14217198770E+03  0.14461700227E+03  0.00000000000E+00 0. -1.
         22    1    3    3    0    0  0.56231064579E+02  0.25575837519E+02  0.34821859272E+01  0.61872301616E+02  0.00000000000E+00 0. -1.
</event>
<event>
 7    1  0.5139898E-006  0.1168252E+03  0.7818608E-02  0.1355446E+00
          2   -1    0    0  502    0  0.00000000000E+00  0.00000000000E+00  0.23114343059E+04  0.23114343059E+04  0.00000000000E+00 0. -1.
          1   -1    0    0  501    0 -0.00000000000E+00 -0.00000000000E+00 -0.89230807925E+03  0.89230807925E+03  0.00000000000E+00 0. -1.
         25    2    1    2    0    0  0.98274503591E+01  0.11189773451E+03  0.44622528882E+03  0.47682307154E+03  0.12500220556E+03 0.  0.
          2    1    1    2  501    0  0.43178127316E+02 -0.61853562259E+01 -0.87457518764E+03  0.87566224547E+03  0.00000000000E+00 0. -1.
          1    1    1    2  502    0 -0.53005577675E+02 -0.10571237828E+03  0.18474761254E+04  0.18512570681E+04  0.00000000000E+00 0. -1.
         22    1    3    3    0    0 -0.44594276653E+02  0.93210342073E+02  0.21493140517E+03  0.23847919471E+03  0.00000000000E+00 0.  1.
         22    1    3    3    0    0  0.54421727012E+02  0.18687392434E+02  0.23129388365E+03  0.23834387683E+03  0.00000000000E+00 0.  1.
</event>
<event>
 7    1  0.5139898E-006  0.1861049E+03  0.7818608E-02  0.1216096E+00
          2   -1    0    0  502    0  0.00000000000E+00  0.00000000000E+00  0.24533165306E+04  0.24533165306E+04  0.00000000000E+00 0. -1.
          1   -1    0    0  501    0 -0.00000000000E+00 -0.00000000000E+00 -0.19180570980E+03  0.19180570980E+03  0.00000000000E+00 0. -1.
         25    2    1    2    0    0 -0.58196627132E+02 -0.18713946718E+03  0.10790477779E+03  0.25627424147E+03  0.12500007274E+03 0.  0.
          2    1    1    2  501    0  0.14118214468E+03  0.12736018127E+03 -0.38799872532E+02  0.19405783637E+03  0.00000000000E+00 0. -1.
          1    1    1    2  502    0 -0.82985517546E+02  0.59779285914E+02  0.21924059156E+04  0.21947901626E+04  0.00000000000E+00 0. -1.
         22    1    3    3    0    0 -0.10056239434E+02 -0.53781188485E+02 -0.26605386188E+02  0.60839056211E+02  0.00000000000E+00 0. -1.
         22    1    3    3    0    0 -0.48140387699E+02 -0.13335827870E+03  0.13451016398E+03  0.19543518526E+03  0.00000000000E+00 0. -1.
</event>
<event>
 7    1  0.5139898E-006  0.8861421E+02  0.7818608E-02  0.1348388E+00
          2   -1    0    0  502    0  0.00000000000E+00  0.00000000000E+00  0.49961978171E+03  0.49961978171E+03  0.00000000000E+00 0. -1.
          1   -1    0    0  501    0 -0.00000000000E+00 -0.00000000000E+00 -0.11653223502E+04  0.11653223502E+04  0.00000000000E+00 0. -1.
         25    2    1    2    0    0  0.12617456242E+03 -0.74729065738E+02  0.10803897203E+02  0.19299136333E+03  0.12499795460E+03 0.  0.
          2    1    1    2  501    0 -0.51190891678E+02  0.33291060733E+02 -0.10687333885E+04  0.10704764630E+04  0.00000000000E+00 0. -1.
          1    1    1    2  502    0 -0.74983670746E+02  0.41438005004E+02  0.39222692277E+03  0.40147430563E+03  0.00000000000E+00 0. -1.
         22    1    3    3    0    0  0.56616684496E+02 -0.63700646417E+02 -0.50976819843E+02  0.99306885353E+02  0.00000000000E+00 0. -1.
         22    1    3    3    0    0  0.69557877927E+02 -0.11028419320E+02  0.61780717046E+02  0.93684477974E+02  0.00000000000E+00 0. -1.
</event>
<event>
 7    1  0.5139898E-006  0.6184204E+02  0.7818608E-02  0.1418777E+00
          2   -1    0    0  502    0  0.00000000000E+00  0.00000000000E+00  0.29344268389E+04  0.29344268389E+04  0.00000000000E+00 0. -1.
          1   -1    0    0  501    0 -0.00000000000E+00 -0.00000000000E+00 -0.16832830985E+03  0.16832830985E+03  0.00000000000E+00 0. -1.
         25    2    1    2    0    0  0.11857847453E+02  0.24147048118E+02  0.10548333073E+04  0.10625546855E+04  0.12500186030E+03 0.  0.
          2    1    1    2  501    0 -0.24365184841E+02  0.42990655594E+02 -0.16011890037E+03  0.16757064467E+03  0.00000000000E+00 0. -1.
          1    1    1    2  502    0  0.12507337388E+02 -0.67137703712E+02  0.18713841221E+04  0.18726298185E+04  0.00000000000E+00 0. -1.
         22    1    3    3    0    0  0.50962763568E+02 -0.18755815292E+02  0.76734116237E+03  0.76926032222E+03  0.00000000000E+00 0. -1.
         22    1    3    3    0    0 -0.39104916115E+02  0.42902863410E+02  0.28749214492E+03  0.29329436330E+03  0.00000000000E+00 0. -1.
</event>
<event>
 7    1  0.5139898E-006  0.1073377E+03  0.7818608E-02  0.1369837E+00
          2   -1    0    0  502    0  0.00000000000E+00  0.00000000000E+00  0.63605599009E+03  0.63605599009E+03  0.00000000000E+00 0. -1.
          1   -1    0    0  501    0 -0.00000000000E+00 -0.00000000000E+00 -0.10434698688E+04  0.10434698688E+04  0.00000000000E+00 0. -1.
         25    2    1    2    0    0  0.28635676622E+02 -0.66141992479E+02  0.32292419362E+02  0.14785992237E+03  0.12499996460E+03 0.  0.
          2    1    1    2  501    0  0.33142194381E+02 -0.25940590707E+02 -0.97959949973E+03  0.98050318672E+03  0.00000000000E+00 0. -1.
          1    1    1    2  502    0 -0.61777871003E+02  0.92082583186E+02  0.53989320170E+03  0.55116274975E+03  0.00000000000E+00 0. -1.
         22    1    3    3    0    0  0.12478497103E+02  0.31906216676E+02 -0.15489352961E+02  0.37598399004E+02  0.00000000000E+00 0.  1.
         22    1    3    3    0    0  0.16157179519E+02 -0.98048209156E+02  0.47781772323E+02  0.11026152337E+03  0.00000000000E+00 0.  1.
</event>
<event>
 7    1  0.5139898E-006  0.1688365E+03  0.7818608E-02  0.1340360E+00
          2   -1    0    0  502    0  0.00000000000E+00  0.00000000000E+00  0.10736741717E+04  0.10736741717E+04  0.00000000000E+00 0. -1.
          1   -1    0    0  501    0 -0.00000000000E+00 -0.00000000000E+00 -0.11666306007E+04  0.11666306007E+04  0.00000000000E+00 0. -1.
         25    2    1    2    0    0  0.17635208886E+03 -0.29134354727E+02 -0.65257541749E+03  0.68806146136E+03  0.12500011692E+03 0.  0.
          2    1    1    2  501    0 -0.16254682926E+03 -0.23103646989E+01 -0.48271019684E+03  0.50934854826E+03  0.00000000000E+00 0. -1.
          1    1    1    2  502    0 -0.13805259604E+02  0.31444719426E+02  0.10423291854E+04  0.10428947628E+04  0.00000000000E+00 0. -1.
         22    1    3    3    0    0 -0.44198410050E+01 -0.15918642134E+02 -0.77545814361E+01  0.18250251920E+02  0.00000000000E+00 0.  1.
         22    1    3    3    0    0  0.18077192987E+03 -0.13215712592E+02 -0.64482083606E+03  0.66981120944E+03  0.00000000000E+00 0.  1.
</event>
<event>
 7    1  0.5139898E-006  0.2295928E+03  0.7818608E-02  0.1250245E+00
          2   -1    0    0  502    0  0.00000000000E+00  0.00000000000E+00  0.39972598487E+03  0.39972598487E+03  0.00000000000E+00 0. -1.
          1   -1    0    0  501    0 -0.00000000000E+00 -0.00000000000E+00 -0.70213832724E+03  0.70213832724E+03  0.00000000000E+00 0. -1.
         25    2    1    2    0    0  0.53963705183E+02 -0.22768058280E+03 -0.37328215563E+03  0.45794326582E+03  0.12498775035E+03 0.  0.
          2    1    1    2  501    0 -0.10652973183E+03  0.20229462926E+03 -0.23774145305E+03  0.32983738310E+03  0.00000000000E+00 0. -1.
          1    1    1    2  502    0  0.52566026647E+02  0.25385953542E+02  0.30861126631E+03  0.31408366320E+03  0.00000000000E+00 0. -1.
         22    1    3    3    0    0  0.59507838037E+02 -0.66377068970E+02 -0.21102960792E+03  0.22908643236E+03  0.00000000000E+00 0.  1.
         22    1    3    3    0    0 -0.55441328539E+01 -0.16130351383E+03 -0.16225254770E+03  0.22885683346E+03  0.00000000000E+00 0.  1.
</event>
<event>
 7    1  0.5139898E-006  0.6044136E+02  0.7818608E-02  0.1486103E+00
          2   -1    0    0  502    0  0.00000000000E+00  0.00000000000E+00  0.26169234675E+04  0.26169234675E+04  0.00000000000E+00 0. -1.
          1   -1    0    0  501    0 -0.00000000000E+00 -0.00000000000E+00 -0.33003601770E+02  0.33003601770E+02  0.00000000000E+00 0. -1.
         25    2    1    2    0    0  0.64329866340E+02  0.28539306773E+02  0.10886072527E+04  0.10980180064E+04  0.12499987206E+03 0.  0.
          2    1    1    2  501    0 -0.25576656646E+02  0.17220033284E+02 -0.19126116226E+02  0.36283649671E+02  0.00000000000E+00 0. -1.
          1    1    1    2  502    0 -0.38753209693E+02 -0.45759340057E+02  0.15144387293E+04  0.15156254132E+04  0.00000000000E+00 0. -1.
         22    1    3    3    0    0 -0.23567874383E+02 -0.26810732969E+02  0.18103128062E+03  0.18451716632E+03  0.00000000000E+00 0.  1.
         22    1    3    3    0    0  0.87897740723E+02  0.55350039742E+02  0.90757597206E+03  0.91350084006E+03  0.00000000000E+00 0.  1.
</event>
<event>
 7    1  0.5139898E-006  0.7945902E+02  0.7818608E-02  0.1422357E+00
          2   -1    0    0  502    0  0.00000000000E+00  0.00000000000E+00  0.13563140872E+04  0.13563140872E+04  0.00000000000E+00 0. -1.
          1   -1    0    0  501    0 -0.00000000000E+00 -0.00000000000E+00 -0.38629830810E+03  0.38629830810E+03  0.00000000000E+00 0. -1.
         25    2    1    2    0    0 -0.86586381392E+02 -0.69134555491E+02  0.64087449370E+03  0.66229672896E+03  0.12506019472E+03 0.  0.
          2    1    1    2  501    0  0.26095335223E+02  0.26813670943E+02 -0.37271450707E+03  0.37458783116E+03  0.00000000000E+00 0. -1.
          1    1    1    2  502    0  0.60491046169E+02  0.42320884548E+02  0.70185579249E+03  0.70572783521E+03  0.00000000000E+00 0. -1.
         22    1    3    3    0    0 -0.52692718153E+02 -0.10489915059E+03  0.42931767766E+03  0.44507754683E+03  0.00000000000E+00 0.  1.
         22    1    3    3    0    0 -0.33893663239E+02  0.35764595098E+02  0.21155681604E+03  0.21721918213E+03  0.00000000000E+00 0.  1.
</event>
<event>
 7    1  0.5139898E-006  0.4249531E+02  0.7818608E-02  0.1591015E+00
          2   -1    0    0  502    0  0.00000000000E+00  0.00000000000E+00  0.13988735244E+04  0.13988735244E+04  0.00000000000E+00 0. -1.
          1   -1    0    0  501    0 -0.00000000000E+00 -0.00000000000E+00 -0.81910532327E+03  0.81910532327E+03  0.00000000000E+00 0. -1.
         25    2    1    2    0    0  0.31886668916E+02  0.17398826118E+02  0.11677065255E+03  0.17487055378E+03  0.12499938590E+03 0.  0.
          2    1    1    2  501    0 -0.10469980219E+02  0.19469554851E+02 -0.78953791626E+03  0.78984733035E+03  0.00000000000E+00 0. -1.
          1    1    1    2  502    0 -0.21416688697E+02 -0.36868380970E+02  0.12525354648E+04  0.12532609635E+04  0.00000000000E+00 0. -1.
         22    1    3    3    0    0 -0.37950023738E+02 -0.67968550209E+01  0.87056898176E+02  0.95211895579E+02  0.00000000000E+00 0.  1.
         22    1    3    3    0    0  0.69836692653E+02  0.24195681139E+02  0.29713754378E+02  0.79658658197E+02  0.00000000000E+00 0.  1.
</event>
<event>
 7    1  0.5139898E-006  0.1343423E+03  0.7818608E-02  0.1292864E+00
          2   -1    0    0  502    0  0.00000000000E+00  0.00000000000E+00  0.19851810814E+04  0.19851810814E+04  0.00000000000E+00 0. -1.
          1   -1    0    0  501    0 -0.00000000000E+00 -0.00000000000E+00 -0.12277414931E+04  0.12277414931E+04  0.00000000000E+00 0. -1.
         25    2    1    2    0    0 -0.10725090015E+02  0.19867354346E+03 -0.11534547855E+02  0.23526819519E+03  0.12502749078E+03 0.  0.
          2    1    1    2  501    0 -0.13406835980E+01 -0.66115546429E+02 -0.11009823518E+04  0.11029665461E+04  0.00000000000E+00 0. -1.
          1    1    1    2  502    0  0.12065773613E+02 -0.13255799703E+03  0.18699564879E+04  0.18746878332E+04  0.00000000000E+00 0. -1.
         22    1    3    3    0    0 -0.12466718872E+02  0.33379375700E+02 -0.53908777117E+02  0.64620105631E+02  0.00000000000E+00 0. -1.
         22    1    3    3    0    0  0.17416288568E+01  0.16529416776E+03  0.42374229262E+02  0.17064808956E+03  0.00000000000E+00 0. -1.
</event>
<event>
 7    1  0.5139898E-006  0.4219684E+02  0.7818608E-02  0.1532982E+00
          2   -1    0    0  502    0  0.00000000000E+00  0.00000000000E+00  0.42088480846E+03  0.42088480846E+03  0.00000000000E+00 0. -1.
          1   -1    0    0  501    0 -0.00000000000E+00 -0.00000000000E+00 -0.15759905149E+04  0.15759905149E+04  0.00000000000E+00 0. -1.
         25    2    1    2    0    0  0.15860200528E+01 -0.10722066337E+02 -0.69651036215E+02  0.14350523383E+03  0.12500002850E+03 0.  0.
          2    1    1    2  501    0  0.14593005181E+02 -0.28629098021E+02 -0.14680573252E+04  0.14684089659E+04  0.00000000000E+00 0. -1.
          1    1    1    2  502    0 -0.16179025233E+02  0.39351164358E+02  0.38260265505E+03  0.38496112355E+03  0.00000000000E+00 0. -1.
         22    1    3    3    0    0  0.96680282039E+01 -0.69050947554E+01  0.35777476059E+02  0.37698526445E+02  0.00000000000E+00 0. -1.
         22    1    3    3    0    0 -0.80820081511E+01 -0.38169715817E+01 -0.10542851227E+03  0.10580670739E+03  0.00000000000E+00 0. -1.
</event>
<event>
 7    1  0.5139898E-006  0.1273018E+03  0.7818608E-02  0.1254336E+00
          2   -1    0    0  502    0  0.00000000000E+00  0.00000000000E+00  0.31971519032E+03  0.31971519032E+03  0.00000000000E+00 0. -1.
          1   -1    0    0  501    0 -0.00000000000E+00 -0.00000000000E+00 -0.81186691571E+03  0.81186691571E+03  0.00000000000E+00 0. -1.
         25    2    1    2    0    0  0.67647805216E+02 -0.54869897133E+02 -0.32558097227E+03  0.35946676252E+03  0.12500581061E+03 0.  0.
          2    1    1    2  501    0 -0.11705106194E+03 -0.62454748552E+02 -0.44586078458E+03  0.46518102492E+03  0.00000000000E+00 0. -1.
          1    1    1    2  502    0  0.49403256723E+02  0.11732464569E+03  0.27929003146E+03  0.30693431860E+03  0.00000000000E+00 0. -1.
         22    1    3    3    0    0 -0.26911726582E+02 -0.50941121034E+02 -0.12973963330E+03  0.14195637107E+03  0.00000000000E+00 0. -1.
         22    1    3    3    0    0  0.94559531797E+02 -0.39287760995E+01 -0.19584133897E+03  0.21751039144E+03  0.00000000000E+00 0. -1.
</event>
<event>
 7    1  0.5139898E-006  0.2706174E+02  0.7818608E-02  0.1638352E+00
          2   -1    0    0  502    0  0.00000000000E+00  0.00000000000E+00  0.26323568866E+02  0.26323568866E+02  0.00000000000E+00 0. -1.
          1   -1    0    0  501    0 -0.00000000000E+00 -0.00000000000E+00 -0.81670459710E+03  0.81670459710E+03  0.00000000000E+00 0. -1.
         25    2    1    2    0    0 -0.80884228624E+00 -0.26585572554E+01 -0.24669669886E+03  0.27657243576E+03  0.12500131536E+03 0.  0.
          2    1    1    2  501    0 -0.27057768576E+02  0.46364119772E+00 -0.53704338286E+03  0.53772477428E+03  0.00000000000E+00 0. -1.
          1    1    1    2  502    0  0.27866610862E+02  0.21949160576E+01 -0.66409465096E+01  0.28730955919E+02  0.00000000000E+00 0. -1.
         22    1    3    3    0    0  0.12074424499E+02 -0.24984815014E+02 -0.24913957679E+03  0.25068019752E+03  0.00000000000E+00 0.  1.
         22    1    3    3    0    0 -0.12883266785E+02  0.22326257759E+02  0.24428779248E+01  0.25892238241E+02  0.00000000000E+00 0.  1.
</event>
<event>
 7    1  0.1216850E-005  0.8085093E+02  0.7818608E-02  0.1354158E+00
          2   -1    0    0  502    0  0.00000000000E+00  0.00000000000E+00  0.16780615003E+04  0.16780615003E+04  0.00000000000E+00 0. -1.
          1   -1    0    0  501    0 -0.00000000000E+00 -0.00000000000E+00 -0.11364025953E+04  0.11364025953E+04  0.00000000000E+00 0. -1.
         25    2    1    2    0    0 -0.12668265193E+02  0.26205056110E+02 -0.12989401480E+03  0.18259934479E+03  0.12499150263E+03 0.  0.
          2    1    1    2  501    0 -0.63700966103E+02  0.14863559375E+01 -0.97811985078E+03  0.98019307528E+03  0.00000000000E+00 0. -1.
          1    1    1    2  502    0  0.76369231296E+02 -0.27691412047E+02  0.16496727706E+04  0.16516716756E+04  0.00000000000E+00 0. -1.
         22    1    3    3    0    0  0.41795059656E+02  0.34960770964E+02 -0.17217921594E+02  0.57144897778E+02  0.00000000000E+00 0.  1.
         22    1    3    3    0    0 -0.54463324849E+02 -0.87557148539E+01 -0.11267609320E+03  0.12545444701E+03  0.00000000000E+00 0.  1.
</event>
<event>
 7    1  0.5139898E-006  0.1079450E+03  0.7818608E-02  0.1346349E+00
          2   -1    0    0  502    0  0.00000000000E+00  0.00000000000E+00  0.17619832634E+04  0.17619832634E+04  0.00000000000E+00 0. -1.
          1   -1    0    0  501    0 -0.00000000000E+00 -0.00000000000E+00 -0.85488458115E+02  0.85488458115E+02  0.00000000000E+00 0. -1.
         25    2    1    2    0    0 -0.67180570895E+02 -0.11338822022E+02  0.21826922269E+03  0.26059886718E+03  0.12501407126E+03 0.  0.
          2    1    1    2  501    0  0.11703582364E+03  0.53856397785E+00 -0.10274359462E+02  0.11748717602E+03  0.00000000000E+00 0. -1.
          1    1    1    2  502    0 -0.49855252748E+02  0.10800258044E+02  0.14684999420E+04  0.14693856783E+04  0.00000000000E+00 0. -1.
         22    1    3    3    0    0  0.12390514728E+02 -0.32933349498E+02  0.99650192791E+01  0.36570917046E+02  0.00000000000E+00 0.  1.
         22    1    3    3    0    0 -0.79571085623E+02  0.21594527476E+02  0.20830420341E+03  0.22402795013E+03  0.00000000000E+00 0.  1.
</event>
<event>
 7    1  0.5139898E-006  0.4992199E+02  0.7818608E-02  0.1456393E+00
          2   -1    0    0  502    0  0.00000000000E+00  0.00000000000E+00  0.20971312385E+03  0.20971312385E+03  0.00000000000E+00 0. -1.
          1   -1    0    0  501    0 -0.00000000000E+00 -0.00000000000E+00 -0.16409206091E+03  0.16409206091E+03  0.00000000000E+00 0. -1.
         25    2    1    2    0    0 -0.18202561110E+02 -0.87361326475E+01  0.97002316583E+02  0.15950521127E+03  0.12499923901E+03 0.  0.
          2    1    1    2  501    0  0.40892702136E+02 -0.31470370278E+02 -0.12055561688E+03  0.13113448843E+03  0.00000000000E+00 0. -1.
          1    1    1    2  502    0 -0.22690141026E+02  0.40206502926E+02  0.69174363236E+02  0.83165485067E+02  0.00000000000E+00 0. -1.
         22    1    3    3    0    0 -0.40165526869E+02  0.24799441563E+02  0.10806008998E+03  0.11792058724E+03  0.00000000000E+00 0. -1.
         22    1    3    3    0    0  0.21962965758E+02 -0.33535574211E+02 -0.11057773393E+02  0.41584624021E+02  0.00000000000E+00 0. -1.
</event>
<event>
 7    1  0.5139898E-006  0.7468203E+02  0.7818608E-02  0.1428442E+00
          2   -1    0    0  502    0  0.00000000000E+00  0.00000000000E+00  0.13127600367E+03  0.13127600367E+03  0.00000000000E+00 0. -1.
          1   -1    0    0  501    0 -0.00000000000E+00 -0.00000000000E+00 -0.67445516610E+03  0.67445516610E+03  0.00000000000E+00 0. -1.
         25    2    1    2    0    0  0.89107215687E+02  0.24429734643E+02 -0.11466206627E+03  0.19315409559E+03  0.12499682948E+03 0.  0.
          2    1    1    2  501    0 -0.73258593749E+02  0.10110511096E+02 -0.51386057351E+03  0.51915482566E+03  0.00000000000E+00 0. -1.
          1    1    1    2  502    0 -0.15848621938E+02 -0.34540245739E+02  0.85343477352E+02  0.93422248526E+02  0.00000000000E+00 0. -1.
         22    1    3    3    0    0  0.11338637614E+03 -0.88681870117E+01 -0.90814834566E+02  0.14554191565E+03  0.00000000000E+00 0. -1.
         22    1    3    3    0    0 -0.24279160449E+02  0.33297921655E+02 -0.23847231704E+02  0.47612179939E+02  0.00000000000E+00 0. -1.
</event>
<event>
 7    1  0.5139898E-006  0.1597385E+03  0.7818608E-02  0.1310281E+00
          2   -1    0    0  502    0  0.00000000000E+00  0.00000000000E+00  0.18722006634E+04  0.18722006634E+04  0.00000000000E+00 0. -1.
          1   -1    0    0  501    0 -0.00000000000E+00 -0.00000000000E+00 -0.50497401890E+03  0.50497401890E+03  0.00000000000E+00 0. -1.
         25    2    1    2    0    0  0.20282834708E+03 -0.23316502661E+02  0.57123583164E+02  0.24613610662E+03  0.12504751719E+03 0.  0.
          2    1    1    2  501    0 -0.47197912583E+02 -0.42025584403E+01 -0.40545576937E+03  0.40821524392E+03  0.00000000000E+00 0. -1.
          1    1    1    2  502    0 -0.15563043450E+03  0.27519061102E+02  0.17155588307E+04  0.17228233318E+04  0.00000000000E+00 0. -1.
         22    1    3    3    0    0  0.38495203218E+02  0.23429941494E+02 -0.30212600097E+02  0.54255359494E+02  0.00000000000E+00 0.  1.
         22    1    3    3    0    0  0.16433314386E+03 -0.46746444155E+02  0.87336183261E+02  0.19188074713E+03  0.00000000000E+00 0.  1.
</event>
<event>
 7    1  0.5139898E-006  0.4217073E+02  0.7818608E-02  0.1552017E+00
          2   -1    0    0  502    0  0.00000000000E+00  0.00000000000E+00  0.10913295139E+03  0.10913295139E+03  0.00000000000E+00 0. -1.
          1   -1    0    0  501    0 -0.00000000000E+00 -0.00000000000E+00 -0.10741226787E+04  0.10741226787E+04  0.00000000000E+00 0. -1.
         25    2    1    2    0    0 -0.38310840611E+02  0.49877183398E+02 -0.34490588776E+02  0.14411149482E+03  0.12499227293E+03 0.  0.
          2    1    1    2  501    0  0.26188045448E+02 -0.11035747189E+02 -0.97696652918E+03  0.97737976273E+03  0.00000000000E+00 0. -1.
          1    1    1    2  502    0  0.12122795164E+02 -0.38841436209E+02  0.46467390614E+02  0.61764372577E+02  0.00000000000E+00 0. -1.
         22    1    3    3    0    0  0.62889974075E+01  0.62335812823E+02  0.26083218874E+02  0.67864860978E+02  0.00000000000E+00 0. -1.
         22    1    3    3    0    0 -0.44599838019E+02 -0.12458629425E+02 -0.60573807650E+02  0.76246633838E+02  0.00000000000E+00 0. -1.
</event>
<event>
 7    1  0.5139898E-006  0.1351694E+03  0.7818608E-02  0.1346630E+00
          2   -1    0    0  502    0  0.00000000000E+00  0.00000000000E+00  0.13178208240E+04  0.13178208240E+04  0.00000000000E+00 0. -1.
          1   -1    0    0  501    0 -0.00000000000E+00 -0.00000000000E+00 -0.40435672075E+03  0.40435672075E+03  0.00000000000E+00 0. -1.
         25    2    1    2    0    0  0.61215042469E+00 -0.11266626620E+03  0.13077033119E+03  0.21311898143E+03  0.12499903383E+03 0.  0.
          2    1    1    2  501    0  0.34770659458E+02  0.13265671196E+03 -0.34985910476E+03  0.37577678902E+03  0.00000000000E+00 0. -1.
          1    1    1    2  502    0 -0.35382809883E+02 -0.19990445756E+02  0.11325528768E+04  0.11332817743E+04  0.00000000000E+00 0. -1.
         22    1    3    3    0    0 -0.34322028108E+02 -0.12562102076E+03  0.10997415013E+03  0.17044927740E+03  0.00000000000E+00 0. -1.
         22    1    3    3    0    0  0.34934178532E+02  0.12954754557E+02  0.20796181063E+02  0.42669704032E+02  0.00000000000E+00 0. -1.
</event>
<event>
 7    1  0.5139898E-006  0.5178414E+02  0.7818608E-02  0.1542998E+00
          2   -1    0    0  502    0  0.00000000000E+00  0.00000000000E+00  0.16751833139E+04  0.16751833139E+04  0.00000000000E+00 0. -1.
          1   -1    0    0  501    0 -0.00000000000E+00 -0.00000000000E+00 -0.71363480829E+03  0.71363480829E+03  0.00000000000E+00 0. -1.
         25    2    1    2    0    0  0.69117556213E+02 -0.17875728653E+02  0.25778296677E+03  0.29525294366E+03  0.12500185811E+03 0.  0.
          2    1    1    2  501    0 -0.51719747391E+02  0.58649106896E+00 -0.69382959706E+03  0.69575483182E+03  0.00000000000E+00 0. -1.
          1    1    1    2  502    0 -0.17397808822E+02  0.17289237584E+02  0.13975951359E+04  0.13978103467E+04  0.00000000000E+00 0. -1.
         22    1    3    3    0    0 -0.22696431934E+02  0.31335965905E+02  0.86849061264E+02  0.95078021772E+02  0.00000000000E+00 0.  1.
         22    1    3    3    0    0  0.91813988146E+02 -0.49211694558E+02  0.17093390550E+03  0.20017492188E+03  0.00000000000E+00 0.  1.
</event>
<event>
 7    1  0.5139898E-006  0.1781311E+03  0.7818608E-02  0.1279155E+00
          2   -1    0    0  502    0  0.00000000000E+00  0.00000000000E+00  0.26967365153E+03  0.26967365153E+03  0.00000000000E+00 0. -1.
          1   -1    0    0  501    0 -0.00000000000E+00 -0.00000000000E+00 -0.15525635861E+04  0.15525635861E+04  0.00000000000E+00 0. -1.
         25    2    1    2    0    0 -0.10177978217E+03 -0.14714100913E+03 -0.32468917384E+03  0.39122582412E+03  0.12499994090E+03 0.  0.
          2    1    1    2  501    0  0.50833534551E+02  0.17214537398E+03 -0.11843375895E+04  0.11978620972E+04  0.00000000000E+00 0. -1.
          1    1    1    2  502    0  0.50946247619E+02 -0.25004364849E+02  0.22613682873E+03  0.23314931635E+03  0.00000000000E+00 0. -1.
         22    1    3    3    0    0  0.68838202711E+01  0.17533772023E+02 -0.46552924137E+02  0.50219467227E+02  0.00000000000E+00 0.  1.
         22    1    3    3    0    0 -0.10866360244E+03 -0.16467478115E+03 -0.27813624970E+03  0.34100635689E+03  0.00000000000E+00 0.  1.
</event>
<event>
 7    1  0.5139898E-006  0.1197511E+03  0.7818608E-02  0.1322798E+00
          2   -1    0    0  502    0  0.00000000000E+00  0.00000000000E+00  0.52659703355E+03  0.52659703355E+03  0.00000000000E+00 0. -1.
          1   -1    0    0  501    0 -0.00000000000E+00 -0.00000000000E+00 -0.75874383134E+03  0.75874383134E+03  0.00000000000E+00 0. -1.
         25    2    1    2    0    0  0.74326878960E+02  0.38411361911E+01 -0.13840905061E+03  0.20079693194E+03  0.12499241305E+03 0.  0.
          2    1    1    2  501    0 -0.12910501583E+03 -0.17626518913E+02 -0.58028192985E+03  0.59473180291E+03  0.00000000000E+00 0. -1.
          1    1    1    2  502    0  0.54778136871E+02  0.13785382722E+02  0.48654418267E+03  0.48981213005E+03  0.00000000000E+00 0. -1.
         22    1    3    3    0    0 -0.21160867994E+02 -0.19236952996E+02 -0.83487500302E+02  0.88249676495E+02  0.00000000000E+00 0. -1.
         22    1    3    3    0    0  0.95487746954E+02  0.23078089187E+02 -0.54921550310E+02  0.11254725544E+03  0.00000000000E+00 0. -1.
</event>
<event>
 7    1  0.5139898E-006  0.5427212E+02  0.7818608E-02  0.1550920E+00
          2   -1    0    0  502    0  0.00000000000E+00  0.00000000000E+00  0.77264234411E+03  0.77264234411E+03  0.00000000000E+00 0. -1.
          1   -1    0    0  501    0 -0.00000000000E+00 -0.00000000000E+00 -0.15509960517E+02  0.15509960517E+02  0.00000000000E+00 0. -1.
         25    2    1    2    0    0  0.27983180662E+02 -0.23263099695E+02  0.36834642508E+03  0.39067525317E+03  0.12499533737E+03 0.  0.
          2    1    1    2  501    0  0.16127295378E+02 -0.15310732861E+02  0.73437228642E+02  0.76730272693E+02  0.00000000000E+00 0. -1.
          1    1    1    2  502    0 -0.44110476040E+02  0.38573832556E+02  0.31534872988E+03  0.32074677877E+03  0.00000000000E+00 0. -1.
         22    1    3    3    0    0  0.19557027246E+02 -0.70034539942E+02  0.29055645368E+03  0.29951688913E+03  0.00000000000E+00 0. -1.
         22    1    3    3    0    0  0.84261534162E+01  0.46771440247E+02  0.77789971394E+02  0.91158364035E+02  0.00000000000E+00 0. -1.
</event>
<event>
 7    1  0.5139898E-006  0.4298057E+02  0.7818608E-02  0.1531621E+00
          2   -1    0    0  502    0  0.00000000000E+00  0.00000000000E+00  0.16003384589E+03  0.16003384589E+03  0.00000000000E+00 0. -1.
          1   -1    0    0  501    0 -0.00000000000E+00 -0.00000000000E+00 -0.26011373194E+03  0.26011373194E+03  0.00000000000E+00 0. -1.
         25    2    1    2    0    0 -0.78130044553E-01  0.48197578261E+02 -0.35294278049E+02  0.13854154770E+03  0.12500024689E+03 0.  0.
          2    1    1    2  501    0  0.28033274489E+02 -0.32974251078E+02 -0.16805682867E+03  0.17354037967E+03  0.00000000000E+00 0. -1.
          1    1    1    2  502    0 -0.27955144445E+02 -0.15223327183E+02  0.10327122067E+03  0.10806565046E+03  0.00000000000E+00 0. -1.
         22    1    3    3    0    0 -0.35010399518E+02  0.79438627820E+02 -0.18514687187E+02  0.88763828816E+02  0.00000000000E+00 0. -1.
         22    1    3    3    0    0  0.34932269474E+02 -0.31241049560E+02 -0.16779590862E+02  0.49777718888E+02  0.00000000000E+00 0. -1.
</event>
<event>
 7    1  0.5139898E-006  0.8986127E+02  0.7818608E-02  0.1402004E+00
          2   -1    0    0  502    0  0.00000000000E+00  0.00000000000E+00  0.70402395373E+03  0.70402395373E+03  0.00000000000E+00 0. -1.
          1   -1    0    0  501    0 -0.00000000000E+00 -0.00000000000E+00 -0.16861503087E+03  0.16861503087E+03  0.00000000000E+00 0. -1.
         25    2    1    2    0    0 -0.65307868415E+02  0.34742422944E+01  0.10807517739E+03  0.17771246510E+03  0.12499715297E+03 0.  0.
          2    1    1    2  501    0 -0.23596053908E+02 -0.30749571892E+02 -0.12703280594E+03  0.13281432045E+03  0.00000000000E+00 0. -1.
          1    1    1    2  502    0  0.88903922324E+02  0.27275329598E+02  0.55436655140E+03  0.56211219905E+03  0.00000000000E+00 0. -1.
         22    1    3    3    0    0  0.13208389208E+02  0.65505198661E+01  0.97288195934E+02  0.98399003674E+02  0.00000000000E+00 0. -1.
         22    1    3    3    0    0 -0.78516257624E+02 -0.30762775717E+01  0.10786981452E+02  0.79313461429E+02  0.00000000000E+00 0. -1.
</event>
<event>
 7    1  0.5139898E-006  0.1042248E+03  0.7818608E-02  0.1375595E+00
          2   -1    0    0  502    0  0.00000000000E+00  0.00000000000E+00  0.19639162367E+03  0.19639162367E+03  0.00000000000E+00 0. -1.
          1   -1    0    0  501    0 -0.00000000000E+00 -0.00000000000E+00 -0.16675115052E+03  0.16675115052E+03  0.00000000000E+00 0. -1.
         25    2    1    2    0    0 -0.33247489098E+02 -0.76444452860E+02 -0.12568260672E+02  0.15077370772E+03  0.12500239941E+03 0.  0.
          2    1    1    2  501    0 -0.40622894765E+02 -0.76367111253E+01 -0.51753582426E+02  0.66234222497E+02  0.00000000000E+00 0. -1.
          1    1    1    2  502    0  0.73870383862E+02  0.84081163985E+02  0.93962316244E+02  0.14613484397E+03  0.00000000000E+00 0. -1.
         22    1    3    3    0    0  0.40237184346E+02  0.46094059126E+01  0.11112409639E+01  0.40515583217E+02  0.00000000000E+00 0.  1.
         22    1    3    3    0    0 -0.73484673443E+02 -0.81053858772E+02 -0.13679501636E+02  0.11025812450E+03  0.00000000000E+00 0.  1.
</event>
<event>
 7    1  0.5139898E-006  0.6600545E+02  0.7818608E-02  0.1477884E+00
          2   -1    0    0  502    0  0.00000000000E+00  0.00000000000E+00  0.36898838601E+03  0.36898838601E+03  0.00000000000E+00 0. -1.
          1   -1    0    0  501    0 -0.00000000000E+00 -0.00000000000E+00 -0.11599570969E+04  0.11599570969E+04  0.00000000000E+00 0. -1.
         25    2    1    2    0    0  0.18932077207E+02  0.93350372991E+02 -0.13775987909E+03  0.20899273566E+03  0.12500985395E+03 0.  0.
          2    1    1    2  501    0 -0.81944855616E+01 -0.28772935473E+02 -0.98313726775E+03  0.98359235389E+03  0.00000000000E+00 0. -1.
          1    1    1    2  502    0 -0.10737591646E+02 -0.64577437518E+02  0.32992843599E+03  0.33636039331E+03  0.00000000000E+00 0. -1.
         22    1    3    3    0    0 -0.46631578785E+02  0.76153453633E+02 -0.81708385946E+02  0.12103765106E+03  0.00000000000E+00 0. -1.
         22    1    3    3    0    0  0.65563655992E+02  0.17196919358E+02 -0.56051493148E+02  0.87955084597E+02  0.00000000000E+00 0. -1.
</event>
<event>
 7    1  0.5139898E-006  0.5356334E+02  0.7818608E-02  0.1537198E+00
          2   -1    0    0  502    0  0.00000000000E+00  0.00000000000E+00  0.11471733962E+04  0.11471733962E+04  0.00000000000E+00 0. -1.
          1   -1    0    0  501    0 -0.00000000000E+00 -0.00000000000E+00 -0.33002956461E+02  0.33002956461E+02  0.00000000000E+00 0. -1.
         25    2    1    2    0    0  0.37162198785E+02 -0.42246823034E+02  0.39013105181E+03  0.41351216571E+03  0.12499700209E+03 0.  0.
          2    1    1    2  501    0 -0.22701796010E+02 -0.95406291991E+01 -0.12877077620E+02  0.27788743685E+02  0.00000000000E+00 0. -1.
          1    1    1    2  502    0 -0.14460402776E+02  0.51787452233E+02  0.73691646554E+03  0.73887544325E+03  0.00000000000E+00 0. -1.
         22    1    3    3    0    0  0.50999371396E+02  0.11710876793E+02  0.64048827408E+02  0.82706304539E+02  0.00000000000E+00 0. -1.
         22    1    3    3    0    0 -0.13837172611E+02 -0.53957699828E+02  0.32608222440E+03  0.33080586117E+03  0.00000000000E+00 0. -1.
</event>
<event>
 7    1  0.5139898E-006  0.8164685E+02  0.7818608E-02  0.1431465E+00
          2   -1    0    0  502    0  0.00000000000E+00  0.00000000000E+00  0.28440896297E+03  0.28440896297E+03  0.00000000000E+00 0. -1.
          1   -1    0    0  501    0 -0.00000000000E+00 -0.00000000000E+00 -0.15785289462E+03  0.15785289462E+03  0.00000000000E+00 0. -1.
         25    2    1    2    0    0  0.58884099709E+02  0.77889349076E+02  0.11553735443E+03  0.19623396041E+03  0.12499919620E+03 0.  0.
          2    1    1    2  501    0 -0.33721663292E+02 -0.41275074154E+01 -0.10269584759E+03  0.10816942269E+03  0.00000000000E+00 0. -1.
          1    1    1    2  502    0 -0.25162436417E+02 -0.73761841660E+02  0.11371456150E+03  0.13785847449E+03  0.00000000000E+00 0. -1.
         22    1    3    3    0    0  0.87499324011E+02  0.41885045117E+02  0.11471865887E+03  0.15023601233E+03  0.00000000000E+00 0. -1.
         22    1    3    3    0    0 -0.28615224301E+02  0.36004303959E+02  0.81869555900E+00  0.45997948082E+02  0.00000000000E+00 0. -1.
</event>
<event>
 7    1  0.5139898E-006  0.5692738E+02  0.7818608E-02  0.1416124E+00
          2   -1    0    0  502    0  0.00000000000E+00  0.00000000000E+00  0.11042122921E+04  0.11042122921E+04  0.00000000000E+00 0. -1.
          1   -1    0    0  501    0 -0.00000000000E+00 -0.00000000000E+00 -0.67811543195E+03  0.67811543195E+03  0.00000000000E+00 0. -1.
         25    2    1    2    0    0 -0.44926722345E+02  0.42480445631E+02 -0.96992180063E+02  0.16986630419E+03  0.12499631861E+03 0.  0.
          2    1    1    2  501    0 -0.11012265153E+02 -0.53673998512E+02 -0.54254336274E+03  0.54530309788E+03  0.00000000000E+00 0. -1.
          1    1    1    2  502    0  0.55938987498E+02  0.11193552881E+02  0.10656324029E+04  0.10671583219E+04  0.00000000000E+00 0. -1.
         22    1    3    3    0    0 -0.17284672905E+02  0.64300490795E+02 -0.11301941921E+03  0.13117431972E+03  0.00000000000E+00 0. -1.
         22    1    3    3    0    0 -0.27642049440E+02 -0.21820045164E+02  0.16027239148E+02  0.38691984479E+02  0.00000000000E+00 0. -1.
</event>
<event>
 7    1  0.5139898E-006  0.1145820E+03  0.7818608E-02  0.1349365E+00
          2   -1    0    0  502    0  0.00000000000E+00  0.00000000000E+00  0.57686077808E+03  0.57686077808E+03  0.00000000000E+00 0. -1.
          1   -1    0    0  501    0 -0.00000000000E+00 -0.00000000000E+00 -0.19170333814E+03  0.19170333814E+03  0.00000000000E+00 0. -1.
         25    2    1    2    0    0 -0.28024291763E+02 -0.12238839742E+03  0.28987611759E+03  0.33973204731E+03  0.12500167865E+03 0.  0.
          2    1    1    2  501    0 -0.35770455881E+02  0.30227960073E+02 -0.15107959143E+03  0.15817173588E+03  0.00000000000E+00 0. -1.
          1    1    1    2  502    0  0.63794747644E+02  0.92160437344E+02  0.24636091378E+03  0.27066033303E+03  0.00000000000E+00 0. -1.
         22    1    3    3    0    0 -0.73937673322E+02 -0.83121076886E+02  0.22549361962E+03  0.25144237003E+03  0.00000000000E+00 0. -1.
         22    1    3    3    0    0  0.45913381559E+02 -0.39267320531E+02  0.64382497972E+02  0.88289677274E+02  0.00000000000E+00 0. -1.
</event>
<event>
 7    1  0.5139898E-006  0.4496432E+02  0.7818608E-02  0.1541371E+00
          2   -1    0    0  502    0  0.00000000000E+00  0.00000000000E+00  0.30508155944E+04  0.30508155944E+04  0.00000000000E+00 0. -1.
          1   -1    0    0  501    0 -0.00000000000E+00 -0.00000000000E+00 -0.27974007038E+03  0.27974007038E+03  0.00000000000E+00 0. -1.
         25    2    1    2    0    0  0.66740122926E+02  0.12584323507E+02  0.68697397789E+03  0.70154691782E+03  0.12498888910E+03 0.  0.
          2    1    1    2  501    0 -0.27407734499E+02  0.79861669981E+01 -0.27149614933E+03  0.27299289712E+03  0.00000000000E+00 0. -1.
          1    1    1    2  502    0 -0.39332388428E+02 -0.20570490505E+02  0.23555976955E+04  0.23560158499E+04  0.00000000000E+00 0. -1.
         22    1    3    3    0    0 -0.29782902955E+02 -0.22326645904E+02  0.24495716800E+03  0.24776907511E+03  0.00000000000E+00 0. -1.
         22    1    3    3    0    0  0.96523025882E+02  0.34910969411E+02  0.44201680989E+03  0.45377784272E+03  0.00000000000E+00 0. -1.
</event>
<event>
 7    1  0.5139898E-006  0.8792903E+02  0.7818608E-02  0.1347583E+00
          2   -1    0    0  502    0  0.00000000000E+00  0.00000000000E+00  0.36942482321E+03  0.36942482321E+03  0.00000000000E+00 0. -1.
          1   -1    0    0  501    0 -0.00000000000E+00 -0.00000000000E+00 -0.11062455776E+04  0.11062455776E+04  0.00000000000E+00 0. -1.
         25    2    1    2    0    0 -0.12087470503E+03 -0.99901728827E+01 -0.18568691141E+03  0.25456515280E+03  0.12495315155E+03 0.  0.
          2    1    1    2  501    0  0.41280470913E+02  0.46212849489E+02 -0.87930336915E+03  0.88148404395E+03  0.00000000000E+00 0. -1.
          1    1    1    2  502    0  0.79594234117E+02 -0.36222676606E+02  0.32816952611E+03  0.33962120410E+03  0.00000000000E+00 0. -1.
         22    1    3    3    0    0 -0.48764282486E+02  0.49117847736E+02 -0.35493904233E+02  0.77783902257E+02  0.00000000000E+00 0.  1.
         22    1    3    3    0    0 -0.72110422543E+02 -0.59108020618E+02 -0.15019300717E+03  0.17678125054E+03  0.00000000000E+00 0.  1.
</event>
<event>
 7    1  0.5139898E-006  0.1030627E+03  0.7818608E-02  0.1394352E+00
          2   -1    0    0  502    0  0.00000000000E+00  0.00000000000E+00  0.58592441415E+03  0.58592441415E+03  0.00000000000E+00 0. -1.
          1   -1    0    0  501    0 -0.00000000000E+00 -0.00000000000E+00 -0.17811280890E+03  0.17811280890E+03  0.00000000000E+00 0. -1.
         25    2    1    2    0    0 -0.54452901689E+02  0.67787863434E+02  0.23323719406E+03  0.27853680868E+03  0.12499140838E+03 0.  0.
          2    1    1    2  501    0 -0.35737290831E+02 -0.35338878442E+01 -0.14390489123E+03  0.14831810422E+03  0.00000000000E+00 0. -1.
          1    1    1    2  502    0  0.90190192520E+02 -0.64253975590E+02  0.31847930242E+03  0.33718231015E+03  0.00000000000E+00 0. -1.
         22    1    3    3    0    0 -0.10175563205E+02 -0.90063868636E+01 -0.11775769759E+02  0.17981263701E+02  0.00000000000E+00 0. -1.
         22    1    3    3    0    0 -0.44277338484E+02  0.76794250298E+02  0.24501296382E+03  0.26055554498E+03  0.00000000000E+00 0. -1.
</event>
<event>
 7    1  0.5139898E-006  0.6691922E+02  0.7818608E-02  0.1425446E+00
          2   -1    0    0  502    0  0.00000000000E+00  0.00000000000E+00  0.23391907469E+03  0.23391907469E+03  0.00000000000E+00 0. -1.
          1   -1    0    0  501    0 -0.00000000000E+00 -0.00000000000E+00 -0.45524711878E+03  0.45524711878E+03  0.00000000000E+00 0. -1.
         25    2    1    2    0    0 -0.32591975787E+02 -0.70518384940E+02  0.12288250050E+02  0.14768399637E+03  0.12499792876E+03 0.  0.
          2    1    1    2  501    0 -0.10577395723E+02  0.66149594855E+02 -0.38151416521E+03  0.38735088545E+03  0.00000000000E+00 0. -1.
          1    1    1    2  502    0  0.43169371510E+02  0.43687900853E+01  0.14789787107E+03  0.15413131165E+03  0.00000000000E+00 0. -1.
         22    1    3    3    0    0 -0.18695609012E+02 -0.81605592192E+02  0.55846874715E+02  0.10063732851E+03  0.00000000000E+00 0. -1.
         22    1    3    3    0    0 -0.13896366775E+02  0.11087207252E+02 -0.43558624665E+02  0.47046667862E+02  0.00000000000E+00 0. -1.
</event>
<event>
 7    1  0.5139898E-006  0.9441481E+02  0.7818608E-02  0.1304235E+00
          2   -1    0    0  502    0  0.00000000000E+00  0.00000000000E+00  0.30442148435E+04  0.30442148435E+04  0.00000000000E+00 0. -1.
          1   -1    0    0  501    0 -0.00000000000E+00 -0.00000000000E+00 -0.43225364931E+02  0.43225364931E+02  0.00000000000E+00 0. -1.
         25    2    1    2    0    0  0.90087752945E+02 -0.13447806350E+03  0.88923018500E+03  0.91244453064E+03  0.12499818714E+03 0.  0.
          2    1    1    2  501    0 -0.70444073525E+02  0.47048133909E+02  0.27865494604E+02  0.89176118936E+02  0.00000000000E+00 0. -1.
          1    1    1    2  502    0 -0.19643679421E+02  0.87429929592E+02  0.20838937990E+04  0.20858195589E+04  0.00000000000E+00 0. -1.
         22    1    3    3    0    0  0.11827218546E+03 -0.12826737328E+03  0.72503671936E+03  0.74573391590E+03  0.00000000000E+00 0.  1.
         22    1    3    3    0    0 -0.28184432513E+02 -0.62106902221E+01  0.16419346564E+03  0.16671061474E+03  0.00000000000E+00 0.  1.
</event>
<event>
 7    1  0.5139898E-006  0.6032944E+02  0.7818608E-02  0.1465383E+00
          2   -1    0    0  502    0  0.00000000000E+00  0.00000000000E+00  0.12903883738E+04  0.12903883738E+04  0.00000000000E+00 0. -1.
          1   -1    0    0  501    0 -0.00000000000E+00 -0.00000000000E+00 -0.55563474141E+02  0.55563474141E+02  0.00000000000E+00 0. -1.
         25    2    1    2    0    0  0.16581901555E+02 -0.64007783083E+02  0.10317007846E+03  0.17504586098E+03  0.12500013042E+03 0.  0.
          2    1    1    2  501    0  0.27600201014E+02  0.22785932296E+02 -0.18054731988E+01  0.35836148511E+02  0.00000000000E+00 0. -1.
          1    1    1    2  502    0 -0.44182102569E+02  0.41221850787E+02  0.11334602945E+04  0.11350698385E+04  0.00000000000E+00 0. -1.
         22    1    3    3    0    0  0.12375686032E+02 -0.30277523128E+02 -0.25807511879E+02  0.41664297436E+02  0.00000000000E+00 0. -1.
         22    1    3    3    0    0  0.42062155229E+01 -0.33730259956E+02  0.12897759033E+03  0.13338156355E+03  0.00000000000E+00 0. -1.
</event>
<event>
 7    1  0.5139898E-006  0.7174773E+02  0.7818608E-02  0.1484621E+00
          2   -1    0    0  502    0  0.00000000000E+00  0.00000000000E+00  0.56111390704E+03  0.56111390704E+03  0.00000000000E+00 0. -1.
          1   -1    0    0  501    0 -0.00000000000E+00 -0.00000000000E+00 -0.22254037101E+03  0.22254037101E+03  0.00000000000E+00 0. -1.
         25    2    1    2    0    0  0.39850486253E+02 -0.31129369451E+02 -0.36592026161E+02  0.13971727166E+03  0.12499936290E+03 0.  0.
          2    1    1    2  501    0 -0.63978220507E+02  0.41458621439E+02 -0.12320034113E+03  0.14488048193E+03  0.00000000000E+00 0. -1.
          1    1    1    2  502    0  0.24127734254E+02 -0.10329251989E+02  0.49836590333E+03  0.49905652446E+03  0.00000000000E+00 0. -1.
         22    1    3    3    0    0  0.76127833228E+02 -0.43295931690E+02 -0.11865515393E+01  0.87586486386E+02  0.00000000000E+00 0.  1.
         22    1    3    3    0    0 -0.36277346975E+02  0.12166562240E+02 -0.35405474622E+02  0.52130785276E+02  0.00000000000E+00 0.  1.
</event>
<event>
 7    1  0.5139898E-006  0.2942348E+02  0.7818608E-02  0.1609059E+00
          2   -1    0    0  502    0  0.00000000000E+00  0.00000000000E+00  0.54293639405E+03  0.54293639405E+03  0.00000000000E+00 0. -1.
          1   -1    0    0  501    0 -0.00000000000E+00 -0.00000000000E+00 -0.38326035315E+03  0.38326035315E+03  0.00000000000E+00 0. -1.
         25    2    1    2    0    0 -0.25268790930E+02  0.22589482849E+02 -0.23142849216E+02  0.13156090127E+03  0.12499553089E+03 0.  0.
          2    1    1    2  501    0  0.28963381896E+02  0.58139621788E+01 -0.30477403142E+03  0.30620236752E+03  0.00000000000E+00 0. -1.
          1    1    1    2  502    0 -0.36945909666E+01 -0.28403445028E+02  0.48759292154E+03  0.48843347840E+03  0.00000000000E+00 0. -1.
         22    1    3    3    0    0 -0.26657343565E+02 -0.42698720442E+02 -0.39796127100E+02  0.64167954818E+02  0.00000000000E+00 0. -1.
         22    1    3    3    0    0  0.13885526352E+01  0.65288203291E+02  0.16653277884E+02  0.67392946453E+02  0.00000000000E+00 0. -1.
</event>
<event>
 7    1  0.5139898E-006  0.2297212E+03  0.7818608E-02  0.1314350E+00
          2   -1    0    0  502    0  0.00000000000E+00  0.00000000000E+00  0.22098547349E+04  0.22098547349E+04  0.00000000000E+00 0. -1.
          1   -1    0    0  501    0 -0.00000000000E+00 -0.00000000000E+00 -0.66584742205E+02  0.66584742205E+02  0.00000000000E+00 0. -1.
         25    2    1    2    0    0 -0.13980559944E+03  0.17208503207E+03  0.93374351603E+03  0.96781211819E+03  0.12499791395E+03 0.  0.
          2    1    1    2  501    0  0.12161058313E+03 -0.19811569912E+03  0.22476771808E+03  0.32335660077E+03  0.00000000000E+00 0. -1.
          1    1    1    2  502    0  0.18195016305E+02  0.26030667053E+02  0.98475875857E+03  0.98527075813E+03  0.00000000000E+00 0. -1.
         22    1    3    3    0    0 -0.12659757950E+03  0.81217358127E+02  0.42456691209E+03  0.45042232320E+03  0.00000000000E+00 0.  1.
         22    1    3    3    0    0 -0.13208019937E+02  0.90867673943E+02  0.50917660394E+03  0.51738979499E+03  0.00000000000E+00 0.  1.
</event>
<event>
 7    1  0.5139898E-006  0.3063786E+03  0.7818608E-02  0.1268311E+00
          2   -1    0    0  502    0  0.00000000000E+00  0.00000000000E+00  0.82947367406E+03  0.82947367406E+03  0.00000000000E+00 0. -1.
          1   -1    0    0  501    0 -0.00000000000E+00 -0.00000000000E+00 -0.99823288637E+03  0.99823288637E+03  0.00000000000E+00 0. -1.
         25    2    1    2    0    0 -0.29945225578E+03 -0.15293473462E+03  0.23137476208E+02  0.35947028192E+03  0.12499141665E+03 0.  0.
          2    1    1    2  501    0  0.29646549253E+02  0.21497555340E+02 -0.79433646765E+03  0.79518015985E+03  0.00000000000E+00 0. -1.
          1    1    1    2  502    0  0.26980570653E+03  0.13143717928E+03  0.60243977914E+03  0.67305611866E+03  0.00000000000E+00 0. -1.
         22    1    3    3    0    0 -0.67012920707E+02 -0.61835973695E+01  0.49177011189E+02  0.83350745933E+02  0.00000000000E+00 0. -1.
         22    1    3    3    0    0 -0.23243933507E+03 -0.14675113725E+03 -0.26039534980E+02  0.27611953599E+03  0.00000000000E+00 0. -1.
</event>
<event>
 7    1  0.5139898E-006  0.1048954E+03  0.7818608E-02  0.1427586E+00
          2   -1    0    0  502    0  0.00000000000E+00  0.00000000000E+00  0.72740760115E+03  0.72740760115E+03  0.00000000000E+00 0. -1.
          1   -1    0    0  501    0 -0.00000000000E+00 -0.00000000000E+00 -0.10137948718E+04  0.10137948718E+04  0.00000000000E+00 0. -1.
         25    2    1    2    0    0 -0.56787280732E+02  0.73900113893E+02 -0.14290380835E+03  0.21150578406E+03  0.12500870435E+03 0.  0.
          2    1    1    2  501    0  0.15056290526E+02  0.22692653161E+02 -0.83237261724E+03  0.83281800072E+03  0.00000000000E+00 0. -1.
          1    1    1    2  502    0  0.41730990206E+02 -0.96592767054E+02  0.68888915495E+03  0.69687868815E+03  0.00000000000E+00 0. -1.
         22    1    3    3    0    0 -0.36486714096E+02  0.86877084619E+02 -0.15735472868E+03  0.18341051980E+03  0.00000000000E+00 0. -1.
         22    1    3    3    0    0 -0.20300566637E+02 -0.12976970726E+02  0.14450920332E+02  0.28095264253E+02  0.00000000000E+00 0. -1.
</event>
<event>
 7    1  0.5139898E-006  0.8503812E+02  0.7818608E-02  0.1387269E+00
          2   -1    0    0  502    0  0.00000000000E+00  0.00000000000E+00  0.25572564401E+03  0.25572564401E+03  0.00000000000E+00 0. -1.
          1   -1    0    0  501    0 -0.00000000000E+00 -0.00000000000E+00 -0.20413138015E+04  0.20413138015E+04  0.00000000000E+00 0. -1.
         25    2    1    2    0    0 -0.74921882120E+02  0.26581514980E+02  0.11318637916E+02  0.14857143249E+03  0.12500197450E+03 0.  0.
          2    1    1    2  501    0 -0.10728430078E+02 -0.44802619067E+02 -0.19614945129E+04  0.19620354477E+04  0.00000000000E+00 0. -1.
          1    1    1    2  502    0  0.85650312198E+02  0.18221104087E+02  0.16458771756E+03  0.18643256525E+03  0.00000000000E+00 0. -1.
         22    1    3    3    0    0 -0.92611988738E+02  0.48050213028E+02  0.37009922476E+02  0.11070473247E+03  0.00000000000E+00 0. -1.
         22    1    3    3    0    0  0.17690106618E+02 -0.21468698048E+02 -0.25691284560E+02  0.37866700019E+02  0.00000000000E+00 0. -1.
</event>
<event>
 7    1  0.5139898E-006  0.1071173E+03  0.7818608E-02  0.1290961E+00
          2   -1    0    0  502    0  0.00000000000E+00  0.00000000000E+00  0.17897174208E+04  0.17897174208E+04  0.00000000000E+00 0. -1.
          1   -1    0    0  501    0 -0.00000000000E+00 -0.00000000000E+00 -0.40492802605E+02  0.40492802605E+02  0.00000000000E+00 0. -1.
         25    2    1    2    0    0  0.87144815837E+02 -0.67567761845E+02  0.32740304083E+03  0.36739315686E+03  0.12500143678E+03 0.  0.
          2    1    1    2  501    0 -0.17326289162E+02  0.11502990651E+03  0.15813143614E+03  0.19631003740E+03  0.00000000000E+00 0. -1.
          1    1    1    2  502    0 -0.69818526675E+02 -0.47462144663E+02  0.12636901412E+04  0.12665070292E+04  0.00000000000E+00 0. -1.
         22    1    3    3    0    0  0.45943236496E+02 -0.63345739803E+02  0.64959311144E+02  0.10170140528E+03  0.00000000000E+00 0. -1.
         22    1    3    3    0    0  0.41201579341E+02 -0.42220220419E+01  0.26244372968E+03  0.26569175158E+03  0.00000000000E+00 0. -1.
</event>
<event>
 7    1  0.5139898E-006  0.9377990E+02  0.7818608E-02  0.1295958E+00
          2   -1    0    0  502    0  0.00000000000E+00  0.00000000000E+00  0.50654371260E+03  0.50654371260E+03  0.00000000000E+00 0. -1.
          1   -1    0    0  501    0 -0.00000000000E+00 -0.00000000000E+00 -0.10923095703E+04  0.10923095703E+04  0.00000000000E+00 0. -1.
         25    2    1    2    0    0  0.39426425976E+02  0.19378613545E+02  0.13396313188E+03  0.18841524015E+03  0.12499683312E+03 0.  0.
          2    1    1    2  501    0 -0.65038347447E+02  0.69031147206E+02 -0.10567888465E+04  0.10610362633E+04  0.00000000000E+00 0. -1.
          1    1    1    2  502    0  0.25611921471E+02 -0.88409760751E+02  0.33705985693E+03  0.34940177944E+03  0.00000000000E+00 0. -1.
         22    1    3    3    0    0  0.37620615630E+02 -0.28986104833E+02  0.13165806273E+03  0.13996196081E+03  0.00000000000E+00 0.  1.
         22    1    3    3    0    0  0.18058103460E+01  0.48364718378E+02  0.23050691534E+01  0.48453279338E+02  0.00000000000E+00 0.  1.
</event>
<event>
 7    1  0.5139898E-006  0.6261796E+02  0.7818608E-02  0.1524470E+00
          2   -1    0    0  502    0  0.00000000000E+00  0.00000000000E+00  0.33608334413E+03  0.33608334413E+03  0.00000000000E+00 0. -1.
          1   -1    0    0  501    0 -0.00000000000E+00 -0.00000000000E+00 -0.56594624065E+03  0.56594624065E+03  0.00000000000E+00 0. -1.
         25    2    1    2    0    0 -0.28127457816E+02  0.29737682207E+02 -0.17803756513E+03  0.22135219207E+03  0.12499573877E+03 0.  0.
          2    1    1    2  501    0 -0.91731753355E+01  0.20990247641E+02 -0.36273414161E+03  0.36345673075E+03  0.00000000000E+00 0. -1.
          1    1    1    2  502    0  0.37300633152E+02 -0.50727929848E+02  0.31090881022E+03  0.31722066196E+03  0.00000000000E+00 0. -1.
         22    1    3    3    0    0  0.38087693175E+02 -0.11999644877E+02 -0.19270728196E+02  0.44339878369E+02  0.00000000000E+00 0.  1.
         22    1    3    3    0    0 -0.66215150991E+02  0.41737327085E+02 -0.15876683693E+03  0.17701231370E+03  0.00000000000E+00 0.  1.
</event>
<event>
 7    1  0.6042836E-006  0.5885920E+02  0.7818608E-02  0.1443061E+00
          2   -1    0    0  502    0  0.00000000000E+00  0.00000000000E+00  0.68801640503E+03  0.68801640503E+03  0.00000000000E+00 0. -1.
          1   -1    0    0  501    0 -0.00000000000E+00 -0.00000000000E+00 -0.12345901943E+04  0.12345901943E+04  0.00000000000E+00 0. -1.
         25    2    1    2    0    0 -0.24581297067E+02 -0.16216921107E+02 -0.36137184867E+03  0.38351286164E+03  0.12500109334E+03 0.  0.
          2    1    1    2  501    0 -0.33320309418E+02  0.27495254510E+02 -0.86031973429E+03  0.86140366684E+03  0.00000000000E+00 0. -1.
          1    1    1    2  502    0  0.57901606485E+02 -0.11278333403E+02  0.67511779366E+03  0.67769007087E+03  0.00000000000E+00 0. -1.
         22    1    3    3    0    0 -0.61308021330E+02 -0.16252114702E+02 -0.32738840825E+03  0.33347559816E+03  0.00000000000E+00 0. -1.
         22    1    3    3    0    0  0.36726724263E+02  0.35193595213E-01 -0.33983440422E+02  0.50037263480E+02  0.00000000000E+00 0. -1.
</event>
<event>
 7    1  0.5139898E-006  0.2505958E+03  0.7818608E-02  0.1221352E+00
          2   -1    0    0  502    0  0.00000000000E+00  0.00000000000E+00  0.13160043278E+04  0.13160043278E+04  0.00000000000E+00 0. -1.
          1   -1    0    0  501    0 -0.00000000000E+00 -0.00000000000E+00 -0.79536639997E+03  0.79536639997E+03  0.00000000000E+00 0. -1.
         25    2    1    2    0    0  0.91487266389E+02  0.30619693228E+03 -0.24271276758E+03  0.42031066650E+03  0.12500035033E+03 0.  0.
          2    1    1    2  501    0 -0.25883250782E+02 -0.67045960353E+02 -0.44843628468E+03  0.45415878819E+03  0.00000000000E+00 0. -1.
          1    1    1    2  502    0 -0.65604015607E+02 -0.23915097193E+03  0.12117869801E+04  0.12369012731E+04  0.00000000000E+00 0. -1.
         22    1    3    3    0    0  0.10976143039E+03  0.16008463989E+03 -0.15912916266E+03  0.25099154157E+03  0.00000000000E+00 0.  1.
         22    1    3    3    0    0 -0.18274164001E+02  0.14611229239E+03 -0.83583604916E+02  0.16931912494E+03  0.00000000000E+00 0.  1.
</event>
<event>
 7    1  0.5139898E-006  0.8569974E+02  0.7818608E-02  0.1316160E+00
          2   -1    0    0  502    0  0.00000000000E+00  0.00000000000E+00  0.10180539909E+04  0.10180539909E+04  0.00000000000E+00 0. -1.
          1   -1    0    0  501    0 -0.00000000000E+00 -0.00000000000E+00 -0.15127424797E+04  0.15127424797E+04  0.00000000000E+00 0. -1.
         25    2    1    2    0    0  0.41305421806E+02 -0.12692801477E+03  0.55625965412E+03  0.58554810464E+03  0.12499968494E+03 0.  0.
          2    1    1    2  501    0 -0.70623073578E+02  0.48470195763E+02 -0.14929377050E+04  0.14953929147E+04  0.00000000000E+00 0. -1.
          1    1    1    2  502    0  0.29317651772E+02  0.78457819004E+02  0.44198956205E+03  0.44985545126E+03  0.00000000000E+00 0. -1.
         22    1    3    3    0    0 -0.42564082172E+02 -0.39000296075E+02  0.12865919851E+03  0.14101742285E+03  0.00000000000E+00 0. -1.
         22    1    3    3    0    0  0.83869503977E+02 -0.87927718693E+02  0.42760045561E+03  0.44453068179E+03  0.00000000000E+00 0. -1.
</event>
<event>
 7    1  0.5139898E-006  0.6251353E+02  0.7818608E-02  0.1542689E+00
          2   -1    0    0  502    0  0.00000000000E+00  0.00000000000E+00  0.14678381487E+04  0.14678381487E+04  0.00000000000E+00 0. -1.
          1   -1    0    0  501    0 -0.00000000000E+00 -0.00000000000E+00 -0.38891637677E+03  0.38891637677E+03  0.00000000000E+00 0. -1.
         25    2    1    2    0    0 -0.36089106515E+02 -0.56176097123E+02  0.12630824781E+03  0.18983724829E+03  0.12500491941E+03 0.  0.
          2    1    1    2  501    0  0.19924253857E+02 -0.41830820472E+01 -0.35611570639E+03  0.35669716904E+03  0.00000000000E+00 0. -1.
          1    1    1    2  502    0  0.16164852659E+02  0.60359179170E+02  0.13087292305E+04  0.13102201081E+04  0.00000000000E+00 0. -1.
         22    1    3    3    0    0 -0.37810293542E+02 -0.79440711717E+02  0.13806469940E+03  0.16371409896E+03  0.00000000000E+00 0. -1.
         22    1    3    3    0    0  0.17211870261E+01  0.23264614594E+02 -0.11756451593E+02  0.26123149333E+02  0.00000000000E+00 0. -1.
</event>
<event>
 7    1  0.5139898E-006  0.9299709E+02  0.7818608E-02  0.1464262E+00
          2   -1    0    0  502    0  0.00000000000E+00  0.00000000000E+00  0.29032556026E+02  0.29032556026E+02  0.00000000000E+00 0. -1.
          1   -1    0    0  501    0 -0.00000000000E+00 -0.00000000000E+00 -0.11321064727E+04  0.11321064727E+04  0.00000000000E+00 0. -1.
         25    2    1    2    0    0  0.91255448010E+02  0.38273059054E+02 -0.63432889107E+03  0.65405703757E+03  0.12500033000E+03 0.  0.
          2    1    1    2  501    0 -0.10675981832E+00 -0.23406569051E+02 -0.37414556052E+03  0.37487701894E+03  0.00000000000E+00 0. -1.
          1    1    1    2  502    0 -0.91148688192E+02 -0.14866490003E+02 -0.94599465059E+02  0.13220497220E+03  0.00000000000E+00 0. -1.
         22    1    3    3    0    0  0.85970213520E+02  0.55180631293E+02 -0.26058257579E+03  0.27989115472E+03  0.00000000000E+00 0.  1.
         22    1    3    3    0    0  0.52852344906E+01 -0.16907572240E+02 -0.37374631528E+03  0.37416588285E+03  0.00000000000E+00 0.  1.
</event>
<event>
 7    1  0.5139898E-006  0.4638934E+02  0.7818608E-02  0.1501296E+00
          2   -1    0    0  502    0  0.00000000000E+00  0.00000000000E+00  0.27413304547E+03  0.27413304547E+03  0.00000000000E+00 0. -1.
          1   -1    0    0  501    0 -0.00000000000E+00 -0.00000000000E+00 -0.63847005224E+03  0.63847005224E+03  0.00000000000E+00 0. -1.
         25    2    1    2    0    0  0.10844259239E+02  0.42588438378E+01 -0.89360685219E+02  0.15409620023E+03  0.12499828460E+03 0.  0.
          2    1    1    2  501    0  0.25473675529E+02  0.25661071387E+02 -0.51381062279E+03  0.51508130894E+03  0.00000000000E+00 0. -1.
          1    1    1    2  502    0 -0.36317934768E+02 -0.29919915225E+02  0.23883430123E+03  0.24342558855E+03  0.00000000000E+00 0. -1.
         22    1    3    3    0    0  0.45935518948E+02 -0.37105722016E+02 -0.79390855444E+02  0.98943491122E+02  0.00000000000E+00 0.  1.
         22    1    3    3    0    0 -0.35091259709E+02  0.41364565854E+02 -0.99698297753E+01  0.55152709108E+02  0.00000000000E+00 0.  1.
</event>
<event>
 7    1  0.5139898E-006  0.6920149E+02  0.7818608E-02  0.1512001E+00
          2   -1    0    0  502    0  0.00000000000E+00  0.00000000000E+00  0.72825474064E+03  0.72825474064E+03  0.00000000000E+00 0. -1.
          1   -1    0    0  501    0 -0.00000000000E+00 -0.00000000000E+00 -0.74133472327E+02  0.74133472327E+02  0.00000000000E+00 0. -1.
         25    2    1    2    0    0 -0.63667765536E+02  0.62936668973E+02  0.22776796350E+03  0.27480581151E+03  0.12500152067E+03 0.  0.
          2    1    1    2  501    0  0.17585905309E+02 -0.14090655740E+02 -0.45606012851E+02  0.50869628000E+02  0.00000000000E+00 0. -1.
          1    1    1    2  502    0  0.46081860227E+02 -0.48846013234E+02  0.47195931766E+03  0.47671277346E+03  0.00000000000E+00 0. -1.
         22    1    3    3    0    0 -0.47363920722E+02  0.35933508862E+01  0.10042913787E+02  0.48550110959E+02  0.00000000000E+00 0.  1.
         22    1    3    3    0    0 -0.16303844813E+02  0.59343318087E+02  0.21772504972E+03  0.22625570055E+03  0.00000000000E+00 0.  1.
</event>
<event>
 7    1  0.5139898E-006  0.6842167E+02  0.7818608E-02  0.1398801E+00
          2   -1    0    0  502    0  0.00000000000E+00  0.00000000000E+00  0.63030306216E+02  0.63030306216E+02  0.00000000000E+00 0. -1.
          1   -1    0    0  501    0 -0.00000000000E+00 -0.00000000000E+00 -0.58103855709E+03  0.58103855709E+03  0.00000000000E+00 0. -1.
         25    2    1    2    0    0  0.85229541284E+02 -0.15993497273E+02 -0.92863969495E+02  0.17823770597E+03  0.12500038534E+03 0.  0.
          2    1    1    2  501    0 -0.46006988966E+02  0.50456059501E+02 -0.40362261407E+03  0.40935763284E+03  0.00000000000E+00 0. -1.
          1    1    1    2  502    0 -0.39222552318E+02 -0.34462562228E+02 -0.21521667309E+02  0.56473524500E+02  0.00000000000E+00 0. -1.
         22    1    3    3    0    0 -0.11016317820E+02 -0.28972877985E+02 -0.72724134102E+02  0.79054326877E+02  0.00000000000E+00 0. -1.
         22    1    3    3    0    0  0.96245859104E+02  0.12979380713E+02 -0.20139835393E+02  0.99183379091E+02  0.00000000000E+00 0. -1.
</event>
<event>
 7    1  0.5139898E-006  0.1978578E+03  0.7818608E-02  0.1231134E+00
          2   -1    0    0  502    0  0.00000000000E+00  0.00000000000E+00  0.26979216313E+04  0.26979216313E+04  0.00000000000E+00 0. -1.
          1   -1    0    0  501    0 -0.00000000000E+00 -0.00000000000E+00 -0.16736119377E+04  0.16736119377E+04  0.00000000000E+00 0. -1.
         25    2    1    2    0    0 -0.86335795160E+02 -0.18871793506E+03  0.58848486678E+03  0.63640263368E+03  0.12500218074E+03 0.  0.
          2    1    1    2  501    0  0.81625204915E+02 -0.99438201236E+01 -0.16438893078E+04  0.16459445950E+04  0.00000000000E+00 0. -1.
          1    1    1    2  502    0  0.47105902450E+01  0.19866175518E+03  0.20797141346E+04  0.20891863403E+04  0.00000000000E+00 0. -1.
         22    1    3    3    0    0 -0.94506763268E+02 -0.13670796458E+03  0.53939971017E+03  0.56442239787E+03  0.00000000000E+00 0. -1.
         22    1    3    3    0    0  0.81709681075E+01 -0.52009970472E+02  0.49085156610E+02  0.71980235814E+02  0.00000000000E+00 0. -1.
</event>
<event>
 7    1  0.5139898E-006  0.8067684E+02  0.7818608E-02  0.1395821E+00
          2   -1    0    0  502    0  0.00000000000E+00  0.00000000000E+00  0.20831238754E+04  0.20831238754E+04  0.00000000000E+00 0. -1.
          1   -1    0    0  501    0 -0.00000000000E+00 -0.00000000000E+00 -0.35678935858E+03  0.35678935858E+03  0.00000000000E+00 0. -1.
         25    2    1    2    0    0 -0.11685393560E+03  0.23249586414E+02 -0.20846063082E+03  0.27069557738E+03  0.12499950191E+03 0.  0.
          2    1    1    2  501    0  0.43969309235E+02  0.11071506011E+02 -0.11200401561E+03  0.12083367872E+03  0.00000000000E+00 0. -1.
          1    1    1    2  502    0  0.72884626367E+02 -0.34321092425E+02  0.20467991632E+04  0.20483839779E+04  0.00000000000E+00 0. -1.
         22    1    3    3    0    0 -0.62904044747E+02  0.72027308293E+02 -0.14754188021E+03  0.17582223523E+03  0.00000000000E+00 0.  1.
         22    1    3    3    0    0 -0.53949890855E+02 -0.48777721879E+02 -0.60918750609E+02  0.94873342150E+02  0.00000000000E+00 0.  1.
</event>
<event>
 7    1  0.5139898E-006  0.4370305E+02  0.7818608E-02  0.1536741E+00
          2   -1    0    0  502    0  0.00000000000E+00  0.00000000000E+00  0.95723198169E+02  0.95723198169E+02  0.00000000000E+00 0. -1.
          1   -1    0    0  501    0 -0.00000000000E+00 -0.00000000000E+00 -0.14132624502E+04  0.14132624502E+04  0.00000000000E+00 0. -1.
         25    2    1    2    0    0 -0.53491786420E+02 -0.14719372618E+02 -0.20708806637E+03  0.24816890951E+03  0.12499723704E+03 0.  0.
          2    1    1    2  501    0  0.24462240805E+02 -0.17831155143E+02 -0.11790978947E+04  0.11794864122E+04  0.00000000000E+00 0. -1.
          1    1    1    2  502    0  0.29029545615E+02  0.32550527761E+02  0.68646709020E+02  0.81330326665E+02  0.00000000000E+00 0. -1.
         22    1    3    3    0    0 -0.73728564052E+01 -0.25362784416E+02 -0.19827220347E+03  0.20002373987E+03  0.00000000000E+00 0. -1.
         22    1    3    3    0    0 -0.46118930014E+02  0.10643411798E+02 -0.88158629027E+01  0.48145169634E+02  0.00000000000E+00 0. -1.
</event>
<event>
 7    1  0.8436595E-006  0.1169794E+03  0.7818608E-02  0.1291617E+00
          2   -1    0    0  502    0  0.00000000000E+00  0.00000000000E+00  0.16045899454E+04  0.16045899454E+04  0.00000000000E+00 0. -1.
          1   -1    0    0  501    0 -0.00000000000E+00 -0.00000000000E+00 -0.20827810474E+04  0.20827810474E+04  0.00000000000E+00 0. -1.
         25    2    1    2    0    0 -0.77984680477E+01  0.19255278256E+03 -0.37330913471E+03  0.43831855978E+03  0.12500423836E+03 0.  0.
          2    1    1    2  501    0 -0.49475915999E+01 -0.76673431065E+02 -0.16739235771E+04  0.16756859597E+04  0.00000000000E+00 0. -1.
          1    1    1    2  502    0  0.12746059648E+02 -0.11587935150E+03  0.15690416098E+04  0.15733664734E+04  0.00000000000E+00 0. -1.
         22    1    3    3    0    0  0.27051935658E+02 -0.55227820114E+01 -0.33043701577E+02  0.43060359473E+02  0.00000000000E+00 0. -1.
         22    1    3    3    0    0 -0.34850403706E+02  0.19807556457E+03 -0.34026543314E+03  0.39525820030E+03  0.00000000000E+00 0. -1.
</event>
<event>
 7    1  0.5139898E-006  0.1384422E+03  0.7818608E-02  0.1369653E+00
          2   -1    0    0  502    0  0.00000000000E+00  0.00000000000E+00  0.72047522198E+03  0.72047522198E+03  0.00000000000E+00 0. -1.
          1   -1    0    0  501    0 -0.00000000000E+00 -0.00000000000E+00 -0.28542341437E+04  0.28542341437E+04  0.00000000000E+00 0. -1.
         25    2    1    2    0    0 -0.11923346940E+03  0.73225521237E+01  0.12956409577E+03  0.21605885258E+03  0.12499733145E+03 0.  0.
          2    1    1    2  501    0  0.13720909880E+03  0.19970449528E+02 -0.28087875783E+04  0.28122078187E+04  0.00000000000E+00 0. -1.
          1    1    1    2  502    0 -0.17975629398E+02 -0.27293001652E+02  0.54546456079E+03  0.54644269441E+03  0.00000000000E+00 0. -1.
         22    1    3    3    0    0 -0.14350277725E+03 -0.77405422074E+01  0.11461621954E+03  0.18382013179E+03  0.00000000000E+00 0.  1.
         22    1    3    3    0    0  0.24269307843E+02  0.15063094331E+02  0.14947876230E+02  0.32238720784E+02  0.00000000000E+00 0.  1.
</event>
<event>
 7    1  0.5139898E-006  0.4686689E+02  0.7818608E-02  0.1466131E+00
          2   -1    0    0  502    0  0.00000000000E+00  0.00000000000E+00  0.11084283303E+04  0.11084283303E+04  0.00000000000E+00 0. -1.
          1   -1    0    0  501    0 -0.00000000000E+00 -0.00000000000E+00 -0.85205347908E+02  0.85205347908E+02  0.00000000000E+00 0. -1.
         25    2    1    2    0    0  0.80431898162E+01  0.21274991626E+02  0.27925767930E+03  0.30680307852E+03  0.12500383744E+03 0.  0.
          2    1    1    2  501    0  0.36787648312E+02 -0.30762849044E+02 -0.62659991625E+02  0.78904743204E+02  0.00000000000E+00 0. -1.
          1    1    1    2  502    0 -0.44830838128E+02  0.94878574178E+01  0.80662529477E+03  0.80792585652E+03  0.00000000000E+00 0. -1.
         22    1    3    3    0    0  0.30207074049E+02 -0.64361994912E+01  0.62653701063E+01  0.31514232484E+02  0.00000000000E+00 0. -1.
         22    1    3    3    0    0 -0.22163884233E+02  0.27711191118E+02  0.27299230919E+03  0.27528884604E+03  0.00000000000E+00 0. -1.
</event>
<event>
 7    1  0.5139898E-006  0.9449626E+02  0.7818608E-02  0.1316761E+00
          2   -1    0    0  502    0  0.00000000000E+00  0.00000000000E+00  0.42976950143E+03  0.42976950143E+03  0.00000000000E+00 0. -1.
          1   -1    0    0  501    0 -0.00000000000E+00 -0.00000000000E+00 -0.43941130693E+03  0.43941130693E+03  0.00000000000E+00 0. -1.
         25    2    1    2    0    0 -0.78394951495E+02  0.11926043318E+03  0.27200234136E+03  0.33163197102E+03  0.12500268459E+03 0.  0.
          2    1    1    2  501    0  0.73202481943E+01 -0.93641957464E+02 -0.39239653325E+03  0.40348164957E+03  0.00000000000E+00 0. -1.
          1    1    1    2  502    0  0.71074703300E+02 -0.25618475719E+02  0.11075238639E+03  0.13406718778E+03  0.00000000000E+00 0. -1.
         22    1    3    3    0    0 -0.52561446627E+02 -0.11084302292E+02  0.10742460194E+03  0.12010667146E+03  0.00000000000E+00 0. -1.
         22    1    3    3    0    0 -0.25833504868E+02  0.13034473548E+03  0.16457773942E+03  0.21152529956E+03  0.00000000000E+00 0. -1.
</event>
<event>
 7    1  0.5139898E-006  0.1147937E+03  0.7818608E-02  0.1326349E+00
          2   -1    0    0  502    0  0.00000000000E+00  0.00000000000E+00  0.96420524912E+03  0.96420524912E+03  0.00000000000E+00 0. -1.
          1   -1    0    0  501    0 -0.00000000000E+00 -0.00000000000E+00 -0.24186456835E+03  0.24186456835E+03  0.00000000000E+00 0. -1.
         25    2    1    2    0    0 -0.40718022696E+02 -0.15623080188E+03  0.24448162366E+03  0.31852879021E+03  0.12499322005E+03 0.  0.
          2    1    1    2  501    0  0.32329476454E+02  0.47064252093E+02 -0.19635820633E+03  0.20449152566E+03  0.00000000000E+00 0. -1.
          1    1    1    2  502    0  0.83885462419E+01  0.10916654979E+03  0.67421726344E+03  0.68304950159E+03  0.00000000000E+00 0. -1.
         22    1    3    3    0    0 -0.44816954875E+02 -0.30122617336E+01  0.26819765702E+02  0.52315705073E+02  0.00000000000E+00 0. -1.
         22    1    3    3    0    0  0.40989321791E+01 -0.15321854015E+03  0.21766185796E+03  0.26621308514E+03  0.00000000000E+00 0. -1.
</event>
<event>
 7    1  0.5139898E-006  0.1617656E+03  0.7818608E-02  0.1275764E+00
          2   -1    0    0  502    0  0.00000000000E+00  0.00000000000E+00  0.87618879939E+03  0.87618879939E+03  0.00000000000E+00 0. -1.
          1   -1    0    0  501    0 -0.00000000000E+00 -0.00000000000E+00 -0.21294703138E+03  0.21294703138E+03  0.00000000000E+00 0. -1.
         25    2    1    2    0    0  0.92095736667E+02 -0.17496061688E+03 -0.20926493331E+02  0.23485219198E+03  0.12499916712E+03 0.  0.
          2    1    1    2  501    0 -0.62018281836E+02  0.17903420022E+02 -0.62997585684E+02  0.90196981836E+02  0.00000000000E+00 0. -1.
          1    1    1    2  502    0 -0.30077454831E+02  0.15705719686E+03  0.74716584702E+03  0.76408665695E+03  0.00000000000E+00 0. -1.
         22    1    3    3    0    0 -0.29224004300E+02 -0.29215668503E+02  0.10495452864E+02  0.42635105772E+02  0.00000000000E+00 0.  1.
         22    1    3    3    0    0  0.12131974097E+03 -0.14574494838E+03 -0.31421946195E+02  0.19221708621E+03  0.00000000000E+00 0.  1.
</event>
<event>
 7    1  0.5139898E-006  0.1490875E+03  0.7818608E-02  0.1269986E+00
          2   -1    0    0  502    0  0.00000000000E+00  0.00000000000E+00  0.81236765810E+03  0.81236765810E+03  0.00000000000E+00 0. -1.
          1   -1    0    0  501    0 -0.00000000000E+00 -0.00000000000E+00 -0.48600684624E+03  0.48600684624E+03  0.00000000000E+00 0. -1.
         25    2    1    2    0    0 -0.24519627240E+02 -0.17827118035E+03 -0.13942165905E+02  0.21956499408E+03  0.12503030341E+03 0.  0.
          2    1    1    2  501    0 -0.39511135011E+02  0.14108514539E+03 -0.35266936780E+03  0.38189243384E+03  0.00000000000E+00 0. -1.
          1    1    1    2  502    0  0.64030762251E+02  0.37186034954E+02  0.69297234556E+03  0.69691707643E+03  0.00000000000E+00 0. -1.
         22    1    3    3    0    0 -0.37536510656E+02 -0.13313323804E+03 -0.62688950068E+02  0.15186623445E+03  0.00000000000E+00 0. -1.
         22    1    3    3    0    0  0.13016883416E+02 -0.45137942305E+02  0.48746784164E+02  0.67698759632E+02  0.00000000000E+00 0. -1.
</event>
<event>
 7    1  0.5139898E-006  0.1701426E+03  0.7818608E-02  0.1356535E+00
          2   -1    0    0  502    0  0.00000000000E+00  0.00000000000E+00  0.43611659337E+03  0.43611659337E+03  0.00000000000E+00 0. -1.
          1   -1    0    0  501    0 -0.00000000000E+00 -0.00000000000E+00 -0.51416049718E+03  0.51416049718E+03  0.00000000000E+00 0. -1.
         25    2    1    2    0    0 -0.81206133757E+01  0.17636732678E+03  0.12541871021E+03  0.25005432945E+03  0.12500374591E+03 0.  0.
          2    1    1    2  501    0 -0.20505831984E+02 -0.16854630831E+03 -0.43491139160E+03  0.46687928390E+03  0.00000000000E+00 0. -1.
          1    1    1    2  502    0  0.28626445360E+02 -0.78210184676E+01  0.23144877758E+03  0.23334347719E+03  0.00000000000E+00 0. -1.
         22    1    3    3    0    0  0.17580401086E+02  0.25290525771E+02 -0.21654312313E+02  0.37650902219E+02  0.00000000000E+00 0.  1.
         22    1    3    3    0    0 -0.25701014462E+02  0.15107680101E+03  0.14707302252E+03  0.21240342723E+03  0.00000000000E+00 0.  1.
</event>
<event>
 7    1  0.5139898E-006  0.7182806E+02  0.7818608E-02  0.1413557E+00
          2   -1    0    0  502    0  0.00000000000E+00  0.00000000000E+00  0.14339231663E+04  0.14339231663E+04  0.00000000000E+00 0. -1.
          1   -1    0    0  501    0 -0.00000000000E+00 -0.00000000000E+00 -0.93680992719E+02  0.93680992719E+02  0.00000000000E+00 0. -1.
         25    2    1    2    0    0 -0.66816174038E+02 -0.47866561222E+02  0.17751677365E+03  0.23214835406E+03  0.12500017827E+03 0.  0.
          2    1    1    2  501    0  0.71854193671E+02  0.38561023398E+01 -0.46334335251E+02  0.85584842680E+02  0.00000000000E+00 0. -1.
          1    1    1    2  502    0 -0.50380196335E+01  0.44010458882E+02  0.12090597352E+04  0.12098709623E+04  0.00000000000E+00 0. -1.
         22    1    3    3    0    0  0.34810001968E+02 -0.24582358462E+01  0.23311565499E+02  0.41966751679E+02  0.00000000000E+00 0. -1.
         22    1    3    3    0    0 -0.10162617601E+03 -0.45408325375E+02  0.15420520815E+03  0.19018160238E+03  0.00000000000E+00 0. -1.
</event>
<event>
 7    1  0.5139898E-006  0.6342628E+02  0.7818608E-02  0.1496586E+00
          2   -1    0    0  502    0  0.00000000000E+00  0.00000000000E+00  0.11724476272E+04  0.11724476272E+04  0.00000000000E+00 0. -1.
          1   -1    0    0  501    0 -0.00000000000E+00 -0.00000000000E+00 -0.26024013663E+03  0.26024013663E+03  0.00000000000E+00 0. -1.
         25    2    1    2    0    0 -0.12196514785E+02 -0.89333473070E+02  0.58214174766E+02  0.16474863072E+03  0.12499598713E+03 0.  0.
          2    1    1    2  501    0  0.16337253448E+01  0.27267952860E+02 -0.20513269959E+03  0.20694355451E+03  0.00000000000E+00 0. -1.
          1    1    1    2  502    0  0.10562789440E+02  0.62065520211E+02  0.10591260154E+04  0.10609955786E+04  0.00000000000E+00 0. -1.
         22    1    3    3    0    0  0.30807346946E+02  0.68442511602E+01  0.49932699768E+02  0.59069542963E+02  0.00000000000E+00 0.  1.
         22    1    3    3    0    0 -0.43003861730E+02 -0.96177724230E+02  0.82814749983E+01  0.10567908776E+03  0.00000000000E+00 0.  1.
</event>
<event>
 7    1  0.5139898E-006  0.6755467E+02  0.7818608E-02  0.1395102E+00
          2   -1    0    0  502    0  0.00000000000E+00  0.00000000000E+00  0.11450391744E+04  0.11450391744E+04  0.00000000000E+00 0. -1.
          1   -1    0    0  501    0 -0.00000000000E+00 -0.00000000000E+00 -0.54765291256E+02  0.54765291256E+02  0.00000000000E+00 0. -1.
         25    2    1    2    0    0 -0.64976776443E+02  0.25400696821E+02  0.13820878623E+03  0.19898211818E+03  0.12500015156E+03 0.  0.
          2    1    1    2  501    0  0.31073122163E+01 -0.54372109009E+02  0.88963829178E+01  0.55182671704E+02  0.00000000000E+00 0. -1.
          1    1    1    2  502    0  0.61869464227E+02  0.28971412188E+02  0.94316871398E+03  0.94563967576E+03  0.00000000000E+00 0. -1.
         22    1    3    3    0    0 -0.57283515030E+02 -0.34990640850E+02  0.27301840985E+02  0.72464726333E+02  0.00000000000E+00 0.  1.
         22    1    3    3    0    0 -0.76932614126E+01  0.60391337671E+02  0.11090694524E+03  0.12651739185E+03  0.00000000000E+00 0.  1.
</event>
<event>
 7    1  0.5139898E-006  0.5425824E+02  0.7818608E-02  0.1503303E+00
          2   -1    0    0  502    0  0.00000000000E+00  0.00000000000E+00  0.34729827513E+03  0.34729827513E+03  0.00000000000E+00 0. -1.
          1   -1    0    0  501    0 -0.00000000000E+00 -0.00000000000E+00 -0.18600062162E+04  0.18600062162E+04  0.00000000000E+00 0. -1.
         25    2    1    2    0    0 -0.29598398812E+02 -0.18882743737E+02 -0.10268604360E+03  0.16553586242E+03  0.12500029989E+03 0.  0.
          2    1    1    2  501    0  0.51839609125E+01 -0.30048178388E+02 -0.17233926964E+04  0.17236624242E+04  0.00000000000E+00 0. -1.
          1    1    1    2  502    0  0.24414437899E+02  0.48930922125E+02  0.31337079890E+03  0.31810620478E+03  0.00000000000E+00 0. -1.
         22    1    3    3    0    0 -0.61871470260E+02  0.27079444015E+02 -0.80680281533E+02  0.10521731297E+03  0.00000000000E+00 0.  1.
         22    1    3    3    0    0  0.32273071448E+02 -0.45962187751E+02 -0.22005762067E+02  0.60318549450E+02  0.00000000000E+00 0.  1.
</event>
<event>
 7    1  0.5139898E-006  0.8674121E+02  0.7818608E-02  0.1332770E+00
          2   -1    0    0  502    0  0.00000000000E+00  0.00000000000E+00  0.20648905880E+03  0.20648905880E+03  0.00000000000E+00 0. -1.
          1   -1    0    0  501    0 -0.00000000000E+00 -0.00000000000E+00 -0.54671160219E+03  0.54671160219E+03  0.00000000000E+00 0. -1.
         25    2    1    2    0    0 -0.68742873672E+01 -0.49110225115E+02 -0.41483350768E+03  0.43608635487E+03  0.12500159909E+03 0.  0.
          2    1    1    2  501    0 -0.70989032830E+02  0.77566406097E+01 -0.99195038363E+02  0.12222628151E+03  0.00000000000E+00 0. -1.
          1    1    1    2  502    0  0.77863320197E+02  0.41353584505E+02  0.17380600265E+03  0.19488802462E+03  0.00000000000E+00 0. -1.
         22    1    3    3    0    0 -0.55625372777E+02 -0.55581858984E+02 -0.18445534483E+03  0.20051757873E+03  0.00000000000E+00 0.  1.
         22    1    3    3    0    0  0.48751085410E+02  0.64716338693E+01 -0.23037816285E+03  0.23556877614E+03  0.00000000000E+00 0.  1.
</event>
<event>
 7    1  0.5139898E-006  0.3883129E+02  0.7818608E-02  0.1554440E+00
          2   -1    0    0  502    0  0.00000000000E+00  0.00000000000E+00  0.17574338464E+04  0.17574338464E+04  0.00000000000E+00 0. -1.
          1   -1    0    0  501    0 -0.00000000000E+00 -0.00000000000E+00 -0.11731091845E+04  0.11731091845E+04  0.00000000000E+00 0. -1.
         25    2    1    2    0    0  0.80189141857E+01 -0.33050555509E+02  0.59368674929E+01  0.12968639652E+03  0.12500669119E+03 0.  0.
          2    1    1    2  501    0  0.22345341327E+02  0.31858054911E+02 -0.11107570524E+04  0.11114384731E+04  0.00000000000E+00 0. -1.
          1    1    1    2  502    0 -0.30364255513E+02  0.11925005975E+01  0.16891448468E+04  0.16894181613E+04  0.00000000000E+00 0. -1.
         22    1    3    3    0    0  0.49679529934E+02 -0.32776961812E+02  0.43397697491E+02  0.73659656988E+02  0.00000000000E+00 0.  1.
         22    1    3    3    0    0 -0.41660615748E+02 -0.27359369666E+00 -0.37460829998E+02  0.56026739528E+02  0.00000000000E+00 0.  1.
</event>
<event>
 7    1  0.5139898E-006  0.4968636E+02  0.7818608E-02  0.1509679E+00
          2   -1    0    0  502    0  0.00000000000E+00  0.00000000000E+00  0.21325898235E+03  0.21325898235E+03  0.00000000000E+00 0. -1.
          1   -1    0    0  501    0 -0.00000000000E+00 -0.00000000000E+00 -0.95552756648E+03  0.95552756648E+03  0.00000000000E+00 0. -1.
         25    2    1    2    0    0 -0.79021535668E+02 -0.17142072356E+02 -0.27191339021E+03  0.30999925169E+03  0.12499756209E+03 0.  0.
          2    1    1    2  501    0  0.31742485850E+02  0.29877423502E+01 -0.66104558356E+03  0.66181400375E+03  0.00000000000E+00 0. -1.
          1    1    1    2  502    0  0.47279049818E+02  0.14154330006E+02  0.19069038964E+03  0.19697329339E+03  0.00000000000E+00 0. -1.
         22    1    3    3    0    0 -0.70933194204E+02  0.45065827306E+02 -0.12945686542E+03  0.15434223931E+03  0.00000000000E+00 0.  1.
         22    1    3    3    0    0 -0.80883414640E+01 -0.62207899663E+02 -0.14245652478E+03  0.15565701237E+03  0.00000000000E+00 0.  1.
</event>
<event>
 7    1  0.5139898E-006  0.4535120E+02  0.7818608E-02  0.1504459E+00
          2   -1    0    0  502    0  0.00000000000E+00  0.00000000000E+00  0.11370824757E+04  0.11370824757E+04  0.00000000000E+00 0. -1.
          1   -1    0    0  501    0 -0.00000000000E+00 -0.00000000000E+00 -0.70307729063E+02  0.70307729063E+02  0.00000000000E+00 0. -1.
         25    2    1    2    0    0 -0.41449614700E+02  0.46845273555E+02  0.98475495326E+02  0.17098215027E+03  0.12499968927E+03 0.  0.
          2    1    1    2  501    0  0.43228661966E+02 -0.10695310430E+02 -0.19021286773E+02  0.48424335112E+02  0.00000000000E+00 0. -1.
          1    1    1    2  502    0 -0.17790472656E+01 -0.36149963125E+02  0.98732053806E+03  0.98798371936E+03  0.00000000000E+00 0. -1.
         22    1    3    3    0    0 -0.52075404435E+02  0.72519422166E+02  0.25431116967E+02  0.92831331180E+02  0.00000000000E+00 0. -1.
         22    1    3    3    0    0  0.10625789735E+02 -0.25674148611E+02  0.73044378359E+02  0.78150819089E+02  0.00000000000E+00 0. -1.
</event>
<event>
 7    1  0.5139898E-006  0.1104710E+03  0.7818608E-02  0.1299456E+00
          2   -1    0    0  502    0  0.00000000000E+00  0.00000000000E+00  0.30476571434E+04  0.30476571434E+04  0.00000000000E+00 0. -1.
          1   -1    0    0  501    0 -0.00000000000E+00 -0.00000000000E+00 -0.42490498379E+03  0.42490498379E+03  0.00000000000E+00 0. -1.
         25    2    1    2    0    0 -0.17180626588E+03  0.63146548490E+01  0.51526591686E+03  0.55738653082E+03  0.12499404704E+03 0.  0.
          2    1    1    2  501    0  0.70100922977E+02  0.28436937125E+02 -0.39914026568E+03  0.40624592365E+03  0.00000000000E+00 0. -1.
          1    1    1    2  502    0  0.10170534291E+03 -0.34751591974E+02  0.25066265085E+04  0.25089296728E+04  0.00000000000E+00 0. -1.
         22    1    3    3    0    0 -0.10507638760E+03 -0.47340693193E+02  0.20132774404E+03  0.23198070821E+03  0.00000000000E+00 0. -1.
         22    1    3    3    0    0 -0.66729878282E+02  0.53655348042E+02  0.31393817282E+03  0.32540582260E+03  0.00000000000E+00 0. -1.
</event>
<event>
 7    1  0.5139898E-006  0.7154883E+02  0.7818608E-02  0.1412492E+00
          2   -1    0    0  502    0  0.00000000000E+00  0.00000000000E+00  0.15398220172E+04  0.15398220172E+04  0.00000000000E+00 0. -1.
          1   -1    0    0  501    0 -0.00000000000E+00 -0.00000000000E+00 -0.34787770919E+02  0.34787770919E+02  0.00000000000E+00 0. -1.
         25    2    1    2    0    0 -0.65133448780E+02  0.82204111132E+02  0.52036544639E+03  0.54534879500E+03  0.12500091353E+03 0.  0.
          2    1    1    2  501    0  0.78505466022E+01 -0.44147570395E+02  0.27367807887E+01  0.44923590939E+02  0.00000000000E+00 0. -1.
          1    1    1    2  502    0  0.57282902178E+02 -0.38056540737E+02  0.98193201910E+03  0.98433740216E+03  0.00000000000E+00 0. -1.
         22    1    3    3    0    0  0.12109758958E+02  0.25781195605E+02  0.17421149472E+02  0.33388811865E+02  0.00000000000E+00 0. -1.
         22    1    3    3    0    0 -0.77243207737E+02  0.56422915527E+02  0.50294429691E+03  0.51195998314E+03  0.00000000000E+00 0. -1.
</event>
<event>
 7    1  0.5139898E-006  0.7551393E+02  0.7818608E-02  0.1409970E+00
          2   -1    0    0  502    0  0.00000000000E+00  0.00000000000E+00  0.11275020779E+03  0.11275020779E+03  0.00000000000E+00 0. -1.
          1   -1    0    0  501    0 -0.00000000000E+00 -0.00000000000E+00 -0.65323381437E+03  0.65323381437E+03  0.00000000000E+00 0. -1.
         25    2    1    2    0    0 -0.10780712266E+03  0.25901844927E+02  0.12180880070E+02  0.16753417132E+03  0.12500417374E+03 0.  0.
          2    1    1    2  501    0  0.65580176063E+02 -0.35608758267E+02 -0.55000034661E+03  0.55503975031E+03  0.00000000000E+00 0. -1.
          1    1    1    2  502    0  0.42226946600E+02  0.97069133399E+01 -0.26641400384E+01  0.43410100529E+02  0.00000000000E+00 0. -1.
         22    1    3    3    0    0 -0.64601069163E+02 -0.28809562161E+02  0.51500142429E+02  0.87496020933E+02  0.00000000000E+00 0.  1.
         22    1    3    3    0    0 -0.43206053500E+02  0.54711407087E+02 -0.39319262359E+02  0.80038150385E+02  0.00000000000E+00 0.  1.
</event>
<event>
 7    1  0.5139898E-006  0.9851362E+02  0.7818608E-02  0.1328665E+00
          2   -1    0    0  502    0  0.00000000000E+00  0.00000000000E+00  0.24300289174E+03  0.24300289174E+03  0.00000000000E+00 0. -1.
          1   -1    0    0  501    0 -0.00000000000E+00 -0.00000000000E+00 -0.17148650684E+04  0.17148650684E+04  0.00000000000E+00 0. -1.
         25    2    1    2    0    0  0.73937492941E+02  0.27995368565E+02  0.22005692621E+02  0.14953068576E+03  0.12499872780E+03 0.  0.
          2    1    1    2  501    0 -0.93058191876E+02  0.34324785756E+02 -0.16427854218E+04  0.16457770080E+04  0.00000000000E+00 0. -1.
          1    1    1    2  502    0  0.19120698935E+02 -0.62320154321E+02  0.14891755251E+03  0.16256026639E+03  0.00000000000E+00 0. -1.
         22    1    3    3    0    0 -0.23594128862E+02  0.37079909184E+02 -0.12473523388E+02  0.45685789558E+02  0.00000000000E+00 0. -1.
         22    1    3    3    0    0  0.97531621803E+02 -0.90845406187E+01  0.34479216010E+02  0.10384489620E+03  0.00000000000E+00 0. -1.
</event>
<event>
 7    1  0.5139898E-006  0.5507804E+02  0.7818608E-02  0.1547432E+00
          2   -1    0    0  502    0  0.00000000000E+00  0.00000000000E+00  0.16486406243E+04  0.16486406243E+04  0.00000000000E+00 0. -1.
          1   -1    0    0  501    0 -0.00000000000E+00 -0.00000000000E+00 -0.12885967440E+02  0.12885967440E+02  0.00000000000E+00 0. -1.
         25    2    1    2    0    0  0.10338795467E+02  0.50318544412E+02  0.10240847098E+04  0.10329634836E+04  0.12500087554E+03 0.  0.
          2    1    1    2  501    0 -0.21658549944E+02  0.57511752834E+01  0.10621438337E+02  0.24798866006E+02  0.00000000000E+00 0. -1.
          1    1    1    2  502    0  0.11319754477E+02 -0.56069719696E+02  0.60104850869E+03  0.60376424215E+03  0.00000000000E+00 0. -1.
         22    1    3    3    0    0  0.58080928168E+02  0.37771111588E+02  0.33370214119E+03  0.34081838290E+03  0.00000000000E+00 0. -1.
         22    1    3    3    0    0 -0.47742132702E+02  0.12547432824E+02  0.69038256863E+03  0.69214510066E+03  0.00000000000E+00 0. -1.
</event>
<event>
 7    1  0.5139898E-006  0.1426365E+03  0.7818608E-02  0.1326675E+00
          2   -1    0    0  502    0  0.00000000000E+00  0.00000000000E+00  0.67876619923E+03  0.67876619923E+03  0.00000000000E+00 0. -1.
          1   -1    0    0  501    0 -0.00000000000E+00 -0.00000000000E+00 -0.11563767315E+04  0.11563767315E+04  0.00000000000E+00 0. -1.
         25    2    1    2    0    0  0.17640458055E+03 -0.25202538650E+02  0.14205408393E+03  0.25991756397E+03  0.12499613317E+03 0.  0.
          2    1    1    2  501    0 -0.39509169064E+02  0.23206435425E+02 -0.10871444538E+04  0.10881096344E+04  0.00000000000E+00 0. -1.
          1    1    1    2  502    0 -0.13689541148E+03  0.19961032252E+01  0.46747983761E+03  0.48711573233E+03  0.00000000000E+00 0. -1.
         22    1    3    3    0    0  0.98825557749E+02  0.60685465180E+01  0.14574049535E+03  0.17619196947E+03  0.00000000000E+00 0.  1.
         22    1    3    3    0    0  0.77579022798E+02 -0.31271085168E+02 -0.36864114191E+01  0.83725594504E+02  0.00000000000E+00 0.  1.
</event>
<event>
 7    1  0.7779627E-006  0.1744751E+03  0.7818608E-02  0.1211565E+00
          2   -1    0    0  502    0  0.00000000000E+00  0.00000000000E+00  0.13297030930E+04  0.13297030930E+04  0.00000000000E+00 0. -1.
          1   -1    0    0  501    0 -0.00000000000E+00 -0.00000000000E+00 -0.90426798301E+03  0.90426798301E+03  0.00000000000E+00 0. -1.
         25    2    1    2    0    0  0.44129831273E+02 -0.61826624028E+02 -0.25278851773E+03  0.29205867566E+03  0.12500504745E+03 0.  0.
          2    1    1    2  501    0  0.11274624719E+03 -0.19756922087E+02 -0.62062030494E+03  0.63108764457E+03  0.00000000000E+00 0. -1.
          1    1    1    2  502    0 -0.15687607846E+03  0.81583546115E+02  0.12988439327E+04  0.13108247558E+04  0.00000000000E+00 0. -1.
         22    1    3    3    0    0  0.73810683406E+02 -0.14542400655E+02 -0.77134178118E+02  0.10774590403E+03  0.00000000000E+00 0.  1.
         22    1    3    3    0    0 -0.29680852133E+02 -0.47284223373E+02 -0.17565433961E+03  0.18431277163E+03  0.00000000000E+00 0.  1.
</event>
<event>
 7    1  0.5139898E-006  0.9659646E+02  0.7818608E-02  0.1335826E+00
          2   -1    0    0  502    0  0.00000000000E+00  0.00000000000E+00  0.22618134693E+03  0.22618134693E+03  0.00000000000E+00 0. -1.
          1   -1    0    0  501    0 -0.00000000000E+00 -0.00000000000E+00 -0.34172340388E+03  0.34172340388E+03  0.00000000000E+00 0. -1.
         25    2    1    2    0    0 -0.63277083355E+02  0.36246885438E+02  0.13366019649E+03  0.19699755302E+03  0.12500064716E+03 0.  0.
          2    1    1    2  501    0  0.35291263957E+02 -0.92059142871E+02 -0.28316084677E+03  0.29983399447E+03  0.00000000000E+00 0. -1.
          1    1    1    2  502    0  0.27985819399E+02  0.55812257433E+02  0.33958593333E+02  0.71073203307E+02  0.00000000000E+00 0. -1.
         22    1    3    3    0    0 -0.68556617386E+02 -0.14247853837E+01  0.14232583793E+03  0.15798317614E+03  0.00000000000E+00 0. -1.
         22    1    3    3    0    0  0.52795340303E+01  0.37671670822E+02 -0.86656414393E+01  0.39014376884E+02  0.00000000000E+00 0. -1.
</event>
<event>
 7    1  0.5139898E-006  0.1863080E+03  0.7818608E-02  0.1277910E+00
          2   -1    0    0  502    0  0.00000000000E+00  0.00000000000E+00  0.14536627093E+04  0.14536627093E+04  0.00000000000E+00 0. -1.
          1   -1    0    0  501    0 -0.00000000000E+00 -0.00000000000E+00 -0.37483612451E+03  0.37483612451E+03  0.00000000000E+00 0. -1.
         25    2    1    2    0    0  0.15838393377E+03 -0.12617540916E+03 -0.10537579051E+03  0.26025779307E+03  0.12499742906E+03 0.  0.
          2    1    1    2  501    0 -0.10671362682E+03  0.14475459055E+03 -0.14922269152E+03  0.23368590308E+03  0.00000000000E+00 0. -1.
          1    1    1    2  502    0 -0.51670306951E+02 -0.18579181388E+02  0.13334250669E+04  0.13345551377E+04  0.00000000000E+00 0. -1.
         22    1    3    3    0    0  0.96854681639E+02 -0.12718177983E+03 -0.11638798279E+03  0.19774275465E+03  0.00000000000E+00 0.  1.
         22    1    3    3    0    0  0.61529252133E+02  0.10063706679E+01  0.11012192281E+02  0.62515038421E+02  0.00000000000E+00 0.  1.
</event>
<event>
 7    1  0.5139898E-006  0.5547738E+02  0.7818608E-02  0.1448501E+00
          2   -1    0    0  502    0  0.00000000000E+00  0.00000000000E+00  0.52125665714E+03  0.52125665714E+03  0.00000000000E+00 0. -1.
          1   -1    0    0  501    0 -0.00000000000E+00 -0.00000000000E+00 -0.85096726157E+03  0.85096726157E+03  0.00000000000E+00 0. -1.
         25    2    1    2    0    0  0.28490150637E+02  0.20843546840E+02 -0.22900741105E+03  0.26327835787E+03  0.12499982911E+03 0.  0.
          2    1    1    2  501    0 -0.47050531563E+01 -0.57886944981E+02 -0.60246421048E+03  0.60525710309E+03  0.00000000000E+00 0. -1.
          1    1    1    2  502    0 -0.23785097481E+02  0.37043398141E+02  0.50176101709E+03  0.50368845776E+03  0.00000000000E+00 0. -1.
         22    1    3    3    0    0  0.42064386260E+02  0.86038131627E+01 -0.23874066516E+03  0.24257069772E+03  0.00000000000E+00 0.  1.
         22    1    3    3    0    0 -0.13574235622E+02  0.12239733677E+02  0.97332541097E+01  0.20707660148E+02  0.00000000000E+00 0.  1.
</event>
<event>
 7    1  0.5139898E-006  0.7091942E+02  0.7818608E-02  0.1412904E+00
          2   -1    0    0  502    0  0.00000000000E+00  0.00000000000E+00  0.22474758345E+03  0.22474758345E+03  0.00000000000E+00 0. -1.
          1   -1    0    0  501    0 -0.00000000000E+00 -0.00000000000E+00 -0.79266238784E+03  0.79266238784E+03  0.00000000000E+00 0. -1.
         25    2    1    2    0    0 -0.11593793886E+02  0.93846161778E+02  0.74022425075E+02  0.17333735192E+03  0.12500000008E+03 0.  0.
          2    1    1    2  501    0  0.33424678786E+02 -0.30268953453E+02 -0.73105556950E+03  0.73244499069E+03  0.00000000000E+00 0. -1.
          1    1    1    2  502    0 -0.21830884900E+02 -0.63577208325E+02  0.89118340037E+02  0.11162762868E+03  0.00000000000E+00 0. -1.
         22    1    3    3    0    0  0.18005237322E+02  0.24099806074E+02 -0.31417762859E+02  0.43497874050E+02  0.00000000000E+00 0. -1.
         22    1    3    3    0    0 -0.29599031208E+02  0.69746355704E+02  0.10544018793E+03  0.12983947787E+03  0.00000000000E+00 0. -1.
</event>
<event>
 7    1  0.5139898E-006  0.1117024E+03  0.7818608E-02  0.1362736E+00
          2   -1    0    0  502    0  0.00000000000E+00  0.00000000000E+00  0.15606984965E+04  0.15606984965E+04  0.00000000000E+00 0. -1.
          1   -1    0    0  501    0 -0.00000000000E+00 -0.00000000000E+00 -0.50847346227E+02  0.50847346227E+02  0.00000000000E+00 0. -1.
         25    2    1    2    0    0  0.85900295127E+02  0.66502140082E+02  0.50970916642E+03  0.53593738187E+03  0.12499619040E+03 0.  0.
          2    1    1    2  501    0 -0.10918536400E+03 -0.30465522884E+02  0.48990059483E+02  0.12348934255E+03  0.00000000000E+00 0. -1.
          1    1    1    2  502    0  0.23285068870E+02 -0.36036617198E+02  0.95115192440E+03  0.95211911834E+03  0.00000000000E+00 0. -1.
         22    1    3    3    0    0  0.36334835383E+02  0.99017121422E+02  0.35168308420E+03  0.36715882437E+03  0.00000000000E+00 0.  1.
         22    1    3    3    0    0  0.49565459745E+02 -0.32514981340E+02  0.15802608222E+03  0.16877855750E+03  0.00000000000E+00 0.  1.
</event>
<event>
 7    1  0.5139898E-006  0.9496184E+02  0.7818608E-02  0.1355487E+00
          2   -1    0    0  502    0  0.00000000000E+00  0.00000000000E+00  0.28412000660E+04  0.28412000660E+04  0.00000000000E+00 0. -1.
          1   -1    0    0  501    0 -0.00000000000E+00 -0.00000000000E+00 -0.15952925540E+03  0.15952925540E+03  0.00000000000E+00 0. -1.
         25    2    1    2    0    0 -0.83551121725E+02 -0.10713681304E+03  0.84097062106E+03  0.86099725237E+03  0.12500238579E+03 0.  0.
          2    1    1    2  501    0  0.10550189203E+02  0.52595239276E+02 -0.14362494567E+03  0.15331565708E+03  0.00000000000E+00 0. -1.
          1    1    1    2  502    0  0.73000932522E+02  0.54541573763E+02  0.19843251352E+04  0.19864164119E+04  0.00000000000E+00 0. -1.
         22    1    3    3    0    0 -0.93437913573E+02 -0.21527461145E+02  0.51358042507E+03  0.52245471410E+03  0.00000000000E+00 0.  1.
         22    1    3    3    0    0  0.98867918474E+01 -0.85609351893E+02  0.32739019599E+03  0.33854253827E+03  0.00000000000E+00 0.  1.
</event>
<event>
 7    1  0.5139898E-006  0.6987870E+02  0.7818608E-02  0.1380969E+00
          2   -1    0    0  502    0  0.00000000000E+00  0.00000000000E+00  0.61230117358E+03  0.61230117358E+03  0.00000000000E+00 0. -1.
          1   -1    0    0  501    0 -0.00000000000E+00 -0.00000000000E+00 -0.66274973329E+02  0.66274973329E+02  0.00000000000E+00 0. -1.
         25    2    1    2    0    0 -0.52774224401E+02  0.10620159675E+03  0.16141112907E+03  0.23609781561E+03  0.12499891214E+03 0.  0.
          2    1    1    2  501    0  0.42952078319E+02 -0.40449811268E+02  0.74153390872E+01  0.59464741800E+02  0.00000000000E+00 0. -1.
          1    1    1    2  502    0  0.98221460820E+01 -0.65751785477E+02  0.37719973209E+03  0.38301358950E+03  0.00000000000E+00 0. -1.
         22    1    3    3    0    0 -0.71409579973E+02  0.11079958294E+03  0.83917937058E+02  0.15626290619E+03  0.00000000000E+00 0. -1.
         22    1    3    3    0    0  0.18635355572E+02 -0.45979861910E+01  0.77493192009E+02  0.79834909419E+02  0.00000000000E+00 0. -1.
</event>
<event>
 7    1  0.5139898E-006  0.1310333E+03  0.7818608E-02  0.1372834E+00
          2   -1    0    0  502    0  0.00000000000E+00  0.00000000000E+00  0.11605627869E+04  0.11605627869E+04  0.00000000000E+00 0. -1.
          1   -1    0    0  501    0 -0.00000000000E+00 -0.00000000000E+00 -0.32111169085E+03  0.32111169085E+03  0.00000000000E+00 0. -1.
         25    2    1    2    0    0  0.68392241292E+02  0.87702448276E+02  0.48144025450E+02  0.17410679803E+03  0.12500444724E+03 0.  0.
          2    1    1    2  501    0 -0.60087500259E+02 -0.12029402236E+03 -0.24032598338E+03  0.27538652435E+03  0.00000000000E+00 0. -1.
          1    1    1    2  502    0 -0.83047410321E+01  0.32591574080E+02  0.10316330540E+04  0.10321811554E+04  0.00000000000E+00 0. -1.
         22    1    3    3    0    0 -0.18066738596E+02  0.45519440335E+02  0.59696915206E+02  0.77214947885E+02  0.00000000000E+00 0. -1.
         22    1    3    3    0    0  0.86458979887E+02  0.42183007941E+02 -0.11552889755E+02  0.96891850141E+02  0.00000000000E+00 0. -1.
</event>
<event>
 7    1  0.7018999E-006  0.5482038E+02  0.7818608E-02  0.1505494E+00
          2   -1    0    0  502    0  0.00000000000E+00  0.00000000000E+00  0.46582507970E+03  0.46582507970E+03  0.00000000000E+00 0. -1.
          1   -1    0    0  501    0 -0.00000000000E+00 -0.00000000000E+00 -0.20731052889E+04  0.20731052889E+04  0.00000000000E+00 0. -1.
         25    2    1    2    0    0  0.52328681496E+02  0.43193513187E+02 -0.44774858431E+03  0.46979390760E+03  0.12499420137E+03 0.  0.
          2    1    1    2  501    0  0.78605608384E+00 -0.29720761943E+02 -0.16125459692E+04  0.16128200285E+04  0.00000000000E+00 0. -1.
          1    1    1    2  502    0 -0.53114737580E+02 -0.13472751244E+02  0.45301434433E+03  0.45631643248E+03  0.00000000000E+00 0. -1.
         22    1    3    3    0    0  0.66793096075E+02  0.13876560043E+02 -0.10327371088E+03  0.12377130508E+03  0.00000000000E+00 0. -1.
         22    1    3    3    0    0 -0.14464414578E+02  0.29316953143E+02 -0.34447487342E+03  0.34602260251E+03  0.00000000000E+00 0. -1.
</event>
<event>
 7    1  0.5209982E-006  0.4736705E+02  0.7818608E-02  0.1471357E+00
          2   -1    0    0  502    0  0.00000000000E+00  0.00000000000E+00  0.12851354290E+04  0.12851354290E+04  0.00000000000E+00 0. -1.
          1   -1    0    0  501    0 -0.00000000000E+00 -0.00000000000E+00 -0.73273734242E+03  0.73273734242E+03  0.00000000000E+00 0. -1.
         25    2    1    2    0    0  0.82481158003E+02 -0.15825433557E+02 -0.10045470238E+03  0.18102330672E+03  0.12499881829E+03 0.  0.
          2    1    1    2  501    0 -0.42610792518E+02 -0.95657217755E+01 -0.59074331578E+03  0.59235533914E+03  0.00000000000E+00 0. -1.
          1    1    1    2  502    0 -0.39870365485E+02  0.25391155332E+02  0.12435961048E+04  0.12444941256E+04  0.00000000000E+00 0. -1.
         22    1    3    3    0    0  0.45148322292E+02  0.18950119509E+02 -0.11744920903E+03  0.12724698321E+03  0.00000000000E+00 0. -1.
         22    1    3    3    0    0  0.37332835710E+02 -0.34775553066E+02  0.16994506655E+02  0.53776323504E+02  0.00000000000E+00 0. -1.
</event>
<event>
 7    1  0.5139898E-006  0.3782636E+02  0.7818608E-02  0.1538885E+00
          2   -1    0    0  502    0  0.00000000000E+00  0.00000000000E+00  0.14758556378E+03  0.14758556378E+03  0.00000000000E+00 0. -1.
          1   -1    0    0  501    0 -0.00000000000E+00 -0.00000000000E+00 -0.14418429950E+04  0.14418429950E+04  0.00000000000E+00 0. -1.
         25    2    1    2    0    0  0.44055569681E+02  0.51022069182E+02 -0.37358582063E+02  0.14685027432E+03  0.12500077860E+03 0.  0.
          2    1    1    2  501    0 -0.13386979147E+02 -0.35246553450E+02 -0.13462625993E+04  0.13467904503E+04  0.00000000000E+00 0. -1.
          1    1    1    2  502    0 -0.30668590534E+02 -0.15775515733E+02  0.89363750121E+02  0.95787834184E+02  0.00000000000E+00 0. -1.
         22    1    3    3    0    0  0.77976971035E+02  0.24404265961E+02 -0.56842759326E+02  0.99534293069E+02  0.00000000000E+00 0.  1.
         22    1    3    3    0    0 -0.33921401354E+02  0.26617803221E+02  0.19484177263E+02  0.47315981251E+02  0.00000000000E+00 0.  1.
</event>
<event>
 7    1  0.5139898E-006  0.7237952E+02  0.7818608E-02  0.1361539E+00
          2   -1    0    0  502    0  0.00000000000E+00  0.00000000000E+00  0.19516873310E+04  0.19516873310E+04  0.00000000000E+00 0. -1.
          1   -1    0    0  501    0 -0.00000000000E+00 -0.00000000000E+00 -0.22414503786E+03  0.22414503786E+03  0.00000000000E+00 0. -1.
         25    2    1    2    0    0  0.12688961300E+03  0.13395329077E+02  0.30568513771E+03  0.35404673345E+03  0.12500110928E+03 0.  0.
          2    1    1    2  501    0 -0.58576823221E+02 -0.32279653855E+02 -0.19357288582E+03  0.20480156834E+03  0.00000000000E+00 0. -1.
          1    1    1    2  502    0 -0.68312789778E+02  0.18884324778E+02  0.16154300413E+04  0.16169840671E+04  0.00000000000E+00 0. -1.
         22    1    3    3    0    0  0.81324255810E+01  0.33336883430E+02  0.16650061117E+03  0.16999981665E+03  0.00000000000E+00 0. -1.
         22    1    3    3    0    0  0.11875718742E+03 -0.19941554352E+02  0.13918452654E+03  0.18404691679E+03  0.00000000000E+00 0. -1.
</event>
<event>
 7    1  0.5139898E-006  0.2650603E+03  0.7818608E-02  0.1111948E+00
          2   -1    0    0  502    0  0.00000000000E+00  0.00000000000E+00  0.10893749439E+04  0.10893749439E+04  0.00000000000E+00 0. -1.
          1   -1    0    0  501    0 -0.00000000000E+00 -0.00000000000E+00 -0.58915449561E+03  0.58915449561E+03  0.00000000000E+00 0. -1.
         25    2    1    2    0    0  0.63573106194E+02  0.23354745618E+03  0.10319047971E+02  0.27261489122E+03  0.12500576805E+03 0.  0.
          2    1    1    2  501    0 -0.27454060790E+03 -0.11936282448E+03 -0.39127885296E+03  0.49266537328E+03  0.00000000000E+00 0. -1.
          1    1    1    2  502    0  0.21096750171E+03 -0.11418463170E+03  0.88118025323E+03  0.91324917496E+03  0.00000000000E+00 0. -1.
         22    1    3    3    0    0  0.45950359781E+02  0.12252761113E+03  0.66677176069E+02  0.14686829767E+03  0.00000000000E+00 0.  1.
         22    1    3    3    0    0  0.17622746414E+02  0.11101984505E+03 -0.56358128099E+02  0.12574659355E+03  0.00000000000E+00 0.  1.
</event>
<event>
 7    1  0.5139898E-006  0.1089629E+03  0.7818608E-02  0.1426085E+00
          2   -1    0    0  502    0  0.00000000000E+00  0.00000000000E+00  0.45755606466E+03  0.45755606466E+03  0.00000000000E+00 0. -1.
          1   -1    0    0  501    0 -0.00000000000E+00 -0.00000000000E+00 -0.12946074139E+03  0.12946074139E+03  0.00000000000E+00 0. -1.
         25    2    1    2    0    0  0.10248076463E+03 -0.44762699756E+02  0.18033122109E+03  0.24628540741E+03  0.12502458237E+03 0.  0.
          2    1    1    2  501    0  0.46657442807E+01  0.26104372654E+02 -0.82186154181E+02  0.86358389172E+02  0.00000000000E+00 0. -1.
          1    1    1    2  502    0 -0.10714650891E+03  0.18658327102E+02  0.22995025637E+03  0.25437300947E+03  0.00000000000E+00 0. -1.
         22    1    3    3    0    0  0.19900034338E+02 -0.56342011944E+02  0.14288301333E+03  0.15487410751E+03  0.00000000000E+00 0. -1.
         22    1    3    3    0    0  0.82580730293E+02  0.11579312187E+02  0.37448207752E+02  0.91411299905E+02  0.00000000000E+00 0. -1.
</event>
<event>
 7    1  0.5139898E-006  0.4856025E+02  0.7818608E-02  0.1566232E+00
          2   -1    0    0  502    0  0.00000000000E+00  0.00000000000E+00  0.26272838814E+03  0.26272838814E+03  0.00000000000E+00 0. -1.
          1   -1    0    0  501    0 -0.00000000000E+00 -0.00000000000E+00 -0.98389662643E+02  0.98389662643E+02  0.00000000000E+00 0. -1.
         25    2    1    2    0    0 -0.40900863331E+01 -0.43049784805E+02  0.83774852704E+02  0.15656635041E+03  0.12499913343E+03 0.  0.
          2    1    1    2  501    0  0.26593733723E+02  0.41598502582E+02 -0.51050276064E+02  0.71019664718E+02  0.00000000000E+00 0. -1.
          1    1    1    2  502    0 -0.22503647390E+02  0.14512822229E+01  0.13161414886E+03  0.13353203566E+03  0.00000000000E+00 0. -1.
         22    1    3    3    0    0  0.54534542046E+01  0.44175162772E+02  0.29189173051E+02  0.53227746450E+02  0.00000000000E+00 0.  1.
         22    1    3    3    0    0 -0.95435405377E+01 -0.87224947577E+02  0.54585679653E+02  0.10333860396E+03  0.00000000000E+00 0.  1.
</event>
<event>
 7    1  0.5139898E-006  0.3288408E+02  0.7818608E-02  0.1586847E+00
          2   -1    0    0  502    0  0.00000000000E+00  0.00000000000E+00  0.93533972738E+03  0.93533972738E+03  0.00000000000E+00 0. -1.
          1   -1    0    0  501    0 -0.00000000000E+00 -0.00000000000E+00 -0.16288378966E+02  0.16288378966E+02  0.00000000000E+00 0. -1.
         25    2    1    2    0    0 -0.88141132615E+01  0.73357822823E+01  0.70037479955E+03  0.71153314189E+03  0.12499219920E+03 0.  0.
          2    1    1    2  501    0 -0.19191005451E+02  0.22144736687E+02  0.16014196219E+02  0.33393690028E+02  0.00000000000E+00 0. -1.
          1    1    1    2  502    0  0.28005118713E+02 -0.29480518970E+02  0.20266235264E+03  0.20670127443E+03  0.00000000000E+00 0. -1.
         22    1    3    3    0    0 -0.56732584873E+02 -0.11435037103E+02  0.19127086804E+03  0.19983465971E+03  0.00000000000E+00 0. -1.
         22    1    3    3    0    0  0.47918471612E+02  0.18770819385E+02  0.50910393152E+03  0.51169848218E+03  0.00000000000E+00 0. -1.
</event>
<event>
 7    1  0.5139898E-006  0.1208542E+03  0.7818608E-02  0.1387153E+00
          2   -1    0    0  502    0  0.00000000000E+00  0.00000000000E+00  0.32714313459E+04  0.32714313459E+04  0.00000000000E+00 0. -1.
          1   -1    0    0  501    0 -0.00000000000E+00 -0.00000000000E+00 -0.14841420696E+03  0.14841420696E+03  0.00000000000E+00 0. -1.
         25    2    1    2    0    0 -0.83488441578E+02  0.48624345667E+02  0.10767862749E+04  0.10883142213E+04  0.12499806214E+03 0.  0.
          2    1    1    2  501    0  0.11473835921E+03 -0.39893107464E+02 -0.11664540252E+03  0.16841170098E+03  0.00000000000E+00 0. -1.
          1    1    1    2  502    0 -0.31249917631E+02 -0.87312382032E+01  0.21628762665E+04  0.21631196306E+04  0.00000000000E+00 0. -1.
         22    1    3    3    0    0 -0.25310488566E+02  0.78401522292E+02  0.78429435261E+03  0.78860956821E+03  0.00000000000E+00 0. -1.
         22    1    3    3    0    0 -0.58177953012E+02 -0.29777176625E+02  0.29249192233E+03  0.29970465310E+03  0.00000000000E+00 0. -1.
</event>
<event>
 7    1  0.5139898E-006  0.4432252E+02  0.7818608E-02  0.1491458E+00
          2   -1    0    0  502    0  0.00000000000E+00  0.00000000000E+00  0.12390234896E+04  0.12390234896E+04  0.00000000000E+00 0. -1.
          1   -1    0    0  501    0 -0.00000000000E+00 -0.00000000000E+00 -0.23620833588E+04  0.23620833588E+04  0.00000000000E+00 0. -1.
         25    2    1    2    0    0 -0.60719883303E+02  0.57668802157E+02  0.17998829218E+03  0.23459132991E+03  0.12499884709E+03 0.  0.
          2    1    1    2  501    0  0.27178705510E+02 -0.34962123444E+02 -0.23341742073E+04  0.23345942393E+04  0.00000000000E+00 0. -1.
          1    1    1    2  502    0  0.33541177794E+02 -0.22706678714E+02  0.10311260459E+04  0.10319212792E+04  0.00000000000E+00 0. -1.
         22    1    3    3    0    0 -0.68730337850E+02  0.89779986071E+02  0.16003067923E+03  0.19594418475E+03  0.00000000000E+00 0.  1.
         22    1    3    3    0    0  0.80104545466E+01 -0.32111183914E+02  0.19957612951E+02  0.38647145161E+02  0.00000000000E+00 0.  1.
</event>
<event>
 7    1  0.5139898E-006  0.1894005E+03  0.7818608E-02  0.1200622E+00
          2   -1    0    0  502    0  0.00000000000E+00  0.00000000000E+00  0.11883230929E+03  0.11883230929E+03  0.00000000000E+00 0. -1.
          1   -1    0    0  501    0 -0.00000000000E+00 -0.00000000000E+00 -0.10642445155E+04  0.10642445155E+04  0.00000000000E+00 0. -1.
         25    2    1    2    0    0  0.20568858609E+02 -0.16003175128E+03 -0.29992156232E+03  0.36278255365E+03  0.12499999333E+03 0.  0.
          2    1    1    2  501    0 -0.13912406053E+03  0.16341896803E+03 -0.66618158961E+03  0.69989940253E+03  0.00000000000E+00 0. -1.
          1    1    1    2  502    0  0.11855520193E+03 -0.33872167583E+01  0.20690945746E+02  0.12039486857E+03  0.00000000000E+00 0. -1.
         22    1    3    3    0    0  0.51503673541E+02 -0.61568405559E+02 -0.55854740803E+02  0.97790843239E+02  0.00000000000E+00 0. -1.
         22    1    3    3    0    0 -0.30934814932E+02 -0.98463345716E+02 -0.24406682151E+03  0.26499171041E+03  0.00000000000E+00 0. -1.
</event>
<event>
 7    1  0.5139898E-006  0.7941404E+02  0.7818608E-02  0.1380965E+00
          2   -1    0    0  502    0  0.00000000000E+00  0.00000000000E+00  0.33402090035E+03  0.33402090035E+03  0.00000000000E+00 0. -1.
          1   -1    0    0  501    0 -0.00000000000E+00 -0.00000000000E+00 -0.22252357381E+04  0.22252357381E+04  0.00000000000E+00 0. -1.
         25    2    1    2    0    0  0.15870593926E+02 -0.38648624559E+02 -0.20620073025E+04  0.20662151495E+04  0.12500134584E+03 0.  0.
          2    1    1    2  501    0 -0.34712293150E+02 -0.38607638839E+02 -0.15198749888E+03  0.16061037603E+03  0.00000000000E+00 0. -1.
          1    1    1    2  502    0  0.18841699224E+02  0.77256263398E+02  0.32277996368E+03  0.33243111289E+03  0.00000000000E+00 0. -1.
         22    1    3    3    0    0  0.24825911899E+02 -0.37787663038E+02 -0.24210498302E+03  0.24629059297E+03  0.00000000000E+00 0. -1.
         22    1    3    3    0    0 -0.89553179723E+01 -0.86096152104E+00 -0.18199023195E+04  0.18199245565E+04  0.00000000000E+00 0. -1.
</event>
<event>
 7    1  0.5139898E-006  0.6837640E+02  0.7818608E-02  0.1471750E+00
          2   -1    0    0  502    0  0.00000000000E+00  0.00000000000E+00  0.15218419580E+04  0.15218419580E+04  0.00000000000E+00 0. -1.
          1   -1    0    0  501    0 -0.00000000000E+00 -0.00000000000E+00 -0.20560842502E+02  0.20560842502E+02  0.00000000000E+00 0. -1.
         25    2    1    2    0    0  0.13524099478E+02 -0.40448918372E+02  0.59500501567E+03  0.60948752038E+03  0.12500021027E+03 0.  0.
          2    1    1    2  501    0 -0.26151744888E+02  0.67846928217E+02  0.88310128989E+02  0.11439317423E+03  0.00000000000E+00 0. -1.
          1    1    1    2  502    0  0.12627645410E+02 -0.27398009845E+02  0.81796597082E+03  0.81852210587E+03  0.00000000000E+00 0. -1.
         22    1    3    3    0    0  0.27661934561E+00 -0.35005872079E+02  0.35702148948E+02  0.50001310361E+02  0.00000000000E+00 0. -1.
         22    1    3    3    0    0  0.13247480132E+02 -0.54430462931E+01  0.55930286672E+03  0.55948621002E+03  0.00000000000E+00 0. -1.
</event>
<event>
 7    1  0.5139898E-006  0.4463449E+02  0.7818608E-02  0.1488868E+00
          2   -1    0    0  502    0  0.00000000000E+00  0.00000000000E+00  0.65911489274E+03  0.65911489274E+03  0.00000000000E+00 0. -1.
          1   -1    0    0  501    0 -0.00000000000E+00 -0.00000000000E+00 -0.16255170213E+04  0.16255170213E+04  0.00000000000E+00 0. -1.
         25    2    1    2    0    0  0.61167002224E+02 -0.31655871073E+02  0.91444156786E+02  0.16949849309E+03  0.12499683602E+03 0.  0.
          2    1    1    2  501    0 -0.40270786971E+02 -0.74473164860E+01 -0.15852953375E+04  0.15858242355E+04  0.00000000000E+00 0. -1.
          1    1    1    2  502    0 -0.20896215253E+02  0.39103187559E+02  0.52744905220E+03  0.52930918541E+03  0.00000000000E+00 0. -1.
         22    1    3    3    0    0  0.47297164737E+02  0.17174394202E+02  0.10544952589E+03  0.11683999366E+03  0.00000000000E+00 0. -1.
         22    1    3    3    0    0  0.13869837486E+02 -0.48830265275E+02 -0.14005369102E+02  0.52658499432E+02  0.00000000000E+00 0. -1.
</event>
<event>
 7    1  0.5139898E-006  0.2542093E+03  0.7818608E-02  0.1264309E+00
          2   -1    0    0  502    0  0.00000000000E+00  0.00000000000E+00  0.38547571485E+03  0.38547571485E+03  0.00000000000E+00 0. -1.
          1   -1    0    0  501    0 -0.00000000000E+00 -0.00000000000E+00 -0.76407338594E+03  0.76407338594E+03  0.00000000000E+00 0. -1.
         25    2    1    2    0    0 -0.98120980330E+02  0.27756971265E+03 -0.27735788369E+03  0.42335013350E+03  0.12500107091E+03 0.  0.
          2    1    1    2  501    0  0.15176372042E+02 -0.43305600219E+02 -0.36263296005E+03  0.36552477481E+03  0.00000000000E+00 0. -1.
          1    1    1    2  502    0  0.82944608289E+02 -0.23426411243E+03  0.26139317266E+03  0.36067419249E+03  0.00000000000E+00 0. -1.
         22    1    3    3    0    0 -0.80200943506E+01  0.20195993097E+03 -0.17022355531E+03  0.26425024960E+03  0.00000000000E+00 0. -1.
         22    1    3    3    0    0 -0.90100885980E+02  0.75609781681E+02 -0.10713432838E+03  0.15909988390E+03  0.00000000000E+00 0. -1.
</event>
<event>
 7    1  0.5139898E-006  0.9983163E+02  0.7818608E-02  0.1452359E+00
          2   -1    0    0  502    0  0.00000000000E+00  0.00000000000E+00  0.72350030319E+03  0.72350030319E+03  0.00000000000E+00 0. -1.
          1   -1    0    0  501    0 -0.00000000000E+00 -0.00000000000E+00 -0.35902494840E+03  0.35902494840E+03  0.00000000000E+00 0. -1.
         25    2    1    2    0    0  0.11613929358E+03 -0.40620374680E+02  0.30927066187E+03  0.35554281340E+03  0.12499599800E+03 0.  0.
          2    1    1    2  501    0 -0.94236753212E+02  0.31363374977E+02 -0.32817057594E+03  0.34287046221E+03  0.00000000000E+00 0. -1.
          1    1    1    2  502    0 -0.21902540365E+02  0.92569997032E+01  0.38337526886E+03  0.38411197598E+03  0.00000000000E+00 0. -1.
         22    1    3    3    0    0  0.11990529361E+01  0.36645749499E+02  0.57562727688E+02  0.68248196336E+02  0.00000000000E+00 0. -1.
         22    1    3    3    0    0  0.11494024064E+03 -0.77266124179E+02  0.25170793418E+03  0.28729461707E+03  0.00000000000E+00 0. -1.
</event>
<event>
 7    1  0.5139898E-006  0.4443442E+02  0.7818608E-02  0.1537527E+00
          2   -1    0    0  502    0  0.00000000000E+00  0.00000000000E+00  0.81959003574E+02  0.81959003574E+02  0.00000000000E+00 0. -1.
          1   -1    0    0  501    0 -0.00000000000E+00 -0.00000000000E+00 -0.21501664753E+03  0.21501664753E+03  0.00000000000E+00 0. -1.
         25    2    1    2    0    0 -0.22906877052E+02 -0.77396120021E+01 -0.61089415025E+02  0.14122483869E+03  0.12501164676E+03 0.  0.
          2    1    1    2  501    0  0.30599017761E+02  0.36343827668E+02 -0.10264549885E+03  0.11310734783E+03  0.00000000000E+00 0. -1.
          1    1    1    2  502    0 -0.76921407088E+01 -0.28604215666E+02  0.30677269920E+02  0.42643464590E+02  0.00000000000E+00 0. -1.
         22    1    3    3    0    0 -0.43765991458E+02  0.49124550020E+02 -0.23111903953E+02  0.69734091572E+02  0.00000000000E+00 0. -1.
         22    1    3    3    0    0  0.20859114406E+02 -0.56864162023E+02 -0.37977511072E+02  0.71490747118E+02  0.00000000000E+00 0. -1.
</event>
<event>
 7    1  0.5139898E-006  0.7284364E+02  0.7818608E-02  0.1412294E+00
          2   -1    0    0  502    0  0.00000000000E+00  0.00000000000E+00  0.27273499441E+03  0.27273499441E+03  0.00000000000E+00 0. -1.
          1   -1    0    0  501    0 -0.00000000000E+00 -0.00000000000E+00 -0.57907607908E+03  0.57907607908E+03  0.00000000000E+00 0. -1.
         25    2    1    2    0    0 -0.60996259227E+02  0.97171859223E+02 -0.54401114212E+02  0.17817950047E+03  0.12500215716E+03 0.  0.
          2    1    1    2  501    0  0.25206495938E+02 -0.36199335549E+02 -0.45576407898E+03  0.45789371586E+03  0.00000000000E+00 0. -1.
          1    1    1    2  502    0  0.35789763289E+02 -0.60972523674E+02  0.20382410852E+03  0.21573785716E+03  0.00000000000E+00 0. -1.
         22    1    3    3    0    0 -0.66930239804E+02  0.91387105101E+02 -0.88083881281E+02  0.14349226502E+03  0.00000000000E+00 0.  1.
         22    1    3    3    0    0  0.59339805767E+01  0.57847541218E+01  0.33682767069E+02  0.34687235450E+02  0.00000000000E+00 0.  1.
</event>
<event>
 7    1  0.5139898E-006  0.5028893E+02  0.7818608E-02  0.1485985E+00
          2   -1    0    0  502    0  0.00000000000E+00  0.00000000000E+00  0.72249708694E+03  0.72249708694E+03  0.00000000000E+00 0. -1.
          1   -1    0    0  501    0 -0.00000000000E+00 -0.00000000000E+00 -0.67261821505E+02  0.67261821505E+02  0.00000000000E+00 0. -1.
         25    2    1    2    0    0  0.23467975180E+02 -0.72095174875E+02  0.31703004549E+03  0.34911447639E+03  0.12499763110E+03 0.  0.
          2    1    1    2  501    0 -0.33649603825E+02  0.36431175932E+02 -0.38085537108E+02  0.62530269103E+02  0.00000000000E+00 0. -1.
          1    1    1    2  502    0  0.10181628644E+02  0.35663998943E+02  0.37629075705E+03  0.37811416295E+03  0.00000000000E+00 0. -1.
         22    1    3    3    0    0  0.37708790895E-01  0.35233933018E+02  0.96625583813E+02  0.10284908801E+03  0.00000000000E+00 0.  1.
         22    1    3    3    0    0  0.23430266390E+02 -0.10732910789E+03  0.22040446168E+03  0.24626538838E+03  0.00000000000E+00 0.  1.
</event>
<event>
 7    1  0.5139898E-006  0.1952306E+03  0.7818608E-02  0.1324245E+00
          2   -1    0    0  502    0  0.00000000000E+00  0.00000000000E+00  0.51160795528E+03  0.51160795528E+03  0.00000000000E+00 0. -1.
          1   -1    0    0  501    0 -0.00000000000E+00 -0.00000000000E+00 -0.25288817279E+04  0.25288817279E+04  0.00000000000E+00 0. -1.
         25    2    1    2    0    0  0.14088093400E+03 -0.12052630373E+03  0.32760051866E+03  0.39663790286E+03  0.12500199481E+03 0.  0.
          2    1    1    2  501    0  0.31749278927E+02 -0.12726528394E+02 -0.24146438184E+04  0.24148860741E+04  0.00000000000E+00 0. -1.
          1    1    1    2  502    0 -0.17263021293E+03  0.13325283212E+03  0.69769527145E+02  0.22896570617E+03  0.00000000000E+00 0. -1.
         22    1    3    3    0    0  0.10179229764E+03 -0.11237357170E+03  0.32252446066E+03  0.35638675509E+03  0.00000000000E+00 0. -1.
         22    1    3    3    0    0  0.39088636368E+02 -0.81527320240E+01  0.50760579958E+01  0.40251147776E+02  0.00000000000E+00 0. -1.
</event>
<event>
 7    1  0.5139898E-006  0.6305417E+02  0.7818608E-02  0.1415861E+00
          2   -1    0    0  502    0  0.00000000000E+00  0.00000000000E+00  0.74880576297E+03  0.74880576297E+03  0.00000000000E+00 0. -1.
          1   -1    0    0  501    0 -0.00000000000E+00 -0.00000000000E+00 -0.40754278031E+03  0.40754278031E+03  0.00000000000E+00 0. -1.
         25    2    1    2    0    0  0.10146343971E+03 -0.30171965655E+02  0.97507797864E+02  0.19062410529E+03  0.12499840704E+03 0.  0.
          2    1    1    2  501    0 -0.52064918053E+02  0.34275844196E+02 -0.35726573121E+03  0.36266291771E+03  0.00000000000E+00 0. -1.
          1    1    1    2  502    0 -0.49398521656E+02 -0.41038785414E+01  0.60102091600E+03  0.60306152027E+03  0.00000000000E+00 0. -1.
         22    1    3    3    0    0  0.27486953114E+02 -0.16403279684E+02  0.10980817281E+03  0.11437847258E+03  0.00000000000E+00 0. -1.
         22    1    3    3    0    0  0.73976486595E+02 -0.13768685970E+02 -0.12300374941E+02  0.76245632701E+02  0.00000000000E+00 0. -1.
</event>
<event>
 7    1  0.5139898E-006  0.4313657E+02  0.7818608E-02  0.1580821E+00
          2   -1    0    0  502    0  0.00000000000E+00  0.00000000000E+00  0.28479680262E+03  0.28479680262E+03  0.00000000000E+00 0. -1.
          1   -1    0    0  501    0 -0.00000000000E+00 -0.00000000000E+00 -0.20613683104E+03  0.20613683104E+03  0.00000000000E+00 0. -1.
         25    2    1    2    0    0  0.11476825267E+02 -0.61254586400E+02 -0.66253438039E+02  0.15459053962E+03  0.12499950006E+03 0.  0.
          2    1    1    2  501    0  0.30546851416E+00  0.41291072238E+02 -0.90665877618E+02  0.99626037369E+02  0.00000000000E+00 0. -1.
          1    1    1    2  502    0 -0.11782293781E+02  0.19963514162E+02  0.23557928724E+03  0.23671705667E+03  0.00000000000E+00 0. -1.
         22    1    3    3    0    0  0.59827982387E+02 -0.21253715493E+02 -0.21439713077E+00  0.63491368428E+02  0.00000000000E+00 0.  1.
         22    1    3    3    0    0 -0.48351157120E+02 -0.40000870907E+02 -0.66039040908E+02  0.91099171194E+02  0.00000000000E+00 0.  1.
</event>
<event>
 7    1  0.5139898E-006  0.4541059E+02  0.7818608E-02  0.1522863E+00
          2   -1    0    0  502    0  0.00000000000E+00  0.00000000000E+00  0.64330255001E+03  0.64330255001E+03  0.00000000000E+00 0. -1.
          1   -1    0    0  501    0 -0.00000000000E+00 -0.00000000000E+00 -0.12290358799E+03  0.12290358799E+03  0.00000000000E+00 0. -1.
         25    2    1    2    0    0  0.38497656600E+02  0.33956811509E+02  0.87495754837E+02  0.16098146847E+03  0.12499756584E+03 0.  0.
          2    1    1    2  501    0 -0.45537831194E+02 -0.28157196417E+01 -0.79589005568E+02  0.91738934779E+02  0.00000000000E+00 0. -1.
          1    1    1    2  502    0  0.70401745936E+01 -0.31141091867E+02  0.51249221275E+03  0.51348573475E+03  0.00000000000E+00 0. -1.
         22    1    3    3    0    0  0.48346659597E+02  0.73985964408E+02  0.37046608853E+02  0.95832007445E+02  0.00000000000E+00 0. -1.
         22    1    3    3    0    0 -0.98490029966E+01 -0.40029152899E+02  0.50449145984E+02  0.65149461029E+02  0.00000000000E+00 0. -1.
</event>
<event>
 7    1  0.5139898E-006  0.1330275E+03  0.7818608E-02  0.1330141E+00
          2   -1    0    0  502    0  0.00000000000E+00  0.00000000000E+00  0.15505923314E+04  0.15505923314E+04  0.00000000000E+00 0. -1.
          1   -1    0    0  501    0 -0.00000000000E+00 -0.00000000000E+00 -0.88743740569E+03  0.88743740569E+03  0.00000000000E+00 0. -1.
         25    2    1    2    0    0  0.11282330799E+03 -0.11355201285E+03  0.44216515853E+03  0.48657999366E+03  0.12500761722E+03 0.  0.
          2    1    1    2  501    0 -0.18570143194E+01  0.47614768100E+02 -0.86073398115E+03  0.86205197114E+03  0.00000000000E+00 0. -1.
          1    1    1    2  502    0 -0.11096629367E+03  0.65937244755E+02  0.10817237483E+04  0.10893977723E+04  0.00000000000E+00 0. -1.
         22    1    3    3    0    0  0.63418240880E+02 -0.10930339611E+03  0.40598262667E+03  0.42519524790E+03  0.00000000000E+00 0.  1.
         22    1    3    3    0    0  0.49405067107E+02 -0.42486167408E+01  0.36182531857E+02  0.61384745757E+02  0.00000000000E+00 0.  1.
</event>
<event>
 7    1  0.8254786E-006  0.6417119E+02  0.7818608E-02  0.1490408E+00
          2   -1    0    0  502    0  0.00000000000E+00  0.00000000000E+00  0.11999172299E+04  0.11999172299E+04  0.00000000000E+00 0. -1.
          1   -1    0    0  501    0 -0.00000000000E+00 -0.00000000000E+00 -0.16149717470E+04  0.16149717470E+04  0.00000000000E+00 0. -1.
         25    2    1    2    0    0  0.23379076076E+02  0.79218563875E+02 -0.15523306976E+03  0.21574310147E+03  0.12500247127E+03 0.  0.
          2    1    1    2  501    0 -0.23782066187E+02 -0.15119285296E+02 -0.14284663596E+04  0.14287443158E+04  0.00000000000E+00 0. -1.
          1    1    1    2  502    0  0.40299011083E+00 -0.64099278579E+02  0.11686449123E+04  0.11704015597E+04  0.00000000000E+00 0. -1.
         22    1    3    3    0    0 -0.27343944745E+02  0.91739673538E+02 -0.11604539322E+03  0.15043401312E+03  0.00000000000E+00 0. -1.
         22    1    3    3    0    0  0.50723020820E+02 -0.12521109664E+02 -0.39187676540E+02  0.65309088349E+02  0.00000000000E+00 0. -1.
</event>
<event>
 7    1  0.5139898E-006  0.4154324E+02  0.7818608E-02  0.1603115E+00
          2   -1    0    0  502    0  0.00000000000E+00  0.00000000000E+00  0.10027242890E+04  0.10027242890E+04  0.00000000000E+00 0. -1.
          1   -1    0    0  501    0 -0.00000000000E+00 -0.00000000000E+00 -0.35479026051E+03  0.35479026051E+03  0.00000000000E+00 0. -1.
         25    2    1    2    0    0 -0.47648386345E+01 -0.31071957138E+02 -0.18242871848E+02  0.13018089798E+03  0.12500437439E+03 0.  0.
          2    1    1    2  501    0  0.19491728711E+02 -0.78667022316E+01 -0.27972623708E+03  0.28051484846E+03  0.00000000000E+00 0. -1.
          1    1    1    2  502    0 -0.14726890076E+02  0.38938659369E+02  0.94590313745E+03  0.94681880311E+03  0.00000000000E+00 0. -1.
         22    1    3    3    0    0  0.88304528907E+01 -0.55058709202E+02 -0.58866346864E+02  0.81084432232E+02  0.00000000000E+00 0. -1.
         22    1    3    3    0    0 -0.13595291525E+02  0.23986752064E+02  0.40623475017E+02  0.49096465745E+02  0.00000000000E+00 0. -1.
</event>
<event>
 7    1  0.5139898E-006  0.2612888E+03  0.7818608E-02  0.1158013E+00
          2   -1    0    0  502    0  0.00000000000E+00  0.00000000000E+00  0.11466016861E+04  0.11466016861E+04  0.00000000000E+00 0. -1.
          1   -1    0    0  501    0 -0.00000000000E+00 -0.00000000000E+00 -0.51782721102E+03  0.51782721102E+03  0.00000000000E+00 0. -1.
         25    2    1    2    0    0  0.48879366672E+02  0.15600136232E+03 -0.85370924253E+02  0.22279285257E+03  0.12499137137E+03 0.  0.
          2    1    1    2  501    0  0.12852238717E+03  0.52642532178E+02 -0.33218917618E+03  0.36005400841E+03  0.00000000000E+00 0. -1.
          1    1    1    2  502    0 -0.17740175385E+03 -0.20864389450E+03  0.10463345755E+04  0.10815820361E+04  0.00000000000E+00 0. -1.
         22    1    3    3    0    0  0.52478125707E+02  0.48140949192E+02  0.17891624233E+02  0.73427616634E+02  0.00000000000E+00 0. -1.
         22    1    3    3    0    0 -0.35987590356E+01  0.10786041313E+03 -0.10326254849E+03  0.14936523594E+03  0.00000000000E+00 0. -1.
</event>
<event>
 7    1  0.5139898E-006  0.1234180E+03  0.7818608E-02  0.1355685E+00
          2   -1    0    0  502    0  0.00000000000E+00  0.00000000000E+00  0.12529493918E+03  0.12529493918E+03  0.00000000000E+00 0. -1.
          1   -1    0    0  501    0 -0.00000000000E+00 -0.00000000000E+00 -0.32948666188E+04  0.32948666188E+04  0.00000000000E+00 0. -1.
         25    2    1    2    0    0  0.10617837881E+03 -0.52308270429E+02 -0.17546162865E+03  0.24580809663E+03  0.12499933583E+03 0.  0.
          2    1    1    2  501    0 -0.86562246646E+02  0.88545272685E+02 -0.30782109267E+04  0.30807005368E+04  0.00000000000E+00 0. -1.
          1    1    1    2  502    0 -0.19616132166E+02 -0.36237002256E+02  0.84100875774E+02  0.93652924565E+02  0.00000000000E+00 0. -1.
         22    1    3    3    0    0  0.31268189399E+02 -0.38790430783E+02 -0.16073056157E+03  0.16827569821E+03  0.00000000000E+00 0.  1.
         22    1    3    3    0    0  0.74910189414E+02 -0.13517839646E+02 -0.14731067089E+02  0.77532398417E+02  0.00000000000E+00 0.  1.
</event>
<event>
 7    1  0.5139898E-006  0.9473973E+02  0.7818608E-02  0.1421589E+00
          2   -1    0    0  502    0  0.00000000000E+00  0.00000000000E+00  0.38389675003E+02  0.38389675003E+02  0.00000000000E+00 0. -1.
          1   -1    0    0  501    0 -0.00000000000E+00 -0.00000000000E+00 -0.13436212699E+04  0.13436212699E+04  0.00000000000E+00 0. -1.
         25    2    1    2    0    0  0.15707713617E+02  0.11085041060E+03 -0.50688641792E+03  0.53394096531E+03  0.12499827187E+03 0.  0.
          2    1    1    2  501    0  0.92095604865E+01 -0.91471075168E+02 -0.80941483658E+03  0.81461902216E+03  0.00000000000E+00 0. -1.
          1    1    1    2  502    0 -0.24917274103E+02 -0.19379335433E+02  0.11069659584E+02  0.33450957444E+02  0.00000000000E+00 0. -1.
         22    1    3    3    0    0 -0.30857273148E+02  0.39646659066E+00 -0.33216964249E+02  0.45339775097E+02  0.00000000000E+00 0. -1.
         22    1    3    3    0    0  0.46564986765E+02  0.11045394401E+03 -0.47366945367E+03  0.48860119022E+03  0.00000000000E+00 0. -1.
</event>
<event>
 7    1  0.5139898E-006  0.3309796E+02  0.7818608E-02  0.1600172E+00
          2   -1    0    0  502    0  0.00000000000E+00  0.00000000000E+00  0.15975764565E+04  0.15975764565E+04  0.00000000000E+00 0. -1.
          1   -1    0    0  501    0 -0.00000000000E+00 -0.00000000000E+00 -0.19420293541E+02  0.19420293541E+02  0.00000000000E+00 0. -1.
         25    2    1    2    0    0  0.17107950185E+02  0.77024106286E+01  0.40037862761E+03  0.41985757465E+03  0.12500131383E+03 0.  0.
          2    1    1    2  501    0  0.12423610978E+02 -0.23806202311E+02  0.96603083530E+01  0.28537745806E+02  0.00000000000E+00 0. -1.
          1    1    1    2  502    0 -0.29531561163E+02  0.16103791683E+02  0.11681172270E+04  0.11686014296E+04  0.00000000000E+00 0. -1.
         22    1    3    3    0    0 -0.48837231585E+02  0.12114264406E+02  0.96016084145E+02  0.10840165592E+03  0.00000000000E+00 0. -1.
         22    1    3    3    0    0  0.65945181770E+02 -0.44118537771E+01  0.30436254346E+03  0.31145591873E+03  0.00000000000E+00 0. -1.
</event>
<event>
 7    1  0.5139898E-006  0.4391059E+02  0.7818608E-02  0.1505770E+00
          2   -1    0    0  502    0  0.00000000000E+00  0.00000000000E+00  0.23788809647E+04  0.23788809647E+04  0.00000000000E+00 0. -1.
          1   -1    0    0  501    0 -0.00000000000E+00 -0.00000000000E+00 -0.37719964253E+02  0.37719964253E+02  0.00000000000E+00 0. -1.
         25    2    1    2    0    0 -0.60446490662E+01  0.40328207506E+01  0.19182480171E+04  0.19223299935E+04  0.12499738997E+03 0.  0.
          2    1    1    2  501    0  0.40501975105E+02 -0.17643670331E+02 -0.20929365486E+02  0.48885043007E+02  0.00000000000E+00 0. -1.
          1    1    1    2  502    0 -0.34457326039E+02  0.13610849580E+02  0.44384234878E+03  0.44538589237E+03  0.00000000000E+00 0. -1.
         22    1    3    3    0    0  0.54166160123E+02  0.48115654190E+01  0.53135624529E+03  0.53413161625E+03  0.00000000000E+00 0.  1.
         22    1    3    3    0    0 -0.60210809189E+02 -0.77874466847E+00  0.13868917718E+04  0.13881983773E+04  0.00000000000E+00 0.  1.
</event>
<event>
 7    1  0.5139898E-006  0.8234715E+02  0.7818608E-02  0.1418402E+00
          2   -1    0    0  502    0  0.00000000000E+00  0.00000000000E+00  0.27902557455E+04  0.27902557455E+04  0.00000000000E+00 0. -1.
          1   -1    0    0  501    0 -0.00000000000E+00 -0.00000000000E+00 -0.99716765900E+02  0.99716765900E+02  0.00000000000E+00 0. -1.
         25    2    1    2    0    0  0.32296260609E+02  0.37285742622E+02  0.22947356436E+03  0.26592561254E+03  0.12500015845E+03 0.  0.
          2    1    1    2  501    0  0.69887036012E+01  0.36555801040E+02 -0.76515997980E+02  0.85087405147E+02  0.00000000000E+00 0. -1.
          1    1    1    2  502    0 -0.39284964211E+02 -0.73841543662E+02  0.25375814133E+04  0.25389594937E+04  0.00000000000E+00 0. -1.
         22    1    3    3    0    0  0.32680087876E+02 -0.67621375446E+01  0.21781856116E+03  0.22036025103E+03  0.00000000000E+00 0.  1.
         22    1    3    3    0    0 -0.38382726645E+00  0.44047880167E+02  0.11655003205E+02  0.45565361518E+02  0.00000000000E+00 0.  1.
</event>
<event>
 7    1  0.5139898E-006  0.6026597E+02  0.7818608E-02  0.1451907E+00
          2   -1    0    0  502    0  0.00000000000E+00  0.00000000000E+00  0.40795610039E+04  0.40795610039E+04  0.00000000000E+00 0. -1.
          1   -1    0    0  501    0 -0.00000000000E+00 -0.00000000000E+00 -0.12699800299E+04  0.12699800299E+04  0.00000000000E+00 0. -1.
         25    2    1    2    0    0 -0.49328694352E+02 -0.40170487286E+02 -0.18846041699E+03  0.23492430114E+03  0.12500044144E+03 0.  0.
          2    1    1    2  501    0  0.34988699805E+02 -0.18374908537E+02 -0.10576946948E+04  0.10584327630E+04  0.00000000000E+00 0. -1.
          1    1    1    2  502    0  0.14339994547E+02  0.58545395824E+02  0.40557360857E+04  0.40561839697E+04  0.00000000000E+00 0. -1.
         22    1    3    3    0    0 -0.65811685689E+02 -0.10021532930E+02 -0.30419451679E+02  0.73191202586E+02  0.00000000000E+00 0. -1.
         22    1    3    3    0    0  0.16482991337E+02 -0.30148954356E+02 -0.15804096531E+03  0.16173309856E+03  0.00000000000E+00 0. -1.
</event>
<event>
 7    1  0.5139898E-006  0.1558027E+03  0.7818608E-02  0.1357269E+00
          2   -1    0    0  502    0  0.00000000000E+00  0.00000000000E+00  0.10463672296E+04  0.10463672296E+04  0.00000000000E+00 0. -1.
          1   -1    0    0  501    0 -0.00000000000E+00 -0.00000000000E+00 -0.96368990774E+02  0.96368990774E+02  0.00000000000E+00 0. -1.
         25    2    1    2    0    0 -0.13076300051E+03  0.76234781596E+01  0.44208595911E+02  0.18637644033E+03  0.12499879134E+03 0.  0.
          2    1    1    2  501    0 -0.27214918362E+02 -0.17222741216E+02 -0.44056053585E+01  0.32506675546E+02  0.00000000000E+00 0. -1.
          1    1    1    2  502    0  0.15797791888E+03  0.95992630569E+01  0.91019524824E+03  0.92385310446E+03  0.00000000000E+00 0. -1.
         22    1    3    3    0    0 -0.36506527304E+02  0.45937361569E+01  0.77965480306E+02  0.86211629535E+02  0.00000000000E+00 0.  1.
         22    1    3    3    0    0 -0.94256473210E+02  0.30297420027E+01 -0.33756884395E+02  0.10016481080E+03  0.00000000000E+00 0.  1.
</event>
<event>
 7    1  0.5139898E-006  0.9008961E+02  0.7818608E-02  0.1454427E+00
          2   -1    0    0  502    0  0.00000000000E+00  0.00000000000E+00  0.13499650480E+04  0.13499650480E+04  0.00000000000E+00 0. -1.
          1   -1    0    0  501    0 -0.00000000000E+00 -0.00000000000E+00 -0.46293226041E+03  0.46293226041E+03  0.00000000000E+00 0. -1.
         25    2    1    2    0    0  0.97789468522E+02  0.13578505396E+02  0.23071449241E+02  0.16095316409E+03  0.12500589305E+03 0.  0.
          2    1    1    2  501    0 -0.84942708453E+01 -0.24523850934E+02 -0.39195324550E+03  0.39281155605E+03  0.00000000000E+00 0. -1.
          1    1    1    2  502    0 -0.89295197676E+02  0.10945345538E+02  0.12559145838E+04  0.12591325882E+04  0.00000000000E+00 0. -1.
         22    1    3    3    0    0  0.14294396742E+02 -0.28529144363E+01 -0.47947978089E+02  0.50114643587E+02  0.00000000000E+00 0. -1.
         22    1    3    3    0    0  0.83495071780E+02  0.16431419832E+02  0.71019427330E+02  0.11083852050E+03  0.00000000000E+00 0. -1.
</event>
<event>
 7    1  0.5139898E-006  0.8797812E+02  0.7818608E-02  0.1336446E+00
          2   -1    0    0  502    0  0.00000000000E+00  0.00000000000E+00  0.66994238509E+03  0.66994238509E+03  0.00000000000E+00 0. -1.
          1   -1    0    0  501    0 -0.00000000000E+00 -0.00000000000E+00 -0.10710554265E+04  0.10710554265E+04  0.00000000000E+00 0. -1.
         25    2    1    2    0    0 -0.46973604610E+02 -0.14314254831E+03 -0.21662669057E+02  0.19695558275E+03  0.12500368665E+03 0.  0.
          2    1    1    2  501    0  0.46421187521E+01  0.68024549308E+02 -0.95733519484E+03  0.95976015954E+03  0.00000000000E+00 0. -1.
          1    1    1    2  502    0  0.42331485858E+02  0.75117999004E+02  0.57788482248E+03  0.58428206931E+03  0.00000000000E+00 0. -1.
         22    1    3    3    0    0  0.22018194936E+02 -0.92803902355E+02  0.26386756923E+02  0.98962751283E+02  0.00000000000E+00 0.  1.
         22    1    3    3    0    0 -0.68991799546E+02 -0.50338645958E+02 -0.48049425981E+02  0.97992831465E+02  0.00000000000E+00 0.  1.
</event>
<event>
 7    1  0.5139898E-006  0.3162085E+02  0.7818608E-02  0.1598416E+00
          2   -1    0    0  502    0  0.00000000000E+00  0.00000000000E+00  0.38401301245E+03  0.38401301245E+03  0.00000000000E+00 0. -1.
          1   -1    0    0  501    0 -0.00000000000E+00 -0.00000000000E+00 -0.11200536634E+03  0.11200536634E+03  0.00000000000E+00 0. -1.
         25    2    1    2    0    0  0.12752299563E+02 -0.54673968607E+01  0.40282364672E+01  0.12581487069E+03  0.12498256448E+03 0.  0.
          2    1    1    2  501    0 -0.61804125914E+01  0.33102802508E+02 -0.44851203608E+02  0.56085858278E+02  0.00000000000E+00 0. -1.
          1    1    1    2  502    0 -0.65718869720E+01 -0.27635405647E+02  0.31283061325E+03  0.31411764983E+03  0.00000000000E+00 0. -1.
         22    1    3    3    0    0  0.17536611183E+01  0.53550561634E+02 -0.25007356270E+02  0.59127877066E+02  0.00000000000E+00 0. -1.
         22    1    3    3    0    0  0.10998638445E+02 -0.59017958495E+02  0.29035592737E+02  0.66686993621E+02  0.00000000000E+00 0. -1.
</event>
<event>
 7    1  0.5139898E-006  0.1739912E+03  0.7818608E-02  0.1325277E+00
          2   -1    0    0  502    0  0.00000000000E+00  0.00000000000E+00  0.23388506713E+03  0.23388506713E+03  0.00000000000E+00 0. -1.
          1   -1    0    0  501    0 -0.00000000000E+00 -0.00000000000E+00 -0.40950539416E+03  0.40950539416E+03  0.00000000000E+00 0. -1.
         25    2    1    2    0    0  0.18500729701E+03 -0.74887704303E+02 -0.30302772090E+02  0.23744346038E+03  0.12500108271E+03 0.  0.
          2    1    1    2  501    0 -0.28621571069E+02  0.25042727001E+02 -0.22167815405E+03  0.22491673235E+03  0.00000000000E+00 0. -1.
          1    1    1    2  502    0 -0.15638572594E+03  0.49844977302E+02  0.76360599112E+02  0.18103026857E+03  0.00000000000E+00 0. -1.
         22    1    3    3    0    0  0.15382718111E+03 -0.51181041637E+02 -0.74474920157E+02  0.17840631828E+03  0.00000000000E+00 0. -1.
         22    1    3    3    0    0  0.31180115904E+02 -0.23706662666E+02  0.44172148067E+02  0.59037142100E+02  0.00000000000E+00 0. -1.
</event>
<event>
 7    1  0.5139898E-006  0.9484128E+02  0.7818608E-02  0.1401870E+00
          2   -1    0    0  502    0  0.00000000000E+00  0.00000000000E+00  0.35387194062E+03  0.35387194062E+03  0.00000000000E+00 0. -1.
          1   -1    0    0  501    0 -0.00000000000E+00 -0.00000000000E+00 -0.38159263381E+03  0.38159263381E+03  0.00000000000E+00 0. -1.
         25    2    1    2    0    0  0.46232984984E+02 -0.83599659295E+02 -0.20347253281E+03  0.25720094860E+03  0.12499945766E+03 0.  0.
          2    1    1    2  501    0 -0.75345276732E+02  0.61149391260E+02 -0.13449483565E+03  0.16584637347E+03  0.00000000000E+00 0. -1.
          1    1    1    2  502    0  0.29112291748E+02  0.22450268036E+02  0.31024667526E+03  0.31241725237E+03  0.00000000000E+00 0. -1.
         22    1    3    3    0    0  0.65787389854E+02 -0.49852736042E+02 -0.45025983628E+02  0.94024545499E+02  0.00000000000E+00 0. -1.
         22    1    3    3    0    0 -0.19554404870E+02 -0.33746923254E+02 -0.15844654919E+03  0.16317640310E+03  0.00000000000E+00 0. -1.
</event>
<event>
 7    1  0.5139898E-006  0.5530510E+02  0.7818608E-02  0.1438827E+00
          2   -1    0    0  502    0  0.00000000000E+00  0.00000000000E+00  0.12846067276E+04  0.12846067276E+04  0.00000000000E+00 0. -1.
          1   -1    0    0  501    0 -0.00000000000E+00 -0.00000000000E+00 -0.26779930113E+03  0.26779930113E+03  0.00000000000E+00 0. -1.
         25    2    1    2    0    0 -0.84714638783E+02 -0.13104457094E+02  0.34604982883E+03  0.37778798366E+03  0.12499991897E+03 0.  0.
          2    1    1    2  501    0  0.34151405512E+02  0.32944835617E+02 -0.24888734691E+03  0.25337046423E+03  0.00000000000E+00 0. -1.
          1    1    1    2  502    0  0.50563233271E+02 -0.19840378524E+02  0.91964494451E+03  0.92124758080E+03  0.00000000000E+00 0. -1.
         22    1    3    3    0    0 -0.59210490156E+02 -0.64879136667E+02  0.15439759298E+03  0.17763389665E+03  0.00000000000E+00 0.  1.
         22    1    3    3    0    0 -0.25504148626E+02  0.51774679573E+02  0.19165223585E+03  0.20015408701E+03  0.00000000000E+00 0.  1.
</event>
<event>
 7    1  0.5139898E-006  0.6114995E+02  0.7818608E-02  0.1416197E+00
          2   -1    0    0  502    0  0.00000000000E+00  0.00000000000E+00  0.24744116260E+03  0.24744116260E+03  0.00000000000E+00 0. -1.
          1   -1    0    0  501    0 -0.00000000000E+00 -0.00000000000E+00 -0.99387263246E+03  0.99387263246E+03  0.00000000000E+00 0. -1.
         25    2    1    2    0    0 -0.10446137533E+02 -0.15921610548E+02 -0.13572295203E+03  0.18548883613E+03  0.12499107628E+03 0.  0.
          2    1    1    2  501    0 -0.50834067622E+02  0.38479171918E+01 -0.82808533631E+03  0.82965307998E+03  0.00000000000E+00 0. -1.
          1    1    1    2  502    0  0.61280205155E+02  0.12073693357E+02  0.21737681848E+03  0.22617187895E+03  0.00000000000E+00 0. -1.
         22    1    3    3    0    0 -0.66525592389E+02 -0.16166648837E+02 -0.90313778192E+02  0.11332957914E+03  0.00000000000E+00 0.  1.
         22    1    3    3    0    0  0.56079454856E+02  0.24503828820E+00 -0.45409173836E+02  0.72159256989E+02  0.00000000000E+00 0.  1.
</event>
<event>
 7    1  0.5139898E-006  0.7595367E+02  0.7818608E-02  0.1380985E+00
          2   -1    0    0  502    0  0.00000000000E+00  0.00000000000E+00  0.39709914004E+04  0.39709914004E+04  0.00000000000E+00 0. -1.
          1   -1    0    0  501    0 -0.00000000000E+00 -0.00000000000E+00 -0.22179435316E+04  0.22179435316E+04  0.00000000000E+00 0. -1.
         25    2    1    2    0    0  0.78817095403E+02 -0.73831591015E+02  0.10507015406E+04  0.10636093988E+04  0.12501194930E+03 0.  0.
          2    1    1    2  501    0 -0.54153480272E+02  0.36266346653E+01 -0.22106814076E+04  0.22113475615E+04  0.00000000000E+00 0. -1.
          1    1    1    2  502    0 -0.24663615131E+02  0.70204956350E+02  0.29130277358E+04  0.29139779717E+04  0.00000000000E+00 0. -1.
         22    1    3    3    0    0 -0.33247338630E+01 -0.41509996674E+02  0.72388112658E+03  0.72507794002E+03  0.00000000000E+00 0. -1.
         22    1    3    3    0    0  0.82141829266E+02 -0.32321594342E+02  0.32682041401E+03  0.33853145879E+03  0.00000000000E+00 0. -1.
</event>
<event>
 7    1  0.5139898E-006  0.8938043E+02  0.7818608E-02  0.1350324E+00
          2   -1    0    0  502    0  0.00000000000E+00  0.00000000000E+00  0.10473871935E+04  0.10473871935E+04  0.00000000000E+00 0. -1.
          1   -1    0    0  501    0 -0.00000000000E+00 -0.00000000000E+00 -0.51998821991E+03  0.51998821991E+03  0.00000000000E+00 0. -1.
         25    2    1    2    0    0  0.89431309210E+02  0.11517380569E+03  0.18161049970E+03  0.26433258452E+03  0.12500550808E+03 0.  0.
          2    1    1    2  501    0 -0.35520118442E+02 -0.47793787952E+02 -0.47450302664E+03  0.47822489194E+03  0.00000000000E+00 0. -1.
          1    1    1    2  502    0 -0.53911190768E+02 -0.67380017741E+02  0.82029150058E+03  0.82481793700E+03  0.00000000000E+00 0. -1.
         22    1    3    3    0    0  0.10006725085E+03  0.51212903259E+02  0.62245624949E+02  0.12849410094E+03  0.00000000000E+00 0.  1.
         22    1    3    3    0    0 -0.10635941637E+02  0.63960902434E+02  0.11936487475E+03  0.13583848357E+03  0.00000000000E+00 0.  1.
</event>
<event>
 7    1  0.5139898E-006  0.4402868E+02  0.7818608E-02  0.1484463E+00
          2   -1    0    0  502    0  0.00000000000E+00  0.00000000000E+00  0.13835599235E+03  0.13835599235E+03  0.00000000000E+00 0. -1.
          1   -1    0    0  501    0 -0.00000000000E+00 -0.00000000000E+00 -0.51250528249E+03  0.51250528249E+03  0.00000000000E+00 0. -1.
         25    2    1    2    0    0  0.35838069670E+01 -0.24865564960E+02  0.16877990243E+01  0.12750971172E+03  0.12499895169E+03 0.  0.
          2    1    1    2  501    0  0.41814009469E+02  0.13788150276E+02 -0.44098486057E+03  0.44317735922E+03  0.00000000000E+00 0. -1.
          1    1    1    2  502    0 -0.45397816436E+02  0.11077414684E+02  0.65147771396E+02  0.80174203900E+02  0.00000000000E+00 0. -1.
         22    1    3    3    0    0 -0.20298001102E+02 -0.34205412083E+02  0.55277866537E+02  0.68100378805E+02  0.00000000000E+00 0.  1.
         22    1    3    3    0    0  0.23881808069E+02  0.93398471225E+01 -0.53590067513E+02  0.59409332911E+02  0.00000000000E+00 0.  1.
</event>
<event>
 7    1  0.5139898E-006  0.3095208E+03  0.7818608E-02  0.1164649E+00
          2   -1    0    0  502    0  0.00000000000E+00  0.00000000000E+00  0.13316378820E+04  0.13316378820E+04  0.00000000000E+00 0. -1.
          1   -1    0    0  501    0 -0.00000000000E+00 -0.00000000000E+00 -0.70638221964E+03  0.70638221964E+03  0.00000000000E+00 0. -1.
         25    2    1    2    0    0 -0.21994102624E+03  0.52275956936E+02  0.88845358828E+02  0.27317675202E+03  0.12500083743E+03 0.  0.
          2    1    1    2  501    0 -0.10834894717E+03 -0.65882960518E+01 -0.58525187589E+03  0.59523328051E+03  0.00000000000E+00 0. -1.
          1    1    1    2  502    0  0.32828997342E+03 -0.45687660884E+02  0.11216621794E+04  0.11696100691E+04  0.00000000000E+00 0. -1.
         22    1    3    3    0    0 -0.32666322960E+02 -0.32919033637E+02 -0.57469872793E+01  0.46730924387E+02  0.00000000000E+00 0.  1.
         22    1    3    3    0    0 -0.18727470328E+03  0.85194990573E+02  0.94592346107E+02  0.22644582763E+03  0.00000000000E+00 0.  1.
</event>
<event>
 7    1  0.5139898E-006  0.1718134E+03  0.7818608E-02  0.1310979E+00
          2   -1    0    0  502    0  0.00000000000E+00  0.00000000000E+00  0.24354090782E+03  0.24354090782E+03  0.00000000000E+00 0. -1.
          1   -1    0    0  501    0 -0.00000000000E+00 -0.00000000000E+00 -0.80257275784E+03  0.80257275784E+03  0.00000000000E+00 0. -1.
         25    2    1    2    0    0  0.65694944224E+02 -0.16487471999E+03 -0.26774367029E+03  0.34469031398E+03  0.12500096232E+03 0.  0.
          2    1    1    2  501    0  0.35251724102E+02  0.25956479970E+02 -0.45918156234E+03  0.46126362321E+03  0.00000000000E+00 0. -1.
          1    1    1    2  502    0 -0.10094666833E+03  0.13891824002E+03  0.16789338260E+03  0.24015972847E+03  0.00000000000E+00 0. -1.
         22    1    3    3    0    0  0.25288832945E+02 -0.10535160595E+03 -0.24715627004E+03  0.26986053392E+03  0.00000000000E+00 0.  1.
         22    1    3    3    0    0  0.40406111279E+02 -0.59523114042E+02 -0.20587400245E+02  0.74829780053E+02  0.00000000000E+00 0.  1.
</event>
<event>
 7    1  0.5139898E-006  0.3000348E+03  0.7818608E-02  0.1163494E+00
          2   -1    0    0  502    0  0.00000000000E+00  0.00000000000E+00  0.86269013139E+03  0.86269013139E+03  0.00000000000E+00 0. -1.
          1   -1    0    0  501    0 -0.00000000000E+00 -0.00000000000E+00 -0.30766268270E+03  0.30766268270E+03  0.00000000000E+00 0. -1.
         25    2    1    2    0    0 -0.13428770513E+03 -0.19578315670E+03  0.88819898170E+02  0.28262779733E+03  0.12500106126E+03 0.  0.
          2    1    1    2  501    0  0.19224656770E+03  0.29335175550E+03 -0.54368760955E+02  0.35492246676E+03  0.00000000000E+00 0. -1.
          1    1    1    2  502    0 -0.57958862561E+02 -0.97568598796E+02  0.52057631147E+03  0.53280255000E+03  0.00000000000E+00 0. -1.
         22    1    3    3    0    0  0.48957142674E+01  0.42744412656E+01 -0.16046615654E+02  0.17312791232E+02  0.00000000000E+00 0. -1.
         22    1    3    3    0    0 -0.13918341940E+03 -0.20005759797E+03  0.10486651382E+03  0.26531500610E+03  0.00000000000E+00 0. -1.
</event>
<event>
 7    1  0.5139898E-006  0.1495316E+03  0.7818608E-02  0.1225329E+00
          2   -1    0    0  502    0  0.00000000000E+00  0.00000000000E+00  0.28488559364E+04  0.28488559364E+04  0.00000000000E+00 0. -1.
          1   -1    0    0  501    0 -0.00000000000E+00 -0.00000000000E+00 -0.32028938397E+03  0.32028938397E+03  0.00000000000E+00 0. -1.
         25    2    1    2    0    0  0.19530760183E+03 -0.12489614676E+03  0.19169279273E+03  0.32575558995E+03  0.12500588302E+03 0.  0.
          2    1    1    2  501    0 -0.14266629327E+03  0.22040555923E+02 -0.23128160828E+03  0.27263646064E+03  0.00000000000E+00 0. -1.
          1    1    1    2  502    0 -0.52641308566E+02  0.10285559083E+03  0.25681553680E+04  0.25707532698E+04  0.00000000000E+00 0. -1.
         22    1    3    3    0    0  0.15615284372E+02 -0.74778500390E+02  0.47269164252E+02  0.89833374175E+02  0.00000000000E+00 0.  1.
         22    1    3    3    0    0  0.17969231746E+03 -0.50117646366E+02  0.14442362847E+03  0.23592221577E+03  0.00000000000E+00 0.  1.
</event>
<event>
 7    1  0.5139898E-006  0.7376790E+02  0.7818608E-02  0.1389435E+00
          2   -1    0    0  502    0  0.00000000000E+00  0.00000000000E+00  0.77255029368E+03  0.77255029368E+03  0.00000000000E+00 0. -1.
          1   -1    0    0  501    0 -0.00000000000E+00 -0.00000000000E+00 -0.23832505260E+03  0.23832505260E+03  0.00000000000E+00 0. -1.
         25    2    1    2    0    0  0.98703568139E+02  0.76210336958E+02  0.23471275216E+03  0.29370934523E+03  0.12499877449E+03 0.  0.
          2    1    1    2  501    0 -0.58285874441E+02 -0.43193379564E+02 -0.20112855629E+03  0.21381208421E+03  0.00000000000E+00 0. -1.
          1    1    1    2  502    0 -0.40417693698E+02 -0.33016957394E+02  0.50064104521E+03  0.50335391683E+03  0.00000000000E+00 0. -1.
         22    1    3    3    0    0  0.33819277468E+02  0.10025257244E+03  0.16056480025E+03  0.19228982524E+03  0.00000000000E+00 0.  1.
         22    1    3    3    0    0  0.64884290671E+02 -0.24042235485E+02  0.74147951910E+02  0.10141951999E+03  0.00000000000E+00 0.  1.
</event>
<event>
 7    1  0.5139898E-006  0.1596668E+03  0.7818608E-02  0.1305247E+00
          2   -1    0    0  502    0  0.00000000000E+00  0.00000000000E+00  0.15485660969E+04  0.15485660969E+04  0.00000000000E+00 0. -1.
          1   -1    0    0  501    0 -0.00000000000E+00 -0.00000000000E+00 -0.49725744492E+03  0.49725744492E+03  0.00000000000E+00 0. -1.
         25    2    1    2    0    0 -0.86245425098E+02 -0.15165585615E+03 -0.67578027006E+02  0.22500720439E+03  0.12499472085E+03 0.  0.
          2    1    1    2  501    0  0.11298994710E+03  0.10984857034E+03 -0.33282997537E+03  0.36825158391E+03  0.00000000000E+00 0. -1.
          1    1    1    2  502    0 -0.26744522002E+02  0.41807285805E+02  0.14517166543E+04  0.14525647535E+04  0.00000000000E+00 0. -1.
         22    1    3    3    0    0 -0.45957671947E+02 -0.10167478717E+03  0.23060593647E+02  0.11393709201E+03  0.00000000000E+00 0.  1.
         22    1    3    3    0    0 -0.40287753152E+02 -0.49981068973E+02 -0.90638620653E+02  0.11107011238E+03  0.00000000000E+00 0.  1.
</event>
<event>
 7    1  0.5139898E-006  0.6897922E+02  0.7818608E-02  0.1467229E+00
          2   -1    0    0  502    0  0.00000000000E+00  0.00000000000E+00  0.13406069827E+04  0.13406069827E+04  0.00000000000E+00 0. -1.
          1   -1    0    0  501    0 -0.00000000000E+00 -0.00000000000E+00 -0.38866349659E+03  0.38866349659E+03  0.00000000000E+00 0. -1.
         25    2    1    2    0    0  0.32273403138E+01 -0.98607731878E+02  0.16797217542E+03  0.23146119823E+03  0.12500293619E+03 0.  0.
          2    1    1    2  501    0 -0.77677450375E+01  0.68053866980E+02 -0.35342114148E+03  0.35999745822E+03  0.00000000000E+00 0. -1.
          1    1    1    2  502    0  0.45404047238E+01  0.30553864899E+02  0.11373924522E+04  0.11378118229E+04  0.00000000000E+00 0. -1.
         22    1    3    3    0    0 -0.18786999790E+02 -0.93381182438E+02  0.43089247540E+02  0.10454510915E+03  0.00000000000E+00 0.  1.
         22    1    3    3    0    0  0.22014340104E+02 -0.52265494408E+01  0.12488292788E+03  0.12691608907E+03  0.00000000000E+00 0.  1.
</event>
<event>
 7    1  0.5139898E-006  0.1607010E+03  0.7818608E-02  0.1287789E+00
          2   -1    0    0  502    0  0.00000000000E+00  0.00000000000E+00  0.21796464598E+04  0.21796464598E+04  0.00000000000E+00 0. -1.
          1   -1    0    0  501    0 -0.00000000000E+00 -0.00000000000E+00 -0.36836243220E+03  0.36836243220E+03  0.00000000000E+00 0. -1.
         25    2    1    2    0    0  0.12181821651E+03 -0.15904554772E+02  0.12432054517E+04  0.12554997118E+04  0.12500839387E+03 0.  0.
          2    1    1    2  501    0 -0.15874032806E+03 -0.28788434692E+02 -0.34328460508E+03  0.37930408093E+03  0.00000000000E+00 0. -1.
          1    1    1    2  502    0  0.36922111551E+02  0.44692989464E+02  0.91136318100E+03  0.91320509926E+03  0.00000000000E+00 0. -1.
         22    1    3    3    0    0  0.12471852625E+03  0.26420466103E+02  0.77935542862E+03  0.78971364173E+03  0.00000000000E+00 0. -1.
         22    1    3    3    0    0 -0.29003097350E+01 -0.42325020874E+02  0.46385002303E+03  0.46578607006E+03  0.00000000000E+00 0. -1.
</event>
<event>
 7    1  0.5139898E-006  0.1118078E+03  0.7818608E-02  0.1363049E+00
          2   -1    0    0  502    0  0.00000000000E+00  0.00000000000E+00  0.57379201899E+03  0.57379201899E+03  0.00000000000E+00 0. -1.
          1   -1    0    0  501    0 -0.00000000000E+00 -0.00000000000E+00 -0.10499941134E+04  0.10499941134E+04  0.00000000000E+00 0. -1.
         25    2    1    2    0    0  0.12012133903E+03  0.15057394622E+02  0.64828763039E+02  0.18569305112E+03  0.12499311778E+03 0.  0.
          2    1    1    2  501    0 -0.11668497790E+02 -0.41129422044E+02 -0.98215501370E+03  0.98308506964E+03  0.00000000000E+00 0. -1.
          1    1    1    2  502    0 -0.10845284124E+03  0.26072027422E+02  0.44112415627E+03  0.45500801161E+03  0.00000000000E+00 0. -1.
         22    1    3    3    0    0  0.13767034556E+03  0.40131387105E+02  0.52971068423E+02  0.15287114302E+03  0.00000000000E+00 0.  1.
         22    1    3    3    0    0 -0.17549006536E+02 -0.25073992483E+02  0.11857694616E+02  0.32821908096E+02  0.00000000000E+00 0.  1.
</event>
<event>
 7    1  0.5139898E-006  0.1390480E+03  0.7818608E-02  0.1332468E+00
          2   -1    0    0  502    0  0.00000000000E+00  0.00000000000E+00  0.12923503520E+04  0.12923503520E+04  0.00000000000E+00 0. -1.
          1   -1    0    0  501    0 -0.00000000000E+00 -0.00000000000E+00 -0.17475735375E+03  0.17475735375E+03  0.00000000000E+00 0. -1.
         25    2    1    2    0    0 -0.91220591340E+01  0.95548345578E+02  0.79923821489E+03  0.81462870190E+03  0.12500199802E+03 0.  0.
          2    1    1    2  501    0  0.12185893066E+02 -0.14010920216E+03 -0.13617380009E+03  0.19576104911E+03  0.00000000000E+00 0. -1.
          1    1    1    2  502    0 -0.30638339323E+01  0.44560856582E+02  0.45452858348E+03  0.45671795478E+03  0.00000000000E+00 0. -1.
         22    1    3    3    0    0  0.14635268353E+02  0.86137549705E+02  0.77329075394E+03  0.77821106307E+03  0.00000000000E+00 0. -1.
         22    1    3    3    0    0 -0.23757327487E+02  0.94107958738E+01  0.25947460950E+02  0.36417638831E+02  0.00000000000E+00 0. -1.
</event>
<event>
 7    1  0.5139898E-006  0.2427806E+03  0.7818608E-02  0.1125338E+00
          2   -1    0    0  502    0  0.00000000000E+00  0.00000000000E+00  0.12966075784E+04  0.12966075784E+04  0.00000000000E+00 0. -1.
          1   -1    0    0  501    0 -0.00000000000E+00 -0.00000000000E+00 -0.54575363326E+03  0.54575363326E+03  0.00000000000E+00 0. -1.
         25    2    1    2    0    0  0.33965466849E+03  0.42694666844E+02  0.25750403588E+03  0.44623216922E+03  0.12500676760E+03 0.  0.
          2    1    1    2  501    0 -0.20165415624E+03  0.13047203479E+03 -0.40501566634E+03  0.47087688473E+03  0.00000000000E+00 0. -1.
          1    1    1    2  502    0 -0.13800051226E+03 -0.17316670164E+03  0.89836557562E+03  0.92525215774E+03  0.00000000000E+00 0. -1.
         22    1    3    3    0    0 -0.27753909559E+01  0.84053938049E+01 -0.77208705662E+01  0.11745862347E+02  0.00000000000E+00 0.  1.
         22    1    3    3    0    0  0.34243005945E+03  0.34289273039E+02  0.26522490644E+03  0.43448630687E+03  0.00000000000E+00 0.  1.
</event>
<event>
 7    1  0.5139898E-006  0.3126508E+03  0.7818608E-02  0.1151458E+00
          2   -1    0    0  502    0  0.00000000000E+00  0.00000000000E+00  0.34667681775E+04  0.34667681775E+04  0.00000000000E+00 0. -1.
          1   -1    0    0  501    0 -0.00000000000E+00 -0.00000000000E+00 -0.28587737883E+03  0.28587737883E+03  0.00000000000E+00 0. -1.
         25    2    1    2    0    0 -0.85382818204E+02 -0.25494596839E+03  0.59164904983E+03  0.66178632039E+03  0.12499945295E+03 0.  0.
          2    1    1    2  501    0 -0.12533430673E+03  0.26281573263E+01 -0.22495501150E+03  0.25752738273E+03  0.00000000000E+00 0. -1.
          1    1    1    2  502    0  0.21071712493E+03  0.25231781107E+03  0.28141967604E+04  0.28333318532E+04  0.00000000000E+00 0. -1.
         22    1    3    3    0    0 -0.65971689371E+02 -0.69623633211E+02  0.11342746663E+03  0.14854462053E+03  0.00000000000E+00 0.  1.
         22    1    3    3    0    0 -0.19411128833E+02 -0.18532233518E+03  0.47822158320E+03  0.51324169986E+03  0.00000000000E+00 0.  1.
</event>
<event>
 7    1  0.5139898E-006  0.7955203E+02  0.7818608E-02  0.1424830E+00
          2   -1    0    0  502    0  0.00000000000E+00  0.00000000000E+00  0.12253919327E+04  0.12253919327E+04  0.00000000000E+00 0. -1.
          1   -1    0    0  501    0 -0.00000000000E+00 -0.00000000000E+00 -0.39897454633E+03  0.39897454633E+03  0.00000000000E+00 0. -1.
         25    2    1    2    0    0  0.11110582073E+03  0.30414501388E+02  0.10796912988E+03  0.20139411798E+03  0.12503084602E+03 0.  0.
          2    1    1    2  501    0 -0.75482276589E+02 -0.21710924708E+02 -0.34756475637E+03  0.35632877824E+03  0.00000000000E+00 0. -1.
          1    1    1    2  502    0 -0.35623544137E+02 -0.87035766802E+01  0.10660130129E+04  0.10666435829E+04  0.00000000000E+00 0. -1.
         22    1    3    3    0    0 -0.13759835646E+02  0.40790258285E+02  0.15829661929E+02  0.45866724809E+02  0.00000000000E+00 0.  1.
         22    1    3    3    0    0  0.12486565637E+03 -0.10375756896E+02  0.92139467952E+02  0.15552739317E+03  0.00000000000E+00 0.  1.
</event>
<event>
 7    1  0.5139898E-006  0.7723388E+02  0.7818608E-02  0.1473381E+00
          2   -1    0    0  502    0  0.00000000000E+00  0.00000000000E+00  0.14424695670E+04  0.14424695670E+04  0.00000000000E+00 0. -1.
          1   -1    0    0  501    0 -0.00000000000E+00 -0.00000000000E+00 -0.33806281649E+03  0.33806281649E+03  0.00000000000E+00 0. -1.
         25    2    1    2    0    0 -0.18427182605E+02 -0.57993377030E+02 -0.57685252219E+02  0.15051471680E+03  0.12499719522E+03 0.  0.
          2    1    1    2  501    0  0.17865440950E+02 -0.19435429407E+02 -0.23214048434E+03  0.23363671451E+03  0.00000000000E+00 0. -1.
          1    1    1    2  502    0  0.56174165407E+00  0.77428806437E+02  0.13942324871E+04  0.13963809522E+04  0.00000000000E+00 0. -1.
         22    1    3    3    0    0  0.17728183810E+02  0.23076257953E+01 -0.75824065371E+02  0.77903161215E+02  0.00000000000E+00 0.  1.
         22    1    3    3    0    0 -0.36155366415E+02 -0.60301002825E+02  0.18138813151E+02  0.72611555588E+02  0.00000000000E+00 0.  1.
</event>
<event>
 7    1  0.5139898E-006  0.6441349E+02  0.7818608E-02  0.1491782E+00
          2   -1    0    0  502    0  0.00000000000E+00  0.00000000000E+00  0.22529382880E+04  0.22529382880E+04  0.00000000000E+00 0. -1.
          1   -1    0    0  501    0 -0.00000000000E+00 -0.00000000000E+00 -0.99398989596E+03  0.99398989596E+03  0.00000000000E+00 0. -1.
         25    2    1    2    0    0 -0.73937688935E+02 -0.51130322227E+02  0.15867315930E+03  0.22109605918E+03  0.12500081682E+03 0.  0.
          2    1    1    2  501    0  0.47143825120E+02  0.43688512752E+02 -0.96161185015E+03  0.96375753005E+03  0.00000000000E+00 0. -1.
          1    1    1    2  502    0  0.26793863814E+02  0.74418094747E+01  0.20618870829E+04  0.20620745947E+04  0.00000000000E+00 0. -1.
         22    1    3    3    0    0 -0.22461438365E+02 -0.87848080817E+02  0.90321084699E+02  0.12798320147E+03  0.00000000000E+00 0.  1.
         22    1    3    3    0    0 -0.51476250570E+02  0.36717758590E+02  0.68352074606E+02  0.93112857714E+02  0.00000000000E+00 0.  1.
</event>
<event>
 7    1  0.5139898E-006  0.5041355E+02  0.7818608E-02  0.1452728E+00
          2   -1    0    0  502    0  0.00000000000E+00  0.00000000000E+00  0.25722363352E+03  0.25722363352E+03  0.00000000000E+00 0. -1.
          1   -1    0    0  501    0 -0.00000000000E+00 -0.00000000000E+00 -0.48391054047E+03  0.48391054047E+03  0.00000000000E+00 0. -1.
         25    2    1    2    0    0 -0.25022863886E+02  0.32949923390E+02 -0.13254904455E+03  0.18683186931E+03  0.12500022803E+03 0.  0.
          2    1    1    2  501    0 -0.25502507957E+02 -0.39431708941E+02 -0.31966400144E+03  0.32309489535E+03  0.00000000000E+00 0. -1.
          1    1    1    2  502    0  0.50525371842E+02  0.64817855504E+01  0.22552613904E+03  0.23120740934E+03  0.00000000000E+00 0. -1.
         22    1    3    3    0    0  0.25355069077E+01  0.44619377717E+02 -0.14696752764E+03  0.15361240785E+03  0.00000000000E+00 0. -1.
         22    1    3    3    0    0 -0.27558370793E+02 -0.11669454327E+02  0.14418483089E+02  0.33219461459E+02  0.00000000000E+00 0. -1.
</event>
<event>
 7    1  0.5139898E-006  0.1476469E+03  0.7818608E-02  0.1359736E+00
          2   -1    0    0  502    0  0.00000000000E+00  0.00000000000E+00  0.27229323477E+04  0.27229323477E+04  0.00000000000E+00 0. -1.
          1   -1    0    0  501    0 -0.00000000000E+00 -0.00000000000E+00 -0.33182334948E+03  0.33182334948E+03  0.00000000000E+00 0. -1.
         25    2    1    2    0    0  0.71581293688E+02 -0.98388302322E+02  0.12723423305E+03  0.21590458144E+03  0.12498839381E+03 0.  0.
          2    1    1    2  501    0  0.32179329361E+02 -0.85157090276E+01 -0.28434166706E+03  0.28628344375E+03  0.00000000000E+00 0. -1.
          1    1    1    2  502    0 -0.10376062305E+03  0.10690401135E+03  0.25482164322E+04  0.25525676720E+04  0.00000000000E+00 0. -1.
         22    1    3    3    0    0 -0.90137506297E+01 -0.93177853216E+02  0.65596972897E+02  0.11430801758E+03  0.00000000000E+00 0.  1.
         22    1    3    3    0    0  0.80595044318E+02 -0.52104491053E+01  0.61637260153E+02  0.10159656386E+03  0.00000000000E+00 0.  1.
</event>
<event>
 7    1  0.1284083E-005  0.9925055E+02  0.7818608E-02  0.1283112E+00
          2   -1    0    0  502    0  0.00000000000E+00  0.00000000000E+00  0.10922380253E+04  0.10922380253E+04  0.00000000000E+00 0. -1.
          1   -1    0    0  501    0 -0.00000000000E+00 -0.00000000000E+00 -0.22410766575E+04  0.22410766575E+04  0.00000000000E+00 0. -1.
         25    2    1    2    0    0 -0.11102451308E+02 -0.81754403682E+02 -0.27110009303E+03  0.30972098494E+03  0.12499912449E+03 0.  0.
          2    1    1    2  501    0  0.94363632843E+02  0.26809976705E+02 -0.19471099168E+04  0.19495795183E+04  0.00000000000E+00 0. -1.
          1    1    1    2  502    0 -0.83261181535E+02  0.54944426977E+02  0.10693713777E+04  0.10740141795E+04  0.00000000000E+00 0. -1.
         22    1    3    3    0    0  0.51611993480E+02 -0.70425699457E+01 -0.10077506310E+03  0.11344165463E+03  0.00000000000E+00 0. -1.
         22    1    3    3    0    0 -0.62714444788E+02 -0.74711833736E+02 -0.17032502993E+03  0.19627933031E+03  0.00000000000E+00 0. -1.
</event>
<event>
 7    1  0.5139898E-006  0.8749880E+02  0.7818608E-02  0.1355279E+00
          2   -1    0    0  502    0  0.00000000000E+00  0.00000000000E+00  0.37592461928E+03  0.37592461928E+03  0.00000000000E+00 0. -1.
          1   -1    0    0  501    0 -0.00000000000E+00 -0.00000000000E+00 -0.15570042206E+04  0.15570042206E+04  0.00000000000E+00 0. -1.
         25    2    1    2    0    0 -0.44784795531E+02  0.11912772900E+03 -0.16860379709E+03  0.24545573280E+03  0.12499673053E+03 0.  0.
          2    1    1    2  501    0 -0.15006657858E+02 -0.56357061406E+02 -0.13437646864E+04  0.13450296839E+04  0.00000000000E+00 0. -1.
          1    1    1    2  502    0  0.59791453390E+02 -0.62770667595E+02  0.33128888219E+03  0.34244342317E+03  0.00000000000E+00 0. -1.
         22    1    3    3    0    0 -0.15670866091E+02 -0.23735647292E+02 -0.10323778933E+02  0.30257848698E+02  0.00000000000E+00 0. -1.
         22    1    3    3    0    0 -0.29113929441E+02  0.14286337629E+03 -0.15828001816E+03  0.21519788410E+03  0.00000000000E+00 0. -1.
</event>
<event>
 7    1  0.5139898E-006  0.7681790E+02  0.7818608E-02  0.1428915E+00
          2   -1    0    0  502    0  0.00000000000E+00  0.00000000000E+00  0.73639903602E+03  0.73639903602E+03  0.00000000000E+00 0. -1.
          1   -1    0    0  501    0 -0.00000000000E+00 -0.00000000000E+00 -0.17489268121E+03  0.17489268121E+03  0.00000000000E+00 0. -1.
         25    2    1    2    0    0 -0.55816381833E+02 -0.29180131577E+02  0.14125474837E+03  0.19886122018E+03  0.12500372952E+03 0.  0.
          2    1    1    2  501    0  0.78095087157E+02 -0.12690112022E+00 -0.13499933546E+03  0.15596050563E+03  0.00000000000E+00 0. -1.
          1    1    1    2  502    0 -0.22278705324E+02  0.29307032697E+02  0.55525094189E+03  0.55646999142E+03  0.00000000000E+00 0. -1.
         22    1    3    3    0    0  0.26328024133E+02 -0.18073483668E+02  0.10249557960E+03  0.10735529565E+03  0.00000000000E+00 0.  1.
         22    1    3    3    0    0 -0.82144405966E+02 -0.11106647909E+02  0.38759168770E+02  0.91505924524E+02  0.00000000000E+00 0.  1.
</event>
<event>
 7    1  0.5139898E-006  0.2086285E+03  0.7818608E-02  0.1299994E+00
          2   -1    0    0  502    0  0.00000000000E+00  0.00000000000E+00  0.23129755324E+04  0.23129755324E+04  0.00000000000E+00 0. -1.
          1   -1    0    0  501    0 -0.00000000000E+00 -0.00000000000E+00 -0.19722166430E+03  0.19722166430E+03  0.00000000000E+00 0. -1.
         25    2    1    2    0    0  0.52978762599E+02 -0.24124973834E+03  0.18876220753E+02  0.27746397347E+03  0.12498703665E+03 0.  0.
          2    1    1    2  501    0 -0.75899412966E+01  0.39129815429E+02 -0.56648782638E+02  0.69266400504E+02  0.00000000000E+00 0. -1.
          1    1    1    2  502    0 -0.45388821302E+02  0.20211992291E+03  0.21535264299E+04  0.21634668227E+04  0.00000000000E+00 0. -1.
         22    1    3    3    0    0  0.32313757497E+02 -0.11231399248E+03 -0.53091414391E+02  0.12836397513E+03  0.00000000000E+00 0. -1.
         22    1    3    3    0    0  0.20665005102E+02 -0.12893574586E+03  0.71967635144E+02  0.14909999834E+03  0.00000000000E+00 0. -1.
</event>
<event>
 7    1  0.5139898E-006  0.1018298E+03  0.7818608E-02  0.1357359E+00
          2   -1    0    0  502    0  0.00000000000E+00  0.00000000000E+00  0.39299532075E+03  0.39299532075E+03  0.00000000000E+00 0. -1.
          1   -1    0    0  501    0 -0.00000000000E+00 -0.00000000000E+00 -0.90310781072E+03  0.90310781072E+03  0.00000000000E+00 0. -1.
         25    2    1    2    0    0  0.10466682236E+03  0.85606677516E+02 -0.70812182717E+02  0.19728911940E+03  0.12499993790E+03 0.  0.
          2    1    1    2  501    0 -0.49195030478E+02 -0.21082726925E+01 -0.76062407556E+03  0.76221622927E+03  0.00000000000E+00 0. -1.
          1    1    1    2  502    0 -0.55471791884E+02 -0.83498404824E+02  0.32132376831E+03  0.33659778280E+03  0.00000000000E+00 0. -1.
         22    1    3    3    0    0  0.13008969301E+02  0.22125588119E+02  0.35117109150E+02  0.43496968710E+02  0.00000000000E+00 0. -1.
         22    1    3    3    0    0  0.91657853061E+02  0.63481089397E+02 -0.10592929187E+03  0.15379215069E+03  0.00000000000E+00 0. -1.
</event>
<event>
 7    1  0.5139898E-006  0.4981849E+02  0.7818608E-02  0.1537143E+00
          2   -1    0    0  502    0  0.00000000000E+00  0.00000000000E+00  0.10146448745E+04  0.10146448745E+04  0.00000000000E+00 0. -1.
          1   -1    0    0  501    0 -0.00000000000E+00 -0.00000000000E+00 -0.96727617555E+02  0.96727617555E+02  0.00000000000E+00 0. -1.
         25    2    1    2    0    0  0.36784878718E+02  0.49058656274E+02  0.37671201313E+03  0.40161745456E+03  0.12499903963E+03 0.  0.
          2    1    1    2  501    0 -0.10302663949E+02 -0.48627123623E+02 -0.76637007607E+02  0.91345350026E+02  0.00000000000E+00 0. -1.
          1    1    1    2  502    0 -0.26482214769E+02 -0.43153265134E+00  0.61784225142E+03  0.61840968747E+03  0.00000000000E+00 0. -1.
         22    1    3    3    0    0  0.78273699820E+02  0.48276435529E+02  0.30711545034E+03  0.32058896760E+03  0.00000000000E+00 0. -1.
         22    1    3    3    0    0 -0.41488821102E+02  0.78222074509E+00  0.69596562796E+02  0.81028486958E+02  0.00000000000E+00 0. -1.
</event>
<event>
 7    1  0.5139898E-006  0.8336329E+02  0.7818608E-02  0.1399741E+00
          2   -1    0    0  502    0  0.00000000000E+00  0.00000000000E+00  0.60377567991E+03  0.60377567991E+03  0.00000000000E+00 0. -1.
          1   -1    0    0  501    0 -0.00000000000E+00 -0.00000000000E+00 -0.66492703983E+03  0.66492703983E+03  0.00000000000E+00 0. -1.
         25    2    1    2    0    0  0.34154896192E+02  0.24981948671E+02 -0.15655318872E+03  0.20475077102E+03  0.12499329039E+03 0.  0.
          2    1    1    2  501    0  0.39827552829E+02  0.14933855299E+02 -0.48028250611E+03  0.48216235821E+03  0.00000000000E+00 0. -1.
          1    1    1    2  502    0 -0.73982449021E+02 -0.39915803970E+02  0.57568433491E+03  0.58178959051E+03  0.00000000000E+00 0. -1.
         22    1    3    3    0    0  0.19637400050E+02 -0.44198177537E+02 -0.22803061372E+02  0.53470421601E+02  0.00000000000E+00 0. -1.
         22    1    3    3    0    0  0.14517496142E+02  0.69180126208E+02 -0.13375012734E+03  0.15128034942E+03  0.00000000000E+00 0. -1.
</event>
<event>
 7    1  0.5139898E-006  0.5880062E+02  0.7818608E-02  0.1518559E+00
          2   -1    0    0  502    0  0.00000000000E+00  0.00000000000E+00  0.17973685061E+04  0.17973685061E+04  0.00000000000E+00 0. -1.
          1   -1    0    0  501    0 -0.00000000000E+00 -0.00000000000E+00 -0.44255548872E+03  0.44255548872E+03  0.00000000000E+00 0. -1.
         25    2    1    2    0    0 -0.19973099641E+02  0.73226721020E+02  0.10123766594E+03  0.17786285425E+03  0.12500021015E+03 0.  0.
          2    1    1    2  501    0 -0.10441765972E+02 -0.23127925657E+02 -0.40332603283E+03  0.40412352095E+03  0.00000000000E+00 0. -1.
          1    1    1    2  502    0  0.30414865613E+02 -0.50098795364E+02  0.16569013843E+04  0.16579376197E+04  0.00000000000E+00 0. -1.
         22    1    3    3    0    0  0.11003292530E+02  0.10101472199E+03  0.54577767275E+02  0.11534200963E+03  0.00000000000E+00 0.  1.
         22    1    3    3    0    0 -0.30976392170E+02 -0.27788000965E+02  0.46659898663E+02  0.62520844626E+02  0.00000000000E+00 0.  1.
</event>
<event>
 7    1  0.5139898E-006  0.9982954E+02  0.7818608E-02  0.1310384E+00
          2   -1    0    0  502    0  0.00000000000E+00  0.00000000000E+00  0.23835071440E+04  0.23835071440E+04  0.00000000000E+00 0. -1.
          1   -1    0    0  501    0 -0.00000000000E+00 -0.00000000000E+00 -0.17726490033E+03  0.17726490033E+03  0.00000000000E+00 0. -1.
         25    2    1    2    0    0  0.15862135919E+03 -0.23265789124E+02  0.87123468560E+02  0.22117290981E+03  0.12499969890E+03 0.  0.
          2    1    1    2  501    0 -0.71769054661E+02 -0.24233504496E+02 -0.95990308135E+02  0.12227918548E+03  0.00000000000E+00 0. -1.
          1    1    1    2  502    0 -0.86852304530E+02  0.47499293620E+02  0.22151090832E+04  0.22173199490E+04  0.00000000000E+00 0. -1.
         22    1    3    3    0    0  0.99291148337E+02  0.42424134397E+02  0.19361714988E+02  0.10969692486E+03  0.00000000000E+00 0.  1.
         22    1    3    3    0    0  0.59330210854E+02 -0.65689923521E+02  0.67761753572E+02  0.11147598494E+03  0.00000000000E+00 0.  1.
</event>
<event>
 7    1  0.5139898E-006  0.1244236E+03  0.7818608E-02  0.1334619E+00
          2   -1    0    0  502    0  0.00000000000E+00  0.00000000000E+00  0.40048263886E+03  0.40048263886E+03  0.00000000000E+00 0. -1.
          1   -1    0    0  501    0 -0.00000000000E+00 -0.00000000000E+00 -0.13452732367E+04  0.13452732367E+04  0.00000000000E+00 0. -1.
         25    2    1    2    0    0 -0.46964994261E+02  0.12014289971E+03  0.27021402054E+03  0.32446992246E+03  0.12500034660E+03 0.  0.
          2    1    1    2  501    0 -0.18298546893E+01 -0.12445874028E+03 -0.13092058005E+04  0.13151095599E+04  0.00000000000E+00 0. -1.
          1    1    1    2  502    0  0.48794848950E+02  0.43158405702E+01  0.94201182122E+02  0.10617639322E+03  0.00000000000E+00 0. -1.
         22    1    3    3    0    0 -0.10466671623E+02 -0.24384288019E+02  0.20038947077E+02  0.33252129511E+02  0.00000000000E+00 0.  1.
         22    1    3    3    0    0 -0.36498322638E+02  0.14452718773E+03  0.25017507347E+03  0.29121779295E+03  0.00000000000E+00 0.  1.
</event>
<event>
 7    1  0.5139898E-006  0.1203541E+03  0.7818608E-02  0.1312343E+00
          2   -1    0    0  502    0  0.00000000000E+00  0.00000000000E+00  0.14888672467E+03  0.14888672467E+03  0.00000000000E+00 0. -1.
          1   -1    0    0  501    0 -0.00000000000E+00 -0.00000000000E+00 -0.23219748019E+04  0.23219748019E+04  0.00000000000E+00 0. -1.
         25    2    1    2    0    0  0.55793236256E+02 -0.93516210665E+02 -0.10835621263E+03  0.19805440937E+03  0.12500525343E+03 0.  0.
          2    1    1    2  501    0 -0.69348951987E+00  0.12134244857E+03 -0.21577563066E+04  0.21611655997E+04  0.00000000000E+00 0. -1.
          1    1    1    2  502    0 -0.55099746736E+02 -0.27826237906E+02  0.93024442017E+02  0.11164151745E+03  0.00000000000E+00 0. -1.
         22    1    3    3    0    0 -0.62611478812E+01  0.24289278146E+02  0.19358248737E+01  0.25157870013E+02  0.00000000000E+00 0. -1.
         22    1    3    3    0    0  0.62054384137E+02 -0.11780548881E+03 -0.11029203750E+03  0.17289653935E+03  0.00000000000E+00 0. -1.
</event>
<event>
 7    1  0.5139898E-006  0.8047150E+02  0.7818608E-02  0.1377938E+00
          2   -1    0    0  502    0  0.00000000000E+00  0.00000000000E+00  0.12691096131E+03  0.12691096131E+03  0.00000000000E+00 0. -1.
          1   -1    0    0  501    0 -0.00000000000E+00 -0.00000000000E+00 -0.21296028900E+04  0.21296028900E+04  0.00000000000E+00 0. -1.
         25    2    1    2    0    0  0.74742740042E+02 -0.93914971976E+02 -0.35020736827E+03  0.39073800271E+03  0.12499794726E+03 0.  0.
          2    1    1    2  501    0 -0.66939411430E+02  0.41980447041E+02 -0.17517196544E+04  0.17535007814E+04  0.00000000000E+00 0. -1.
          1    1    1    2  502    0 -0.78033286127E+01  0.51934524934E+02  0.99235094032E+02  0.11227506716E+03  0.00000000000E+00 0. -1.
         22    1    3    3    0    0  0.56282484500E+02  0.14236324677E+02 -0.77858329551E+02  0.97120082795E+02  0.00000000000E+00 0. -1.
         22    1    3    3    0    0  0.18460255543E+02 -0.10815129665E+03 -0.27234903872E+03  0.29361791991E+03  0.00000000000E+00 0. -1.
</event>
<event>
 7    1  0.5139898E-006  0.4894015E+02  0.7818608E-02  0.1462639E+00
          2   -1    0    0  502    0  0.00000000000E+00  0.00000000000E+00  0.23005097070E+04  0.23005097070E+04  0.00000000000E+00 0. -1.
          1   -1    0    0  501    0 -0.00000000000E+00 -0.00000000000E+00 -0.29518030255E+03  0.29518030255E+03  0.00000000000E+00 0. -1.
         25    2    1    2    0    0  0.16681888885E+01  0.62581726575E+01  0.30862371356E+03  0.33303976431E+03  0.12499976185E+03 0.  0.
          2    1    1    2  501    0  0.25602445153E+02 -0.42057331574E+02 -0.28057248166E+03  0.28486000386E+03  0.00000000000E+00 0. -1.
          1    1    1    2  502    0 -0.27270634041E+02  0.35799158916E+02  0.19772781726E+04  0.19777902414E+04  0.00000000000E+00 0. -1.
         22    1    3    3    0    0 -0.72339211616E+01 -0.10407539756E+02 -0.85595810214E+01  0.15294212186E+02  0.00000000000E+00 0.  1.
         22    1    3    3    0    0  0.89021100501E+01  0.16665712413E+02  0.31718329458E+03  0.31774555213E+03  0.00000000000E+00 0.  1.
</event>
<event>
 7    1  0.5139898E-006  0.5422524E+02  0.7818608E-02  0.1475209E+00
          2   -1    0    0  502    0  0.00000000000E+00  0.00000000000E+00  0.20610534272E+04  0.20610534272E+04  0.00000000000E+00 0. -1.
          1   -1    0    0  501    0 -0.00000000000E+00 -0.00000000000E+00 -0.35283272181E+02  0.35283272181E+02  0.00000000000E+00 0. -1.
         25    2    1    2    0    0  0.21656549193E+02  0.11178575206E+02  0.28338971071E+03  0.31069080483E+03  0.12500032561E+03 0.  0.
          2    1    1    2  501    0  0.33423103946E+02 -0.16136280233E+02 -0.49477188159E+01  0.37442800892E+02  0.00000000000E+00 0. -1.
          1    1    1    2  502    0 -0.55079653139E+02  0.49577050275E+01  0.17473281631E+04  0.17482030936E+04  0.00000000000E+00 0. -1.
         22    1    3    3    0    0  0.19587346300E+01 -0.47663415949E+02  0.49643255154E+02  0.68848316200E+02  0.00000000000E+00 0.  1.
         22    1    3    3    0    0  0.19697814563E+02  0.58841991155E+02  0.23374645556E+03  0.24184248863E+03  0.00000000000E+00 0.  1.
</event>
<event>
 7    1  0.5139898E-006  0.5161389E+02  0.7818608E-02  0.1572709E+00
          2   -1    0    0  502    0  0.00000000000E+00  0.00000000000E+00  0.51801209381E+03  0.51801209381E+03  0.00000000000E+00 0. -1.
          1   -1    0    0  501    0 -0.00000000000E+00 -0.00000000000E+00 -0.12006787805E+04  0.12006787805E+04  0.00000000000E+00 0. -1.
         25    2    1    2    0    0  0.52509306652E+02  0.47218562632E+02 -0.41210969655E+03  0.43640261450E+03  0.12500407999E+03 0.  0.
          2    1    1    2  501    0 -0.18548235350E+02 -0.84277602800E+01 -0.77497477456E+03  0.77524252037E+03  0.00000000000E+00 0. -1.
          1    1    1    2  502    0 -0.33961071302E+02 -0.38790802352E+02  0.50441778439E+03  0.50704573947E+03  0.00000000000E+00 0. -1.
         22    1    3    3    0    0  0.73800441224E+02 -0.83570384555E+01 -0.30454852998E+03  0.31347432483E+03  0.00000000000E+00 0.  1.
         22    1    3    3    0    0 -0.21291134573E+02  0.55575601087E+02 -0.10756116657E+03  0.12292828967E+03  0.00000000000E+00 0.  1.
</event>
<event>
 7    1  0.5139898E-006  0.7893229E+02  0.7818608E-02  0.1380387E+00
          2   -1    0    0  502    0  0.00000000000E+00  0.00000000000E+00  0.37682616301E+03  0.37682616301E+03  0.00000000000E+00 0. -1.
          1   -1    0    0  501    0 -0.00000000000E+00 -0.00000000000E+00 -0.10148387564E+04  0.10148387564E+04  0.00000000000E+00 0. -1.
         25    2    1    2    0    0 -0.31271491286E+02 -0.49777872542E+00  0.54767821063E+02  0.14001034071E+03  0.12500090932E+03 0.  0.
          2    1    1    2  501    0  0.72843915164E+02  0.32529845685E+02 -0.96809801620E+03  0.97137953232E+03  0.00000000000E+00 0. -1.
          1    1    1    2  502    0 -0.41572423878E+02 -0.32032066960E+02  0.27531760179E+03  0.28027504633E+03  0.00000000000E+00 0. -1.
         22    1    3    3    0    0 -0.42586939549E+02 -0.19757079902E+02  0.88133709385E+02  0.99857600394E+02  0.00000000000E+00 0. -1.
         22    1    3    3    0    0  0.11315448263E+02  0.19259301176E+02 -0.33365888322E+02  0.40152740314E+02  0.00000000000E+00 0. -1.
</event>
<event>
 7    1  0.5139898E-006  0.1851848E+03  0.7818608E-02  0.1289761E+00
          2   -1    0    0  502    0  0.00000000000E+00  0.00000000000E+00  0.24754469020E+03  0.24754469020E+03  0.00000000000E+00 0. -1.
          1   -1    0    0  501    0 -0.00000000000E+00 -0.00000000000E+00 -0.15143963119E+04  0.15143963119E+04  0.00000000000E+00 0. -1.
         25    2    1    2    0    0  0.20501601429E+03 -0.56972815766E+02 -0.32147170391E+03  0.40527383422E+03  0.12500142573E+03 0.  0.
          2    1    1    2  501    0 -0.42241450249E+02 -0.25583793747E+02 -0.11098698232E+04  0.11109679992E+04  0.00000000000E+00 0. -1.
          1    1    1    2  502    0 -0.16277456405E+03  0.82556609513E+02  0.16448990550E+03  0.24569916867E+03  0.00000000000E+00 0. -1.
         22    1    3    3    0    0  0.16307662615E+03 -0.47639514182E+02 -0.14410511860E+03  0.22277745513E+03  0.00000000000E+00 0. -1.
         22    1    3    3    0    0  0.41939388148E+02 -0.93333015837E+01 -0.17736658531E+03  0.18249637909E+03  0.00000000000E+00 0. -1.
</event>
<event>
 7    1  0.5139898E-006  0.5768542E+02  0.7818608E-02  0.1436467E+00
          2   -1    0    0  502    0  0.00000000000E+00  0.00000000000E+00  0.67333770552E+03  0.67333770552E+03  0.00000000000E+00 0. -1.
          1   -1    0    0  501    0 -0.00000000000E+00 -0.00000000000E+00 -0.15625821495E+04  0.15625821495E+04  0.00000000000E+00 0. -1.
         25    2    1    2    0    0  0.43358361909E+02  0.40753803217E+01 -0.44387661306E+01  0.13243949889E+03  0.12499584773E+03 0.  0.
          2    1    1    2  501    0 -0.30506597911E+01 -0.46205317524E+02 -0.14923882738E+04  0.14931064924E+04  0.00000000000E+00 0. -1.
          1    1    1    2  502    0 -0.40307702118E+02  0.42129937202E+02  0.60758259602E+03  0.61037386366E+03  0.00000000000E+00 0. -1.
         22    1    3    3    0    0  0.27277269280E+02  0.62679507205E+02 -0.16874673355E+02  0.70409691404E+02  0.00000000000E+00 0.  1.
         22    1    3    3    0    0  0.16081092629E+02 -0.58604126883E+02  0.12435907225E+02  0.62029807483E+02  0.00000000000E+00 0.  1.
</event>
<event>
 7    1  0.5139898E-006  0.6512823E+02  0.7818608E-02  0.1509751E+00
          2   -1    0    0  502    0  0.00000000000E+00  0.00000000000E+00  0.30432560122E+03  0.30432560122E+03  0.00000000000E+00 0. -1.
          1   -1    0    0  501    0 -0.00000000000E+00 -0.00000000000E+00 -0.22870147582E+03  0.22870147582E+03  0.00000000000E+00 0. -1.
         25    2    1    2    0    0  0.58840644043E+02  0.55424973064E+02  0.43648991648E+02  0.15512406697E+03  0.12499637055E+03 0.  0.
          2    1    1    2  501    0 -0.24253316289E+02 -0.16822635558E+01 -0.16708004827E+03  0.16883955666E+03  0.00000000000E+00 0. -1.
          1    1    1    2  502    0 -0.34587327754E+02 -0.53742709508E+02  0.19905518202E+03  0.20906345342E+03  0.00000000000E+00 0. -1.
         22    1    3    3    0    0  0.74442554487E+02  0.86106694568E+02  0.27480252227E+02  0.11709492316E+03  0.00000000000E+00 0.  1.
         22    1    3    3    0    0 -0.15601910444E+02 -0.30681721504E+02  0.16168739421E+02  0.38029143804E+02  0.00000000000E+00 0.  1.
</event>
<event>
 7    1  0.5139898E-006  0.1411656E+03  0.7818608E-02  0.1293732E+00
          2   -1    0    0  502    0  0.00000000000E+00  0.00000000000E+00  0.83712753489E+02  0.83712753489E+02  0.00000000000E+00 0. -1.
          1   -1    0    0  501    0 -0.00000000000E+00 -0.00000000000E+00 -0.29243415472E+04  0.29243415472E+04  0.00000000000E+00 0. -1.
         25    2    1    2    0    0  0.13833838298E+03  0.73275115232E+02 -0.17347960371E+04  0.17463244700E+04  0.12500045350E+03 0.  0.
          2    1    1    2  501    0 -0.84976529087E+02 -0.10567097548E+03 -0.11666928372E+04  0.11745465261E+04  0.00000000000E+00 0. -1.
          1    1    1    2  502    0 -0.53361853897E+02  0.32395860252E+02  0.60860080537E+02  0.87183304685E+02  0.00000000000E+00 0. -1.
         22    1    3    3    0    0 -0.22630927779E+01  0.47330018928E+02 -0.23503910481E+03  0.23976787330E+03  0.00000000000E+00 0. -1.
         22    1    3    3    0    0  0.14060147576E+03  0.25945096305E+02 -0.14997569323E+04  0.15065565967E+04  0.00000000000E+00 0. -1.
</event>
<event>
 7    1  0.5139898E-006  0.1428251E+03  0.7818608E-02  0.1251344E+00
          2   -1    0    0  502    0  0.00000000000E+00  0.00000000000E+00  0.12837221420E+04  0.12837221420E+04  0.00000000000E+00 0. -1.
          1   -1    0    0  501    0 -0.00000000000E+00 -0.00000000000E+00 -0.66759556562E+03  0.66759556562E+03  0.00000000000E+00 0. -1.
         25    2    1    2    0    0 -0.99791140934E+02 -0.20943852817E+03  0.54576864821E+02  0.26912147812E+03  0.12499986769E+03 0.  0.
          2    1    1    2  501    0  0.41831572148E+02  0.82853555696E+02 -0.55211539473E+03  0.55986248420E+03  0.00000000000E+00 0. -1.
          1    1    1    2  502    0  0.57959568787E+02  0.12658497247E+03  0.11136651063E+04  0.11223337453E+04  0.00000000000E+00 0. -1.
         22    1    3    3    0    0 -0.93740859082E+02 -0.12019655305E+03 -0.18594156310E+02  0.15355879224E+03  0.00000000000E+00 0. -1.
         22    1    3    3    0    0 -0.60502818528E+01 -0.89241975120E+02  0.73171021131E+02  0.11556268588E+03  0.00000000000E+00 0. -1.
</event>
<event>
 7    1  0.5139898E-006  0.3878279E+02  0.7818608E-02  0.1527305E+00
          2   -1    0    0  502    0  0.00000000000E+00  0.00000000000E+00  0.13881877379E+03  0.13881877379E+03  0.00000000000E+00 0. -1.
          1   -1    0    0  501    0 -0.00000000000E+00 -0.00000000000E+00 -0.43026220665E+03  0.43026220665E+03  0.00000000000E+00 0. -1.
         25    2    1    2    0    0 -0.20768158745E+02  0.44554680660E+02 -0.64589069866E+01  0.13447972993E+03  0.12500657701E+03 0.  0.
          2    1    1    2  501    0  0.36945446583E+02 -0.12062641727E+02 -0.35426399892E+03  0.35638946993E+03  0.00000000000E+00 0. -1.
          1    1    1    2  502    0 -0.16177287838E+02 -0.32492038934E+02  0.69279473042E+02  0.78211780576E+02  0.00000000000E+00 0. -1.
         22    1    3    3    0    0 -0.40994389536E+02  0.63083893815E+02 -0.44629499142E+02  0.87475195489E+02  0.00000000000E+00 0. -1.
         22    1    3    3    0    0  0.20226230791E+02 -0.18529213155E+02  0.38170592155E+02  0.47004534437E+02  0.00000000000E+00 0. -1.
</event>
<event>
 7    1  0.5139898E-006  0.8745767E+02  0.7818608E-02  0.1433192E+00
          2   -1    0    0  502    0  0.00000000000E+00  0.00000000000E+00  0.39302298179E+03  0.39302298179E+03  0.00000000000E+00 0. -1.
          1   -1    0    0  501    0 -0.00000000000E+00 -0.00000000000E+00 -0.15784497484E+04  0.15784497484E+04  0.00000000000E+00 0. -1.
         25    2    1    2    0    0  0.61262995317E+02 -0.99300280698E+02 -0.33827928373E+03  0.37904184436E+03  0.12500458243E+03 0.  0.
          2    1    1    2  501    0 -0.83607316455E+01  0.30167784190E+02 -0.12145007967E+04  0.12149041864E+04  0.00000000000E+00 0. -1.
          1    1    1    2  502    0 -0.52902263672E+02  0.69132496508E+02  0.36735331383E+03  0.37752669939E+03  0.00000000000E+00 0. -1.
         22    1    3    3    0    0 -0.18454018737E+02  0.18849494280E+02 -0.33977201652E+02  0.43015165631E+02  0.00000000000E+00 0. -1.
         22    1    3    3    0    0  0.79717014054E+02 -0.11814977498E+03 -0.30430208208E+03  0.33602667873E+03  0.00000000000E+00 0. -1.
</event>
<event>
 7    1  0.5139898E-006  0.1230890E+03  0.7818608E-02  0.1297195E+00
          2   -1    0    0  502    0  0.00000000000E+00  0.00000000000E+00  0.13201273676E+04  0.13201273676E+04  0.00000000000E+00 0. -1.
          1   -1    0    0  501    0 -0.00000000000E+00 -0.00000000000E+00 -0.20567116934E+03  0.20567116934E+03  0.00000000000E+00 0. -1.
         25    2    1    2    0    0 -0.11451450266E+03 -0.19549156655E+02  0.21438114653E+03  0.27400721984E+03  0.12499975875E+03 0.  0.
          2    1    1    2  501    0  0.11502422408E+03 -0.49777420670E+02 -0.15224069452E+03  0.19719430215E+03  0.00000000000E+00 0. -1.
          1    1    1    2  502    0 -0.50972142221E+00  0.69326577326E+02  0.10523157462E+04  0.10545970149E+04  0.00000000000E+00 0. -1.
         22    1    3    3    0    0 -0.11465625863E+03 -0.34958851490E+02  0.93164745087E+02  0.15181517930E+03  0.00000000000E+00 0.  1.
         22    1    3    3    0    0  0.14175596915E+00  0.15409694835E+02  0.12121640145E+03  0.12219204053E+03  0.00000000000E+00 0.  1.
</event>
<event>
 7    1  0.5139898E-006  0.7175480E+02  0.7818608E-02  0.1404094E+00
          2   -1    0    0  502    0  0.00000000000E+00  0.00000000000E+00  0.12380303971E+04  0.12380303971E+04  0.00000000000E+00 0. -1.
          1   -1    0    0  501    0 -0.00000000000E+00 -0.00000000000E+00 -0.30740667855E+03  0.30740667855E+03  0.00000000000E+00 0. -1.
         25    2    1    2    0    0  0.31656334203E+02  0.29031388220E+02  0.27312785413E+03  0.30342791090E+03  0.12499890966E+03 0.  0.
          2    1    1    2  501    0 -0.10115552447E+02 -0.71643564554E+02 -0.28716624751E+03  0.29614114617E+03  0.00000000000E+00 0. -1.
          1    1    1    2  502    0 -0.21540781756E+02  0.42612176334E+02  0.94466211190E+03  0.94586801855E+03  0.00000000000E+00 0. -1.
         22    1    3    3    0    0  0.43623581813E+02  0.34747475388E+02  0.28200624689E+03  0.28746813253E+03  0.00000000000E+00 0.  1.
         22    1    3    3    0    0 -0.11967247610E+02 -0.57160871673E+01 -0.88783927552E+01  0.15959778375E+02  0.00000000000E+00 0.  1.
</event>
<event>
 7    1  0.5139898E-006  0.1507261E+03  0.7818608E-02  0.1327356E+00
          2   -1    0    0  502    0  0.00000000000E+00  0.00000000000E+00  0.11828584324E+04  0.11828584324E+04  0.00000000000E+00 0. -1.
          1   -1    0    0  501    0 -0.00000000000E+00 -0.00000000000E+00 -0.41083119997E+03  0.41083119997E+03  0.00000000000E+00 0. -1.
         25    2    1    2    0    0 -0.10109926411E+03  0.68163543430E+02 -0.34435300070E+02  0.17798496138E+03  0.12500210690E+03 0.  0.
          2    1    1    2  501    0 -0.29924247798E+01  0.42996927140E+02 -0.29784430440E+03  0.30094670626E+03  0.00000000000E+00 0. -1.
          1    1    1    2  502    0  0.10409168889E+03 -0.11116047057E+03  0.11043068369E+04  0.11147579647E+04  0.00000000000E+00 0. -1.
         22    1    3    3    0    0 -0.12709136887E+03  0.36349428824E+02 -0.16699390944E+02  0.13323800762E+03  0.00000000000E+00 0. -1.
         22    1    3    3    0    0  0.25992104758E+02  0.31814114606E+02 -0.17735909126E+02  0.44746953756E+02  0.00000000000E+00 0. -1.
</event>
<event>
 7    1  0.5139898E-006  0.1706163E+03  0.7818608E-02  0.1243918E+00
          2   -1    0    0  502    0  0.00000000000E+00  0.00000000000E+00  0.19408083153E+03  0.19408083153E+03  0.00000000000E+00 0. -1.
          1   -1    0    0  501    0 -0.00000000000E+00 -0.00000000000E+00 -0.71473672549E+03  0.71473672549E+03  0.00000000000E+00 0. -1.
         25    2    1    2    0    0  0.53838977535E+02  0.13784879892E+03 -0.44736052275E+00  0.19372649421E+03  0.12501530931E+03 0.  0.
          2    1    1    2  501    0  0.82971832922E+02  0.11041392214E+02 -0.50546942952E+03  0.51235298534E+03  0.00000000000E+00 0. -1.
          1    1    1    2  502    0 -0.13681081046E+03 -0.14889019113E+03 -0.14739103910E+02  0.20273807747E+03  0.00000000000E+00 0. -1.
         22    1    3    3    0    0 -0.12797755332E+02  0.45248572580E+02  0.50306355976E+02  0.68861784131E+02  0.00000000000E+00 0.  1.
         22    1    3    3    0    0  0.66636732867E+02  0.92600226338E+02 -0.50753716499E+02  0.12486471008E+03  0.00000000000E+00 0.  1.
</event>
<event>
 7    1  0.5139898E-006  0.8865364E+02  0.7818608E-02  0.1324584E+00
          2   -1    0    0  502    0  0.00000000000E+00  0.00000000000E+00  0.26668900505E+03  0.26668900505E+03  0.00000000000E+00 0. -1.
          1   -1    0    0  501    0 -0.00000000000E+00 -0.00000000000E+00 -0.65625947138E+03  0.65625947138E+03  0.00000000000E+00 0. -1.
         25    2    1    2    0    0  0.40469353664E+02 -0.20167915171E+02 -0.24906769422E+02  0.13524430548E+03  0.12500464637E+03 0.  0.
          2    1    1    2  501    0 -0.15822513754E+02 -0.73413420371E+02 -0.56248758396E+03  0.56747877875E+03  0.00000000000E+00 0. -1.
          1    1    1    2  502    0 -0.24646839911E+02  0.93581335542E+02  0.19782388705E+03  0.22022539219E+03  0.00000000000E+00 0. -1.
         22    1    3    3    0    0  0.52146662893E+02  0.18679194795E+02  0.33050263825E+02  0.64501989954E+02  0.00000000000E+00 0.  1.
         22    1    3    3    0    0 -0.11677309229E+02 -0.38847109966E+02 -0.57957033247E+02  0.70742315528E+02  0.00000000000E+00 0.  1.
</event>
<event>
 7    1  0.5139898E-006  0.2473919E+03  0.7818608E-02  0.1186903E+00
          2   -1    0    0  502    0  0.00000000000E+00  0.00000000000E+00  0.21998810546E+04  0.21998810546E+04  0.00000000000E+00 0. -1.
          1   -1    0    0  501    0 -0.00000000000E+00 -0.00000000000E+00 -0.29694120398E+04  0.29694120398E+04  0.00000000000E+00 0. -1.
         25    2    1    2    0    0 -0.58258639503E+02 -0.21988590803E+03  0.22750733939E+03  0.34515249040E+03  0.12500708191E+03 0.  0.
          2    1    1    2  501    0 -0.10260260039E+03  0.24805605278E+02 -0.29012728214E+04  0.29031924834E+04  0.00000000000E+00 0. -1.
          1    1    1    2  502    0  0.16086123990E+03  0.19508030275E+03  0.19042344968E+04  0.19209481206E+04  0.00000000000E+00 0. -1.
         22    1    3    3    0    0  0.22280130378E+02  0.18063380357E+01  0.10714285696E+02  0.24788363898E+02  0.00000000000E+00 0. -1.
         22    1    3    3    0    0 -0.80538769881E+02 -0.22169224606E+03  0.21679305370E+03  0.32036412650E+03  0.00000000000E+00 0. -1.
</event>
<event>
 7    1  0.5139898E-006  0.1014173E+03  0.7818608E-02  0.1337063E+00
          2   -1    0    0  502    0  0.00000000000E+00  0.00000000000E+00  0.19191435316E+04  0.19191435316E+04  0.00000000000E+00 0. -1.
          1   -1    0    0  501    0 -0.00000000000E+00 -0.00000000000E+00 -0.20777535313E+03  0.20777535313E+03  0.00000000000E+00 0. -1.
         25    2    1    2    0    0 -0.14530014377E+02  0.94110002308E+02  0.44781274531E+03  0.47458185143E+03  0.12499545988E+03 0.  0.
          2    1    1    2  501    0  0.58829961985E+02  0.32412430555E+00 -0.18802489933E+03  0.19701378696E+03  0.00000000000E+00 0. -1.
          1    1    1    2  502    0 -0.44299947608E+02 -0.94434126613E+02  0.14515803325E+04  0.14553232463E+04  0.00000000000E+00 0. -1.
         22    1    3    3    0    0 -0.54773399749E+02  0.25995926913E+02  0.30824005202E+03  0.31414621310E+03  0.00000000000E+00 0.  1.
         22    1    3    3    0    0  0.40243385372E+02  0.68114075394E+02  0.13957269329E+03  0.16043563832E+03  0.00000000000E+00 0.  1.
</event>
<event>
 7    1  0.5139898E-006  0.8566829E+02  0.7818608E-02  0.1455047E+00
          2   -1    0    0  502    0  0.00000000000E+00  0.00000000000E+00  0.88767787487E+03  0.88767787487E+03  0.00000000000E+00 0. -1.
          1   -1    0    0  501    0 -0.00000000000E+00 -0.00000000000E+00 -0.76060438326E+03  0.76060438326E+03  0.00000000000E+00 0. -1.
         25    2    1    2    0    0 -0.21080328400E+02 -0.80393243480E+02 -0.89263622849E+02  0.17463984699E+03  0.12499451168E+03 0.  0.
          2    1    1    2  501    0 -0.55159905049E+01  0.85942898256E+02 -0.62548305438E+03  0.63138392380E+03  0.00000000000E+00 0. -1.
          1    1    1    2  502    0  0.26596318904E+02 -0.55496547752E+01  0.84182016884E+03  0.84225848735E+03  0.00000000000E+00 0. -1.
         22    1    3    3    0    0 -0.52667215335E+02 -0.72647010150E+02 -0.10532712662E+03  0.13836627934E+03  0.00000000000E+00 0.  1.
         22    1    3    3    0    0  0.31586886935E+02 -0.77462333301E+01  0.16063503772E+02  0.36273567656E+02  0.00000000000E+00 0.  1.
</event>
<event>
 7    1  0.5139898E-006  0.2139916E+03  0.7818608E-02  0.1320724E+00
          2   -1    0    0  502    0  0.00000000000E+00  0.00000000000E+00  0.65165564413E+03  0.65165564413E+03  0.00000000000E+00 0. -1.
          1   -1    0    0  501    0 -0.00000000000E+00 -0.00000000000E+00 -0.26889898993E+03  0.26889898993E+03  0.00000000000E+00 0. -1.
         25    2    1    2    0    0 -0.19099745267E+03 -0.40662589372E+02  0.27817105571E+03  0.36212793001E+03  0.12499611336E+03 0.  0.
          2    1    1    2  501    0  0.20590661285E+03  0.69202550052E+02 -0.17379332042E+03  0.27819174030E+03  0.00000000000E+00 0. -1.
          1    1    1    2  502    0 -0.14909160181E+02 -0.28539960680E+02  0.27837891891E+03  0.28023496375E+03  0.00000000000E+00 0. -1.
         22    1    3    3    0    0  0.55148017868E+01  0.24274531590E+02  0.29928744440E+02  0.38928083262E+02  0.00000000000E+00 0.  1.
         22    1    3    3    0    0 -0.19651225445E+03 -0.64937120963E+02  0.24824231127E+03  0.32319984674E+03  0.00000000000E+00 0.  1.
</event>
<event>
 7    1  0.5139898E-006  0.8898702E+02  0.7818608E-02  0.1313737E+00
          2   -1    0    0  502    0  0.00000000000E+00  0.00000000000E+00  0.18764606515E+04  0.18764606515E+04  0.00000000000E+00 0. -1.
          1   -1    0    0  501    0 -0.00000000000E+00 -0.00000000000E+00 -0.16650288040E+03  0.16650288040E+03  0.00000000000E+00 0. -1.
         25    2    1    2    0    0  0.16891383418E+03  0.96538758667E+01  0.12328082118E+04  0.12506248112E+04  0.12498500217E+03 0.  0.
          2    1    1    2  501    0 -0.87981684422E+02  0.60481887669E+01 -0.14230850332E+03  0.16741883854E+03  0.00000000000E+00 0. -1.
          1    1    1    2  502    0 -0.80932149759E+02 -0.15702064634E+02  0.61945806264E+03  0.62491988212E+03  0.00000000000E+00 0. -1.
         22    1    3    3    0    0  0.17041157120E+03  0.31712266846E+02  0.86748857922E+03  0.88463676532E+03  0.00000000000E+00 0. -1.
         22    1    3    3    0    0 -0.14977370228E+01 -0.22058390980E+02  0.36531963254E+03  0.36598804591E+03  0.00000000000E+00 0. -1.
</event>
<event>
 7    1  0.5139898E-006  0.1290041E+03  0.7818608E-02  0.1278129E+00
          2   -1    0    0  502    0  0.00000000000E+00  0.00000000000E+00  0.61152859125E+03  0.61152859125E+03  0.00000000000E+00 0. -1.
          1   -1    0    0  501    0 -0.00000000000E+00 -0.00000000000E+00 -0.29503822121E+03  0.29503822121E+03  0.00000000000E+00 0. -1.
         25    2    1    2    0    0 -0.48825320175E+02  0.42294864162E+02  0.41883420755E+02  0.14680539557E+03  0.12499934324E+03 0.  0.
          2    1    1    2  501    0  0.10847305365E+03 -0.94297856767E+02 -0.21784690318E+03  0.26098996606E+03  0.00000000000E+00 0. -1.
          1    1    1    2  502    0 -0.59647733474E+02  0.52002992605E+02  0.49245385247E+03  0.49877145082E+03  0.00000000000E+00 0. -1.
         22    1    3    3    0    0 -0.33413723970E+02 -0.42424391212E+02  0.22729201074E+02  0.58591146948E+02  0.00000000000E+00 0.  1.
         22    1    3    3    0    0 -0.15411596205E+02  0.84719255374E+02  0.19154219681E+02  0.88214248623E+02  0.00000000000E+00 0.  1.
</event>
<event>
 7    1  0.5139898E-006  0.4975529E+02  0.7818608E-02  0.1490079E+00
          2   -1    0    0  502    0  0.00000000000E+00  0.00000000000E+00  0.19223632115E+04  0.19223632115E+04  0.00000000000E+00 0. -1.
          1   -1    0    0  501    0 -0.00000000000E+00 -0.00000000000E+00 -0.57918869642E+02  0.57918869642E+02  0.00000000000E+00 0. -1.
         25    2    1    2    0    0 -0.79328446003E+02 -0.43609717916E+00  0.30815502491E+03  0.34187776042E+03  0.12501076419E+03 0.  0.
          2    1    1    2  501    0  0.46271729216E+02 -0.14873373041E+02 -0.26390052348E+02  0.55305741232E+02  0.00000000000E+00 0. -1.
          1    1    1    2  502    0  0.33056716787E+02  0.15309470220E+02  0.15826793692E+04  0.15830985794E+04  0.00000000000E+00 0. -1.
         22    1    3    3    0    0 -0.84756901498E+02  0.11756779629E+02  0.31532370119E+03  0.32672770123E+03  0.00000000000E+00 0. -1.
         22    1    3    3    0    0  0.54284554951E+01 -0.12192876808E+02 -0.71686762757E+01  0.15150059190E+02  0.00000000000E+00 0. -1.
</event>
<event>
 7    1  0.5139898E-006  0.1184716E+03  0.7818608E-02  0.1387163E+00
          2   -1    0    0  502    0  0.00000000000E+00  0.00000000000E+00  0.46795172230E+02  0.46795172230E+02  0.00000000000E+00 0. -1.
          1   -1    0    0  501    0 -0.00000000000E+00 -0.00000000000E+00 -0.16255560636E+04  0.16255560636E+04  0.00000000000E+00 0. -1.
         25    2    1    2    0    0 -0.12431339215E+03  0.28036716305E+02 -0.32669626866E+03  0.37228304966E+03  0.12499736070E+03 0.  0.
          2    1    1    2  501    0  0.83722370526E+01 -0.32019966151E+02 -0.11342215527E+04  0.11347043241E+04  0.00000000000E+00 0. -1.
          1    1    1    2  502    0  0.11594115509E+03  0.39832498460E+01 -0.11784307006E+03  0.16536386209E+03  0.00000000000E+00 0. -1.
         22    1    3    3    0    0 -0.96937249516E+02  0.69382989294E+02 -0.16783736178E+03  0.20586454176E+03  0.00000000000E+00 0. -1.
         22    1    3    3    0    0 -0.27376142629E+02 -0.41346272989E+02 -0.15885890688E+03  0.16641850790E+03  0.00000000000E+00 0. -1.
</event>
<event>
 7    1  0.5139898E-006  0.6251335E+02  0.7818608E-02  0.1467086E+00
          2   -1    0    0  502    0  0.00000000000E+00  0.00000000000E+00  0.88294544032E+03  0.88294544032E+03  0.00000000000E+00 0. -1.
          1   -1    0    0  501    0 -0.00000000000E+00 -0.00000000000E+00 -0.10265150401E+03  0.10265150401E+03  0.00000000000E+00 0. -1.
         25    2    1    2    0    0  0.28372446733E+02  0.42535493510E+02 -0.25395868925E+02  0.13742114057E+03  0.12500142310E+03 0.  0.
          2    1    1    2  501    0 -0.27451737020E+02  0.20261487761E+02 -0.54988771851E+01  0.34559563105E+02  0.00000000000E+00 0. -1.
          1    1    1    2  502    0 -0.92070971283E+00 -0.62796981271E+02  0.81118868242E+03  0.81361624065E+03  0.00000000000E+00 0. -1.
         22    1    3    3    0    0  0.13962801227E+02  0.19434753680E+02 -0.76152082223E+02  0.79823612394E+02  0.00000000000E+00 0. -1.
         22    1    3    3    0    0  0.14409645506E+02  0.23100739830E+02  0.50756213298E+02  0.57597528181E+02  0.00000000000E+00 0. -1.
</event>
<event>
 7    1  0.5139898E-006  0.7241297E+02  0.7818608E-02  0.1471679E+00
          2   -1    0    0  502    0  0.00000000000E+00  0.00000000000E+00  0.15175450062E+03  0.15175450062E+03  0.00000000000E+00 0. -1.
          1   -1    0    0  501    0 -0.00000000000E+00 -0.00000000000E+00 -0.10220964089E+04  0.10220964089E+04  0.00000000000E+00 0. -1.
         25    2    1    2    0    0 -0.70094010179E+02 -0.29257783627E+02 -0.65295805212E+03  0.66914111688E+03  0.12500571311E+03 0.  0.
          2    1    1    2  501    0  0.72513674399E+02  0.85997733387E+00 -0.35594021331E+03  0.36325254024E+03  0.00000000000E+00 0. -1.
          1    1    1    2  502    0 -0.24196642195E+01  0.28397806294E+02  0.13855635710E+03  0.14145725245E+03  0.00000000000E+00 0. -1.
         22    1    3    3    0    0 -0.55805594820E+02  0.39481798528E+01 -0.61183744295E+03  0.61438986738E+03  0.00000000000E+00 0.  1.
         22    1    3    3    0    0 -0.14288415360E+02 -0.33205963480E+02 -0.41120609165E+02  0.54751249504E+02  0.00000000000E+00 0.  1.
</event>
<event>
 7    1  0.5139898E-006  0.5391533E+02  0.7818608E-02  0.1472990E+00
          2   -1    0    0  502    0  0.00000000000E+00  0.00000000000E+00  0.73838271772E+03  0.73838271772E+03  0.00000000000E+00 0. -1.
          1   -1    0    0  501    0 -0.00000000000E+00 -0.00000000000E+00 -0.13118474318E+04  0.13118474318E+04  0.00000000000E+00 0. -1.
         25    2    1    2    0    0  0.37223018278E+02  0.42759116493E+01  0.97714086378E+02  0.16302472054E+03  0.12500072128E+03 0.  0.
          2    1    1    2  501    0  0.66355293470E+01 -0.37337303066E+02 -0.12776698479E+04  0.12782325081E+04  0.00000000000E+00 0. -1.
          1    1    1    2  502    0 -0.43858547625E+02  0.33061391417E+02  0.60649104743E+03  0.60897292092E+03  0.00000000000E+00 0. -1.
         22    1    3    3    0    0  0.28556083161E+02 -0.12219695987E+02  0.12565678481E+03  0.12943878254E+03  0.00000000000E+00 0. -1.
         22    1    3    3    0    0  0.86669351174E+01  0.16495607637E+02 -0.27942698437E+02  0.33585938003E+02  0.00000000000E+00 0. -1.
</event>
<event>
 7    1  0.5139898E-006  0.4843651E+02  0.7818608E-02  0.1482741E+00
          2   -1    0    0  502    0  0.00000000000E+00  0.00000000000E+00  0.36893398910E+03  0.36893398910E+03  0.00000000000E+00 0. -1.
          1   -1    0    0  501    0 -0.00000000000E+00 -0.00000000000E+00 -0.62481694863E+03  0.62481694863E+03  0.00000000000E+00 0. -1.
         25    2    1    2    0    0  0.75994060897E+00  0.17657594471E+02  0.15343332936E+03  0.19869330801E+03  0.12499950375E+03 0.  0.
          2    1    1    2  501    0 -0.24775496383E+02  0.30628131552E+02 -0.59775619217E+03  0.59905289661E+03  0.00000000000E+00 0. -1.
          1    1    1    2  502    0  0.24015555774E+02 -0.48285726023E+02  0.18843990327E+03  0.19600473311E+03  0.00000000000E+00 0. -1.
         22    1    3    3    0    0  0.14955583591E+02  0.70211309325E+02  0.88970770191E+02  0.11432014427E+03  0.00000000000E+00 0.  1.
         22    1    3    3    0    0 -0.14195642982E+02 -0.52553714855E+02  0.64462559173E+02  0.84373163742E+02  0.00000000000E+00 0.  1.
</event>
<event>
 7    1  0.5139898E-006  0.1177898E+03  0.7818608E-02  0.1272991E+00
          2   -1    0    0  502    0  0.00000000000E+00  0.00000000000E+00  0.21548454621E+04  0.21548454621E+04  0.00000000000E+00 0. -1.
          1   -1    0    0  501    0 -0.00000000000E+00 -0.00000000000E+00 -0.80321032950E+03  0.80321032950E+03  0.00000000000E+00 0. -1.
         25    2    1    2    0    0 -0.11026302940E+03 -0.49213572624E+02 -0.36189135649E+02  0.17752343339E+03  0.12500001793E+03 0.  0.
          2    1    1    2  501    0  0.11243079574E+03 -0.41802910994E+02 -0.69018439037E+03  0.70053027052E+03  0.00000000000E+00 0. -1.
          1    1    1    2  502    0 -0.21677663393E+01  0.91016483617E+02  0.20780086586E+04  0.20800020876E+04  0.00000000000E+00 0. -1.
         22    1    3    3    0    0  0.35210258734E+01 -0.72692483413E+01 -0.54310730655E+02  0.54908060054E+02  0.00000000000E+00 0.  1.
         22    1    3    3    0    0 -0.11378405527E+03 -0.41944324282E+02  0.18121595006E+02  0.12261537334E+03  0.00000000000E+00 0.  1.
</event>
<event>
 7    1  0.5139898E-006  0.1167244E+03  0.7818608E-02  0.1392531E+00
          2   -1    0    0  502    0  0.00000000000E+00  0.00000000000E+00  0.11519451479E+04  0.11519451479E+04  0.00000000000E+00 0. -1.
          1   -1    0    0  501    0 -0.00000000000E+00 -0.00000000000E+00 -0.13342934139E+03  0.13342934139E+03  0.00000000000E+00 0. -1.
         25    2    1    2    0    0 -0.13244321385E+03  0.60509193472E+02  0.84645360303E+03  0.86793510077E+03  0.12500027868E+03 0.  0.
          2    1    1    2  501    0  0.10038806322E+03 -0.57753840939E+02 -0.94170693010E+02  0.14926951732E+03  0.00000000000E+00 0. -1.
          1    1    1    2  502    0  0.32055150629E+02 -0.27553525327E+01  0.26623289649E+03  0.26816987120E+03  0.00000000000E+00 0. -1.
         22    1    3    3    0    0  0.14354787397E+01  0.18961192726E+02  0.13627499367E+02  0.23394361881E+02  0.00000000000E+00 0. -1.
         22    1    3    3    0    0 -0.13387869259E+03  0.41548000745E+02  0.83282610367E+03  0.84454073889E+03  0.00000000000E+00 0. -1.
</event>
<event>
 7    1  0.5139898E-006  0.9454576E+02  0.7818608E-02  0.1326334E+00
          2   -1    0    0  502    0  0.00000000000E+00  0.00000000000E+00  0.15564068304E+04  0.15564068304E+04  0.00000000000E+00 0. -1.
          1   -1    0    0  501    0 -0.00000000000E+00 -0.00000000000E+00 -0.13045882853E+04  0.13045882853E+04  0.00000000000E+00 0. -1.
         25    2    1    2    0    0  0.11505529529E+03  0.86770485944E+02  0.35261806013E+03  0.40091357792E+03  0.12500144970E+03 0.  0.
          2    1    1    2  501    0 -0.68917808800E+02 -0.75991217375E+01 -0.12777196570E+04  0.12795995205E+04  0.00000000000E+00 0. -1.
          1    1    1    2  502    0 -0.46137486491E+02 -0.79171364206E+02  0.11769201419E+04  0.11804820172E+04  0.00000000000E+00 0. -1.
         22    1    3    3    0    0 -0.18686476575E+02  0.44975306915E+02  0.11773668203E+03  0.12741227937E+03  0.00000000000E+00 0. -1.
         22    1    3    3    0    0  0.13374177187E+03  0.41795179029E+02  0.23488137810E+03  0.27350129855E+03  0.00000000000E+00 0. -1.
</event>
<event>
 7    1  0.5139898E-006  0.1730427E+03  0.7818608E-02  0.1276679E+00
          2   -1    0    0  502    0  0.00000000000E+00  0.00000000000E+00  0.12030350331E+04  0.12030350331E+04  0.00000000000E+00 0. -1.
          1   -1    0    0  501    0 -0.00000000000E+00 -0.00000000000E+00 -0.11960949808E+03  0.11960949808E+03  0.00000000000E+00 0. -1.
         25    2    1    2    0    0 -0.28202460542E+02 -0.15971326498E+03  0.37352398660E+03  0.42596784921E+03  0.12499893681E+03 0.  0.
          2    1    1    2  501    0 -0.59752824264E+02  0.27817727877E+01 -0.72424294110E+02  0.93933043413E+02  0.00000000000E+00 0. -1.
          1    1    1    2  502    0  0.87955284806E+02  0.15693149219E+03  0.78232584253E+03  0.80274363856E+03  0.00000000000E+00 0. -1.
         22    1    3    3    0    0 -0.19333427363E+02 -0.96292463517E+02  0.33956424745E+03  0.35348252869E+03  0.00000000000E+00 0. -1.
         22    1    3    3    0    0 -0.88690331787E+01 -0.63420801459E+02  0.33959739150E+02  0.72485320517E+02  0.00000000000E+00 0. -1.
</event>
<event>
 7    1  0.5139898E-006  0.1055371E+03  0.7818608E-02  0.1290434E+00
          2   -1    0    0  502    0  0.00000000000E+00  0.00000000000E+00  0.12260346586E+04  0.12260346586E+04  0.00000000000E+00 0. -1.
          1   -1    0    0  501    0 -0.00000000000E+00 -0.00000000000E+00 -0.30560697936E+03  0.30560697936E+03  0.00000000000E+00 0. -1.
         25    2    1    2    0    0 -0.10157590113E+03 -0.31152322638E+02  0.10055570122E+03  0.19241575061E+03  0.12499696452E+03 0.  0.
          2    1    1    2  501    0  0.55464136738E+02 -0.65869780375E+02 -0.24977315716E+03  0.26420016743E+03  0.00000000000E+00 0. -1.
          1    1    1    2  502    0  0.46111764389E+02  0.97022103012E+02  0.10696451352E+04  0.10750257199E+04  0.00000000000E+00 0. -1.
         22    1    3    3    0    0 -0.13100851538E+02  0.29781029186E+02  0.75344978784E+02  0.82069530512E+02  0.00000000000E+00 0. -1.
         22    1    3    3    0    0 -0.88475049589E+02 -0.60933351823E+02  0.25210722437E+02  0.11034622010E+03  0.00000000000E+00 0. -1.
</event>
<event>
 7    1  0.5139898E-006  0.1891408E+03  0.7818608E-02  0.1213240E+00
          2   -1    0    0  502    0  0.00000000000E+00  0.00000000000E+00  0.60411166046E+03  0.60411166046E+03  0.00000000000E+00 0. -1.
          1   -1    0    0  501    0 -0.00000000000E+00 -0.00000000000E+00 -0.94927413296E+03  0.94927413296E+03  0.00000000000E+00 0. -1.
         25    2    1    2    0    0 -0.20538264008E+03  0.67392931129E+02 -0.11435641483E+03  0.27466186823E+03  0.12505165427E+03 0.  0.
          2    1    1    2  501    0  0.18536155686E+03  0.34381399829E+02 -0.73765801397E+03  0.76136740999E+03  0.00000000000E+00 0. -1.
          1    1    1    2  502    0  0.20021083222E+02 -0.10177433096E+03  0.50685195631E+03  0.51735651521E+03  0.00000000000E+00 0. -1.
         22    1    3    3    0    0 -0.65188549472E+02 -0.17938325285E+02 -0.83877042681E+02  0.10773434357E+03  0.00000000000E+00 0. -1.
         22    1    3    3    0    0 -0.14019409060E+03  0.85331256415E+02 -0.30479372153E+02  0.16692752466E+03  0.00000000000E+00 0. -1.
</event>
<event>
 7    1  0.5139898E-006  0.8573311E+02  0.7818608E-02  0.1409796E+00
          2   -1    0    0  502    0  0.00000000000E+00  0.00000000000E+00  0.28256312917E+03  0.28256312917E+03  0.00000000000E+00 0. -1.
          1   -1    0    0  501    0 -0.00000000000E+00 -0.00000000000E+00 -0.10871682627E+04  0.10871682627E+04  0.00000000000E+00 0. -1.
         25    2    1    2    0    0  0.28000576923E+02 -0.44482195319E+02  0.25669316140E+01  0.13563102755E+03  0.12500595381E+03 0.  0.
          2    1    1    2  501    0  0.24847321599E+02 -0.29035270356E+02 -0.10106580015E+04  0.10113802609E+04  0.00000000000E+00 0. -1.
          1    1    1    2  502    0 -0.52847898522E+02  0.73517465676E+02  0.20348593636E+03  0.22272010334E+03  0.00000000000E+00 0. -1.
         22    1    3    3    0    0 -0.19786232342E+02 -0.71955468046E+02 -0.18053504702E+02  0.76778990642E+02  0.00000000000E+00 0.  1.
         22    1    3    3    0    0  0.47786809264E+02  0.27473272727E+02  0.20620436316E+02  0.58852036905E+02  0.00000000000E+00 0.  1.
</event>
<event>
 7    1  0.5139898E-006  0.1487185E+03  0.7818608E-02  0.1418099E+00
          2   -1    0    0  502    0  0.00000000000E+00  0.00000000000E+00  0.70739501653E+03  0.70739501653E+03  0.00000000000E+00 0. -1.
          1   -1    0    0  501    0 -0.00000000000E+00 -0.00000000000E+00 -0.16371847495E+03  0.16371847495E+03  0.00000000000E+00 0. -1.
         25    2    1    2    0    0  0.13518816663E+03 -0.17670194722E+02  0.27663517723E+03  0.33277622427E+03  0.12499967192E+03 0.  0.
          2    1    1    2  501    0  0.19787980400E+02  0.59256866169E+01 -0.11973420406E+03  0.12150291170E+03  0.00000000000E+00 0. -1.
          1    1    1    2  502    0 -0.15497614703E+03  0.11744508105E+02  0.38677556840E+03  0.41683435551E+03  0.00000000000E+00 0. -1.
         22    1    3    3    0    0  0.84541172839E+01 -0.35285396357E+02  0.14392913089E+03  0.14843222700E+03  0.00000000000E+00 0. -1.
         22    1    3    3    0    0  0.12673404935E+03  0.17615201635E+02  0.13270604635E+03  0.18434399727E+03  0.00000000000E+00 0. -1.
</event>
<event>
 7    1  0.5139898E-006  0.1792650E+03  0.7818608E-02  0.1310168E+00
          2   -1    0    0  502    0  0.00000000000E+00  0.00000000000E+00  0.20348158266E+04  0.20348158266E+04  0.00000000000E+00 0. -1.
          1   -1    0    0  501    0 -0.00000000000E+00 -0.00000000000E+00 -0.73618870251E+03  0.73618870251E+03  0.00000000000E+00 0. -1.
         25    2    1    2    0    0  0.11964656250E+03  0.72614815155E+02  0.15434624086E+03  0.24297369702E+03  0.12500097631E+03 0.  0.
          2    1    1    2  501    0 -0.15095422345E+03 -0.10101049733E+03 -0.67970531361E+03  0.70355498115E+03  0.00000000000E+00 0. -1.
          1    1    1    2  502    0  0.31307660955E+02  0.28395682179E+02  0.18239861968E+04  0.18244758509E+04  0.00000000000E+00 0. -1.
         22    1    3    3    0    0  0.28512774718E+02 -0.25192586628E+02 -0.95353363212E+00  0.38059873483E+02  0.00000000000E+00 0.  1.
         22    1    3    3    0    0  0.91133787779E+02  0.97807401783E+02  0.15529977449E+03  0.20491382354E+03  0.00000000000E+00 0.  1.
</event>
<event>
 7    1  0.5139898E-006  0.1355746E+03  0.7818608E-02  0.1351943E+00
          2   -1    0    0  502    0  0.00000000000E+00  0.00000000000E+00  0.55889494938E+03  0.55889494938E+03  0.00000000000E+00 0. -1.
          1   -1    0    0  501    0 -0.00000000000E+00 -0.00000000000E+00 -0.56541796963E+03  0.56541796963E+03  0.00000000000E+00 0. -1.
         25    2    1    2    0    0 -0.11313192262E+03  0.11942200774E+03 -0.71344987691E+02  0.21857638524E+03  0.12500032427E+03 0.  0.
          2    1    1    2  501    0  0.10303278593E+03 -0.82041689485E+02 -0.40933457843E+03  0.43000161730E+03  0.00000000000E+00 0. -1.
          1    1    1    2  502    0  0.10099136699E+02 -0.37380318252E+02  0.47415654586E+03  0.47573491646E+03  0.00000000000E+00 0. -1.
         22    1    3    3    0    0  0.22369102340E+02  0.37661801716E+02  0.26316087210E+01  0.43882951273E+02  0.00000000000E+00 0. -1.
         22    1    3    3    0    0 -0.13550102496E+03  0.81760206021E+02 -0.73976596412E+02  0.17469343397E+03  0.00000000000E+00 0. -1.
</event>
<event>
 7    1  0.5139898E-006  0.8082547E+02  0.7818608E-02  0.1476553E+00
          2   -1    0    0  502    0  0.00000000000E+00  0.00000000000E+00  0.58515374119E+03  0.58515374119E+03  0.00000000000E+00 0. -1.
          1   -1    0    0  501    0 -0.00000000000E+00 -0.00000000000E+00 -0.59393457607E+03  0.59393457607E+03  0.00000000000E+00 0. -1.
         25    2    1    2    0    0 -0.49886840444E+02  0.28562676616E+02 -0.31651896078E+02  0.14117764240E+03  0.12499904337E+03 0.  0.
          2    1    1    2  501    0 -0.23655096090E+02  0.69796244273E+01 -0.50407182024E+03  0.50467482470E+03  0.00000000000E+00 0. -1.
          1    1    1    2  502    0  0.73541936534E+02 -0.35542301043E+02  0.52694288144E+03  0.53323585016E+03  0.00000000000E+00 0. -1.
         22    1    3    3    0    0 -0.40352112103E+02  0.58087469077E+01  0.44960049246E+02  0.60691354574E+02  0.00000000000E+00 0. -1.
         22    1    3    3    0    0 -0.95347283417E+01  0.22753929708E+02 -0.76611945324E+02  0.80486287827E+02  0.00000000000E+00 0. -1.
</event>
<event>
 7    1  0.5139898E-006  0.9400085E+02  0.7818608E-02  0.1329898E+00
          2   -1    0    0  502    0  0.00000000000E+00  0.00000000000E+00  0.11035663062E+03  0.11035663062E+03  0.00000000000E+00 0. -1.
          1   -1    0    0  501    0 -0.00000000000E+00 -0.00000000000E+00 -0.62206467055E+03  0.62206467055E+03  0.00000000000E+00 0. -1.
         25    2    1    2    0    0  0.61977014525E+02  0.52850032683E+00 -0.45737677743E+02  0.14682591221E+03  0.12499793474E+03 0.  0.
          2    1    1    2  501    0  0.42025444715E+02  0.52922375694E+02 -0.46374227566E+03  0.46864038887E+03  0.00000000000E+00 0. -1.
          1    1    1    2  502    0 -0.10400245924E+03 -0.53450876020E+02 -0.22280865297E+01  0.11695500008E+03  0.00000000000E+00 0. -1.
         22    1    3    3    0    0  0.93568230556E+02  0.18101104146E+02 -0.54285386780E+02  0.10967938256E+03  0.00000000000E+00 0. -1.
         22    1    3    3    0    0 -0.31591216031E+02 -0.17572603819E+02  0.85477090368E+01  0.37146529651E+02  0.00000000000E+00 0. -1.
</event>
<event>
 7    1  0.5139898E-006  0.2684986E+02  0.7818608E-02  0.1684630E+00
          2   -1    0    0  502    0  0.00000000000E+00  0.00000000000E+00  0.15566325977E+04  0.15566325977E+04  0.00000000000E+00 0. -1.
          1   -1    0    0  501    0 -0.00000000000E+00 -0.00000000000E+00 -0.38584429748E+03  0.38584429748E+03  0.00000000000E+00 0. -1.
         25    2    1    2    0    0 -0.14544122881E+02 -0.28958831777E+02  0.65212764674E+03  0.66479002469E+03  0.12500065531E+03 0.  0.
          2    1    1    2  501    0 -0.57197092977E+01  0.26234781095E+02 -0.37892160523E+03  0.37987177011E+03  0.00000000000E+00 0. -1.
          1    1    1    2  502    0  0.20263832178E+02  0.27240506824E+01  0.89758225875E+03  0.89781510044E+03  0.00000000000E+00 0. -1.
         22    1    3    3    0    0  0.53839026325E+02  0.72157036533E+00  0.30922420657E+03  0.31387700035E+03  0.00000000000E+00 0. -1.
         22    1    3    3    0    0 -0.68383149206E+02 -0.29680402142E+02  0.34290344018E+03  0.35091302434E+03  0.00000000000E+00 0. -1.
</event>
<event>
 7    1  0.5139898E-006  0.1140929E+03  0.7818608E-02  0.1295912E+00
          2   -1    0    0  502    0  0.00000000000E+00  0.00000000000E+00  0.15206036307E+04  0.15206036307E+04  0.00000000000E+00 0. -1.
          1   -1    0    0  501    0 -0.00000000000E+00 -0.00000000000E+00 -0.28784772630E+04  0.28784772630E+04  0.00000000000E+00 0. -1.
         25    2    1    2    0    0  0.12834264476E+03  0.49967810952E+02  0.18841585436E+03  0.26475960703E+03  0.12501399421E+03 0.  0.
          2    1    1    2  501    0 -0.11156870884E+03  0.23839868430E+02 -0.28380515007E+04  0.28403436828E+04  0.00000000000E+00 0. -1.
          1    1    1    2  502    0 -0.16773935922E+02 -0.73807679382E+02  0.12917620140E+04  0.12939776039E+04  0.00000000000E+00 0. -1.
         22    1    3    3    0    0  0.67639449714E+02 -0.39156043498E+02  0.77545098086E+02  0.11009783439E+03  0.00000000000E+00 0. -1.
         22    1    3    3    0    0  0.60703195046E+02  0.89123854450E+02  0.11087075627E+03  0.15466177264E+03  0.00000000000E+00 0. -1.
</event>
<event>
 7    1  0.5139898E-006  0.1537421E+03  0.7818608E-02  0.1312092E+00
          2   -1    0    0  502    0  0.00000000000E+00  0.00000000000E+00  0.43601993826E+03  0.43601993826E+03  0.00000000000E+00 0. -1.
          1   -1    0    0  501    0 -0.00000000000E+00 -0.00000000000E+00 -0.45596302777E+03  0.45596302777E+03  0.00000000000E+00 0. -1.
         25    2    1    2    0    0  0.20247438544E+02 -0.15139533422E+03  0.30863194895E+02  0.19976963375E+03  0.12499945510E+03 0.  0.
          2    1    1    2  501    0  0.47074050993E+02  0.11387560937E+02 -0.35093501568E+03  0.35426124266E+03  0.00000000000E+00 0. -1.
          1    1    1    2  502    0 -0.67321489537E+02  0.14000777329E+03  0.30012873128E+03  0.33795208961E+03  0.00000000000E+00 0. -1.
         22    1    3    3    0    0  0.97694647865E+01 -0.66137405387E+02  0.77236391619E+02  0.10215213666E+03  0.00000000000E+00 0.  1.
         22    1    3    3    0    0  0.10477973758E+02 -0.85257928835E+02 -0.46373196724E+02  0.97617497088E+02  0.00000000000E+00 0.  1.
</event>
<event>
 7    1  0.5139898E-006  0.6136765E+02  0.7818608E-02  0.1404031E+00
          2   -1    0    0  502    0  0.00000000000E+00  0.00000000000E+00  0.11886831632E+03  0.11886831632E+03  0.00000000000E+00 0. -1.
          1   -1    0    0  501    0 -0.00000000000E+00 -0.00000000000E+00 -0.16024631302E+04  0.16024631302E+04  0.00000000000E+00 0. -1.
         25    2    1    2    0    0  0.57882081967E+02 -0.96221730898E+02  0.18576532016E+02  0.16902836123E+03  0.12496616522E+03 0.  0.
          2    1    1    2  501    0 -0.16404832301E+02  0.58810785589E+02 -0.14947031036E+04  0.14959495964E+04  0.00000000000E+00 0. -1.
          1    1    1    2  502    0 -0.41477249667E+02  0.37410945309E+02 -0.74682423075E+01  0.56353488907E+02  0.00000000000E+00 0. -1.
         22    1    3    3    0    0  0.38376420247E+01 -0.83986915503E+02  0.57020111010E+02  0.10158652731E+03  0.00000000000E+00 0. -1.
         22    1    3    3    0    0  0.54044439943E+02 -0.12234815395E+02 -0.38443578993E+02  0.67441833918E+02  0.00000000000E+00 0. -1.
</event>
<event>
 7    1  0.5139898E-006  0.5723302E+02  0.7818608E-02  0.1486699E+00
          2   -1    0    0  502    0  0.00000000000E+00  0.00000000000E+00  0.96620562873E+02  0.96620562873E+02  0.00000000000E+00 0. -1.
          1   -1    0    0  501    0 -0.00000000000E+00 -0.00000000000E+00 -0.92547802654E+03  0.92547802654E+03  0.00000000000E+00 0. -1.
         25    2    1    2    0    0 -0.29215998637E+01  0.29309264983E+02 -0.10198300684E+03  0.16399326195E+03  0.12500275005E+03 0.  0.
          2    1    1    2  501    0 -0.15086845174E+02 -0.56275037643E+02 -0.78734058126E+03  0.78949330818E+03  0.00000000000E+00 0. -1.
          1    1    1    2  502    0  0.18008445038E+02  0.26965772660E+02  0.60466124428E+02  0.68612019291E+02  0.00000000000E+00 0. -1.
         22    1    3    3    0    0  0.57545852332E+02  0.49080703605E+01 -0.71786592319E+02  0.92135384691E+02  0.00000000000E+00 0. -1.
         22    1    3    3    0    0 -0.60467452196E+02  0.24401194623E+02 -0.30196414520E+02  0.71857877258E+02  0.00000000000E+00 0. -1.
</event>
<event>
 7    1  0.5139898E-006  0.1711156E+03  0.7818608E-02  0.1297303E+00
          2   -1    0    0  502    0  0.00000000000E+00  0.00000000000E+00  0.38479297705E+03  0.38479297705E+03  0.00000000000E+00 0. -1.
          1   -1    0    0  501    0 -0.00000000000E+00 -0.00000000000E+00 -0.18565289465E+04  0.18565289465E+04  0.00000000000E+00 0. -1.
         25    2    1    2    0    0 -0.50710442830E+01 -0.18597555986E+03  0.29355178583E+03  0.36934083753E+03  0.12500951541E+03 0.  0.
          2    1    1    2  501    0 -0.33643987980E+01  0.49706503998E+02 -0.17303297141E+04  0.17310467860E+04  0.00000000000E+00 0. -1.
          1    1    1    2  502    0  0.84354430810E+01  0.13626905587E+03 -0.34958041177E+02  0.14093430005E+03  0.00000000000E+00 0. -1.
         22    1    3    3    0    0  0.55432932043E+01 -0.29826544061E+01 -0.11697915266E+02  0.13284033590E+02  0.00000000000E+00 0. -1.
         22    1    3    3    0    0 -0.10614337487E+02 -0.18299290546E+03  0.30524970110E+03  0.35605680394E+03  0.00000000000E+00 0. -1.
</event>
<event>
 7    1  0.5139898E-006  0.1641885E+03  0.7818608E-02  0.1297211E+00
          2   -1    0    0  502    0  0.00000000000E+00  0.00000000000E+00  0.12486306390E+04  0.12486306390E+04  0.00000000000E+00 0. -1.
          1   -1    0    0  501    0 -0.00000000000E+00 -0.00000000000E+00 -0.10579842963E+04  0.10579842963E+04  0.00000000000E+00 0. -1.
         25    2    1    2    0    0  0.10196495873E+03 -0.64987714039E+02 -0.42593824073E+02  0.17905109167E+03  0.12499921517E+03 0.  0.
          2    1    1    2  501    0 -0.15362051273E+03  0.70662671816E+02 -0.93903473913E+03  0.95413768210E+03  0.00000000000E+00 0. -1.
          1    1    1    2  502    0  0.51655553997E+02 -0.56749577770E+01  0.11722749059E+04  0.11734261615E+04  0.00000000000E+00 0. -1.
         22    1    3    3    0    0 -0.40562337400E+00 -0.47767013239E+02 -0.56864480063E+02  0.74265881648E+02  0.00000000000E+00 0.  1.
         22    1    3    3    0    0  0.10237058210E+03 -0.17220700800E+02  0.14270655990E+02  0.10478521002E+03  0.00000000000E+00 0.  1.
</event>
<event>
 7    1  0.5139898E-006  0.9269865E+02  0.7818608E-02  0.1345787E+00
          2   -1    0    0  502    0  0.00000000000E+00  0.00000000000E+00  0.16352517335E+04  0.16352517335E+04  0.00000000000E+00 0. -1.
          1   -1    0    0  501    0 -0.00000000000E+00 -0.00000000000E+00 -0.39078881979E+02  0.39078881979E+02  0.00000000000E+00 0. -1.
         25    2    1    2    0    0  0.10202287523E+03 -0.28426077378E+02  0.58585904283E+03  0.60833536431E+03  0.12499755377E+03 0.  0.
          2    1    1    2  501    0 -0.13794642117E+02  0.58072905673E+02  0.89984260446E+01  0.60363285163E+02  0.00000000000E+00 0. -1.
          1    1    1    2  502    0 -0.88228233118E+02 -0.29646828295E+02  0.10013153827E+04  0.10056319660E+04  0.00000000000E+00 0. -1.
         22    1    3    3    0    0  0.10749510204E+03 -0.33479464307E+02  0.58942187001E+03  0.60007850515E+03  0.00000000000E+00 0.  1.
         22    1    3    3    0    0 -0.54722268025E+01  0.50533869290E+01 -0.35628271788E+01  0.82568591569E+01  0.00000000000E+00 0.  1.
</event>
<event>
 7    1  0.5139898E-006  0.2788937E+03  0.7818608E-02  0.1221537E+00
          2   -1    0    0  502    0  0.00000000000E+00  0.00000000000E+00  0.17057113936E+04  0.17057113936E+04  0.00000000000E+00 0. -1.
          1   -1    0    0  501    0 -0.00000000000E+00 -0.00000000000E+00 -0.14329712030E+04  0.14329712030E+04  0.00000000000E+00 0. -1.
         25    2    1    2    0    0  0.30136856032E+03 -0.13313111759E+03  0.33877294130E+03  0.48881440021E+03  0.12500203387E+03 0.  0.
          2    1    1    2  501    0 -0.64266780493E+02  0.48720826590E+01 -0.13431073330E+04  0.13446528415E+04  0.00000000000E+00 0. -1.
          1    1    1    2  502    0 -0.23710177983E+03  0.12825903494E+03  0.12770745822E+04  0.13052153549E+04  0.00000000000E+00 0. -1.
         22    1    3    3    0    0  0.23927103760E+03 -0.15123427438E+03  0.30399999912E+03  0.41537746044E+03  0.00000000000E+00 0. -1.
         22    1    3    3    0    0  0.62097522726E+02  0.18103156781E+02  0.34772942177E+02  0.73436939763E+02  0.00000000000E+00 0. -1.
</event>
<event>
 7    1  0.5139898E-006  0.5155411E+02  0.7818608E-02  0.1453749E+00
          2   -1    0    0  502    0  0.00000000000E+00  0.00000000000E+00  0.30351605136E+04  0.30351605136E+04  0.00000000000E+00 0. -1.
          1   -1    0    0  501    0 -0.00000000000E+00 -0.00000000000E+00 -0.18076555195E+02  0.18076555195E+02  0.00000000000E+00 0. -1.
         25    2    1    2    0    0 -0.76279356787E+02 -0.57746290706E+02  0.20959760319E+04  0.21018787031E+04  0.12500152719E+03 0.  0.
          2    1    1    2  501    0  0.37090224803E+02  0.34474122055E+02  0.29535382516E+02  0.58621571863E+02  0.00000000000E+00 0. -1.
          1    1    1    2  502    0  0.39189131984E+02  0.23272168652E+02  0.89157254402E+03  0.89273679389E+03  0.00000000000E+00 0. -1.
         22    1    3    3    0    0  0.15261747691E+02 -0.59367487422E+02  0.10987873232E+04  0.11004957979E+04  0.00000000000E+00 0.  1.
         22    1    3    3    0    0 -0.91541104478E+02  0.16211967158E+01  0.99718870872E+03  0.10013829052E+04  0.00000000000E+00 0.  1.
</event>
<event>
 7    1  0.5139898E-006  0.8211500E+02  0.7818608E-02  0.1388671E+00
          2   -1    0    0  502    0  0.00000000000E+00  0.00000000000E+00  0.28641034001E+03  0.28641034001E+03  0.00000000000E+00 0. -1.
          1   -1    0    0  501    0 -0.00000000000E+00 -0.00000000000E+00 -0.35008420570E+03  0.35008420570E+03  0.00000000000E+00 0. -1.
         25    2    1    2    0    0 -0.38563424861E+02 -0.11999196286E+03  0.12016507391E+03  0.21436259800E+03  0.12500587805E+03 0.  0.
          2    1    1    2  501    0  0.14542800357E+02  0.79392308940E+02 -0.29262812513E+03  0.30355535142E+03  0.00000000000E+00 0. -1.
          1    1    1    2  502    0  0.24020624504E+02  0.40599653918E+02  0.10878918552E+03  0.11857659628E+03  0.00000000000E+00 0. -1.
         22    1    3    3    0    0 -0.20352023555E+02 -0.14464523458E+03  0.10667132309E+03  0.18087349148E+03  0.00000000000E+00 0.  1.
         22    1    3    3    0    0 -0.18211401307E+02  0.24653271726E+02  0.13493750823E+02  0.33489106522E+02  0.00000000000E+00 0.  1.
</event>
<event>
 7    1  0.5139898E-006  0.4901795E+02  0.7818608E-02  0.1536787E+00
          2   -1    0    0  502    0  0.00000000000E+00  0.00000000000E+00  0.12052746052E+04  0.12052746052E+04  0.00000000000E+00 0. -1.
          1   -1    0    0  501    0 -0.00000000000E+00 -0.00000000000E+00 -0.39775245459E+02  0.39775245459E+02  0.00000000000E+00 0. -1.
         25    2    1    2    0    0 -0.18260776463E+01 -0.23103116172E+02  0.47425430372E+03  0.49100092339E+03  0.12501069412E+03 0.  0.
          2    1    1    2  501    0  0.13515052840E+01  0.50079816065E+02 -0.10995288149E+02  0.51290456278E+02  0.00000000000E+00 0. -1.
          1    1    1    2  502    0  0.47457236237E+00 -0.26976699894E+02  0.70224034420E+03  0.70275847101E+03  0.00000000000E+00 0. -1.
         22    1    3    3    0    0  0.41678980608E+02  0.93493077922E+01  0.62603844768E+02  0.75787785035E+02  0.00000000000E+00 0. -1.
         22    1    3    3    0    0 -0.43505058255E+02 -0.32452423964E+02  0.41165045895E+03  0.41521313836E+03  0.00000000000E+00 0. -1.
</event>
<event>
 7    1  0.1215490E-005  0.9046534E+02  0.7818608E-02  0.1309242E+00
          2   -1    0    0  502    0  0.00000000000E+00  0.00000000000E+00  0.91392786894E+03  0.91392786894E+03  0.00000000000E+00 0. -1.
          1   -1    0    0  501    0 -0.00000000000E+00 -0.00000000000E+00 -0.19656907724E+04  0.19656907724E+04  0.00000000000E+00 0. -1.
         25    2    1    2    0    0 -0.10918722507E+03 -0.21929001921E+02 -0.29848671996E+03  0.34223081020E+03  0.12499949686E+03 0.  0.
          2    1    1    2  501    0  0.46501395081E+02  0.78535742375E+02 -0.16420626136E+04  0.16445971755E+04  0.00000000000E+00 0. -1.
          1    1    1    2  502    0  0.62685829990E+02 -0.56606740454E+02  0.88878643014E+03  0.89279065562E+03  0.00000000000E+00 0. -1.
         22    1    3    3    0    0 -0.67489359204E+01  0.26625341095E+02 -0.16424816355E+03  0.16652902496E+03  0.00000000000E+00 0. -1.
         22    1    3    3    0    0 -0.10243828915E+03 -0.48554343017E+02 -0.13423855641E+03  0.17570178524E+03  0.00000000000E+00 0. -1.
</event>
<event>
 7    1  0.5139898E-006  0.1769343E+03  0.7818608E-02  0.1256008E+00
          2   -1    0    0  502    0  0.00000000000E+00  0.00000000000E+00  0.64845442375E+03  0.64845442375E+03  0.00000000000E+00 0. -1.
          1   -1    0    0  501    0 -0.00000000000E+00 -0.00000000000E+00 -0.79211456034E+03  0.79211456034E+03  0.00000000000E+00 0. -1.
         25    2    1    2    0    0  0.22142816874E+03 -0.11821240759E+02 -0.64917191932E+02  0.26269740683E+03  0.12500204040E+03 0.  0.
          2    1    1    2  501    0 -0.51755808184E+02  0.49376918113E+02 -0.61243565319E+03  0.61659887530E+03  0.00000000000E+00 0. -1.
          1    1    1    2  502    0 -0.16967236055E+03 -0.37555677354E+02  0.53369270852E+03  0.56127270196E+03  0.00000000000E+00 0. -1.
         22    1    3    3    0    0  0.12061231180E+03  0.50691901727E+02 -0.60098916056E+02  0.14397526999E+03  0.00000000000E+00 0. -1.
         22    1    3    3    0    0  0.10081585694E+03 -0.62513142486E+02 -0.48182758758E+01  0.11872213684E+03  0.00000000000E+00 0. -1.
</event>
<event>
 7    1  0.5139898E-006  0.3711282E+02  0.7818608E-02  0.1571570E+00
          2   -1    0    0  502    0  0.00000000000E+00  0.00000000000E+00  0.71954398146E+03  0.71954398146E+03  0.00000000000E+00 0. -1.
          1   -1    0    0  501    0 -0.00000000000E+00 -0.00000000000E+00 -0.49380015345E+03  0.49380015345E+03  0.00000000000E+00 0. -1.
         25    2    1    2    0    0 -0.17053577794E+02  0.10816898101E+02  0.13222341999E+02  0.12730883980E+03  0.12499952225E+03 0.  0.
          2    1    1    2  501    0 -0.18709042434E+02 -0.21546421676E+02 -0.43575306846E+03  0.43668640147E+03  0.00000000000E+00 0. -1.
          1    1    1    2  502    0  0.35762620227E+02  0.10729523575E+02  0.64827455448E+03  0.64934889364E+03  0.00000000000E+00 0. -1.
         22    1    3    3    0    0 -0.21075890930E+02  0.37774373482E+02 -0.45370786147E+02  0.62686559214E+02  0.00000000000E+00 0. -1.
         22    1    3    3    0    0  0.40223131362E+01 -0.26957475381E+02  0.58593128147E+02  0.64622280584E+02  0.00000000000E+00 0. -1.
</event>
<event>
 7    1  0.5139898E-006  0.7997970E+02  0.7818608E-02  0.1370121E+00
          2   -1    0    0  502    0  0.00000000000E+00  0.00000000000E+00  0.33556844195E+02  0.33556844195E+02  0.00000000000E+00 0. -1.
          1   -1    0    0  501    0 -0.00000000000E+00 -0.00000000000E+00 -0.18338242724E+04  0.18338242724E+04  0.00000000000E+00 0. -1.
         25    2    1    2    0    0  0.11169203852E+02 -0.30465258756E+02 -0.12524757784E+04  0.12591183424E+04  0.12502216495E+03 0.  0.
          2    1    1    2  501    0 -0.89642599620E+02  0.45914494762E+02 -0.50991696381E+03  0.51976845467E+03  0.00000000000E+00 0. -1.
          1    1    1    2  502    0  0.78473395768E+02 -0.15449236006E+02 -0.37874685985E+02  0.88494319450E+02  0.00000000000E+00 0. -1.
         22    1    3    3    0    0  0.21600766786E+02 -0.51398677110E+02 -0.24071587010E+03  0.24708813661E+03  0.00000000000E+00 0. -1.
         22    1    3    3    0    0 -0.10431562934E+02  0.20933418354E+02 -0.10117599083E+04  0.10120302058E+04  0.00000000000E+00 0. -1.
</event>
<event>
 7    1  0.5139898E-006  0.7009312E+02  0.7818608E-02  0.1382217E+00
          2   -1    0    0  502    0  0.00000000000E+00  0.00000000000E+00  0.29064871942E+04  0.29064871942E+04  0.00000000000E+00 0. -1.
          1   -1    0    0  501    0 -0.00000000000E+00 -0.00000000000E+00 -0.33496732446E+02  0.33496732446E+02  0.00000000000E+00 0. -1.
         25    2    1    2    0    0  0.17232095090E+02 -0.78722467080E+01  0.12004157468E+04  0.12070553356E+04  0.12500280337E+03 0.  0.
          2    1    1    2  501    0 -0.33759647145E+02  0.63703118907E+02  0.14136591884E+02  0.73468662462E+02  0.00000000000E+00 0. -1.
          1    1    1    2  502    0  0.16527552056E+02 -0.55830872199E+02  0.16584381231E+04  0.16594599286E+04  0.00000000000E+00 0. -1.
         22    1    3    3    0    0  0.64784732188E+02  0.38605228907E+01  0.92837144846E+03  0.93063715350E+03  0.00000000000E+00 0.  1.
         22    1    3    3    0    0 -0.47552637099E+02 -0.11732769599E+02  0.27204429830E+03  0.27641818213E+03  0.00000000000E+00 0.  1.
</event>
<event>
 7    1  0.5139898E-006  0.7231101E+02  0.7818608E-02  0.1472648E+00
          2   -1    0    0  502    0  0.00000000000E+00  0.00000000000E+00  0.21689717160E+04  0.21689717160E+04  0.00000000000E+00 0. -1.
          1   -1    0    0  501    0 -0.00000000000E+00 -0.00000000000E+00 -0.95169709128E+02  0.95169709128E+02  0.00000000000E+00 0. -1.
         25    2    1    2    0    0 -0.52002876822E+02 -0.23146014057E+01  0.79763784436E+03  0.80904943040E+03  0.12500077395E+03 0.  0.
          2    1    1    2  501    0 -0.22990138678E+02  0.16578345284E+02 -0.86123193726E+02  0.90667483181E+02  0.00000000000E+00 0. -1.
          1    1    1    2  502    0  0.74993015499E+02 -0.14263743878E+02  0.13622873562E+04  0.13644245115E+04  0.00000000000E+00 0. -1.
         22    1    3    3    0    0 -0.15092555341E+01 -0.58686106123E+02  0.39840531256E+03  0.40270725097E+03  0.00000000000E+00 0. -1.
         22    1    3    3    0    0 -0.50493621287E+02  0.56371504717E+02  0.39923253180E+03  0.40634217943E+03  0.00000000000E+00 0. -1.
</event>
<event>
 7    1  0.5139898E-006  0.1731184E+03  0.7818608E-02  0.1391630E+00
          2   -1    0    0  502    0  0.00000000000E+00  0.00000000000E+00  0.33393862402E+03  0.33393862402E+03  0.00000000000E+00 0. -1.
          1   -1    0    0  501    0 -0.00000000000E+00 -0.00000000000E+00 -0.14799837765E+04  0.14799837765E+04  0.00000000000E+00 0. -1.
         25    2    1    2    0    0 -0.15166751362E+03 -0.52440475982E+02 -0.67060188606E+03  0.70077396267E+03  0.12499687583E+03 0.  0.
          2    1    1    2  501    0  0.17337506531E+03  0.54931871499E+02 -0.78349319448E+03  0.80432456731E+03  0.00000000000E+00 0. -1.
          1    1    1    2  502    0 -0.21707551689E+02 -0.24913955164E+01  0.30804992805E+03  0.30882387055E+03  0.00000000000E+00 0. -1.
         22    1    3    3    0    0 -0.61558887776E+02 -0.49275375518E+02 -0.51447062111E+03  0.52047822171E+03  0.00000000000E+00 0. -1.
         22    1    3    3    0    0 -0.90108625847E+02 -0.31651004647E+01 -0.15613126495E+03  0.18029574096E+03  0.00000000000E+00 0. -1.
</event>
<event>
 7    1  0.5139898E-006  0.1051569E+03  0.7818608E-02  0.1329045E+00
          2   -1    0    0  502    0  0.00000000000E+00  0.00000000000E+00  0.71515293201E+03  0.71515293201E+03  0.00000000000E+00 0. -1.
          1   -1    0    0  501    0 -0.00000000000E+00 -0.00000000000E+00 -0.59366708671E+03  0.59366708671E+03  0.00000000000E+00 0. -1.
         25    2    1    2    0    0  0.18147905353E+02  0.79729165243E+02 -0.10106981486E+03  0.18035405284E+03  0.12500556245E+03 0.  0.
          2    1    1    2  501    0  0.60329033190E+02 -0.80574692921E+01 -0.44669826005E+03  0.45082574304E+03  0.00000000000E+00 0. -1.
          1    1    1    2  502    0 -0.78476938543E+02 -0.71671695951E+02  0.66925392021E+03  0.67764022283E+03  0.00000000000E+00 0. -1.
         22    1    3    3    0    0 -0.58194986976E+00 -0.13232915460E+02 -0.82708810224E+02  0.83762736380E+02  0.00000000000E+00 0. -1.
         22    1    3    3    0    0  0.18729855223E+02  0.92962080703E+02 -0.18361004634E+02  0.96591316465E+02  0.00000000000E+00 0. -1.
</event>
<event>
 7    1  0.5139898E-006  0.5063067E+02  0.7818608E-02  0.1537252E+00
          2   -1    0    0  502    0  0.00000000000E+00  0.00000000000E+00  0.22439910986E+02  0.22439910986E+02  0.00000000000E+00 0. -1.
          1   -1    0    0  501    0 -0.00000000000E+00 -0.00000000000E+00 -0.13662413075E+04  0.13662413075E+04  0.00000000000E+00 0. -1.
         25    2    1    2    0    0 -0.26949684260E+02  0.69799961638E+02 -0.51517732262E+03  0.53537978593E+03  0.12500208524E+03 0.  0.
          2    1    1    2  501    0  0.19501335952E+02 -0.44845582610E+02 -0.82564204868E+03  0.82708900424E+03  0.00000000000E+00 0. -1.
          1    1    1    2  502    0  0.74483483084E+01 -0.24954379028E+02 -0.29820252421E+01  0.26212428345E+02  0.00000000000E+00 0. -1.
         22    1    3    3    0    0  0.26774881664E+02 -0.24627532238E+02 -0.10823019580E+03  0.11418049271E+03  0.00000000000E+00 0. -1.
         22    1    3    3    0    0 -0.53724565924E+02  0.94427493877E+02 -0.40694712682E+03  0.42119929322E+03  0.00000000000E+00 0. -1.
</event>
<event>
 7    1  0.5139898E-006  0.5721140E+02  0.7818608E-02  0.1542952E+00
          2   -1    0    0  502    0  0.00000000000E+00  0.00000000000E+00  0.16430960060E+04  0.16430960060E+04  0.00000000000E+00 0. -1.
          1   -1    0    0  501    0 -0.00000000000E+00 -0.00000000000E+00 -0.73601472525E+02  0.73601472525E+02  0.00000000000E+00 0. -1.
         25    2    1    2    0    0  0.45091777763E+02  0.64357343909E+02  0.20242484335E+03  0.25054945983E+03  0.12499631386E+03 0.  0.
          2    1    1    2  501    0 -0.15276692834E+02 -0.16118152425E+02 -0.46452913711E+02  0.51488303272E+02  0.00000000000E+00 0. -1.
          1    1    1    2  502    0 -0.29815084929E+02 -0.48239191484E+02  0.14135226039E+04  0.14146597155E+04  0.00000000000E+00 0. -1.
         22    1    3    3    0    0  0.81557981224E+02  0.16191381583E+02  0.87459887466E+02  0.12067765764E+03  0.00000000000E+00 0. -1.
         22    1    3    3    0    0 -0.36466203461E+02  0.48165962325E+02  0.11496495589E+03  0.12987180219E+03  0.00000000000E+00 0. -1.
</event>
<event>
 7    1  0.5139898E-006  0.1093002E+03  0.7818608E-02  0.1288029E+00
          2   -1    0    0  502    0  0.00000000000E+00  0.00000000000E+00  0.32271675331E+03  0.32271675331E+03  0.00000000000E+00 0. -1.
          1   -1    0    0  501    0 -0.00000000000E+00 -0.00000000000E+00 -0.24027623930E+03  0.24027623930E+03  0.00000000000E+00 0. -1.
         25    2    1    2    0    0  0.19540914023E+02 -0.47880152731E+02  0.13492376298E+02  0.13594464093E+03  0.12499817932E+03 0.  0.
          2    1    1    2  501    0 -0.93786246975E+02  0.89350099419E+02 -0.14642206419E+03  0.19549609016E+03  0.00000000000E+00 0. -1.
          1    1    1    2  502    0  0.74245332952E+02 -0.41469946688E+02  0.21537020190E+03  0.23155226151E+03  0.00000000000E+00 0. -1.
         22    1    3    3    0    0  0.40178934313E+02 -0.83910500804E+02  0.28388445045E+01  0.93077268685E+02  0.00000000000E+00 0.  1.
         22    1    3    3    0    0 -0.20638020290E+02  0.36030348073E+02  0.10653531793E+02  0.42867372248E+02  0.00000000000E+00 0.  1.
</event>
<event>
 7    1  0.5139898E-006  0.8328019E+02  0.7818608E-02  0.1433777E+00
          2   -1    0    0  502    0  0.00000000000E+00  0.00000000000E+00  0.96438781112E+02  0.96438781112E+02  0.00000000000E+00 0. -1.
          1   -1    0    0  501    0 -0.00000000000E+00 -0.00000000000E+00 -0.35048902483E+03  0.35048902483E+03  0.00000000000E+00 0. -1.
         25    2    1    2    0    0  0.99248449286E+02 -0.51632564949E+02 -0.16837418176E+03  0.23767822132E+03  0.12499958143E+03 0.  0.
          2    1    1    2  501    0 -0.30792047441E+02  0.11096947284E+02 -0.11868533855E+03  0.12311580731E+03  0.00000000000E+00 0. -1.
          1    1    1    2  502    0 -0.68456401845E+02  0.40535617665E+02  0.33009276590E+02  0.86133777312E+02  0.00000000000E+00 0. -1.
         22    1    3    3    0    0  0.31520001459E+02 -0.54533163320E+02 -0.15670589094E+03  0.16889083057E+03  0.00000000000E+00 0.  1.
         22    1    3    3    0    0  0.67728447826E+02  0.29005983708E+01 -0.11668290821E+02  0.68787390753E+02  0.00000000000E+00 0.  1.
</event>
<event>
 7    1  0.5139898E-006  0.1410535E+03  0.7818608E-02  0.1347422E+00
          2   -1    0    0  502    0  0.00000000000E+00  0.00000000000E+00  0.35063315085E+03  0.35063315085E+03  0.00000000000E+00 0. -1.
          1   -1    0    0  501    0 -0.00000000000E+00 -0.00000000000E+00 -0.47780465796E+03  0.47780465796E+03  0.00000000000E+00 0. -1.
         25    2    1    2    0    0 -0.15036563341E+03  0.44933372869E+02  0.74583479123E+02  0.21404730556E+03  0.12499888779E+03 0.  0.
          2    1    1    2  501    0  0.13984333733E+03 -0.77113938429E+01 -0.39407286400E+03  0.41822128919E+03  0.00000000000E+00 0. -1.
          1    1    1    2  502    0  0.10522296081E+02 -0.37221979026E+02  0.19231787776E+03  0.19616921406E+03  0.00000000000E+00 0. -1.
         22    1    3    3    0    0 -0.14292544622E+03  0.18523472162E+02  0.10097754688E+03  0.17597518908E+03  0.00000000000E+00 0.  1.
         22    1    3    3    0    0 -0.74401871955E+01  0.26409900707E+02 -0.26394067754E+02  0.38072116482E+02  0.00000000000E+00 0.  1.
</event>
<event>
 7    1  0.5139898E-006  0.1487044E+03  0.7818608E-02  0.1215398E+00
          2   -1    0    0  502    0  0.00000000000E+00  0.00000000000E+00  0.25517138867E+04  0.25517138867E+04  0.00000000000E+00 0. -1.
          1   -1    0    0  501    0 -0.00000000000E+00 -0.00000000000E+00 -0.15061179088E+03  0.15061179088E+03  0.00000000000E+00 0. -1.
         25    2    1    2    0    0 -0.24247091702E+03 -0.56378923388E+01  0.55364922113E+03  0.61723252884E+03  0.12499841265E+03 0.  0.
          2    1    1    2  501    0  0.13068672591E+03 -0.58637430649E+02 -0.72688606300E+02  0.16062690338E+03  0.00000000000E+00 0. -1.
          1    1    1    2  502    0  0.11178419111E+03  0.64275322988E+02  0.19201414810E+04  0.19244662453E+04  0.00000000000E+00 0. -1.
         22    1    3    3    0    0 -0.40000654180E+02 -0.18464007167E+02  0.24245821931E+02  0.50287491254E+02  0.00000000000E+00 0. -1.
         22    1    3    3    0    0 -0.20247026284E+03  0.12826114828E+02  0.52940339920E+03  0.56694503758E+03  0.00000000000E+00 0. -1.
</event>
<event>
 7    1  0.5139898E-006  0.3125546E+02  0.7818608E-02  0.1597796E+00
          2   -1    0    0  502    0  0.00000000000E+00  0.00000000000E+00  0.30632341776E+03  0.30632341776E+03  0.00000000000E+00 0. -1.
          1   -1    0    0  501    0 -0.00000000000E+00 -0.00000000000E+00 -0.28761205371E+03  0.28761205371E+03  0.00000000000E+00 0. -1.
         25    2    1    2    0    0 -0.42560304156E+02  0.31887039230E+01 -0.12039233050E+03  0.17872134759E+03  0.12500183806E+03 0.  0.
          2    1    1    2  501    0  0.18011323870E+02 -0.22531604584E+02 -0.13565276186E+03  0.13868580602E+03  0.00000000000E+00 0. -1.
          1    1    1    2  502    0  0.24548980286E+02  0.19342900661E+02  0.27475645641E+03  0.27652831786E+03  0.00000000000E+00 0. -1.
         22    1    3    3    0    0 -0.10972935523E+01  0.90943180150E+01  0.25416478931E+02  0.27016810962E+02  0.00000000000E+00 0. -1.
         22    1    3    3    0    0 -0.41463010603E+02 -0.59056140919E+01 -0.14580880943E+03  0.15170453663E+03  0.00000000000E+00 0. -1.
</event>
<event>
 7    1  0.5139898E-006  0.8377096E+02  0.7818608E-02  0.1355494E+00
          2   -1    0    0  502    0  0.00000000000E+00  0.00000000000E+00  0.14532829945E+04  0.14532829945E+04  0.00000000000E+00 0. -1.
          1   -1    0    0  501    0 -0.00000000000E+00 -0.00000000000E+00 -0.15528441425E+03  0.15528441425E+03  0.00000000000E+00 0. -1.
         25    2    1    2    0    0 -0.21297882846E+02  0.19867496722E+02  0.44886636337E+03  0.46684965972E+03  0.12497709940E+03 0.  0.
          2    1    1    2  501    0  0.81978772069E+02 -0.23756398794E+02 -0.13282265746E+03  0.15788205689E+03  0.00000000000E+00 0. -1.
          1    1    1    2  502    0 -0.60680889223E+02  0.38889020713E+01  0.98195487431E+03  0.98383569210E+03  0.00000000000E+00 0. -1.
         22    1    3    3    0    0 -0.92434392469E+01 -0.49961617492E+02  0.11789983631E+03  0.12838214749E+03  0.00000000000E+00 0.  1.
         22    1    3    3    0    0 -0.12054443599E+02  0.69829114214E+02  0.33096652706E+03  0.33846751223E+03  0.00000000000E+00 0.  1.
</event>
<event>
 7    1  0.5139898E-006  0.7469936E+02  0.7818608E-02  0.1437830E+00
          2   -1    0    0  502    0  0.00000000000E+00  0.00000000000E+00  0.15970314633E+03  0.15970314633E+03  0.00000000000E+00 0. -1.
          1   -1    0    0  501    0 -0.00000000000E+00 -0.00000000000E+00 -0.81605890606E+03  0.81605890606E+03  0.00000000000E+00 0. -1.
         25    2    1    2    0    0 -0.26100924917E+02  0.35256728763E+02 -0.31195751503E+03  0.33891932463E+03  0.12499808887E+03 0.  0.
          2    1    1    2  501    0 -0.33528645515E+02  0.11343168450E+02 -0.48013320498E+03  0.48143611421E+03  0.00000000000E+00 0. -1.
          1    1    1    2  502    0  0.59629570432E+02 -0.46599897213E+02  0.13573496029E+03  0.15540661355E+03  0.00000000000E+00 0. -1.
         22    1    3    3    0    0 -0.36732838939E+02  0.61420805269E+02 -0.89117131616E+02  0.11429645631E+03  0.00000000000E+00 0.  1.
         22    1    3    3    0    0  0.10631914022E+02 -0.26164076507E+02 -0.22284038341E+03  0.22462286833E+03  0.00000000000E+00 0.  1.
</event>
<event>
 7    1  0.5139898E-006  0.8977317E+02  0.7818608E-02  0.1482051E+00
          2   -1    0    0  502    0  0.00000000000E+00  0.00000000000E+00  0.81350837111E+03  0.81350837111E+03  0.00000000000E+00 0. -1.
          1   -1    0    0  501    0 -0.00000000000E+00 -0.00000000000E+00 -0.39836292600E+03  0.39836292600E+03  0.00000000000E+00 0. -1.
         25    2    1    2    0    0 -0.93370002565E+02 -0.81564375225E+01 -0.24059719410E+03  0.28687274449E+03  0.12499790745E+03 0.  0.
          2    1    1    2  501    0  0.45172712494E+01  0.20875265497E+02 -0.13121333611E+03  0.13294029495E+03  0.00000000000E+00 0. -1.
          1    1    1    2  502    0  0.88852731316E+02 -0.12718827975E+02  0.78695597533E+03  0.79205825767E+03  0.00000000000E+00 0. -1.
         22    1    3    3    0    0 -0.53174641260E+02 -0.55186631890E+02 -0.64308687640E+02  0.10004356110E+03  0.00000000000E+00 0.  1.
         22    1    3    3    0    0 -0.40195361305E+02  0.47030194367E+02 -0.17628850646E+03  0.18682918338E+03  0.00000000000E+00 0.  1.
</event>
<event>
 7    1  0.5139898E-006  0.2305750E+03  0.7818608E-02  0.1224991E+00
          2   -1    0    0  502    0  0.00000000000E+00  0.00000000000E+00  0.21712080526E+04  0.21712080526E+04  0.00000000000E+00 0. -1.
          1   -1    0    0  501    0 -0.00000000000E+00 -0.00000000000E+00 -0.13402567048E+03  0.13402567048E+03  0.00000000000E+00 0. -1.
         25    2    1    2    0    0  0.19323052114E+03 -0.20112614509E+03  0.35903359757E+03  0.47150930047E+03  0.12500454275E+03 0.  0.
          2    1    1    2  501    0 -0.70028542110E+01  0.74869592834E+02 -0.50445226859E+02  0.90549526841E+02  0.00000000000E+00 0. -1.
          1    1    1    2  502    0 -0.18622766693E+03  0.12625655226E+03  0.17285940115E+04  0.17431748958E+04  0.00000000000E+00 0. -1.
         22    1    3    3    0    0  0.88819074747E+02 -0.12032774525E+02  0.10651412587E+03  0.13920802675E+03  0.00000000000E+00 0. -1.
         22    1    3    3    0    0  0.10441144640E+03 -0.18909337057E+03  0.25251947169E+03  0.33230127372E+03  0.00000000000E+00 0. -1.
</event>
<event>
 7    1  0.5139898E-006  0.7310213E+02  0.7818608E-02  0.1389448E+00
          2   -1    0    0  502    0  0.00000000000E+00  0.00000000000E+00  0.92983223374E+03  0.92983223374E+03  0.00000000000E+00 0. -1.
          1   -1    0    0  501    0 -0.00000000000E+00 -0.00000000000E+00 -0.49924076657E+03  0.49924076657E+03  0.00000000000E+00 0. -1.
         25    2    1    2    0    0  0.31410916302E+02  0.43824948112E-01  0.12412349989E+03  0.17893668252E+03  0.12500018217E+03 0.  0.
          2    1    1    2  501    0  0.32723986594E+02  0.41256584542E+02 -0.46848638790E+03  0.47143659247E+03  0.00000000000E+00 0. -1.
          1    1    1    2  502    0 -0.64134902896E+02 -0.41300409490E+02  0.77495435519E+03  0.77869972532E+03  0.00000000000E+00 0. -1.
         22    1    3    3    0    0  0.14575205322E+02 -0.64542398687E+01 -0.24495861851E+02  0.29225691956E+02  0.00000000000E+00 0.  1.
         22    1    3    3    0    0  0.16835710980E+02  0.64980648169E+01  0.14861936174E+03  0.14971099056E+03  0.00000000000E+00 0.  1.
</event>
<event>
 7    1  0.5139898E-006  0.9212818E+02  0.7818608E-02  0.1392062E+00
          2   -1    0    0  502    0  0.00000000000E+00  0.00000000000E+00  0.23036599884E+04  0.23036599884E+04  0.00000000000E+00 0. -1.
          1   -1    0    0  501    0 -0.00000000000E+00 -0.00000000000E+00 -0.21211402863E+03  0.21211402863E+03  0.00000000000E+00 0. -1.
         25    2    1    2    0    0 -0.84192037543E+02 -0.79924539698E+02  0.42635799502E+03  0.45922040245E+03  0.12500402744E+03 0.  0.
          2    1    1    2  501    0  0.40916592938E+02  0.26689145976E-01 -0.19242123784E+03  0.19672341259E+03  0.00000000000E+00 0. -1.
          1    1    1    2  502    0  0.43275444605E+02  0.79897850552E+02  0.18576092026E+04  0.18598302020E+04  0.00000000000E+00 0. -1.
         22    1    3    3    0    0  0.21929709459E+02 -0.92151453146E+01  0.14014738618E+02  0.27608765975E+02  0.00000000000E+00 0.  1.
         22    1    3    3    0    0 -0.10612174700E+03 -0.70709394383E+02  0.41234325640E+03  0.43161163647E+03  0.00000000000E+00 0.  1.
</event>
<event>
 7    1  0.5139898E-006  0.9316790E+02  0.7818608E-02  0.1372980E+00
          2   -1    0    0  502    0  0.00000000000E+00  0.00000000000E+00  0.17158754097E+04  0.17158754097E+04  0.00000000000E+00 0. -1.
          1   -1    0    0  501    0 -0.00000000000E+00 -0.00000000000E+00 -0.20991786019E+03  0.20991786019E+03  0.00000000000E+00 0. -1.
         25    2    1    2    0    0 -0.45114634156E+02  0.10155483127E+03  0.33972434930E+03  0.37864965311E+03  0.12495684186E+03 0.  0.
          2    1    1    2  501    0 -0.13318018676E+01 -0.92902682429E+02 -0.17868403989E+03  0.20139679295E+03  0.00000000000E+00 0. -1.
          1    1    1    2  502    0  0.46446436024E+02 -0.86521488432E+01  0.13449172401E+04  0.13457468238E+04  0.00000000000E+00 0. -1.
         22    1    3    3    0    0 -0.69508954142E+01 -0.76226259610E+01  0.18595393751E+03  0.18623986214E+03  0.00000000000E+00 0. -1.
         22    1    3    3    0    0 -0.38163738742E+02  0.10917745723E+03  0.15377041179E+03  0.19240979098E+03  0.00000000000E+00 0. -1.
</event>
<event>
 7    1  0.5139898E-006  0.1293360E+03  0.7818608E-02  0.1307202E+00
          2   -1    0    0  502    0  0.00000000000E+00  0.00000000000E+00  0.14365188020E+04  0.14365188020E+04  0.00000000000E+00 0. -1.
          1   -1    0    0  501    0 -0.00000000000E+00 -0.00000000000E+00 -0.27893382818E+03  0.27893382818E+03  0.00000000000E+00 0. -1.
         25    2    1    2    0    0 -0.10453523180E+03  0.16604905559E+02  0.70368575356E+03  0.72249755866E+03  0.12500297967E+03 0.  0.
          2    1    1    2  501    0  0.12365810932E+03  0.40461155586E+02 -0.25247142722E+03  0.28402509515E+03  0.00000000000E+00 0. -1.
          1    1    1    2  502    0 -0.19122877527E+02 -0.57066061145E+02  0.70637064752E+03  0.70892997641E+03  0.00000000000E+00 0. -1.
         22    1    3    3    0    0  0.24356974889E+02  0.64953015323E+01  0.23361931182E+03  0.23497539025E+03  0.00000000000E+00 0. -1.
         22    1    3    3    0    0 -0.12889220669E+03  0.10109604027E+02  0.47006644174E+03  0.48752216841E+03  0.00000000000E+00 0. -1.
</event>
<event>
 7    1  0.5139898E-006  0.1844368E+03  0.7818608E-02  0.1317857E+00
          2   -1    0    0  502    0  0.00000000000E+00  0.00000000000E+00  0.20927444722E+04  0.20927444722E+04  0.00000000000E+00 0. -1.
          1   -1    0    0  501    0 -0.00000000000E+00 -0.00000000000E+00 -0.95579077170E+02  0.95579077170E+02  0.00000000000E+00 0. -1.
         25    2    1    2    0    0 -0.86250285973E+02 -0.13000464955E+03  0.52678618993E+03  0.56344438520E+03  0.12500225828E+03 0.  0.
          2    1    1    2  501    0 -0.26233818429E+02 -0.27945575047E+02 -0.65993884918E+02  0.76317502845E+02  0.00000000000E+00 0. -1.
          1    1    1    2  502    0  0.11248410440E+03  0.15795022460E+03  0.15363730900E+04  0.15485616613E+04  0.00000000000E+00 0. -1.
         22    1    3    3    0    0 -0.26209006313E+02 -0.37538827419E+01  0.26805408872E+03  0.26935849370E+03  0.00000000000E+00 0. -1.
         22    1    3    3    0    0 -0.60041279661E+02 -0.12625076681E+03  0.25873210121E+03  0.29408589150E+03  0.00000000000E+00 0. -1.
</event>
<event>
 7    1  0.5139898E-006  0.9728791E+02  0.7818608E-02  0.1339004E+00
          2   -1    0    0  502    0  0.00000000000E+00  0.00000000000E+00  0.11712576513E+04  0.11712576513E+04  0.00000000000E+00 0. -1.
          1   -1    0    0  501    0 -0.00000000000E+00 -0.00000000000E+00 -0.77857497915E+02  0.77857497915E+02  0.00000000000E+00 0. -1.
         25    2    1    2    0    0 -0.75411451587E+02  0.72856914681E+02  0.11464923848E+03  0.19940974892E+03  0.12499913213E+03 0.  0.
          2    1    1    2  501    0 -0.21060482018E+02 -0.56504762800E+02 -0.55464160885E+01  0.60556542614E+02  0.00000000000E+00 0. -1.
          1    1    1    2  502    0  0.96471933605E+02 -0.16352151881E+02  0.98429733095E+03  0.98914885763E+03  0.00000000000E+00 0. -1.
         22    1    3    3    0    0 -0.95932811278E+02  0.10537125119E+02  0.79118372274E+02  0.12479524076E+03  0.00000000000E+00 0. -1.
         22    1    3    3    0    0  0.20521359691E+02  0.62319789563E+02  0.35530866204E+02  0.74614508160E+02  0.00000000000E+00 0. -1.
</event>
<event>
 7    1  0.5139898E-006  0.8886657E+02  0.7818608E-02  0.1378568E+00
          2   -1    0    0  502    0  0.00000000000E+00  0.00000000000E+00  0.43073552424E+03  0.43073552424E+03  0.00000000000E+00 0. -1.
          1   -1    0    0  501    0 -0.00000000000E+00 -0.00000000000E+00 -0.54713834805E+03  0.54713834805E+03  0.00000000000E+00 0. -1.
         25    2    1    2    0    0  0.69528073715E+02  0.11378309658E+03 -0.12439336877E+03  0.22108616353E+03  0.12499854162E+03 0.  0.
          2    1    1    2  501    0 -0.32460608645E+02 -0.34419791626E+02 -0.36784739621E+03  0.37087750008E+03  0.00000000000E+00 0. -1.
          1    1    1    2  502    0 -0.37067465070E+02 -0.79363304957E+02  0.37583794117E+03  0.38591020868E+03  0.00000000000E+00 0. -1.
         22    1    3    3    0    0 -0.26970102509E+01  0.77821078051E+02 -0.63802677350E+01  0.78128751876E+02  0.00000000000E+00 0.  1.
         22    1    3    3    0    0  0.72225083966E+02  0.35962018532E+02 -0.11801310103E+03  0.14295741165E+03  0.00000000000E+00 0.  1.
</event>
<event>
 7    1  0.5139898E-006  0.1130752E+03  0.7818608E-02  0.1359722E+00
          2   -1    0    0  502    0  0.00000000000E+00  0.00000000000E+00  0.17329161381E+04  0.17329161381E+04  0.00000000000E+00 0. -1.
          1   -1    0    0  501    0 -0.00000000000E+00 -0.00000000000E+00 -0.14552594721E+03  0.14552594721E+03  0.00000000000E+00 0. -1.
         25    2    1    2    0    0  0.36171603022E+02 -0.13925683337E+03  0.96164054361E+03  0.98034747076E+03  0.12501111077E+03 0.  0.
          2    1    1    2  501    0 -0.13257420117E+01  0.43449158735E+02 -0.12918759758E+03  0.13630488750E+03  0.00000000000E+00 0. -1.
          1    1    1    2  502    0 -0.34845861010E+02  0.95807674635E+02  0.75493724486E+03  0.76178972704E+03  0.00000000000E+00 0. -1.
         22    1    3    3    0    0  0.48882134920E+02 -0.15198529681E+03  0.93274924463E+03  0.94631397903E+03  0.00000000000E+00 0.  1.
         22    1    3    3    0    0 -0.12710531897E+02  0.12728463438E+02  0.28891298983E+02  0.34033491733E+02  0.00000000000E+00 0.  1.
</event>
<event>
 7    1  0.5139898E-006  0.8519046E+02  0.7818608E-02  0.1425523E+00
          2   -1    0    0  502    0  0.00000000000E+00  0.00000000000E+00  0.69613126794E+03  0.69613126794E+03  0.00000000000E+00 0. -1.
          1   -1    0    0  501    0 -0.00000000000E+00 -0.00000000000E+00 -0.45804718302E+02  0.45804718302E+02  0.00000000000E+00 0. -1.
         25    2    1    2    0    0  0.88868908693E+02  0.21049765604E+02  0.13291943112E+03  0.20403937163E+03  0.12499485766E+03 0.  0.
          2    1    1    2  501    0 -0.46508726281E+01 -0.33744760072E+02  0.38208707337E+02  0.51188326451E+02  0.00000000000E+00 0. -1.
          1    1    1    2  502    0 -0.84218036065E+02  0.12694994468E+02  0.47919841119E+03  0.48670828817E+03  0.00000000000E+00 0. -1.
         22    1    3    3    0    0  0.16687717435E+02  0.65512568803E+02  0.77073558494E+02  0.10252175381E+03  0.00000000000E+00 0.  1.
         22    1    3    3    0    0  0.72181191258E+02 -0.44462803200E+02  0.55845872623E+02  0.10151761782E+03  0.00000000000E+00 0.  1.
</event>
<event>
 7    1  0.5139898E-006  0.9040649E+02  0.7818608E-02  0.1361148E+00
          2   -1    0    0  502    0  0.00000000000E+00  0.00000000000E+00  0.10241292061E+04  0.10241292061E+04  0.00000000000E+00 0. -1.
          1   -1    0    0  501    0 -0.00000000000E+00 -0.00000000000E+00 -0.84462034452E+02  0.84462034452E+02  0.00000000000E+00 0. -1.
         25    2    1    2    0    0  0.10312848249E+03 -0.23028626367E+02  0.27166509071E+03  0.31716441533E+03  0.12500217323E+03 0.  0.
          2    1    1    2  501    0 -0.17408776041E+02  0.50822831571E+02 -0.46629556942E+02  0.71136075747E+02  0.00000000000E+00 0. -1.
          1    1    1    2  502    0 -0.85719706444E+02 -0.27794205203E+02  0.71463163793E+03  0.72029074952E+03  0.00000000000E+00 0. -1.
         22    1    3    3    0    0  0.72884322696E+02 -0.74067010872E+02  0.18392156412E+03  0.21124674754E+03  0.00000000000E+00 0. -1.
         22    1    3    3    0    0  0.30244159789E+02  0.51038384505E+02  0.87743526585E+02  0.10591766780E+03  0.00000000000E+00 0. -1.
</event>
<event>
 7    1  0.5139898E-006  0.5547351E+02  0.7818608E-02  0.1433370E+00
          2   -1    0    0  502    0  0.00000000000E+00  0.00000000000E+00  0.28309167227E+04  0.28309167227E+04  0.00000000000E+00 0. -1.
          1   -1    0    0  501    0 -0.00000000000E+00 -0.00000000000E+00 -0.14394081254E+02  0.14394081254E+02  0.00000000000E+00 0. -1.
         25    2    1    2    0    0  0.82210442508E+02 -0.12553998799E+02  0.17131002853E+04  0.17196666175E+04  0.12499811362E+03 0.  0.
          2    1    1    2  501    0 -0.34977575164E+02  0.34725867295E+02  0.47558288370E+02  0.68491659466E+02  0.00000000000E+00 0. -1.
          1    1    1    2  502    0 -0.47232867343E+02 -0.22171868496E+02  0.10558640678E+04  0.10571525269E+04  0.00000000000E+00 0. -1.
         22    1    3    3    0    0  0.36321807416E+02 -0.61870614012E+02  0.12030112786E+04  0.12051486975E+04  0.00000000000E+00 0. -1.
         22    1    3    3    0    0  0.45888635092E+02  0.49316615213E+02  0.51008900662E+03  0.51451792004E+03  0.00000000000E+00 0. -1.
</event>
<event>
 7    1  0.5139898E-006  0.1394844E+03  0.7818608E-02  0.1281998E+00
          2   -1    0    0  502    0  0.00000000000E+00  0.00000000000E+00  0.10642404772E+04  0.10642404772E+04  0.00000000000E+00 0. -1.
          1   -1    0    0  501    0 -0.00000000000E+00 -0.00000000000E+00 -0.20472197098E+03  0.20472197098E+03  0.00000000000E+00 0. -1.
         25    2    1    2    0    0  0.19144374057E+03 -0.67447649171E+02  0.17159633284E+03  0.29371774472E+03  0.12499968376E+03 0.  0.
          2    1    1    2  501    0 -0.69469544780E+02  0.12257531065E+02 -0.12921287059E+03  0.14721491312E+03  0.00000000000E+00 0. -1.
          1    1    1    2  502    0 -0.12197419579E+03  0.55190118105E+02  0.81713504395E+03  0.82802979030E+03  0.00000000000E+00 0. -1.
         22    1    3    3    0    0  0.11404005019E+03 -0.43902817354E+02  0.22741894281E+02  0.12429716077E+03  0.00000000000E+00 0. -1.
         22    1    3    3    0    0  0.77403690377E+02 -0.23544831816E+02  0.14885443856E+03  0.16942058395E+03  0.00000000000E+00 0. -1.
</event>
<event>
 7    1  0.5139898E-006  0.5299465E+02  0.7818608E-02  0.1544961E+00
          2   -1    0    0  502    0  0.00000000000E+00  0.00000000000E+00  0.13035741033E+04  0.13035741033E+04  0.00000000000E+00 0. -1.
          1   -1    0    0  501    0 -0.00000000000E+00 -0.00000000000E+00 -0.28925260799E+02  0.28925260799E+02  0.00000000000E+00 0. -1.
         25    2    1    2    0    0 -0.67424704265E+02  0.25633671488E+02  0.17093528152E+03  0.22370227739E+03  0.12498264913E+03 0.  0.
          2    1    1    2  501    0  0.23454799792E+02  0.31445169745E+01  0.72897908024E+02  0.76642811891E+02  0.00000000000E+00 0. -1.
          1    1    1    2  502    0  0.43969904473E+02 -0.28778188463E+02  0.10308156530E+04  0.10321542749E+04  0.00000000000E+00 0. -1.
         22    1    3    3    0    0 -0.14119423672E+02 -0.32537982369E+02  0.37024786558E-01  0.35469420524E+02  0.00000000000E+00 0. -1.
         22    1    3    3    0    0 -0.53305280592E+02  0.58171653857E+02  0.17089825673E+03  0.18823285687E+03  0.00000000000E+00 0. -1.
</event>
<event>
 7    1  0.5139898E-006  0.1658723E+03  0.7818608E-02  0.1263940E+00
          2   -1    0    0  502    0  0.00000000000E+00  0.00000000000E+00  0.20311840351E+04  0.20311840351E+04  0.00000000000E+00 0. -1.
          1   -1    0    0  501    0 -0.00000000000E+00 -0.00000000000E+00 -0.22109918052E+03  0.22109918052E+03  0.00000000000E+00 0. -1.
         25    2    1    2    0    0  0.27559176118E+02 -0.10669221737E+03  0.38167025400E+03  0.41646280109E+03  0.12500537777E+03 0.  0.
          2    1    1    2  501    0  0.10293777519E+01  0.17122287474E+03 -0.16680250005E+03  0.23904268756E+03  0.00000000000E+00 0. -1.
          1    1    1    2  502    0 -0.28588553869E+02 -0.64530657363E+02  0.15952171007E+04  0.15967777270E+04  0.00000000000E+00 0. -1.
         22    1    3    3    0    0 -0.26350785088E+02 -0.83703740249E+01  0.11963794531E+02  0.30125726807E+02  0.00000000000E+00 0.  1.
         22    1    3    3    0    0  0.53909961206E+02 -0.98321843349E+02  0.36970645947E+03  0.38633707429E+03  0.00000000000E+00 0.  1.
</event>
<event>
 7    1  0.5139898E-006  0.1448311E+03  0.7818608E-02  0.1218266E+00
          2   -1    0    0  502    0  0.00000000000E+00  0.00000000000E+00  0.12706455026E+04  0.12706455026E+04  0.00000000000E+00 0. -1.
          1   -1    0    0  501    0 -0.00000000000E+00 -0.00000000000E+00 -0.22357317602E+03  0.22357317602E+03  0.00000000000E+00 0. -1.
         25    2    1    2    0    0 -0.51150076176E+01 -0.77372802941E+02 -0.36368516311E+02  0.15152769241E+03  0.12500103460E+03 0.  0.
          2    1    1    2  501    0  0.12815793688E+03 -0.86198808893E+01 -0.91814066416E+02  0.15788787770E+03  0.00000000000E+00 0. -1.
          1    1    1    2  502    0 -0.12304292926E+03  0.85992683830E+02  0.11752549093E+04  0.11848031085E+04  0.00000000000E+00 0. -1.
         22    1    3    3    0    0 -0.55252649767E+02 -0.72401485568E+02 -0.30560541509E+01  0.91127218139E+02  0.00000000000E+00 0. -1.
         22    1    3    3    0    0  0.50137642150E+02 -0.49713173734E+01 -0.33312462160E+02  0.60400474269E+02  0.00000000000E+00 0. -1.
</event>
<event>
 7    1  0.5139898E-006  0.1501344E+03  0.7818608E-02  0.1244349E+00
          2   -1    0    0  502    0  0.00000000000E+00  0.00000000000E+00  0.27257285021E+04  0.27257285021E+04  0.00000000000E+00 0. -1.
          1   -1    0    0  501    0 -0.00000000000E+00 -0.00000000000E+00 -0.12704058846E+04  0.12704058846E+04  0.00000000000E+00 0. -1.
         25    2    1    2    0    0 -0.45039648805E+02 -0.10680055822E+03 -0.34579729022E+03  0.38553344201E+03  0.12500135911E+03 0.  0.
          2    1    1    2  501    0 -0.27874165370E+02  0.16724522500E+03 -0.89595832034E+03  0.91186032163E+03  0.00000000000E+00 0. -1.
          1    1    1    2  502    0  0.72913814175E+02 -0.60444666783E+02  0.26970782281E+04  0.26987406230E+04  0.00000000000E+00 0. -1.
         22    1    3    3    0    0 -0.79997045709E+02 -0.76042569327E+02 -0.30228403371E+03  0.32180372389E+03  0.00000000000E+00 0.  1.
         22    1    3    3    0    0  0.34957396904E+02 -0.30757988894E+02 -0.43513256510E+02  0.63729718117E+02  0.00000000000E+00 0.  1.
</event>
<event>
 7    1  0.5139898E-006  0.7226709E+02  0.7818608E-02  0.1412962E+00
          2   -1    0    0  502    0  0.00000000000E+00  0.00000000000E+00  0.16691949217E+03  0.16691949217E+03  0.00000000000E+00 0. -1.
          1   -1    0    0  501    0 -0.00000000000E+00 -0.00000000000E+00 -0.49105916602E+03  0.49105916602E+03  0.00000000000E+00 0. -1.
         25    2    1    2    0    0  0.50119347678E+02  0.36736269462E+02 -0.12859979992E+02  0.14018395483E+03  0.12499863840E+03 0.  0.
          2    1    1    2  501    0 -0.26395673012E+02  0.35493491658E+02 -0.39915394848E+03  0.40159730339E+03  0.00000000000E+00 0. -1.
          1    1    1    2  502    0 -0.23723674667E+02 -0.72229761120E+02  0.87874254631E+02  0.11619739996E+03  0.00000000000E+00 0. -1.
         22    1    3    3    0    0  0.72752960642E+02  0.93349337252E+01 -0.50006714201E+02  0.88773902331E+02  0.00000000000E+00 0. -1.
         22    1    3    3    0    0 -0.22633612964E+02  0.27401335737E+02  0.37146734209E+02  0.51410052502E+02  0.00000000000E+00 0. -1.
</event>
<event>
 7    1  0.5139898E-006  0.7985768E+02  0.7818608E-02  0.1342777E+00
          2   -1    0    0  502    0  0.00000000000E+00  0.00000000000E+00  0.36073491677E+03  0.36073491677E+03  0.00000000000E+00 0. -1.
          1   -1    0    0  501    0 -0.00000000000E+00 -0.00000000000E+00 -0.14344589913E+04  0.14344589913E+04  0.00000000000E+00 0. -1.
         25    2    1    2    0    0  0.33475665893E+02 -0.86932158552E+02 -0.36487532686E+03  0.39678043924E+03  0.12499156939E+03 0.  0.
          2    1    1    2  501    0  0.41168339110E+02  0.57974954873E+02 -0.10477617901E+04  0.10501717461E+04  0.00000000000E+00 0. -1.
          1    1    1    2  502    0 -0.74644005003E+02  0.28957203679E+02  0.33891304242E+03  0.34824172273E+03  0.00000000000E+00 0. -1.
         22    1    3    3    0    0 -0.45184556144E+02 -0.28009390997E+02 -0.86121887783E+02  0.10120844655E+03  0.00000000000E+00 0. -1.
         22    1    3    3    0    0  0.78660222036E+02 -0.58922767554E+02 -0.27875343908E+03  0.29557199269E+03  0.00000000000E+00 0. -1.
</event>
<event>
 7    1  0.5139898E-006  0.1013431E+03  0.7818608E-02  0.1294008E+00
          2   -1    0    0  502    0  0.00000000000E+00  0.00000000000E+00  0.81588303357E+03  0.81588303357E+03  0.00000000000E+00 0. -1.
          1   -1    0    0  501    0 -0.00000000000E+00 -0.00000000000E+00 -0.70395896882E+03  0.70395896882E+03  0.00000000000E+00 0. -1.
         25    2    1    2    0    0  0.19823183434E+02  0.18382894022E+03 -0.67480228005E+01  0.22328528117E+03  0.12499897245E+03 0.  0.
          2    1    1    2  501    0 -0.11461326982E+02 -0.97500548087E+02 -0.58215932165E+03  0.59037885691E+03  0.00000000000E+00 0. -1.
          1    1    1    2  502    0 -0.83618564517E+01 -0.86328392130E+02  0.70083140920E+03  0.70617786432E+03  0.00000000000E+00 0. -1.
         22    1    3    3    0    0  0.10860310891E+02  0.10036947344E+03 -0.65933159899E+02  0.12057843557E+03  0.00000000000E+00 0.  1.
         22    1    3    3    0    0  0.89628725430E+01  0.83459466781E+02  0.59185137099E+02  0.10270684560E+03  0.00000000000E+00 0.  1.
</event>
<event>
 7    1  0.5139898E-006  0.8718096E+02  0.7818608E-02  0.1380991E+00
          2   -1    0    0  502    0  0.00000000000E+00  0.00000000000E+00  0.10610635995E+04  0.10610635995E+04  0.00000000000E+00 0. -1.
          1   -1    0    0  501    0 -0.00000000000E+00 -0.00000000000E+00 -0.81472015284E+03  0.81472015284E+03  0.00000000000E+00 0. -1.
         25    2    1    2    0    0 -0.64871559386E+02  0.30384339739E+02  0.31778412831E+03  0.34891095485E+03  0.12498229831E+03 0.  0.
          2    1    1    2  501    0  0.13227510668E+02  0.45394864201E+02 -0.79556299174E+03  0.79696683404E+03  0.00000000000E+00 0. -1.
          1    1    1    2  502    0  0.51644048718E+02 -0.75779203941E+02  0.72412231007E+03  0.72990596344E+03  0.00000000000E+00 0. -1.
         22    1    3    3    0    0 -0.21853469738E+02  0.58432683797E+02  0.61752994021E+02  0.87780322088E+02  0.00000000000E+00 0. -1.
         22    1    3    3    0    0 -0.43018089648E+02 -0.28048344058E+02  0.25603113429E+03  0.26113063277E+03  0.00000000000E+00 0. -1.
</event>
<event>
 7    1  0.5139898E-006  0.6834850E+02  0.7818608E-02  0.1478429E+00
          2   -1    0    0  502    0  0.00000000000E+00  0.00000000000E+00  0.11408838914E+04  0.11408838914E+04  0.00000000000E+00 0. -1.
          1   -1    0    0  501    0 -0.00000000000E+00 -0.00000000000E+00 -0.24852526956E+03  0.24852526956E+03  0.00000000000E+00 0. -1.
         25    2    1    2    0    0 -0.38809353381E+02  0.57646203146E+02  0.31011310321E+03  0.34150262625E+03  0.12499862523E+03 0.  0.
          2    1    1    2  501    0  0.11735562456E+02 -0.67408876347E+02 -0.22754242975E+03  0.23760731759E+03  0.00000000000E+00 0. -1.
          1    1    1    2  502    0  0.27073790925E+02  0.97626732009E+01  0.80978794839E+03  0.81029921714E+03  0.00000000000E+00 0. -1.
         22    1    3    3    0    0 -0.41777605988E+02  0.36850789961E+02  0.31503915385E+03  0.31992658148E+03  0.00000000000E+00 0. -1.
         22    1    3    3    0    0  0.29682526067E+01  0.20795413185E+02 -0.49260506361E+01  0.21576044771E+02  0.00000000000E+00 0. -1.
</event>
<event>
 7    1  0.5139898E-006  0.5759024E+02  0.7818608E-02  0.1410074E+00
          2   -1    0    0  502    0  0.00000000000E+00  0.00000000000E+00  0.92944450263E+03  0.92944450263E+03  0.00000000000E+00 0. -1.
          1   -1    0    0  501    0 -0.00000000000E+00 -0.00000000000E+00 -0.14886973071E+04  0.14886973071E+04  0.00000000000E+00 0. -1.
         25    2    1    2    0    0 -0.46316845858E+01 -0.22982051026E+01 -0.38513276242E+02  0.13090092034E+03  0.12500017700E+03 0.  0.
          2    1    1    2  501    0  0.42191649099E+02 -0.40266591273E+02 -0.14024713808E+04  0.14036835496E+04  0.00000000000E+00 0. -1.
          1    1    1    2  502    0 -0.37559964513E+02  0.42564796376E+02  0.88173185255E+03  0.88355733975E+03  0.00000000000E+00 0. -1.
         22    1    3    3    0    0 -0.59882957232E+02  0.37162028017E+01 -0.44926527583E+02  0.74954463581E+02  0.00000000000E+00 0. -1.
         22    1    3    3    0    0  0.55251272646E+02 -0.60144079043E+01  0.64132513407E+01  0.55946456762E+02  0.00000000000E+00 0. -1.
</event>
<event>
 7    1  0.5139898E-006  0.7205655E+02  0.7818608E-02  0.1423651E+00
          2   -1    0    0  502    0  0.00000000000E+00  0.00000000000E+00  0.13450018760E+04  0.13450018760E+04  0.00000000000E+00 0. -1.
          1   -1    0    0  501    0 -0.00000000000E+00 -0.00000000000E+00 -0.30010617123E+03  0.30010617123E+03  0.00000000000E+00 0. -1.
         25    2    1    2    0    0 -0.66168444263E+02  0.73248275230E+01  0.85332168230E+02  0.16535381044E+03  0.12501354957E+03 0.  0.
          2    1    1    2  501    0  0.55657104792E+02 -0.46801985246E+02 -0.25466221896E+03  0.26484143351E+03  0.00000000000E+00 0. -1.
          1    1    1    2  502    0  0.10511339471E+02  0.39477157723E+02  0.12142257555E+04  0.12149128033E+04  0.00000000000E+00 0. -1.
         22    1    3    3    0    0 -0.33947340265E+02  0.92078752162E+00 -0.30074586136E+02  0.45362434811E+02  0.00000000000E+00 0. -1.
         22    1    3    3    0    0 -0.32221103998E+02  0.64040400014E+01  0.11540675437E+03  0.11999137562E+03  0.00000000000E+00 0. -1.
</event>
<event>
 7    1  0.5139898E-006  0.9884201E+02  0.7818608E-02  0.1354521E+00
          2   -1    0    0  502    0  0.00000000000E+00  0.00000000000E+00  0.86563187639E+03  0.86563187639E+03  0.00000000000E+00 0. -1.
          1   -1    0    0  501    0 -0.00000000000E+00 -0.00000000000E+00 -0.10825721243E+03  0.10825721243E+03  0.00000000000E+00 0. -1.
         25    2    1    2    0    0  0.23462594283E+02  0.13664086271E+03  0.27776144159E+03  0.33465688270E+03  0.12499036767E+03 0.  0.
          2    1    1    2  501    0  0.77774932711E+01 -0.95120238505E+02 -0.49543158943E+02  0.10753080383E+03  0.00000000000E+00 0. -1.
          1    1    1    2  502    0 -0.31240087554E+02 -0.41520624208E+02  0.52915638132E+03  0.53170140229E+03  0.00000000000E+00 0. -1.
         22    1    3    3    0    0  0.39871310255E+02 -0.56922940566E+01  0.38144199354E+02  0.55471646247E+02  0.00000000000E+00 0. -1.
         22    1    3    3    0    0 -0.16408715972E+02  0.14233315677E+03  0.23961724224E+03  0.27918523645E+03  0.00000000000E+00 0. -1.
</event>
<event>
 7    1  0.5139898E-006  0.8278836E+02  0.7818608E-02  0.1467532E+00
          2   -1    0    0  502    0  0.00000000000E+00  0.00000000000E+00  0.53247440775E+03  0.53247440775E+03  0.00000000000E+00 0. -1.
          1   -1    0    0  501    0 -0.00000000000E+00 -0.00000000000E+00 -0.53213515721E+03  0.53213515721E+03  0.00000000000E+00 0. -1.
         25    2    1    2    0    0 -0.56841068943E+02  0.21847231870E+02 -0.41181918816E+03  0.43465998135E+03  0.12500418790E+03 0.  0.
          2    1    1    2  501    0 -0.13809105628E+02  0.21652295878E+02 -0.10402128795E+03  0.10714448965E+03  0.00000000000E+00 0. -1.
          1    1    1    2  502    0  0.70650174571E+02 -0.43499527747E+02  0.51617972664E+03  0.52280509397E+03  0.00000000000E+00 0. -1.
         22    1    3    3    0    0 -0.86400926054E+02  0.29525207875E+02 -0.37893918143E+03  0.38978424948E+03  0.00000000000E+00 0.  1.
         22    1    3    3    0    0  0.29559857111E+02 -0.76779760049E+01 -0.32880006728E+02  0.44875731865E+02  0.00000000000E+00 0.  1.
</event>
<event>
 7    1  0.5139898E-006  0.1330941E+03  0.7818608E-02  0.1333475E+00
          2   -1    0    0  502    0  0.00000000000E+00  0.00000000000E+00  0.89584904098E+03  0.89584904098E+03  0.00000000000E+00 0. -1.
          1   -1    0    0  501    0 -0.00000000000E+00 -0.00000000000E+00 -0.45879855712E+03  0.45879855712E+03  0.00000000000E+00 0. -1.
         25    2    1    2    0    0  0.78058595118E+02  0.41683810978E+02  0.49381056136E+03  0.51700898111E+03  0.12497492414E+03 0.  0.
          2    1    1    2  501    0 -0.11301376671E+03 -0.71976347236E+02 -0.43572530948E+03  0.45586100003E+03  0.00000000000E+00 0. -1.
          1    1    1    2  502    0  0.34955171596E+02  0.30292536258E+02  0.37896523197E+03  0.38177761697E+03  0.00000000000E+00 0. -1.
         22    1    3    3    0    0 -0.18560825691E+02  0.51944766109E+02  0.15403684063E+03  0.16361574266E+03  0.00000000000E+00 0. -1.
         22    1    3    3    0    0  0.96619420809E+02 -0.10260955131E+02  0.33977372073E+03  0.35339323844E+03  0.00000000000E+00 0. -1.
</event>
<event>
 7    1  0.5139898E-006  0.6558034E+02  0.7818608E-02  0.1399845E+00
          2   -1    0    0  502    0  0.00000000000E+00  0.00000000000E+00  0.11600377077E+04  0.11600377077E+04  0.00000000000E+00 0. -1.
          1   -1    0    0  501    0 -0.00000000000E+00 -0.00000000000E+00 -0.52271914145E+02  0.52271914145E+02  0.00000000000E+00 0. -1.
         25    2    1    2    0    0  0.11744784556E+02 -0.37429435616E+01  0.98740495045E+02  0.15977101407E+03  0.12500056794E+03 0.  0.
          2    1    1    2  501    0 -0.76880520369E+02  0.11366350165E+02  0.52544516237E+02  0.93812230092E+02  0.00000000000E+00 0. -1.
          1    1    1    2  502    0  0.65135735813E+02 -0.76234066033E+01  0.95648078227E+03  0.95872637768E+03  0.00000000000E+00 0. -1.
         22    1    3    3    0    0 -0.31351989482E+02 -0.46324297564E+02  0.17865548551E+02  0.58720231729E+02  0.00000000000E+00 0.  1.
         22    1    3    3    0    0  0.43096774037E+02  0.42581354003E+02  0.80874946494E+02  0.10105078234E+03  0.00000000000E+00 0.  1.
</event>
<event>
 7    1  0.5139898E-006  0.7215394E+02  0.7818608E-02  0.1453702E+00
          2   -1    0    0  502    0  0.00000000000E+00  0.00000000000E+00  0.48047742845E+03  0.48047742845E+03  0.00000000000E+00 0. -1.
          1   -1    0    0  501    0 -0.00000000000E+00 -0.00000000000E+00 -0.15331838908E+03  0.15331838908E+03  0.00000000000E+00 0. -1.
         25    2    1    2    0    0 -0.66542726331E+02 -0.50687897883E+02  0.16601459729E+03  0.22401548995E+03  0.12499958321E+03 0.  0.
          2    1    1    2  501    0  0.30714229034E+02 -0.10858573769E+02 -0.11762771101E+03  0.12205552378E+03  0.00000000000E+00 0. -1.
          1    1    1    2  502    0  0.35828497297E+02  0.61546471652E+02  0.27877215308E+03  0.28772480381E+03  0.00000000000E+00 0. -1.
         22    1    3    3    0    0  0.29915313971E+02 -0.38915337658E+02  0.32447989243E+02  0.58840475193E+02  0.00000000000E+00 0. -1.
         22    1    3    3    0    0 -0.96458040303E+02 -0.11772560225E+02  0.13356660805E+03  0.16517501475E+03  0.00000000000E+00 0. -1.
</event>
<event>
 7    1  0.5139898E-006  0.6350477E+02  0.7818608E-02  0.1525479E+00
          2   -1    0    0  502    0  0.00000000000E+00  0.00000000000E+00  0.64025776285E+02  0.64025776285E+02  0.00000000000E+00 0. -1.
          1   -1    0    0  501    0 -0.00000000000E+00 -0.00000000000E+00 -0.86973018809E+03  0.86973018809E+03  0.00000000000E+00 0. -1.
         25    2    1    2    0    0  0.20741352579E+02  0.41278779163E+02 -0.43723002486E+03  0.45708770838E+03  0.12499974882E+03 0.  0.
          2    1    1    2  501    0 -0.65830842210E+01  0.21448905722E+02 -0.40303822766E+03  0.40366224187E+03  0.00000000000E+00 0. -1.
          1    1    1    2  502    0 -0.14158268358E+02 -0.62727684885E+02  0.34563840709E+02  0.73006014125E+02  0.00000000000E+00 0. -1.
         22    1    3    3    0    0  0.30756636952E+02  0.29850966329E+02 -0.43962092454E+03  0.44170534093E+03  0.00000000000E+00 0.  1.
         22    1    3    3    0    0 -0.10015284373E+02  0.11427812834E+02  0.23908996885E+01  0.15382367456E+02  0.00000000000E+00 0.  1.
</event>
<event>
 7    1  0.5139898E-006  0.4307126E+02  0.7818608E-02  0.1487179E+00
          2   -1    0    0  502    0  0.00000000000E+00  0.00000000000E+00  0.99988938487E+03  0.99988938487E+03  0.00000000000E+00 0. -1.
          1   -1    0    0  501    0 -0.00000000000E+00 -0.00000000000E+00 -0.12772150508E+04  0.12772150508E+04  0.00000000000E+00 0. -1.
         25    2    1    2    0    0  0.46016819768E+02  0.15086956700E+02 -0.59800493755E+02  0.14678211060E+03  0.12499489979E+03 0.  0.
          2    1    1    2  501    0 -0.11919979097E+02 -0.41403089735E+02 -0.11730431378E+04  0.11738341045E+04  0.00000000000E+00 0. -1.
          1    1    1    2  502    0 -0.34096840672E+02  0.26316133035E+02  0.95551796564E+03  0.95648822055E+03  0.00000000000E+00 0. -1.
         22    1    3    3    0    0 -0.19033835218E+02 -0.42347957528E+02 -0.28787048792E+02  0.54629026790E+02  0.00000000000E+00 0. -1.
         22    1    3    3    0    0  0.65050654986E+02  0.57434914228E+02 -0.31013444963E+02  0.92153083806E+02  0.00000000000E+00 0. -1.
</event>
<event>
 7    1  0.5139898E-006  0.5838169E+02  0.7818608E-02  0.1490452E+00
          2   -1    0    0  502    0  0.00000000000E+00  0.00000000000E+00  0.36745789841E+03  0.36745789841E+03  0.00000000000E+00 0. -1.
          1   -1    0    0  501    0 -0.00000000000E+00 -0.00000000000E+00 -0.11987195204E+03  0.11987195204E+03  0.00000000000E+00 0. -1.
         25    2    1    2    0    0 -0.18456055244E+02  0.74606813740E+02  0.19933467986E+02  0.14808412570E+03  0.12499905002E+03 0.  0.
          2    1    1    2  501    0 -0.14640978701E+02 -0.27286612162E+02 -0.48267975056E+02  0.57347317955E+02  0.00000000000E+00 0. -1.
          1    1    1    2  502    0  0.33097033946E+02 -0.47320201579E+02  0.27592045344E+03  0.28189840681E+03  0.00000000000E+00 0. -1.
         22    1    3    3    0    0 -0.29557505851E+02 -0.25808087309E+02  0.25678105226E+02  0.46894227903E+02  0.00000000000E+00 0.  1.
         22    1    3    3    0    0  0.11101450607E+02  0.10041490105E+03 -0.57446372393E+01  0.10118989779E+03  0.00000000000E+00 0.  1.
</event>
<event>
 7    1  0.5139898E-006  0.7280550E+02  0.7818608E-02  0.1369088E+00
          2   -1    0    0  502    0  0.00000000000E+00  0.00000000000E+00  0.19216993754E+04  0.19216993754E+04  0.00000000000E+00 0. -1.
          1   -1    0    0  501    0 -0.00000000000E+00 -0.00000000000E+00 -0.17550070901E+03  0.17550070901E+03  0.00000000000E+00 0. -1.
         25    2    1    2    0    0  0.20480349771E+02  0.48059289311E+02  0.25013039453E+03  0.28446424881E+03  0.12500221824E+03 0.  0.
          2    1    1    2  501    0 -0.72865583795E+02 -0.14089238753E+02 -0.14901228785E+03  0.16647090400E+03  0.00000000000E+00 0. -1.
          1    1    1    2  502    0  0.52385234024E+02 -0.33970050558E+02  0.16450805597E+04  0.16462649316E+04  0.00000000000E+00 0. -1.
         22    1    3    3    0    0  0.45242685573E+02 -0.24070034369E+02  0.15057274783E+03  0.15905476900E+03  0.00000000000E+00 0.  1.
         22    1    3    3    0    0 -0.24762335801E+02  0.72129323680E+02  0.99557646706E+02  0.12540947981E+03  0.00000000000E+00 0.  1.
</event>
<event>
 7    1  0.5139898E-006  0.1357066E+03  0.7818608E-02  0.1354481E+00
          2   -1    0    0  502    0  0.00000000000E+00  0.00000000000E+00  0.72967359679E+03  0.72967359679E+03  0.00000000000E+00 0. -1.
          1   -1    0    0  501    0 -0.00000000000E+00 -0.00000000000E+00 -0.14164516477E+04  0.14164516477E+04  0.00000000000E+00 0. -1.
         25    2    1    2    0    0 -0.12126681429E+03  0.35320813141E+02 -0.20165827153E+03  0.26878290256E+03  0.12499996057E+03 0.  0.
          2    1    1    2  501    0 -0.14840364824E+02 -0.34828263892E+02 -0.11742699107E+04  0.11748800226E+04  0.00000000000E+00 0. -1.
          1    1    1    2  502    0  0.13610717911E+03 -0.49254924927E+00  0.68915013122E+03  0.70246231940E+03  0.00000000000E+00 0. -1.
         22    1    3    3    0    0 -0.35518437194E+02 -0.45014872351E+02 -0.44643568099E+02  0.72670119624E+02  0.00000000000E+00 0. -1.
         22    1    3    3    0    0 -0.85748377094E+02  0.80335685492E+02 -0.15701470343E+03  0.19611278293E+03  0.00000000000E+00 0. -1.
</event>
<event>
 7    1  0.5139898E-006  0.4293706E+02  0.7818608E-02  0.1509604E+00
          2   -1    0    0  502    0  0.00000000000E+00  0.00000000000E+00  0.14454128694E+02  0.14454128694E+02  0.00000000000E+00 0. -1.
          1   -1    0    0  501    0 -0.00000000000E+00 -0.00000000000E+00 -0.10376390042E+04  0.10376390042E+04  0.00000000000E+00 0. -1.
         25    2    1    2    0    0 -0.47927326076E+02 -0.52450906644E+01 -0.68707096850E+03  0.70001217481E+03  0.12500395817E+03 0.  0.
          2    1    1    2  501    0  0.27021670022E+02  0.35667754321E+02 -0.28791106320E+03  0.29136770525E+03  0.00000000000E+00 0. -1.
          1    1    1    2  502    0  0.20905656054E+02 -0.30422663657E+02 -0.48202843785E+02  0.60713252820E+02  0.00000000000E+00 0. -1.
         22    1    3    3    0    0 -0.65336062424E+02 -0.41508168178E+02 -0.26627272959E+03  0.27729568263E+03  0.00000000000E+00 0.  1.
         22    1    3    3    0    0  0.17408736347E+02  0.36263077513E+02 -0.42079823891E+03  0.42271649218E+03  0.00000000000E+00 0.  1.
</event>
<event>
 7    1  0.5139898E-006  0.6347615E+02  0.7818608E-02  0.1455419E+00
          2   -1    0    0  502    0  0.00000000000E+00  0.00000000000E+00  0.11923293394E+03  0.11923293394E+03  0.00000000000E+00 0. -1.
          1   -1    0    0  501    0 -0.00000000000E+00 -0.00000000000E+00 -0.13281829567E+03  0.13281829567E+03  0.00000000000E+00 0. -1.
         25    2    1    2    0    0 -0.57616311232E+02 -0.62436092629E+02  0.10154906446E+02  0.15147906569E+03  0.12499952093E+03 0.  0.
          2    1    1    2  501    0  0.22437224810E+02  0.52453027979E+02 -0.14157894186E+00  0.57050584975E+02  0.00000000000E+00 0. -1.
          1    1    1    2  502    0  0.35179086421E+02  0.99830646499E+01 -0.23598689226E+02  0.43521578952E+02  0.00000000000E+00 0. -1.
         22    1    3    3    0    0 -0.66257026773E+02 -0.76471910602E+01 -0.39088991736E+02  0.77307324380E+02  0.00000000000E+00 0. -1.
         22    1    3    3    0    0  0.86407155413E+01 -0.54788901569E+02  0.49243898182E+02  0.74171741305E+02  0.00000000000E+00 0. -1.
</event>
<event>
 7    1  0.5139898E-006  0.4963180E+02  0.7818608E-02  0.1476985E+00
          2   -1    0    0  502    0  0.00000000000E+00  0.00000000000E+00  0.39763775654E+02  0.39763775654E+02  0.00000000000E+00 0. -1.
          1   -1    0    0  501    0 -0.00000000000E+00 -0.00000000000E+00 -0.13124937866E+04  0.13124937866E+04  0.00000000000E+00 0. -1.
         25    2    1    2    0    0 -0.50222280688E+02 -0.66619805276E+02 -0.80560037930E+03  0.81949811500E+03  0.12499885370E+03 0.  0.
          2    1    1    2  501    0  0.34541483942E+02  0.20252810326E+02 -0.48038397850E+03  0.48204984933E+03  0.00000000000E+00 0. -1.
          1    1    1    2  502    0  0.15680796746E+02  0.46366994950E+02  0.13254346886E+02  0.50709597894E+02  0.00000000000E+00 0. -1.
         22    1    3    3    0    0 -0.34372932588E+02 -0.98252234055E+01 -0.67789737726E+03  0.67883936804E+03  0.00000000000E+00 0.  1.
         22    1    3    3    0    0 -0.15849348100E+02 -0.56794581870E+02 -0.12770300204E+03  0.14065874695E+03  0.00000000000E+00 0.  1.
</event>
<event>
 7    1  0.5139898E-006  0.1132498E+03  0.7818608E-02  0.1339096E+00
          2   -1    0    0  502    0  0.00000000000E+00  0.00000000000E+00  0.52333840379E+03  0.52333840379E+03  0.00000000000E+00 0. -1.
          1   -1    0    0  501    0 -0.00000000000E+00 -0.00000000000E+00 -0.80719736923E+02  0.80719736923E+02  0.00000000000E+00 0. -1.
         25    2    1    2    0    0  0.76618712776E+02  0.33327538071E+02  0.11617502655E+03  0.19000906284E+03  0.12500262089E+03 0.  0.
          2    1    1    2  501    0  0.46064929046E+02 -0.23606821541E+02 -0.12674145854E+02  0.53290652881E+02  0.00000000000E+00 0. -1.
          1    1    1    2  502    0 -0.12268364182E+03 -0.97207165295E+01  0.33911778618E+03  0.36075842499E+03  0.00000000000E+00 0. -1.
         22    1    3    3    0    0  0.11103045278E+03  0.32076203134E+02  0.83904645352E+02  0.14281678390E+03  0.00000000000E+00 0. -1.
         22    1    3    3    0    0 -0.34411740005E+02  0.12513349367E+01  0.32270381194E+02  0.47192278942E+02  0.00000000000E+00 0. -1.
</event>
<event>
 7    1  0.7710493E-006  0.9158708E+02  0.7818608E-02  0.1375507E+00
          2   -1    0    0  502    0  0.00000000000E+00  0.00000000000E+00  0.55926279122E+03  0.55926279122E+03  0.00000000000E+00 0. -1.
          1   -1    0    0  501    0 -0.00000000000E+00 -0.00000000000E+00 -0.27017749346E+04  0.27017749346E+04  0.00000000000E+00 0. -1.
         25    2    1    2    0    0  0.28396900750E+02  0.71629676248E+02 -0.10453351802E+04  0.10555982199E+04  0.12499907369E+03 0.  0.
          2    1    1    2  501    0 -0.43129653798E+02  0.18857712500E+02 -0.16471777202E+04  0.16478501820E+04  0.00000000000E+00 0. -1.
          1    1    1    2  502    0  0.14732753048E+02 -0.90487388748E+02  0.55000075697E+03  0.55758932397E+03  0.00000000000E+00 0. -1.
         22    1    3    3    0    0 -0.41478954112E+02  0.57403747712E+02 -0.38839525449E+03  0.39479940172E+03  0.00000000000E+00 0.  1.
         22    1    3    3    0    0  0.69875854861E+02  0.14225928537E+02 -0.65693992566E+03  0.66079881815E+03  0.00000000000E+00 0.  1.
</event>
<event>
 7    1  0.5139898E-006  0.8495928E+02  0.7818608E-02  0.1333439E+00
          2   -1    0    0  502    0  0.00000000000E+00  0.00000000000E+00  0.42266673662E+03  0.42266673662E+03  0.00000000000E+00 0. -1.
          1   -1    0    0  501    0 -0.00000000000E+00 -0.00000000000E+00 -0.43098829249E+03  0.43098829249E+03  0.00000000000E+00 0. -1.
         25    2    1    2    0    0  0.18592715958E+02  0.28698693488E+02  0.27615615433E+03  0.30505256610E+03  0.12500216963E+03 0.  0.
          2    1    1    2  501    0  0.33345267912E+02 -0.79258278766E+02 -0.40168931853E+03  0.41078959366E+03  0.00000000000E+00 0. -1.
          1    1    1    2  502    0 -0.51937983870E+02  0.50559585279E+02  0.11721160832E+03  0.13781286934E+03  0.00000000000E+00 0. -1.
         22    1    3    3    0    0  0.55284861973E+02  0.20920450010E+02  0.55008069547E+02  0.80746324420E+02  0.00000000000E+00 0.  1.
         22    1    3    3    0    0 -0.36692146015E+02  0.77782434782E+01  0.22114808479E+03  0.22430624168E+03  0.00000000000E+00 0.  1.
</event>
<event>
 7    1  0.5139898E-006  0.1457154E+03  0.7818608E-02  0.1361020E+00
          2   -1    0    0  502    0  0.00000000000E+00  0.00000000000E+00  0.11741752016E+04  0.11741752016E+04  0.00000000000E+00 0. -1.
          1   -1    0    0  501    0 -0.00000000000E+00 -0.00000000000E+00 -0.39120843950E+02  0.39120843950E+02  0.00000000000E+00 0. -1.
         25    2    1    2    0    0  0.10048868517E+03 -0.13893621322E+03  0.43362913360E+03  0.48276349943E+03  0.12500049475E+03 0.  0.
          2    1    1    2  501    0 -0.22340539005E+02  0.24783465097E+02  0.29573644628E+02  0.44586099648E+02  0.00000000000E+00 0. -1.
          1    1    1    2  502    0 -0.78148146165E+02  0.11415274812E+03  0.67185157946E+03  0.68594644651E+03  0.00000000000E+00 0. -1.
         22    1    3    3    0    0  0.90672824496E+02 -0.27405142753E+02  0.14519755267E+03  0.17336358398E+03  0.00000000000E+00 0. -1.
         22    1    3    3    0    0  0.98158606738E+01 -0.11153107047E+03  0.28843158093E+03  0.30939991545E+03  0.00000000000E+00 0. -1.
</event>
<event>
 7    1  0.5139898E-006  0.7018929E+02  0.7818608E-02  0.1394586E+00
          2   -1    0    0  502    0  0.00000000000E+00  0.00000000000E+00  0.16131830559E+03  0.16131830559E+03  0.00000000000E+00 0. -1.
          1   -1    0    0  501    0 -0.00000000000E+00 -0.00000000000E+00 -0.15170678070E+04  0.15170678070E+04  0.00000000000E+00 0. -1.
         25    2    1    2    0    0 -0.11008332124E+03 -0.54319501787E+01 -0.88237395662E+02  0.18857015679E+03  0.12500008936E+03 0.  0.
          2    1    1    2  501    0  0.65741253584E+02 -0.22922333839E+02 -0.13715004948E+04  0.13732665266E+04  0.00000000000E+00 0. -1.
          1    1    1    2  502    0  0.44342067660E+02  0.28354284018E+02  0.10398838906E+03  0.11654942920E+03  0.00000000000E+00 0. -1.
         22    1    3    3    0    0  0.20767322267E+02 -0.26611127429E+02 -0.13149064116E+02  0.36226118538E+02  0.00000000000E+00 0.  1.
         22    1    3    3    0    0 -0.13085064351E+03  0.21179177250E+02 -0.75088331546E+02  0.15234403825E+03  0.00000000000E+00 0.  1.
</event>
<event>
 7    1  0.5139898E-006  0.8346572E+02  0.7818608E-02  0.1435937E+00
          2   -1    0    0  502    0  0.00000000000E+00  0.00000000000E+00  0.48956876434E+03  0.48956876434E+03  0.00000000000E+00 0. -1.
          1   -1    0    0  501    0 -0.00000000000E+00 -0.00000000000E+00 -0.16439530356E+03  0.16439530356E+03  0.00000000000E+00 0. -1.
         25    2    1    2    0    0  0.35763177027E+02 -0.88946854939E+02 -0.11999423311E+02  0.15797687196E+03  0.12498863181E+03 0.  0.
          2    1    1    2  501    0  0.18665789196E+02  0.26153168435E+02 -0.71797666131E+02  0.78659422623E+02  0.00000000000E+00 0. -1.
          1    1    1    2  502    0 -0.54428966223E+02  0.62793686503E+02  0.40897055022E+03  0.41732777331E+03  0.00000000000E+00 0. -1.
         22    1    3    3    0    0  0.46947181746E+01 -0.92141799493E+02  0.37382641171E+02  0.99547041410E+02  0.00000000000E+00 0. -1.
         22    1    3    3    0    0  0.31068458853E+02  0.31949445542E+01 -0.49382064481E+02  0.58429830554E+02  0.00000000000E+00 0. -1.
</event>
<event>
 7    1  0.5139898E-006  0.2052255E+03  0.7818608E-02  0.1295006E+00
          2   -1    0    0  502    0  0.00000000000E+00  0.00000000000E+00  0.26972793184E+04  0.26972793184E+04  0.00000000000E+00 0. -1.
          1   -1    0    0  501    0 -0.00000000000E+00 -0.00000000000E+00 -0.80545224258E+03  0.80545224258E+03  0.00000000000E+00 0. -1.
         25    2    1    2    0    0  0.29260918599E+02 -0.16988044527E+03  0.54619716191E+03  0.58623555921E+03  0.12500089661E+03 0.  0.
          2    1    1    2  501    0  0.15685774818E+02 -0.39428498811E+02 -0.77947802048E+03  0.78063220178E+03  0.00000000000E+00 0. -1.
          1    1    1    2  502    0 -0.44946693417E+02  0.20930894408E+03  0.21251079344E+04  0.21358638000E+04  0.00000000000E+00 0. -1.
         22    1    3    3    0    0  0.25144258128E+02 -0.30658142145E+02  0.30614566798E+03  0.30870264887E+03  0.00000000000E+00 0.  1.
         22    1    3    3    0    0  0.41166604708E+01 -0.13922230312E+03  0.24005149393E+03  0.27753291034E+03  0.00000000000E+00 0.  1.
</event>
<event>
 7    1  0.5139898E-006  0.7400267E+02  0.7818608E-02  0.1384561E+00
          2   -1    0    0  502    0  0.00000000000E+00  0.00000000000E+00  0.19237950472E+03  0.19237950472E+03  0.00000000000E+00 0. -1.
          1   -1    0    0  501    0 -0.00000000000E+00 -0.00000000000E+00 -0.17979994412E+04  0.17979994412E+04  0.00000000000E+00 0. -1.
         25    2    1    2    0    0  0.78578769911E+02 -0.99899995705E+02 -0.11473976823E+01  0.17827188569E+03  0.12499966593E+03 0.  0.
          2    1    1    2  501    0 -0.49872603389E+02  0.54031042594E+02 -0.17003900200E+04  0.17019790981E+04  0.00000000000E+00 0. -1.
          1    1    1    2  502    0 -0.28706166522E+02  0.45868953111E+02  0.95917481190E+02  0.11012796218E+03  0.00000000000E+00 0. -1.
         22    1    3    3    0    0  0.29893246969E+02 -0.10390698439E+03  0.39103252577E+02  0.11497535380E+03  0.00000000000E+00 0.  1.
         22    1    3    3    0    0  0.48685522942E+02  0.40069886853E+01 -0.40250650260E+02  0.63296531886E+02  0.00000000000E+00 0.  1.
</event>
<event>
 7    1  0.5139898E-006  0.8764584E+02  0.7818608E-02  0.1330471E+00
          2   -1    0    0  502    0  0.00000000000E+00  0.00000000000E+00  0.18833207904E+04  0.18833207904E+04  0.00000000000E+00 0. -1.
          1   -1    0    0  501    0 -0.00000000000E+00 -0.00000000000E+00 -0.16312467594E+03  0.16312467594E+03  0.00000000000E+00 0. -1.
         25    2    1    2    0    0 -0.13812433720E+01  0.64445112731E+00  0.58580526053E+03  0.59899421948E+03  0.12499579416E+03 0.  0.
          2    1    1    2  501    0 -0.26813089178E+02  0.83443706407E+02 -0.14260153618E+03  0.16738277095E+03  0.00000000000E+00 0. -1.
          1    1    1    2  502    0  0.28194332550E+02 -0.84088157535E+02  0.12769923901E+04  0.12800684759E+04  0.00000000000E+00 0. -1.
         22    1    3    3    0    0  0.10761872980E+02 -0.46805101833E+02  0.48006476192E+03  0.48246109802E+03  0.00000000000E+00 0. -1.
         22    1    3    3    0    0 -0.12143116352E+02  0.47449552960E+02  0.10574049861E+03  0.11653312146E+03  0.00000000000E+00 0. -1.
</event>
<event>
 7    1  0.5139898E-006  0.2840906E+03  0.7818608E-02  0.1195100E+00
          2   -1    0    0  502    0  0.00000000000E+00  0.00000000000E+00  0.49009185896E+03  0.49009185896E+03  0.00000000000E+00 0. -1.
          1   -1    0    0  501    0 -0.00000000000E+00 -0.00000000000E+00 -0.74747627619E+03  0.74747627619E+03  0.00000000000E+00 0. -1.
         25    2    1    2    0    0  0.11786743511E+03 -0.23098701641E+03 -0.14068553566E+03  0.32041410690E+03  0.12500018379E+03 0.  0.
          2    1    1    2  501    0 -0.61190939794E+02  0.29295456966E+03 -0.46824552602E+03  0.55571627980E+03  0.00000000000E+00 0. -1.
          1    1    1    2  502    0 -0.56676495318E+02 -0.61967553250E+02  0.35154664445E+03  0.36143774845E+03  0.00000000000E+00 0. -1.
         22    1    3    3    0    0  0.89290128728E+02 -0.19169060477E+03 -0.16295135637E+03  0.26696658890E+03  0.00000000000E+00 0.  1.
         22    1    3    3    0    0  0.28577306384E+02 -0.39296411637E+02  0.22265820716E+02  0.53447517995E+02  0.00000000000E+00 0.  1.
</event>
<event>
 7    1  0.6505774E-006  0.1093051E+03  0.7818608E-02  0.1277237E+00
          2   -1    0    0  502    0  0.00000000000E+00  0.00000000000E+00  0.13367704284E+04  0.13367704284E+04  0.00000000000E+00 0. -1.
          1   -1    0    0  501    0 -0.00000000000E+00 -0.00000000000E+00 -0.10381704330E+04  0.10381704330E+04  0.00000000000E+00 0. -1.
         25    2    1    2    0    0 -0.38660652305E+02  0.10444466442E+03 -0.12136893435E+03  0.20678291694E+03  0.12500169018E+03 0.  0.
          2    1    1    2  501    0 -0.65016398248E+02 -0.68158048360E+02 -0.86921448514E+03  0.87430342146E+03  0.00000000000E+00 0. -1.
          1    1    1    2  502    0  0.10367705055E+03 -0.36286616061E+02  0.12891834149E+04  0.12938545230E+04  0.00000000000E+00 0. -1.
         22    1    3    3    0    0 -0.75896869345E+02  0.10499208130E+03 -0.10147104750E+03  0.16456015736E+03  0.00000000000E+00 0.  1.
         22    1    3    3    0    0  0.37236217040E+02 -0.54741687533E+00 -0.19897886849E+02  0.42222759571E+02  0.00000000000E+00 0.  1.
</event>
<event>
 7    1  0.5139898E-006  0.9907369E+02  0.7818608E-02  0.1382917E+00
          2   -1    0    0  502    0  0.00000000000E+00  0.00000000000E+00  0.15628768678E+04  0.15628768678E+04  0.00000000000E+00 0. -1.
          1   -1    0    0  501    0 -0.00000000000E+00 -0.00000000000E+00 -0.11113300794E+04  0.11113300794E+04  0.00000000000E+00 0. -1.
         25    2    1    2    0    0 -0.62647896850E+02  0.15762116267E+02 -0.90573506967E+01  0.14100238375E+03  0.12500573320E+03 0.  0.
          2    1    1    2  501    0  0.10041597612E+03  0.90768514968E-01 -0.10335863527E+04  0.10384527553E+04  0.00000000000E+00 0. -1.
          1    1    1    2  502    0 -0.37768079267E+02 -0.15852884782E+02  0.14941904918E+04  0.14947518081E+04  0.00000000000E+00 0. -1.
         22    1    3    3    0    0 -0.44832989925E+02  0.32299438484E+01  0.56339652579E+02  0.72073476228E+02  0.00000000000E+00 0. -1.
         22    1    3    3    0    0 -0.17814906925E+02  0.12532172419E+02 -0.65397003276E+02  0.68928907519E+02  0.00000000000E+00 0. -1.
</event>
<event>
 7    1  0.5139898E-006  0.3920789E+03  0.7818608E-02  0.1102854E+00
          2   -1    0    0  502    0  0.00000000000E+00  0.00000000000E+00  0.50296285690E+03  0.50296285690E+03  0.00000000000E+00 0. -1.
          1   -1    0    0  501    0 -0.00000000000E+00 -0.00000000000E+00 -0.16940700681E+04  0.16940700681E+04  0.00000000000E+00 0. -1.
         25    2    1    2    0    0 -0.18366349708E+03  0.18550332671E+03 -0.28413655385E+03  0.40558938632E+03  0.12500161870E+03 0.  0.
          2    1    1    2  501    0 -0.65654189317E+02  0.16994598835E+03 -0.12343220027E+04  0.12476950421E+04  0.00000000000E+00 0. -1.
          1    1    1    2  502    0  0.24931768640E+03 -0.35544931507E+03  0.32735134534E+03  0.54374849667E+03  0.00000000000E+00 0. -1.
         22    1    3    3    0    0 -0.47787281581E+01 -0.14023591057E+02  0.27773720462E+00  0.14818045988E+02  0.00000000000E+00 0. -1.
         22    1    3    3    0    0 -0.17888476892E+03  0.19952691777E+03 -0.28441429106E+03  0.39077134033E+03  0.00000000000E+00 0. -1.
</event>
<event>
 7    1  0.5139898E-006  0.2421331E+03  0.7818608E-02  0.1175756E+00
          2   -1    0    0  502    0  0.00000000000E+00  0.00000000000E+00  0.28415047932E+04  0.28415047932E+04  0.00000000000E+00 0. -1.
          1   -1    0    0  501    0 -0.00000000000E+00 -0.00000000000E+00 -0.14949182864E+03  0.14949182864E+03  0.00000000000E+00 0. -1.
         25    2    1    2    0    0  0.11910238552E+03 -0.78670265615E+02  0.14052662642E+03  0.23611182066E+03  0.12500668059E+03 0.  0.
          2    1    1    2  501    0  0.12205420866E+03 -0.61977406913E+01 -0.56328894373E+02  0.13456814698E+03  0.00000000000E+00 0. -1.
          1    1    1    2  502    0 -0.24115659418E+03  0.84868006307E+02  0.26078152325E+04  0.26203166542E+04  0.00000000000E+00 0. -1.
         22    1    3    3    0    0 -0.26013484534E+02 -0.61679739535E+01  0.27809872952E+02  0.38576343968E+02  0.00000000000E+00 0. -1.
         22    1    3    3    0    0  0.14511587006E+03 -0.72502291662E+02  0.11271675347E+03  0.19753547669E+03  0.00000000000E+00 0. -1.
</event>
<event>
 7    1  0.5139898E-006  0.1878877E+03  0.7818608E-02  0.1164278E+00
          2   -1    0    0  502    0  0.00000000000E+00  0.00000000000E+00  0.83605861416E+03  0.83605861416E+03  0.00000000000E+00 0. -1.
          1   -1    0    0  501    0 -0.00000000000E+00 -0.00000000000E+00 -0.40325300058E+03  0.40325300058E+03  0.00000000000E+00 0. -1.
         25    2    1    2    0    0  0.43537421549E+02  0.21959392527E+02 -0.14872027904E+03  0.20030105099E+03  0.12500027054E+03 0.  0.
          2    1    1    2  501    0 -0.94959028134E+02  0.16212512626E+03 -0.17618127634E+03  0.25756866215E+03  0.00000000000E+00 0. -1.
          1    1    1    2  502    0  0.51421606584E+02 -0.18408451879E+03  0.75770716895E+03  0.78144190159E+03  0.00000000000E+00 0. -1.
         22    1    3    3    0    0  0.61426271082E+02 -0.36240334119E+02 -0.97093724003E+02  0.12047298385E+03  0.00000000000E+00 0. -1.
         22    1    3    3    0    0 -0.17888849532E+02  0.58199726647E+02 -0.51626555033E+02  0.79828067144E+02  0.00000000000E+00 0. -1.
</event>
<event>
 7    1  0.5139898E-006  0.8208354E+02  0.7818608E-02  0.1408342E+00
          2   -1    0    0  502    0  0.00000000000E+00  0.00000000000E+00  0.38600027812E+03  0.38600027812E+03  0.00000000000E+00 0. -1.
          1   -1    0    0  501    0 -0.00000000000E+00 -0.00000000000E+00 -0.19671929160E+04  0.19671929160E+04  0.00000000000E+00 0. -1.
         25    2    1    2    0    0  0.40187390166E+02 -0.88743257162E+02  0.54884182980E+02  0.16769594721E+03  0.12497705849E+03 0.  0.
          2    1    1    2  501    0 -0.39668810732E+02  0.74965873667E+01 -0.19045609372E+04  0.19049887603E+04  0.00000000000E+00 0. -1.
          1    1    1    2  502    0 -0.51857943355E+00  0.81246669796E+02  0.26848411639E+03  0.28050848656E+03  0.00000000000E+00 0. -1.
         22    1    3    3    0    0  0.91749411203E+01 -0.10371694395E+03  0.14578774302E+01  0.10413217281E+03  0.00000000000E+00 0.  1.
         22    1    3    3    0    0  0.31012449045E+02  0.14973686788E+02  0.53426305550E+02  0.63563774404E+02  0.00000000000E+00 0.  1.
</event>
<event>
 7    1  0.5139898E-006  0.1404512E+03  0.7818608E-02  0.1317326E+00
          2   -1    0    0  502    0  0.00000000000E+00  0.00000000000E+00  0.72182448851E+03  0.72182448851E+03  0.00000000000E+00 0. -1.
          1   -1    0    0  501    0 -0.00000000000E+00 -0.00000000000E+00 -0.17818031484E+04  0.17818031484E+04  0.00000000000E+00 0. -1.
         25    2    1    2    0    0  0.69731942435E+02 -0.58837211395E+02  0.21188410024E+03  0.26238168982E+03  0.12499967191E+03 0.  0.
          2    1    1    2  501    0 -0.10043452514E+03  0.99024664019E+02 -0.17523939753E+04  0.17580607562E+04  0.00000000000E+00 0. -1.
          1    1    1    2  502    0  0.30702582702E+02 -0.40187452623E+02  0.48053121516E+03  0.48318519087E+03  0.00000000000E+00 0. -1.
         22    1    3    3    0    0  0.76385549369E+02 -0.88874088680E+02  0.19441378250E+03  0.22700236699E+03  0.00000000000E+00 0. -1.
         22    1    3    3    0    0 -0.66536069343E+01  0.30036877284E+02  0.17470317737E+02  0.35379322832E+02  0.00000000000E+00 0. -1.
</event>
<event>
 7    1  0.5139898E-006  0.4744199E+02  0.7818608E-02  0.1480085E+00
          2   -1    0    0  502    0  0.00000000000E+00  0.00000000000E+00  0.68209183719E+02  0.68209183719E+02  0.00000000000E+00 0. -1.
          1   -1    0    0  501    0 -0.00000000000E+00 -0.00000000000E+00 -0.12906640323E+04  0.12906640323E+04  0.00000000000E+00 0. -1.
         25    2    1    2    0    0 -0.75274055388E+02 -0.27521975384E+02 -0.45397471572E+03  0.47764094960E+03  0.12499676668E+03 0.  0.
          2    1    1    2  501    0  0.28439946196E+02  0.29505073960E+02 -0.81450697334E+03  0.81553723983E+03  0.00000000000E+00 0. -1.
          1    1    1    2  502    0  0.46834109191E+02 -0.19830985760E+01  0.46026840524E+02  0.65695026541E+02  0.00000000000E+00 0. -1.
         22    1    3    3    0    0  0.93290205078E+01  0.25867236923E+02 -0.25027286737E+02  0.37182114667E+02  0.00000000000E+00 0. -1.
         22    1    3    3    0    0 -0.84603075895E+02 -0.53389212307E+02 -0.42894742898E+03  0.44045883494E+03  0.00000000000E+00 0. -1.
</event>
<event>
 7    1  0.5139898E-006  0.1481069E+03  0.7818608E-02  0.1221489E+00
          2   -1    0    0  502    0  0.00000000000E+00  0.00000000000E+00  0.12606352960E+04  0.12606352960E+04  0.00000000000E+00 0. -1.
          1   -1    0    0  501    0 -0.00000000000E+00 -0.00000000000E+00 -0.20325771986E+03  0.20325771986E+03  0.00000000000E+00 0. -1.
         25    2    1    2    0    0  0.42045261070E+02 -0.67200592554E+02  0.21835944949E+03  0.26379254728E+03  0.12498774020E+03 0.  0.
          2    1    1    2  501    0  0.12141895507E+03  0.13635195400E+01 -0.15142745880E+03  0.19409970920E+03  0.00000000000E+00 0. -1.
          1    1    1    2  502    0 -0.16346421614E+03  0.65837073014E+02  0.99044558549E+03  0.10060007594E+04  0.00000000000E+00 0. -1.
         22    1    3    3    0    0  0.11302320430E+02 -0.84215411607E+02  0.21158354536E+03  0.22800783904E+03  0.00000000000E+00 0. -1.
         22    1    3    3    0    0  0.30742940640E+02  0.17014819053E+02  0.67759041344E+01  0.35784708235E+02  0.00000000000E+00 0. -1.
</event>
<event>
 7    1  0.5139898E-006  0.2906649E+02  0.7818608E-02  0.1631189E+00
          2   -1    0    0  502    0  0.00000000000E+00  0.00000000000E+00  0.99351820071E+02  0.99351820071E+02  0.00000000000E+00 0. -1.
          1   -1    0    0  501    0 -0.00000000000E+00 -0.00000000000E+00 -0.67697740637E+03  0.67697740637E+03  0.00000000000E+00 0. -1.
         25    2    1    2    0    0  0.13095812335E+01  0.12887661063E+02 -0.57176215989E+02  0.13804284914E+03  0.12497560447E+03 0.  0.
          2    1    1    2  501    0 -0.24841163440E+02  0.56065441839E+01 -0.57526702917E+03  0.57583041913E+03  0.00000000000E+00 0. -1.
          1    1    1    2  502    0  0.23531582207E+02 -0.18494205247E+02  0.54817658859E+02  0.62455958176E+02  0.00000000000E+00 0. -1.
         22    1    3    3    0    0 -0.79187786055E+01  0.17413351918E+02  0.37878097126E+02  0.42434444988E+02  0.00000000000E+00 0. -1.
         22    1    3    3    0    0  0.92283598390E+01 -0.45256908544E+01 -0.95054313115E+02  0.95608404154E+02  0.00000000000E+00 0. -1.
</event>
<event>
 7    1  0.5139898E-006  0.4997483E+02  0.7818608E-02  0.1462991E+00
          2   -1    0    0  502    0  0.00000000000E+00  0.00000000000E+00  0.31911759416E+03  0.31911759416E+03  0.00000000000E+00 0. -1.
          1   -1    0    0  501    0 -0.00000000000E+00 -0.00000000000E+00 -0.14170571305E+03  0.14170571305E+03  0.00000000000E+00 0. -1.
         25    2    1    2    0    0  0.75172040281E+02  0.19201668555E+02 -0.82671678445E+00  0.14712500092E+03  0.12500217086E+03 0.  0.
          2    1    1    2  501    0 -0.28004995090E+02 -0.33883845376E+02 -0.57759873555E+02  0.72585106740E+02  0.00000000000E+00 0. -1.
          1    1    1    2  502    0 -0.47167045191E+02  0.14682176820E+02  0.23599847145E+03  0.24111319955E+03  0.00000000000E+00 0. -1.
         22    1    3    3    0    0  0.17716407679E+02  0.32648634259E+02 -0.55432447650E+02  0.66727510612E+02  0.00000000000E+00 0. -1.
         22    1    3    3    0    0  0.57455632602E+02 -0.13446965703E+02  0.54605730866E+02  0.80397490307E+02  0.00000000000E+00 0. -1.
</event>
<event>
 7    1  0.5139898E-006  0.2969069E+02  0.7818608E-02  0.1655485E+00
          2   -1    0    0  502    0  0.00000000000E+00  0.00000000000E+00  0.12468622107E+04  0.12468622107E+04  0.00000000000E+00 0. -1.
          1   -1    0    0  501    0 -0.00000000000E+00 -0.00000000000E+00 -0.14048160432E+03  0.14048160432E+03  0.00000000000E+00 0. -1.
         25    2    1    2    0    0  0.53064713572E+01 -0.11789399128E+02  0.38911344773E+02  0.13155495351E+03  0.12500185787E+03 0.  0.
          2    1    1    2  501    0 -0.13824256314E+02 -0.16738916025E+02 -0.92714946522E+02  0.95222700449E+02  0.00000000000E+00 0. -1.
          1    1    1    2  502    0  0.85177849569E+01  0.28528315153E+02  0.11601842081E+04  0.11605661611E+04  0.00000000000E+00 0. -1.
         22    1    3    3    0    0 -0.47829614339E+02 -0.14868399313E+02  0.56494312258E+02  0.75500653132E+02  0.00000000000E+00 0. -1.
         22    1    3    3    0    0  0.53136085696E+02  0.30790001849E+01 -0.17582967485E+02  0.56054300377E+02  0.00000000000E+00 0. -1.
</event>
<event>
 7    1  0.5139898E-006  0.2064619E+03  0.7818608E-02  0.1187641E+00
          2   -1    0    0  502    0  0.00000000000E+00  0.00000000000E+00  0.21101882521E+04  0.21101882521E+04  0.00000000000E+00 0. -1.
          1   -1    0    0  501    0 -0.00000000000E+00 -0.00000000000E+00 -0.50218663669E+03  0.50218663669E+03  0.00000000000E+00 0. -1.
         25    2    1    2    0    0  0.15481465593E+03  0.44408394018E+02  0.38758289795E+02  0.20752550575E+03  0.12499978944E+03 0.  0.
          2    1    1    2  501    0  0.43609402821E+02 -0.11762903105E+03 -0.40260117702E+03  0.42169429294E+03  0.00000000000E+00 0. -1.
          1    1    1    2  502    0 -0.19842405875E+03  0.73220637035E+02  0.19718445026E+04  0.19831550901E+04  0.00000000000E+00 0. -1.
         22    1    3    3    0    0  0.14312597771E+03  0.46796736252E+01  0.66284698822E+02  0.15779925899E+03  0.00000000000E+00 0. -1.
         22    1    3    3    0    0  0.11688678217E+02  0.39728720393E+02 -0.27526409027E+02  0.49726246756E+02  0.00000000000E+00 0. -1.
</event>
<event>
 7    1  0.5139898E-006  0.1030220E+03  0.7818608E-02  0.1336015E+00
          2   -1    0    0  502    0  0.00000000000E+00  0.00000000000E+00  0.41369929866E+02  0.41369929866E+02  0.00000000000E+00 0. -1.
          1   -1    0    0  501    0 -0.00000000000E+00 -0.00000000000E+00 -0.15892557560E+04  0.15892557560E+04  0.00000000000E+00 0. -1.
         25    2    1    2    0    0 -0.10225773795E+02 -0.11907407249E+03 -0.13063781034E+04  0.13177754093E+04  0.12500031593E+03 0.  0.
          2    1    1    2  501    0 -0.33665096206E+02  0.80480472351E+02 -0.23891880771E+03  0.25434748241E+03  0.00000000000E+00 0. -1.
          1    1    1    2  502    0  0.43890870001E+02  0.38593600138E+02 -0.25889149537E+01  0.58502794136E+02  0.00000000000E+00 0. -1.
         22    1    3    3    0    0 -0.51805128595E+02 -0.96508067737E+02 -0.11253431419E+04  0.11306612072E+04  0.00000000000E+00 0.  1.
         22    1    3    3    0    0  0.41579354800E+02 -0.22566004752E+02 -0.18103496157E+03  0.18711420209E+03  0.00000000000E+00 0.  1.
</event>
<event>
 7    1  0.5139898E-006  0.3111678E+02  0.7818608E-02  0.1599004E+00
          2   -1    0    0  502    0  0.00000000000E+00  0.00000000000E+00  0.87599162855E+02  0.87599162855E+02  0.00000000000E+00 0. -1.
          1   -1    0    0  501    0 -0.00000000000E+00 -0.00000000000E+00 -0.63317898320E+03  0.63317898320E+03  0.00000000000E+00 0. -1.
         25    2    1    2    0    0  0.41626065272E+02  0.41059761915E+02 -0.26651477241E+03  0.30012181718E+03  0.12499739148E+03 0.  0.
          2    1    1    2  501    0 -0.23573535998E+02 -0.18665840045E+02 -0.34626027165E+03  0.34756337682E+03  0.00000000000E+00 0. -1.
          1    1    1    2  502    0 -0.18052529274E+02 -0.22393921870E+02  0.67195223714E+02  0.73092952053E+02  0.00000000000E+00 0. -1.
         22    1    3    3    0    0  0.19830964398E+02  0.85889213215E+02 -0.16981616228E+03  0.19133152659E+03  0.00000000000E+00 0. -1.
         22    1    3    3    0    0  0.21795100874E+02 -0.44829451300E+02 -0.96698610132E+02  0.10879029059E+03  0.00000000000E+00 0. -1.
</event>
<event>
 7    1  0.5139898E-006  0.3603812E+02  0.7818608E-02  0.1542277E+00
          2   -1    0    0  502    0  0.00000000000E+00  0.00000000000E+00  0.45575322620E+03  0.45575322620E+03  0.00000000000E+00 0. -1.
          1   -1    0    0  501    0 -0.00000000000E+00 -0.00000000000E+00 -0.20683277034E+04  0.20683277034E+04  0.00000000000E+00 0. -1.
         25    2    1    2    0    0  0.15342448287E+02 -0.45507433374E+02  0.81829924550E+02  0.15694144744E+03  0.12501265600E+03 0.  0.
          2    1    1    2  501    0  0.17243179217E+02  0.31650383739E+02 -0.20296796034E+04  0.20299995976E+04  0.00000000000E+00 0. -1.
          1    1    1    2  502    0 -0.32585627505E+02  0.13857049635E+02  0.33527520161E+03  0.33713988456E+03  0.00000000000E+00 0. -1.
         22    1    3    3    0    0 -0.50098798826E+02  0.48466755590E+01  0.21779532778E+02  0.54842756639E+02  0.00000000000E+00 0. -1.
         22    1    3    3    0    0  0.65441247113E+02 -0.50354108933E+02  0.60050391772E+02  0.10209869080E+03  0.00000000000E+00 0. -1.
</event>
<event>
 7    1  0.5139898E-006  0.6389424E+02  0.7818608E-02  0.1535843E+00
          2   -1    0    0  502    0  0.00000000000E+00  0.00000000000E+00  0.46919023989E+03  0.46919023989E+03  0.00000000000E+00 0. -1.
          1   -1    0    0  501    0 -0.00000000000E+00 -0.00000000000E+00 -0.10477751686E+03  0.10477751686E+03  0.00000000000E+00 0. -1.
         25    2    1    2    0    0 -0.32582494177E+02 -0.58333402457E+02  0.12826384658E+03  0.19115735844E+03  0.12500046631E+03 0.  0.
          2    1    1    2  501    0 -0.14414229440E+02  0.15033447395E+02 -0.68466569674E+02  0.71564276800E+02  0.00000000000E+00 0. -1.
          1    1    1    2  502    0  0.46996723618E+02  0.43299955063E+02  0.30461544612E+03  0.31124612151E+03  0.00000000000E+00 0. -1.
         22    1    3    3    0    0  0.36125134175E+02  0.93558350579E+01  0.10162090151E+02  0.38675897469E+02  0.00000000000E+00 0. -1.
         22    1    3    3    0    0 -0.68707628352E+02 -0.67689237515E+02  0.11810175643E+03  0.15248146097E+03  0.00000000000E+00 0. -1.
</event>
<event>
 7    1  0.5139898E-006  0.5749843E+02  0.7818608E-02  0.1463723E+00
          2   -1    0    0  502    0  0.00000000000E+00  0.00000000000E+00  0.12822265264E+04  0.12822265264E+04  0.00000000000E+00 0. -1.
          1   -1    0    0  501    0 -0.00000000000E+00 -0.00000000000E+00 -0.83475106187E+03  0.83475106187E+03  0.00000000000E+00 0. -1.
         25    2    1    2    0    0 -0.18716579836E+02 -0.13152695383E+02  0.16253844414E+03  0.20631556698E+03  0.12499625433E+03 0.  0.
          2    1    1    2  501    0 -0.15328133500E+02 -0.34777383772E+02 -0.81163040738E+03  0.81251974516E+03  0.00000000000E+00 0. -1.
          1    1    1    2  502    0  0.34044713336E+02  0.47930079155E+02  0.10965674277E+04  0.10981422761E+04  0.00000000000E+00 0. -1.
         22    1    3    3    0    0 -0.43099169606E+02 -0.60088245708E+02  0.10088771334E+03  0.12508583611E+03  0.00000000000E+00 0.  1.
         22    1    3    3    0    0  0.24382589770E+02  0.46935550325E+02  0.61650730800E+02  0.81229730865E+02  0.00000000000E+00 0.  1.
</event>
<event>
 7    1  0.5139898E-006  0.9068200E+02  0.7818608E-02  0.1364453E+00
          2   -1    0    0  502    0  0.00000000000E+00  0.00000000000E+00  0.28703228341E+03  0.28703228341E+03  0.00000000000E+00 0. -1.
          1   -1    0    0  501    0 -0.00000000000E+00 -0.00000000000E+00 -0.13471523872E+04  0.13471523872E+04  0.00000000000E+00 0. -1.
         25    2    1    2    0    0 -0.13648671843E+03 -0.17142826207E+01  0.50507361689E+01  0.18515032385E+03  0.12499427752E+03 0.  0.
          2    1    1    2  501    0  0.87703512924E+02  0.19999571630E+02 -0.12519234946E+04  0.12551511165E+04  0.00000000000E+00 0. -1.
          1    1    1    2  502    0  0.48783205508E+02 -0.18285289009E+02  0.18675265465E+03  0.19388323020E+03  0.00000000000E+00 0. -1.
         22    1    3    3    0    0 -0.71388249894E+02  0.26056939866E+02 -0.53794416059E+02  0.93107924138E+02  0.00000000000E+00 0. -1.
         22    1    3    3    0    0 -0.65098468538E+02 -0.27771222487E+02  0.58845152228E+02  0.92042399714E+02  0.00000000000E+00 0. -1.
</event>
<event>
 7    1  0.5139898E-006  0.1170040E+03  0.7818608E-02  0.1286318E+00
          2   -1    0    0  502    0  0.00000000000E+00  0.00000000000E+00  0.86542078608E+03  0.86542078608E+03  0.00000000000E+00 0. -1.
          1   -1    0    0  501    0 -0.00000000000E+00 -0.00000000000E+00 -0.13397351468E+03  0.13397351468E+03  0.00000000000E+00 0. -1.
         25    2    1    2    0    0 -0.12068817268E+01  0.53782039592E+02  0.26391463997E+03  0.29693071632E+03  0.12499179478E+03 0.  0.
          2    1    1    2  501    0  0.57981458717E+02 -0.11117739334E+03 -0.80180437315E+02  0.14883267407E+03  0.00000000000E+00 0. -1.
          1    1    1    2  502    0 -0.56774576990E+02  0.57395353744E+02  0.54771306875E+03  0.55363091036E+03  0.00000000000E+00 0. -1.
         22    1    3    3    0    0 -0.22782567004E+02 -0.22716653276E+02  0.17388085132E+03  0.17683224296E+03  0.00000000000E+00 0. -1.
         22    1    3    3    0    0  0.21575685277E+02  0.76498692868E+02  0.90033788650E+02  0.12009847336E+03  0.00000000000E+00 0. -1.
</event>
<event>
 7    1  0.5139898E-006  0.9356857E+02  0.7818608E-02  0.1352168E+00
          2   -1    0    0  502    0  0.00000000000E+00  0.00000000000E+00  0.60191672198E+03  0.60191672198E+03  0.00000000000E+00 0. -1.
          1   -1    0    0  501    0 -0.00000000000E+00 -0.00000000000E+00 -0.21748299923E+03  0.21748299923E+03  0.00000000000E+00 0. -1.
         25    2    1    2    0    0  0.94032413465E+02 -0.10093162597E+03  0.68754100757E+02  0.19844890459E+03  0.12500221382E+03 0.  0.
          2    1    1    2  501    0 -0.42618754059E+02  0.78745716992E+02 -0.13763163140E+03  0.16419412932E+03  0.00000000000E+00 0. -1.
          1    1    1    2  502    0 -0.51413659406E+02  0.22185908978E+02  0.45331125340E+03  0.45675668729E+03  0.00000000000E+00 0. -1.
         22    1    3    3    0    0  0.42386291134E+02 -0.11396334651E+03  0.14556685345E+02  0.12245872411E+03  0.00000000000E+00 0. -1.
         22    1    3    3    0    0  0.51646122331E+02  0.13031720538E+02  0.54197415411E+02  0.75990180479E+02  0.00000000000E+00 0. -1.
</event>
<event>
 7    1  0.5139898E-006  0.4050133E+02  0.7818608E-02  0.1579835E+00
          2   -1    0    0  502    0  0.00000000000E+00  0.00000000000E+00  0.16955974533E+02  0.16955974533E+02  0.00000000000E+00 0. -1.
          1   -1    0    0  501    0 -0.00000000000E+00 -0.00000000000E+00 -0.81783748258E+03  0.81783748258E+03  0.00000000000E+00 0. -1.
         25    2    1    2    0    0 -0.36355413851E+02 -0.56967036453E+01 -0.38643279355E+03  0.40781393979E+03  0.12501094755E+03 0.  0.
          2    1    1    2  501    0  0.61736300762E+01 -0.24060786292E+02 -0.34304918430E+03  0.34394734771E+03  0.00000000000E+00 0. -1.
          1    1    1    2  502    0  0.30181783775E+02  0.29757489937E+02 -0.71399530202E+02  0.83032169623E+02  0.00000000000E+00 0. -1.
         22    1    3    3    0    0 -0.67510822916E+02 -0.30327185474E+02 -0.14154080510E+03  0.15972241201E+03  0.00000000000E+00 0.  1.
         22    1    3    3    0    0  0.31155409064E+02  0.24630481828E+02 -0.24489198845E+03  0.24809152778E+03  0.00000000000E+00 0.  1.
</event>
<event>
 7    1  0.5139898E-006  0.1023408E+03  0.7818608E-02  0.1329591E+00
          2   -1    0    0  502    0  0.00000000000E+00  0.00000000000E+00  0.40953951426E+03  0.40953951426E+03  0.00000000000E+00 0. -1.
          1   -1    0    0  501    0 -0.00000000000E+00 -0.00000000000E+00 -0.45720405050E+03  0.45720405050E+03  0.00000000000E+00 0. -1.
         25    2    1    2    0    0 -0.58933968244E+02  0.54416552436E+00  0.11056667589E+03  0.17698595236E+03  0.12500211514E+03 0.  0.
          2    1    1    2  501    0  0.89073683835E+02 -0.54999598769E+02 -0.41373950109E+03  0.42677798887E+03  0.00000000000E+00 0. -1.
          1    1    1    2  502    0 -0.30139715591E+02  0.54455433244E+02  0.25550828896E+03  0.26297962353E+03  0.00000000000E+00 0. -1.
         22    1    3    3    0    0 -0.26689856981E+01 -0.12679838902E+02 -0.25802808687E+02  0.28873633913E+02  0.00000000000E+00 0. -1.
         22    1    3    3    0    0 -0.56264982546E+02  0.13224004426E+02  0.13636948457E+03  0.14811231845E+03  0.00000000000E+00 0. -1.
</event>
<event>
 7    1  0.5139898E-006  0.9846066E+02  0.7818608E-02  0.1306252E+00
          2   -1    0    0  502    0  0.00000000000E+00  0.00000000000E+00  0.79212638796E+03  0.79212638796E+03  0.00000000000E+00 0. -1.
          1   -1    0    0  501    0 -0.00000000000E+00 -0.00000000000E+00 -0.47406580774E+02  0.47406580774E+02  0.00000000000E+00 0. -1.
         25    2    1    2    0    0 -0.64200363305E+02  0.11432288333E+02  0.40127779500E+03  0.42532524911E+03  0.12500125962E+03 0.  0.
          2    1    1    2  501    0  0.21552809811E+02  0.96072770543E+02  0.81306015334E+02  0.12769169503E+03  0.00000000000E+00 0. -1.
          1    1    1    2  502    0  0.42647553493E+02 -0.10750505888E+03  0.26213599685E+03  0.28651602459E+03  0.00000000000E+00 0. -1.
         22    1    3    3    0    0 -0.11383581092E+02 -0.50626647716E+02  0.93417524348E+02  0.10686195409E+03  0.00000000000E+00 0.  1.
         22    1    3    3    0    0 -0.52816782212E+02  0.62058936049E+02  0.30786027065E+03  0.31846329502E+03  0.00000000000E+00 0.  1.
</event>
<event>
 7    1  0.5139898E-006  0.6274492E+02  0.7818608E-02  0.1525031E+00
          2   -1    0    0  502    0  0.00000000000E+00  0.00000000000E+00  0.33019235819E+03  0.33019235819E+03  0.00000000000E+00 0. -1.
          1   -1    0    0  501    0 -0.00000000000E+00 -0.00000000000E+00 -0.52664392981E+03  0.52664392981E+03  0.00000000000E+00 0. -1.
         25    2    1    2    0    0  0.31806903370E+02  0.33227864924E+02 -0.10084890166E+03  0.16706468591E+03  0.12499735279E+03 0.  0.
          2    1    1    2  501    0 -0.54576039927E+02 -0.33777495496E+02 -0.38962116545E+03  0.39487227796E+03  0.00000000000E+00 0. -1.
          1    1    1    2  502    0  0.22769136557E+02  0.54963057212E+00  0.29401849549E+03  0.29489932412E+03  0.00000000000E+00 0. -1.
         22    1    3    3    0    0  0.53505737195E+02  0.71217137579E+02 -0.61724736914E+02  0.10837291057E+03  0.00000000000E+00 0. -1.
         22    1    3    3    0    0 -0.21698833825E+02 -0.37989272655E+02 -0.39124164748E+02  0.58691775347E+02  0.00000000000E+00 0. -1.
</event>
<event>
 7    1  0.5139898E-006  0.9171256E+02  0.7818608E-02  0.1300459E+00
          2   -1    0    0  502    0  0.00000000000E+00  0.00000000000E+00  0.54600810785E+03  0.54600810785E+03  0.00000000000E+00 0. -1.
          1   -1    0    0  501    0 -0.00000000000E+00 -0.00000000000E+00 -0.10541025560E+04  0.10541025560E+04  0.00000000000E+00 0. -1.
         25    2    1    2    0    0  0.27701754881E+02  0.90346535365E+02 -0.16489980098E+02  0.15756678920E+03  0.12500195974E+03 0.  0.
          2    1    1    2  501    0  0.61818709508E+02 -0.67746893682E+02 -0.96038668892E+03  0.96475581714E+03  0.00000000000E+00 0. -1.
          1    1    1    2  502    0 -0.89520464389E+02 -0.22599641683E+02  0.46878222085E+03  0.47778805754E+03  0.00000000000E+00 0. -1.
         22    1    3    3    0    0  0.18429593932E+02  0.54385268731E+02 -0.71182813043E+02  0.91457095188E+02  0.00000000000E+00 0.  1.
         22    1    3    3    0    0  0.92721609488E+01  0.35961266634E+02  0.54692832945E+02  0.66109694010E+02  0.00000000000E+00 0.  1.
</event>
<event>
 7    1  0.5139898E-006  0.1444400E+03  0.7818608E-02  0.1372152E+00
          2   -1    0    0  502    0  0.00000000000E+00  0.00000000000E+00  0.29920643480E+03  0.29920643480E+03  0.00000000000E+00 0. -1.
          1   -1    0    0  501    0 -0.00000000000E+00 -0.00000000000E+00 -0.11583234156E+04  0.11583234156E+04  0.00000000000E+00 0. -1.
         25    2    1    2    0    0  0.13761452291E+02 -0.11552896548E+03 -0.25126834358E+02  0.17260525507E+03  0.12499958735E+03 0.  0.
          2    1    1    2  501    0 -0.10287309212E+02  0.14601508257E+03 -0.10533284404E+04  0.10634505331E+04  0.00000000000E+00 0. -1.
          1    1    1    2  502    0 -0.34741430794E+01 -0.30486117087E+02  0.21933829399E+03  0.22147406217E+03  0.00000000000E+00 0. -1.
         22    1    3    3    0    0 -0.12414219793E+02  0.49550376710E+01 -0.45692295422E+02  0.47607259030E+02  0.00000000000E+00 0.  1.
         22    1    3    3    0    0  0.26175672084E+02 -0.12048400315E+03  0.20565461064E+02  0.12499799604E+03  0.00000000000E+00 0.  1.
</event>
<event>
 7    1  0.5139898E-006  0.3544682E+02  0.7818608E-02  0.1572302E+00
          2   -1    0    0  502    0  0.00000000000E+00  0.00000000000E+00  0.16397723649E+04  0.16397723649E+04  0.00000000000E+00 0. -1.
          1   -1    0    0  501    0 -0.00000000000E+00 -0.00000000000E+00 -0.62437506153E+01  0.62437506153E+01  0.00000000000E+00 0. -1.
         25    2    1    2    0    0 -0.12447697335E+01 -0.46495849864E+00  0.97312313706E+03  0.98112165881E+03  0.12501721430E+03 0.  0.
          2    1    1    2  501    0  0.20257419419E+01  0.35903175198E+02  0.20655931847E+03  0.20966614812E+03  0.00000000000E+00 0. -1.
          1    1    1    2  502    0 -0.78097220837E+00 -0.35438216699E+02  0.45384615873E+03  0.45522830856E+03  0.00000000000E+00 0. -1.
         22    1    3    3    0    0 -0.62021460045E+01  0.49378371145E+02  0.78074849763E+03  0.78233298965E+03  0.00000000000E+00 0.  1.
         22    1    3    3    0    0  0.49573762711E+01 -0.49843329644E+02  0.19237463943E+03  0.19878866916E+03  0.00000000000E+00 0.  1.
</event>
<event>
 7    1  0.5139898E-006  0.1708577E+03  0.7818608E-02  0.1380223E+00
          2   -1    0    0  502    0  0.00000000000E+00  0.00000000000E+00  0.43720342943E+04  0.43720342943E+04  0.00000000000E+00 0. -1.
          1   -1    0    0  501    0 -0.00000000000E+00 -0.00000000000E+00 -0.96607874557E+03  0.96607874557E+03  0.00000000000E+00 0. -1.
         25    2    1    2    0    0 -0.12853365468E+03  0.11570372450E+03  0.11533029826E+04  0.11728774249E+04  0.12500172787E+03 0.  0.
          2    1    1    2  501    0 -0.13105032816E+02 -0.20436919875E+02 -0.95386695576E+03  0.95417586370E+03  0.00000000000E+00 0. -1.
          1    1    1    2  502    0  0.14163868749E+03 -0.95266804628E+02  0.32065195219E+04  0.32110597513E+04  0.00000000000E+00 0. -1.
         22    1    3    3    0    0 -0.91935061948E+02  0.55404259389E+02  0.97864119299E+03  0.98451016866E+03  0.00000000000E+00 0.  1.
         22    1    3    3    0    0 -0.36598592728E+02  0.60299465115E+02  0.17466178960E+03  0.18836725626E+03  0.00000000000E+00 0.  1.
</event>
<event>
 7    1  0.5139898E-006  0.4936824E+02  0.7818608E-02  0.1549746E+00
          2   -1    0    0  502    0  0.00000000000E+00  0.00000000000E+00  0.91376677994E+02  0.91376677994E+02  0.00000000000E+00 0. -1.
          1   -1    0    0  501    0 -0.00000000000E+00 -0.00000000000E+00 -0.12657829229E+03  0.12657829229E+03  0.00000000000E+00 0. -1.
         25    2    1    2    0    0 -0.44168454255E+02  0.84494076149E+01 -0.80010503314E+01  0.13308253614E+03  0.12499879911E+03 0.  0.
          2    1    1    2  501    0  0.27351193190E+01  0.24479110353E+02 -0.19446839265E+02  0.31382913802E+02  0.00000000000E+00 0. -1.
          1    1    1    2  502    0  0.41433334936E+02 -0.32928517967E+02 -0.77537247016E+01  0.53489520340E+02  0.00000000000E+00 0. -1.
         22    1    3    3    0    0 -0.33398790046E+02 -0.38767205298E+02 -0.48084127834E+02  0.70217225327E+02  0.00000000000E+00 0. -1.
         22    1    3    3    0    0 -0.10769664208E+02  0.47216612913E+02  0.40083077502E+02  0.62865310817E+02  0.00000000000E+00 0. -1.
</event>
<event>
 7    1  0.5139898E-006  0.1133828E+03  0.7818608E-02  0.1377467E+00
          2   -1    0    0  502    0  0.00000000000E+00  0.00000000000E+00  0.52908404573E+03  0.52908404573E+03  0.00000000000E+00 0. -1.
          1   -1    0    0  501    0 -0.00000000000E+00 -0.00000000000E+00 -0.18105869634E+03  0.18105869634E+03  0.00000000000E+00 0. -1.
         25    2    1    2    0    0 -0.50473365132E+02 -0.11903157766E+03  0.34281815081E+03  0.38712445042E+03  0.12499991407E+03 0.  0.
          2    1    1    2  501    0 -0.10318877529E+02  0.35966408594E+02 -0.14006381810E+03  0.14497563561E+03  0.00000000000E+00 0. -1.
          1    1    1    2  502    0  0.60792242662E+02  0.83065169068E+02  0.14527101669E+03  0.17804265604E+03  0.00000000000E+00 0. -1.
         22    1    3    3    0    0 -0.16976380523E+02 -0.13576979195E+03  0.30301698071E+03  0.33247695334E+03  0.00000000000E+00 0.  1.
         22    1    3    3    0    0 -0.33496984609E+02  0.16738214292E+02  0.39801170103E+02  0.54647497080E+02  0.00000000000E+00 0.  1.
</event>
<event>
 7    1  0.5139898E-006  0.3019647E+02  0.7818608E-02  0.1612488E+00
          2   -1    0    0  502    0  0.00000000000E+00  0.00000000000E+00  0.73097867991E+03  0.73097867991E+03  0.00000000000E+00 0. -1.
          1   -1    0    0  501    0 -0.00000000000E+00 -0.00000000000E+00 -0.23380339160E+03  0.23380339160E+03  0.00000000000E+00 0. -1.
         25    2    1    2    0    0  0.18087327216E+01  0.87358753045E+01 -0.17194919065E+03  0.21278496595E+03  0.12502531958E+03 0.  0.
          2    1    1    2  501    0 -0.30851382622E+02 -0.17003360765E+02 -0.33566083261E+02  0.48658031531E+02  0.00000000000E+00 0. -1.
          1    1    1    2  502    0  0.29042649901E+02  0.82674854610E+01  0.70269056222E+03  0.70333907404E+03  0.00000000000E+00 0. -1.
         22    1    3    3    0    0 -0.29533983714E+02  0.15647771060E+01 -0.17768084296E+03  0.18012547481E+03  0.00000000000E+00 0. -1.
         22    1    3    3    0    0  0.31342716436E+02  0.71710981985E+01  0.57316523084E+01  0.32659491134E+02  0.00000000000E+00 0. -1.
</event>
<event>
 7    1  0.5139898E-006  0.6651617E+02  0.7818608E-02  0.1510069E+00
          2   -1    0    0  502    0  0.00000000000E+00  0.00000000000E+00  0.13803870205E+04  0.13803870205E+04  0.00000000000E+00 0. -1.
          1   -1    0    0  501    0 -0.00000000000E+00 -0.00000000000E+00 -0.11726209680E+03  0.11726209680E+03  0.00000000000E+00 0. -1.
         25    2    1    2    0    0  0.11023709886E+02 -0.86348943904E+02  0.31840661792E+03  0.35296947870E+03  0.12500806481E+03 0.  0.
          2    1    1    2  501    0  0.10121770391E+01  0.65871011751E+02 -0.88977266073E+02  0.11071119442E+03  0.00000000000E+00 0. -1.
          1    1    1    2  502    0 -0.12035886925E+02  0.20477932153E+02  0.10336955719E+04  0.10339684442E+04  0.00000000000E+00 0. -1.
         22    1    3    3    0    0  0.55100757119E+02 -0.69750403746E+01  0.76103219710E+02  0.94214885626E+02  0.00000000000E+00 0.  1.
         22    1    3    3    0    0 -0.44077047233E+02 -0.79373903530E+02  0.24230339821E+03  0.25875459308E+03  0.00000000000E+00 0.  1.
</event>
<event>
 7    1  0.5139898E-006  0.6928312E+02  0.7818608E-02  0.1412543E+00
          2   -1    0    0  502    0  0.00000000000E+00  0.00000000000E+00  0.24472143363E+04  0.24472143363E+04  0.00000000000E+00 0. -1.
          1   -1    0    0  501    0 -0.00000000000E+00 -0.00000000000E+00 -0.16773795506E+04  0.16773795506E+04  0.00000000000E+00 0. -1.
         25    2    1    2    0    0  0.81769480702E+02  0.22037152711E+02 -0.74128846152E+02  0.16820311650E+03  0.12500127398E+03 0.  0.
          2    1    1    2  501    0 -0.35587218991E+02  0.29599726192E+02 -0.15553693106E+04  0.15560579316E+04  0.00000000000E+00 0. -1.
          1    1    1    2  502    0 -0.46182261711E+02 -0.51636878904E+02  0.23993329424E+04  0.24003328388E+04  0.00000000000E+00 0. -1.
         22    1    3    3    0    0  0.57282260414E+02  0.56651337564E+02  0.25251569602E+01  0.80604018657E+02  0.00000000000E+00 0.  1.
         22    1    3    3    0    0  0.24487220288E+02 -0.34614184853E+02 -0.76654003112E+02  0.87599097846E+02  0.00000000000E+00 0.  1.
</event>
<event>
 7    1  0.5139898E-006  0.1308410E+03  0.7818608E-02  0.1290797E+00
          2   -1    0    0  502    0  0.00000000000E+00  0.00000000000E+00  0.41702214672E+03  0.41702214672E+03  0.00000000000E+00 0. -1.
          1   -1    0    0  501    0 -0.00000000000E+00 -0.00000000000E+00 -0.14322205314E+04  0.14322205314E+04  0.00000000000E+00 0. -1.
         25    2    1    2    0    0 -0.17958869411E+02  0.87468920252E+02 -0.96199726478E+01  0.15393432604E+03  0.12501959790E+03 0.  0.
          2    1    1    2  501    0 -0.38490871497E+02 -0.12753231770E+03 -0.13436425389E+04  0.13502300958E+04  0.00000000000E+00 0. -1.
          1    1    1    2  502    0  0.56449740908E+02  0.40063397448E+02  0.33806412689E+03  0.34507825627E+03  0.00000000000E+00 0. -1.
         22    1    3    3    0    0 -0.38357901360E+02  0.23568366910E+02 -0.56393157519E+02  0.72159439650E+02  0.00000000000E+00 0. -1.
         22    1    3    3    0    0  0.20399031948E+02  0.63900553341E+02  0.46773184871E+02  0.81774886394E+02  0.00000000000E+00 0. -1.
</event>
<event>
 7    1  0.5139898E-006  0.2121789E+03  0.7818608E-02  0.1211684E+00
          2   -1    0    0  502    0  0.00000000000E+00  0.00000000000E+00  0.92812340531E+03  0.92812340531E+03  0.00000000000E+00 0. -1.
          1   -1    0    0  501    0 -0.00000000000E+00 -0.00000000000E+00 -0.19532056470E+03  0.19532056470E+03  0.00000000000E+00 0. -1.
         25    2    1    2    0    0  0.15575075066E+02 -0.15581567852E+03  0.82856270987E+02  0.21682070682E+03  0.12499979450E+03 0.  0.
          2    1    1    2  501    0 -0.66254015024E+02 -0.66687402510E+02 -0.91300371504E+02  0.13104412233E+03  0.00000000000E+00 0. -1.
          1    1    1    2  502    0  0.50678939958E+02  0.22250308103E+03  0.74124694112E+03  0.77557914087E+03  0.00000000000E+00 0. -1.
         22    1    3    3    0    0 -0.14965460670E+02 -0.12147810427E+03  0.36967484102E+00  0.12239702402E+03  0.00000000000E+00 0.  1.
         22    1    3    3    0    0  0.30540535736E+02 -0.34337574252E+02  0.82486596146E+02  0.94423682793E+02  0.00000000000E+00 0.  1.
</event>
<event>
 7    1  0.5139898E-006  0.6118671E+02  0.7818608E-02  0.1474281E+00
          2   -1    0    0  502    0  0.00000000000E+00  0.00000000000E+00  0.79689834517E+03  0.79689834517E+03  0.00000000000E+00 0. -1.
          1   -1    0    0  501    0 -0.00000000000E+00 -0.00000000000E+00 -0.55126261867E+03  0.55126261867E+03  0.00000000000E+00 0. -1.
         25    2    1    2    0    0 -0.26382783223E+02  0.57404658434E+02 -0.34770428838E+02  0.14431301345E+03  0.12500366822E+03 0.  0.
          2    1    1    2  501    0  0.32921063231E+02  0.35284980655E+01 -0.45985953738E+03  0.46104993311E+03  0.00000000000E+00 0. -1.
          1    1    1    2  502    0 -0.65382800076E+01 -0.60933156499E+02  0.74026569271E+03  0.74279801728E+03  0.00000000000E+00 0. -1.
         22    1    3    3    0    0  0.16632612048E+02  0.73563262531E+02  0.14651437581E+02  0.76830085259E+02  0.00000000000E+00 0.  1.
         22    1    3    3    0    0 -0.43015395271E+02 -0.16158604097E+02 -0.49421866419E+02  0.67482928189E+02  0.00000000000E+00 0.  1.
</event>
<event>
 7    1  0.5139898E-006  0.3959877E+02  0.7818608E-02  0.1560006E+00
          2   -1    0    0  502    0  0.00000000000E+00  0.00000000000E+00  0.49389939410E+03  0.49389939410E+03  0.00000000000E+00 0. -1.
          1   -1    0    0  501    0 -0.00000000000E+00 -0.00000000000E+00 -0.57020390227E+02  0.57020390227E+02  0.00000000000E+00 0. -1.
         25    2    1    2    0    0 -0.44592964208E+01 -0.19171176680E+02  0.14659774950E+03  0.19365602190E+03  0.12499734125E+03 0.  0.
          2    1    1    2  501    0  0.32450546447E+02  0.25785686341E+02 -0.19741740732E+02  0.45909431623E+02  0.00000000000E+00 0. -1.
          1    1    1    2  502    0 -0.27991250027E+02 -0.66145096614E+01  0.31002299511E+03  0.31135433081E+03  0.00000000000E+00 0. -1.
         22    1    3    3    0    0 -0.18776597817E+02  0.24339991773E+02  0.14457300412E+03  0.14780510595E+03  0.00000000000E+00 0.  1.
         22    1    3    3    0    0  0.14317301396E+02 -0.43511168453E+02  0.20247453792E+01  0.45850915948E+02  0.00000000000E+00 0.  1.
</event>
<event>
 7    1  0.5139898E-006  0.6169946E+02  0.7818608E-02  0.1520177E+00
          2   -1    0    0  502    0  0.00000000000E+00  0.00000000000E+00  0.90790243993E+03  0.90790243993E+03  0.00000000000E+00 0. -1.
          1   -1    0    0  501    0 -0.00000000000E+00 -0.00000000000E+00 -0.12866142643E+03  0.12866142643E+03  0.00000000000E+00 0. -1.
         25    2    1    2    0    0 -0.36351528733E+02 -0.18021134980E+02  0.30537314320E+03  0.33245280249E+03  0.12500365735E+03 0.  0.
          2    1    1    2  501    0 -0.22130435411E+02 -0.90859093058E+01 -0.11209200858E+03  0.11461643995E+03  0.00000000000E+00 0. -1.
          1    1    1    2  502    0  0.58481964144E+02  0.27107044285E+02  0.58595987887E+03  0.58949462392E+03  0.00000000000E+00 0. -1.
         22    1    3    3    0    0 -0.78861905302E+02 -0.34091489470E+02  0.20452248673E+03  0.22183524820E+03  0.00000000000E+00 0.  1.
         22    1    3    3    0    0  0.42510376569E+02  0.16070354491E+02  0.10085065647E+03  0.11061755430E+03  0.00000000000E+00 0.  1.
</event>
<event>
 7    1  0.5139898E-006  0.1082014E+03  0.7818608E-02  0.1404072E+00
          2   -1    0    0  502    0  0.00000000000E+00  0.00000000000E+00  0.59457979691E+02  0.59457979691E+02  0.00000000000E+00 0. -1.
          1   -1    0    0  501    0 -0.00000000000E+00 -0.00000000000E+00 -0.13388098672E+04  0.13388098672E+04  0.00000000000E+00 0. -1.
         25    2    1    2    0    0 -0.11819892358E+03 -0.40285465244E+02 -0.51656618810E+03  0.54594719534E+03  0.12499523657E+03 0.  0.
          2    1    1    2  501    0  0.27535407174E+02 -0.15644609324E+02 -0.74336298174E+03  0.74403728070E+03  0.00000000000E+00 0. -1.
          1    1    1    2  502    0  0.90663516405E+02  0.55930074568E+02 -0.19422717707E+02  0.10828337089E+03  0.00000000000E+00 0. -1.
         22    1    3    3    0    0 -0.10216775562E+03 -0.35755733098E+02 -0.51803568597E+03  0.52922367169E+03  0.00000000000E+00 0. -1.
         22    1    3    3    0    0 -0.16031167958E+02 -0.45297321453E+01  0.14694978665E+01  0.16723523653E+02  0.00000000000E+00 0. -1.
</event>
<event>
 7    1  0.5139898E-006  0.6243352E+02  0.7818608E-02  0.1424490E+00
          2   -1    0    0  502    0  0.00000000000E+00  0.00000000000E+00  0.28971725214E+03  0.28971725214E+03  0.00000000000E+00 0. -1.
          1   -1    0    0  501    0 -0.00000000000E+00 -0.00000000000E+00 -0.25509001896E+04  0.25509001896E+04  0.00000000000E+00 0. -1.
         25    2    1    2    0    0 -0.97768455029E+02 -0.40333721006E+02 -0.20843883888E+03  0.26506454293E+03  0.12500792981E+03 0.  0.
          2    1    1    2  501    0  0.37093486688E+02  0.28614400231E+02 -0.23102555157E+04  0.23107304599E+04  0.00000000000E+00 0. -1.
          1    1    1    2  502    0  0.60674968341E+02  0.11719320775E+02  0.25751141704E+03  0.26482243895E+03  0.00000000000E+00 0. -1.
         22    1    3    3    0    0 -0.12139240649E+03 -0.55011260591E+02 -0.18844545721E+03  0.23081171003E+03  0.00000000000E+00 0. -1.
         22    1    3    3    0    0  0.23623951459E+02  0.14677539585E+02 -0.19993381665E+02  0.34252832893E+02  0.00000000000E+00 0. -1.
</event>
<event>
 7    1  0.5139898E-006  0.5956623E+02  0.7818608E-02  0.1504257E+00
          2   -1    0    0  502    0  0.00000000000E+00  0.00000000000E+00  0.67488253787E+03  0.67488253787E+03  0.00000000000E+00 0. -1.
          1   -1    0    0  501    0 -0.00000000000E+00 -0.00000000000E+00 -0.43733981533E+03  0.43733981533E+03  0.00000000000E+00 0. -1.
         25    2    1    2    0    0 -0.72965806156E+02 -0.73337190360E+01 -0.16186089872E+03  0.21725809164E+03  0.12499734215E+03 0.  0.
          2    1    1    2  501    0  0.15515193853E+02  0.22819448259E+02 -0.24563853700E+03  0.24718361459E+03  0.00000000000E+00 0. -1.
          1    1    1    2  502    0  0.57450612303E+02 -0.15485729223E+02  0.64504215826E+03  0.64778064698E+03  0.00000000000E+00 0. -1.
         22    1    3    3    0    0 -0.68945991135E+02 -0.56604682077E+02 -0.71758821160E+02  0.11448566784E+03  0.00000000000E+00 0. -1.
         22    1    3    3    0    0 -0.40198150211E+01  0.49270963041E+02 -0.90102077564E+02  0.10277242380E+03  0.00000000000E+00 0. -1.
</event>
<event>
 7    1  0.5139898E-006  0.2332093E+03  0.7818608E-02  0.1212425E+00
          2   -1    0    0  502    0  0.00000000000E+00  0.00000000000E+00  0.58816163924E+03  0.58816163924E+03  0.00000000000E+00 0. -1.
          1   -1    0    0  501    0 -0.00000000000E+00 -0.00000000000E+00 -0.60690169650E+03  0.60690169650E+03  0.00000000000E+00 0. -1.
         25    2    1    2    0    0 -0.15798497944E+03  0.18150563922E+03 -0.17293630122E+03  0.32161379241E+03  0.12499966558E+03 0.  0.
          2    1    1    2  501    0  0.76076704395E+02  0.37586779538E+02 -0.32731385668E+03  0.33813428061E+03  0.00000000000E+00 0. -1.
          1    1    1    2  502    0  0.81908275043E+02 -0.21909241876E+03  0.48151010064E+03  0.53531526271E+03  0.00000000000E+00 0. -1.
         22    1    3    3    0    0 -0.36165916830E+02 -0.38794253557E+01  0.56789087236E+01  0.36814039245E+02  0.00000000000E+00 0.  1.
         22    1    3    3    0    0 -0.12181906261E+03  0.18538506458E+03 -0.17861520994E+03  0.28479975317E+03  0.00000000000E+00 0.  1.
</event>
<event>
 7    1  0.5139898E-006  0.5275153E+02  0.7818608E-02  0.1465941E+00
          2   -1    0    0  502    0  0.00000000000E+00  0.00000000000E+00  0.37153430664E+03  0.37153430664E+03  0.00000000000E+00 0. -1.
          1   -1    0    0  501    0 -0.00000000000E+00 -0.00000000000E+00 -0.11143617800E+04  0.11143617800E+04  0.00000000000E+00 0. -1.
         25    2    1    2    0    0  0.88940237717E+02 -0.11113441823E+02 -0.11458425725E+03  0.19180682569E+03  0.12500572745E+03 0.  0.
          2    1    1    2  501    0 -0.36996737503E+02  0.17124677291E+02 -0.95867712184E+03  0.95954355664E+03  0.00000000000E+00 0. -1.
          1    1    1    2  502    0 -0.51943500214E+02 -0.60112354682E+01  0.33043390577E+03  0.33454570427E+03  0.00000000000E+00 0. -1.
         22    1    3    3    0    0 -0.16606327033E+02 -0.28459071480E+02  0.27151054605E+01  0.33061467673E+02  0.00000000000E+00 0. -1.
         22    1    3    3    0    0  0.10554656475E+03  0.17345629657E+02 -0.11729936271E+03  0.15874535802E+03  0.00000000000E+00 0. -1.
</event>
<event>
 7    1  0.5139898E-006  0.1253762E+03  0.7818608E-02  0.1351249E+00
          2   -1    0    0  502    0  0.00000000000E+00  0.00000000000E+00  0.15651781802E+04  0.15651781802E+04  0.00000000000E+00 0. -1.
          1   -1    0    0  501    0 -0.00000000000E+00 -0.00000000000E+00 -0.85082762995E+02  0.85082762995E+02  0.00000000000E+00 0. -1.
         25    2    1    2    0    0 -0.91585581109E+02  0.94481551623E+02  0.20006569851E+03  0.27012203315E+03  0.12499978723E+03 0.  0.
          2    1    1    2  501    0 -0.19911373015E+02 -0.37114480732E+02 -0.37658147476E+02  0.56498526766E+02  0.00000000000E+00 0. -1.
          1    1    1    2  502    0  0.11149695412E+03 -0.57367070891E+02  0.13176878662E+04  0.13236403833E+04  0.00000000000E+00 0. -1.
         22    1    3    3    0    0 -0.43409543948E+02  0.73041770998E+02  0.26928224888E+02  0.89132587262E+02  0.00000000000E+00 0. -1.
         22    1    3    3    0    0 -0.48176037160E+02  0.21439780625E+02  0.17313747362E+03  0.18098944588E+03  0.00000000000E+00 0. -1.
</event>
<event>
 7    1  0.5139898E-006  0.8737845E+02  0.7818608E-02  0.1361982E+00
          2   -1    0    0  502    0  0.00000000000E+00  0.00000000000E+00  0.20102694050E+04  0.20102694050E+04  0.00000000000E+00 0. -1.
          1   -1    0    0  501    0 -0.00000000000E+00 -0.00000000000E+00 -0.10890906098E+03  0.10890906098E+03  0.00000000000E+00 0. -1.
         25    2    1    2    0    0  0.83946410208E+02 -0.91704851375E+02  0.26676582641E+03  0.31976019081E+03  0.12500317571E+03 0.  0.
          2    1    1    2  501    0 -0.30068507631E+02  0.79713500808E+02 -0.59823223627E+02  0.10410175526E+03  0.00000000000E+00 0. -1.
          1    1    1    2  502    0 -0.53877902577E+02  0.11991350567E+02  0.16944177412E+04  0.16953165199E+04  0.00000000000E+00 0. -1.
         22    1    3    3    0    0  0.78766926472E+02 -0.87653408219E+02  0.10492724640E+03  0.15778807216E+03  0.00000000000E+00 0. -1.
         22    1    3    3    0    0  0.51794837361E+01 -0.40514431565E+01  0.16183858000E+03  0.16197211865E+03  0.00000000000E+00 0. -1.
</event>
<event>
 7    1  0.5139898E-006  0.4551670E+02  0.7818608E-02  0.1486372E+00
          2   -1    0    0  502    0  0.00000000000E+00  0.00000000000E+00  0.32900497697E+03  0.32900497697E+03  0.00000000000E+00 0. -1.
          1   -1    0    0  501    0 -0.00000000000E+00 -0.00000000000E+00 -0.32441866164E+03  0.32441866164E+03  0.00000000000E+00 0. -1.
         25    2    1    2    0    0 -0.55581444803E+02 -0.62206260231E+02  0.48711700222E+02  0.15797471074E+03  0.12499705467E+03 0.  0.
          2    1    1    2  501    0  0.20763550403E+02  0.35198747495E+02 -0.26606095963E+03  0.26918118636E+03  0.00000000000E+00 0. -1.
          1    1    1    2  502    0  0.34817894400E+02  0.27007512736E+02  0.22193557474E+03  0.22626774151E+03  0.00000000000E+00 0. -1.
         22    1    3    3    0    0 -0.42390167265E+02 -0.77185816754E+02 -0.16661374304E+02  0.89622418973E+02  0.00000000000E+00 0. -1.
         22    1    3    3    0    0 -0.13191277538E+02  0.14979556523E+02  0.65373074526E+02  0.68352291766E+02  0.00000000000E+00 0. -1.
</event>
<event>
 7    1  0.5139898E-006  0.2454312E+02  0.7818608E-02  0.1669687E+00
          2   -1    0    0  502    0  0.00000000000E+00  0.00000000000E+00  0.22696430447E+03  0.22696430447E+03  0.00000000000E+00 0. -1.
          1   -1    0    0  501    0 -0.00000000000E+00 -0.00000000000E+00 -0.12629143506E+04  0.12629143506E+04  0.00000000000E+00 0. -1.
         25    2    1    2    0    0  0.27004382131E+02 -0.37627790848E+01 -0.62828945446E+03  0.64118542953E+03  0.12501088470E+03 0.  0.
          2    1    1    2  501    0 -0.10727828836E+02  0.22132286032E+02 -0.62725225016E+03  0.62773426681E+03  0.00000000000E+00 0. -1.
          1    1    1    2  502    0 -0.16276553296E+02 -0.18369506947E+02  0.21959165848E+03  0.22095895874E+03  0.00000000000E+00 0. -1.
         22    1    3    3    0    0  0.28239337116E+02 -0.43353142845E+02 -0.11193787016E+03  0.12331683556E+03  0.00000000000E+00 0.  1.
         22    1    3    3    0    0 -0.12349549847E+01  0.39590363760E+02 -0.51635158429E+03  0.51786859397E+03  0.00000000000E+00 0.  1.
</event>
<event>
 7    1  0.5139898E-006  0.8621682E+02  0.7818608E-02  0.1426971E+00
          2   -1    0    0  502    0  0.00000000000E+00  0.00000000000E+00  0.22285533364E+04  0.22285533364E+04  0.00000000000E+00 0. -1.
          1   -1    0    0  501    0 -0.00000000000E+00 -0.00000000000E+00 -0.67554583433E+02  0.67554583433E+02  0.00000000000E+00 0. -1.
         25    2    1    2    0    0  0.91140991108E+02 -0.40396990173E+02  0.29412280186E+03  0.33477054802E+03  0.12499800068E+03 0.  0.
          2    1    1    2  501    0 -0.56601718489E+01  0.32803958049E+02 -0.40277919118E+02  0.52253688650E+02  0.00000000000E+00 0. -1.
          1    1    1    2  502    0 -0.85480819259E+02  0.75930321234E+01  0.19071538702E+04  0.19090836832E+04  0.00000000000E+00 0. -1.
         22    1    3    3    0    0  0.11291482849E+03 -0.61812600422E+02  0.24862184364E+03  0.27997031485E+03  0.00000000000E+00 0. -1.
         22    1    3    3    0    0 -0.21773837379E+02  0.21415610249E+02  0.45500958223E+02  0.54800233172E+02  0.00000000000E+00 0. -1.
</event>
<event>
 7    1  0.5139898E-006  0.1079762E+03  0.7818608E-02  0.1282068E+00
          2   -1    0    0  502    0  0.00000000000E+00  0.00000000000E+00  0.52558492673E+02  0.52558492673E+02  0.00000000000E+00 0. -1.
          1   -1    0    0  501    0 -0.00000000000E+00 -0.00000000000E+00 -0.33732137438E+04  0.33732137438E+04  0.00000000000E+00 0. -1.
         25    2    1    2    0    0  0.19312424366E+02  0.12122379774E+02 -0.98601027544E+03  0.99416439954E+03  0.12500667266E+03 0.  0.
          2    1    1    2  501    0  0.74024120654E+02  0.53043783464E+02 -0.23141520913E+04  0.23159432453E+04  0.00000000000E+00 0. -1.
          1    1    1    2  502    0 -0.93336545020E+02 -0.65166163238E+02 -0.20492884391E+02  0.11566459172E+03  0.00000000000E+00 0. -1.
         22    1    3    3    0    0 -0.34693616780E+02 -0.38771486675E+02 -0.46348279969E+03  0.46639380445E+03  0.00000000000E+00 0. -1.
         22    1    3    3    0    0  0.54006041146E+02  0.50893866449E+02 -0.52252747576E+03  0.52777059509E+03  0.00000000000E+00 0. -1.
</event>
<event>
 7    1  0.5870445E-006  0.2056899E+03  0.7818608E-02  0.1229683E+00
          2   -1    0    0  502    0  0.00000000000E+00  0.00000000000E+00  0.78980034278E+03  0.78980034278E+03  0.00000000000E+00 0. -1.
          1   -1    0    0  501    0 -0.00000000000E+00 -0.00000000000E+00 -0.21357791678E+04  0.21357791678E+04  0.00000000000E+00 0. -1.
         25    2    1    2    0    0  0.60214378941E+02  0.13093060011E+03 -0.82948224224E+03  0.85113684119E+03  0.12499815506E+03 0.  0.
          2    1    1    2  501    0 -0.31484224945E+02  0.73859697189E+02 -0.12804654080E+04  0.12829801917E+04  0.00000000000E+00 0. -1.
          1    1    1    2  502    0 -0.28730153996E+02 -0.20479029730E+03  0.76396882522E+03  0.79146247765E+03  0.00000000000E+00 0. -1.
         22    1    3    3    0    0  0.89213554701E+01  0.11515085729E+03 -0.34782196844E+03  0.36649615585E+03  0.00000000000E+00 0.  1.
         22    1    3    3    0    0  0.51293023471E+02  0.15779742821E+02 -0.48166027379E+03  0.48464068534E+03  0.00000000000E+00 0.  1.
</event>
<event>
 7    1  0.5139898E-006  0.5789147E+02  0.7818608E-02  0.1409322E+00
          2   -1    0    0  502    0  0.00000000000E+00  0.00000000000E+00  0.35830242939E+03  0.35830242939E+03  0.00000000000E+00 0. -1.
          1   -1    0    0  501    0 -0.00000000000E+00 -0.00000000000E+00 -0.37996812425E+03  0.37996812425E+03  0.00000000000E+00 0. -1.
         25    2    1    2    0    0  0.40411587387E+02  0.10648038531E+03 -0.14336372254E+03  0.22169751387E+03  0.12500184743E+03 0.  0.
          2    1    1    2  501    0 -0.19402434907E+02 -0.53388247034E+02 -0.19070998580E+03  0.19899009545E+03  0.00000000000E+00 0. -1.
          1    1    1    2  502    0 -0.21009152480E+02 -0.53092138280E+02  0.31240801348E+03  0.31758294432E+03  0.00000000000E+00 0. -1.
         22    1    3    3    0    0 -0.40175691896E+00 -0.76108099149E+01 -0.88254018970E+02  0.88582490936E+02  0.00000000000E+00 0.  1.
         22    1    3    3    0    0  0.40813344306E+02  0.11409119523E+03 -0.55109703575E+02  0.13311502293E+03  0.00000000000E+00 0.  1.
</event>
<event>
 7    1  0.5139898E-006  0.4992005E+02  0.7818608E-02  0.1465351E+00
          2   -1    0    0  502    0  0.00000000000E+00  0.00000000000E+00  0.31972550951E+03  0.31972550951E+03  0.00000000000E+00 0. -1.
          1   -1    0    0  501    0 -0.00000000000E+00 -0.00000000000E+00 -0.10044021626E+04  0.10044021626E+04  0.00000000000E+00 0. -1.
         25    2    1    2    0    0  0.54486019303E+02 -0.11540115726E+02  0.62791850533E+02  0.15056661612E+03  0.12500235528E+03 0.  0.
          2    1    1    2  501    0 -0.40450604120E+02 -0.29383727963E+02 -0.95765952069E+03  0.95896371798E+03  0.00000000000E+00 0. -1.
          1    1    1    2  502    0 -0.14035415183E+02  0.40923843688E+02  0.21019101703E+03  0.21459733806E+03  0.00000000000E+00 0. -1.
         22    1    3    3    0    0 -0.15138183978E+00 -0.34247785867E+02  0.81587933215E+02  0.88484600917E+02  0.00000000000E+00 0. -1.
         22    1    3    3    0    0  0.54637401143E+02  0.22707670141E+02 -0.18796082682E+02  0.62082015198E+02  0.00000000000E+00 0. -1.
</event>
<event>
 7    1  0.5139898E-006  0.6682228E+02  0.7818608E-02  0.1447474E+00
          2   -1    0    0  502    0  0.00000000000E+00  0.00000000000E+00  0.11496712730E+04  0.11496712730E+04  0.00000000000E+00 0. -1.
          1   -1    0    0  501    0 -0.00000000000E+00 -0.00000000000E+00 -0.26716781070E+02  0.26716781070E+02  0.00000000000E+00 0. -1.
         25    2    1    2    0    0 -0.21710175489E+02 -0.41662393156E+02  0.67343381636E+03  0.68654580617E+03  0.12499980894E+03 0.  0.
          2    1    1    2  501    0 -0.28464565493E+01  0.69106363657E+02  0.42542593154E+02  0.81201379576E+02  0.00000000000E+00 0. -1.
          1    1    1    2  502    0  0.24556632039E+02 -0.27443970501E+02  0.40697808237E+03  0.40864086828E+03  0.00000000000E+00 0. -1.
         22    1    3    3    0    0 -0.10616464216E+02  0.44302467994E+02  0.18854198502E+03  0.19396777593E+03  0.00000000000E+00 0. -1.
         22    1    3    3    0    0 -0.11093711274E+02 -0.85964861150E+02  0.48489183134E+03  0.49257803025E+03  0.00000000000E+00 0. -1.
</event>
<event>
 7    1  0.5139898E-006  0.9079345E+02  0.7818608E-02  0.1326117E+00
          2   -1    0    0  502    0  0.00000000000E+00  0.00000000000E+00  0.21647574437E+04  0.21647574437E+04  0.00000000000E+00 0. -1.
          1   -1    0    0  501    0 -0.00000000000E+00 -0.00000000000E+00 -0.44687663572E+02  0.44687663572E+02  0.00000000000E+00 0. -1.
         25    2    1    2    0    0 -0.89313711266E+02 -0.71197586587E+01  0.12797312022E+04  0.12889394033E+04  0.12500082213E+03 0.  0.
          2    1    1    2  501    0  0.97582352741E+01  0.71678536802E+02 -0.15988602648E+01  0.72357391798E+02  0.00000000000E+00 0. -1.
          1    1    1    2  502    0  0.79555475992E+02 -0.64558778143E+02  0.84193743819E+03  0.84814831216E+03  0.00000000000E+00 0. -1.
         22    1    3    3    0    0 -0.10174810944E+03  0.36651826349E+02  0.92564277596E+03  0.93193915189E+03  0.00000000000E+00 0.  1.
         22    1    3    3    0    0  0.12434398171E+02 -0.43771585008E+02  0.35408842622E+03  0.35700025140E+03  0.00000000000E+00 0.  1.
</event>
<event>
 7    1  0.5139898E-006  0.4605620E+02  0.7818608E-02  0.1543116E+00
          2   -1    0    0  502    0  0.00000000000E+00  0.00000000000E+00  0.31323711015E+03  0.31323711015E+03  0.00000000000E+00 0. -1.
          1   -1    0    0  501    0 -0.00000000000E+00 -0.00000000000E+00 -0.25879962766E+03  0.25879962766E+03  0.00000000000E+00 0. -1.
         25    2    1    2    0    0 -0.17078758648E+02 -0.31468320435E+02  0.17757740182E+03  0.22008967423E+03  0.12499516742E+03 0.  0.
          2    1    1    2  501    0  0.41921401952E+02  0.19542356430E+02 -0.23358283669E+03  0.23811814133E+03  0.00000000000E+00 0. -1.
          1    1    1    2  502    0 -0.24842643304E+02  0.11925964005E+02  0.11044291736E+03  0.11382892224E+03  0.00000000000E+00 0. -1.
         22    1    3    3    0    0  0.72556708564E+01  0.17512777861E+02 -0.12230248447E+02  0.22559280243E+02  0.00000000000E+00 0.  1.
         22    1    3    3    0    0 -0.24334429504E+02 -0.48981098296E+02  0.18980765027E+03  0.19753039399E+03  0.00000000000E+00 0.  1.
</event>
<event>
 7    1  0.5139898E-006  0.2589700E+03  0.7818608E-02  0.1249279E+00
          2   -1    0    0  502    0  0.00000000000E+00  0.00000000000E+00  0.56939273761E+03  0.56939273761E+03  0.00000000000E+00 0. -1.
          1   -1    0    0  501    0 -0.00000000000E+00 -0.00000000000E+00 -0.86704548603E+03  0.86704548603E+03  0.00000000000E+00 0. -1.
         25    2    1    2    0    0  0.74635373392E+02 -0.29203623599E+03  0.48561145654E+02  0.32990754284E+03  0.12500079946E+03 0.  0.
          2    1    1    2  501    0 -0.82354092352E+02  0.24035465166E+03 -0.70218889742E+03  0.74674078686E+03  0.00000000000E+00 0. -1.
          1    1    1    2  502    0  0.77187189602E+01  0.51681584332E+02  0.35597500334E+03  0.35978989394E+03  0.00000000000E+00 0. -1.
         22    1    3    3    0    0 -0.23368086302E+02 -0.12955676599E+03 -0.80542780050E+01  0.13189349668E+03  0.00000000000E+00 0.  1.
         22    1    3    3    0    0  0.98003459694E+02 -0.16247947000E+03  0.56615423659E+02  0.19801404617E+03  0.00000000000E+00 0.  1.
</event>
<event>
 7    1  0.5139898E-006  0.7677762E+02  0.7818608E-02  0.1404527E+00
          2   -1    0    0  502    0  0.00000000000E+00  0.00000000000E+00  0.43323201281E+03  0.43323201281E+03  0.00000000000E+00 0. -1.
          1   -1    0    0  501    0 -0.00000000000E+00 -0.00000000000E+00 -0.68840373352E+03  0.68840373352E+03  0.00000000000E+00 0. -1.
         25    2    1    2    0    0 -0.29857186596E+02 -0.41547590842E+02  0.47951659247E+02  0.14332459705E+03  0.12499969840E+03 0.  0.
          2    1    1    2  501    0 -0.43445649981E+02  0.94982771206E+01 -0.63518910275E+03  0.63674401295E+03  0.00000000000E+00 0. -1.
          1    1    1    2  502    0  0.73302836576E+02  0.32049313722E+02  0.33206572280E+03  0.34156713632E+03  0.00000000000E+00 0. -1.
         22    1    3    3    0    0  0.39513731413E+02 -0.82515115877E+01 -0.15850177736E+02  0.43366468013E+02  0.00000000000E+00 0. -1.
         22    1    3    3    0    0 -0.69370918008E+02 -0.33296079255E+02  0.63801836983E+02  0.99958129041E+02  0.00000000000E+00 0. -1.
</event>
<event>
 7    1  0.5139898E-006  0.6634328E+02  0.7818608E-02  0.1382327E+00
          2   -1    0    0  502    0  0.00000000000E+00  0.00000000000E+00  0.50633968999E+03  0.50633968999E+03  0.00000000000E+00 0. -1.
          1   -1    0    0  501    0 -0.00000000000E+00 -0.00000000000E+00 -0.19463265344E+03  0.19463265344E+03  0.00000000000E+00 0. -1.
         25    2    1    2    0    0 -0.41223939857E+02 -0.82442518893E+01  0.21703116420E+03  0.25395857944E+03  0.12500021171E+03 0.  0.
          2    1    1    2  501    0  0.41799882135E+02 -0.53215326692E+02 -0.16596178999E+03  0.17922727716E+03  0.00000000000E+00 0. -1.
          1    1    1    2  502    0 -0.57594227747E+00  0.61459578581E+02  0.26063766233E+03  0.26778648684E+03  0.00000000000E+00 0. -1.
         22    1    3    3    0    0 -0.76777577430E+02  0.26434828637E+02  0.14952079908E+03  0.17014718898E+03  0.00000000000E+00 0.  1.
         22    1    3    3    0    0  0.35553637573E+02 -0.34679080526E+02  0.67510365125E+02  0.83811390456E+02  0.00000000000E+00 0.  1.
</event>
<event>
 7    1  0.5139898E-006  0.5256763E+02  0.7818608E-02  0.1451422E+00
          2   -1    0    0  502    0  0.00000000000E+00  0.00000000000E+00  0.41972131015E+03  0.41972131015E+03  0.00000000000E+00 0. -1.
          1   -1    0    0  501    0 -0.00000000000E+00 -0.00000000000E+00 -0.10194898963E+04  0.10194898963E+04  0.00000000000E+00 0. -1.
         25    2    1    2    0    0 -0.16846141166E+02 -0.47012502568E+02 -0.33509345319E+03  0.36112692898E+03  0.12502427201E+03 0.  0.
          2    1    1    2  501    0  0.45387224922E+02  0.27385356520E+01 -0.66889898087E+03  0.67044264958E+03  0.00000000000E+00 0. -1.
          1    1    1    2  502    0 -0.28541083755E+02  0.44273966916E+02  0.40422384789E+03  0.40764162792E+03  0.00000000000E+00 0. -1.
         22    1    3    3    0    0 -0.66953870432E+02 -0.37354401190E+02 -0.25395046949E+03  0.26527158349E+03  0.00000000000E+00 0. -1.
         22    1    3    3    0    0  0.50107729266E+02 -0.96581013784E+01 -0.81142983696E+02  0.95855345482E+02  0.00000000000E+00 0. -1.
</event>
<event>
 7    1  0.5139898E-006  0.5972274E+02  0.7818608E-02  0.1409560E+00
          2   -1    0    0  502    0  0.00000000000E+00  0.00000000000E+00  0.12545510386E+04  0.12545510386E+04  0.00000000000E+00 0. -1.
          1   -1    0    0  501    0 -0.00000000000E+00 -0.00000000000E+00 -0.23007453335E+04  0.23007453335E+04  0.00000000000E+00 0. -1.
         25    2    1    2    0    0  0.42506675743E+02  0.21425594697E+00  0.41398634721E+03  0.43453060463E+03  0.12500114917E+03 0.  0.
          2    1    1    2  501    0 -0.82492798955E+01 -0.54338036547E+02 -0.22889074425E+04  0.22895671977E+04  0.00000000000E+00 0. -1.
          1    1    1    2  502    0 -0.34257395848E+02  0.54123780600E+02  0.82872680031E+03  0.83119856975E+03  0.00000000000E+00 0. -1.
         22    1    3    3    0    0 -0.30285756016E+02 -0.38839823972E+02  0.16548280549E+03  0.17265664730E+03  0.00000000000E+00 0.  1.
         22    1    3    3    0    0  0.72792431760E+02  0.39054079919E+02  0.24850354172E+03  0.26187395733E+03  0.00000000000E+00 0.  1.
</event>
<event>
 7    1  0.5139898E-006  0.5324312E+02  0.7818608E-02  0.1500508E+00
          2   -1    0    0  502    0  0.00000000000E+00  0.00000000000E+00  0.46908221775E+03  0.46908221775E+03  0.00000000000E+00 0. -1.
          1   -1    0    0  501    0 -0.00000000000E+00 -0.00000000000E+00 -0.85962656809E+03  0.85962656809E+03  0.00000000000E+00 0. -1.
         25    2    1    2    0    0 -0.74913458828E+02  0.28650927397E+02 -0.57790987160E+02  0.15936652503E+03  0.12499995660E+03 0.  0.
          2    1    1    2  501    0  0.31628880278E+02  0.16985883935E+01 -0.74904150878E+03  0.74971091305E+03  0.00000000000E+00 0. -1.
          1    1    1    2  502    0  0.43284578550E+02 -0.30349515790E+02  0.41628814560E+03  0.41963134776E+03  0.00000000000E+00 0. -1.
         22    1    3    3    0    0  0.52910854713E+01 -0.39982909006E+02 -0.30282854579E+01  0.40445013424E+02  0.00000000000E+00 0.  1.
         22    1    3    3    0    0 -0.80204544300E+02  0.68633836402E+02 -0.54762701702E+02  0.11892151161E+03  0.00000000000E+00 0.  1.
</event>
<event>
 7    1  0.5139898E-006  0.7211476E+02  0.7818608E-02  0.1520650E+00
          2   -1    0    0  502    0  0.00000000000E+00  0.00000000000E+00  0.78526648488E+02  0.78526648488E+02  0.00000000000E+00 0. -1.
          1   -1    0    0  501    0 -0.00000000000E+00 -0.00000000000E+00 -0.12617663353E+04  0.12617663353E+04  0.00000000000E+00 0. -1.
         25    2    1    2    0    0  0.49534777649E+02 -0.31050790725E+02 -0.79081146584E+02  0.15905050643E+03  0.12500156019E+03 0.  0.
          2    1    1    2  501    0 -0.51218347202E+02  0.51384519281E+02 -0.11387624616E+04  0.11410712650E+04  0.00000000000E+00 0. -1.
          1    1    1    2  502    0  0.16835695529E+01 -0.20333728557E+02  0.34603921391E+02  0.40171212318E+02  0.00000000000E+00 0. -1.
         22    1    3    3    0    0  0.80592298427E+02 -0.43109038405E+02 -0.23699769771E+02  0.94420267131E+02  0.00000000000E+00 0.  1.
         22    1    3    3    0    0 -0.31057520778E+02  0.12058247680E+02 -0.55381376813E+02  0.64630239298E+02  0.00000000000E+00 0.  1.
</event>
<event>
 7    1  0.5139898E-006  0.1617042E+03  0.7818608E-02  0.1270901E+00
          2   -1    0    0  502    0  0.00000000000E+00  0.00000000000E+00  0.26451872967E+03  0.26451872967E+03  0.00000000000E+00 0. -1.
          1   -1    0    0  501    0 -0.00000000000E+00 -0.00000000000E+00 -0.14012176448E+04  0.14012176448E+04  0.00000000000E+00 0. -1.
         25    2    1    2    0    0 -0.66207359429E+02 -0.11815608818E+03 -0.20810649796E+03  0.27798858812E+03  0.12500026007E+03 0.  0.
          2    1    1    2  501    0 -0.65541020160E+02  0.16829300160E+02 -0.11269395334E+04  0.11289692478E+04  0.00000000000E+00 0. -1.
          1    1    1    2  502    0  0.13174837959E+03  0.10132678802E+03  0.19834711620E+03  0.25877853852E+03  0.00000000000E+00 0. -1.
         22    1    3    3    0    0 -0.49515993620E+02 -0.14152708426E+02 -0.14801711797E+03  0.15672013270E+03  0.00000000000E+00 0. -1.
         22    1    3    3    0    0 -0.16691365810E+02 -0.10400337976E+03 -0.60089379984E+02  0.12126845542E+03  0.00000000000E+00 0. -1.
</event>
<event>
 7    1  0.5139898E-006  0.6735052E+02  0.7818608E-02  0.1410975E+00
          2   -1    0    0  502    0  0.00000000000E+00  0.00000000000E+00  0.88470813641E+03  0.88470813641E+03  0.00000000000E+00 0. -1.
          1   -1    0    0  501    0 -0.00000000000E+00 -0.00000000000E+00 -0.37944354093E+03  0.37944354093E+03  0.00000000000E+00 0. -1.
         25    2    1    2    0    0 -0.78566510293E+02  0.75874785301E+02  0.23815166036E+03  0.29029433382E+03  0.12499962932E+03 0.  0.
          2    1    1    2  501    0  0.33947880629E+02 -0.57640183577E+02 -0.34925702881E+03  0.35560557017E+03  0.00000000000E+00 0. -1.
          1    1    1    2  502    0  0.44618629665E+02 -0.18234601723E+02  0.61636996394E+03  0.61825177335E+03  0.00000000000E+00 0. -1.
         22    1    3    3    0    0 -0.11246744235E+02  0.18150240496E+02 -0.12275512016E+02  0.24629427139E+02  0.00000000000E+00 0.  1.
         22    1    3    3    0    0 -0.67319766059E+02  0.57724544804E+02  0.25042717238E+03  0.26566490668E+03  0.00000000000E+00 0.  1.
</event>
<event>
 7    1  0.5139898E-006  0.3375660E+03  0.7818608E-02  0.1243008E+00
          2   -1    0    0  502    0  0.00000000000E+00  0.00000000000E+00  0.65005679720E+03  0.65005679720E+03  0.00000000000E+00 0. -1.
          1   -1    0    0  501    0 -0.00000000000E+00 -0.00000000000E+00 -0.63906850467E+03  0.63906850467E+03  0.00000000000E+00 0. -1.
         25    2    1    2    0    0 -0.33575264559E+03 -0.16103808948E+03  0.93647240802E+02  0.40380497580E+03  0.12500218993E+03 0.  0.
          2    1    1    2  501    0  0.29690778315E+03  0.14331599240E+03 -0.42637045728E+03  0.53896704186E+03  0.00000000000E+00 0. -1.
          1    1    1    2  502    0  0.38844862444E+02  0.17722097086E+02  0.34371150900E+03  0.34635328421E+03  0.00000000000E+00 0. -1.
         22    1    3    3    0    0 -0.47338524168E+02 -0.22761471074E+02  0.63691284622E+02  0.82556648264E+02  0.00000000000E+00 0. -1.
         22    1    3    3    0    0 -0.28841412142E+03 -0.13827661841E+03  0.29955956180E+02  0.32124832754E+03  0.00000000000E+00 0. -1.
</event>
<event>
 7    1  0.5139898E-006  0.1416199E+03  0.7818608E-02  0.1244203E+00
          2   -1    0    0  502    0  0.00000000000E+00  0.00000000000E+00  0.34188276026E+04  0.34188276026E+04  0.00000000000E+00 0. -1.
          1   -1    0    0  501    0 -0.00000000000E+00 -0.00000000000E+00 -0.78788991008E+02  0.78788991008E+02  0.00000000000E+00 0. -1.
         25    2    1    2    0    0 -0.59590800078E+02 -0.64100555791E+02  0.37570674490E+03  0.40551382040E+03  0.12500382261E+03 0.  0.
          2    1    1    2  501    0  0.22371005474E+02  0.15750996336E+03  0.37378521532E+02  0.16342277784E+03  0.00000000000E+00 0. -1.
          1    1    1    2  502    0  0.37219794604E+02 -0.93409407571E+02  0.29269533451E+04  0.29286799953E+04  0.00000000000E+00 0. -1.
         22    1    3    3    0    0 -0.67252761315E+02  0.18300571550E+02  0.16306896803E+03  0.17733959839E+03  0.00000000000E+00 0.  1.
         22    1    3    3    0    0  0.76619612371E+01 -0.82401127341E+02  0.21263777688E+03  0.22817422201E+03  0.00000000000E+00 0.  1.
</event>
<event>
 7    1  0.5139898E-006  0.7385551E+02  0.7818608E-02  0.1382274E+00
          2   -1    0    0  502    0  0.00000000000E+00  0.00000000000E+00  0.14737605859E+04  0.14737605859E+04  0.00000000000E+00 0. -1.
          1   -1    0    0  501    0 -0.00000000000E+00 -0.00000000000E+00 -0.90922745097E+03  0.90922745097E+03  0.00000000000E+00 0. -1.
         25    2    1    2    0    0  0.40367183111E+01  0.10873693511E+03  0.97293270918E+02  0.19217717996E+03  0.12500428704E+03 0.  0.
          2    1    1    2  501    0  0.31556246940E+02 -0.66499984822E+02 -0.85963813531E+03  0.86278373210E+03  0.00000000000E+00 0. -1.
          1    1    1    2  502    0 -0.35592965251E+02 -0.42236950292E+02  0.13268779994E+04  0.13280271248E+04  0.00000000000E+00 0. -1.
         22    1    3    3    0    0 -0.11900388436E+02  0.18018375725E+02 -0.28818242316E+02  0.36010723387E+02  0.00000000000E+00 0. -1.
         22    1    3    3    0    0  0.15937106747E+02  0.90718559389E+02  0.12611151323E+03  0.15616645657E+03  0.00000000000E+00 0. -1.
</event>
<event>
 7    1  0.5139898E-006  0.8274889E+02  0.7818608E-02  0.1502128E+00
          2   -1    0    0  502    0  0.00000000000E+00  0.00000000000E+00  0.79529367137E+03  0.79529367137E+03  0.00000000000E+00 0. -1.
          1   -1    0    0  501    0 -0.00000000000E+00 -0.00000000000E+00 -0.16610051248E+03  0.16610051248E+03  0.00000000000E+00 0. -1.
         25    2    1    2    0    0 -0.90310953020E+02 -0.14863081091E+02  0.19257863802E+03  0.24716108563E+03  0.12500036407E+03 0.  0.
          2    1    1    2  501    0  0.76782010335E+02  0.29802776010E+02 -0.12639544163E+03  0.15086248783E+03  0.00000000000E+00 0. -1.
          1    1    1    2  502    0  0.13528942685E+02 -0.14939694919E+02  0.56300996250E+03  0.56337061039E+03  0.00000000000E+00 0. -1.
         22    1    3    3    0    0 -0.11073828416E+03 -0.25543507882E+02  0.19314951728E+03  0.22410304415E+03  0.00000000000E+00 0.  1.
         22    1    3    3    0    0  0.20427331135E+02  0.10680426791E+02 -0.57087926687E+00  0.23058041480E+02  0.00000000000E+00 0.  1.
</event>
<event>
 7    1  0.5139898E-006  0.1158657E+03  0.7818608E-02  0.1275628E+00
          2   -1    0    0  502    0  0.00000000000E+00  0.00000000000E+00  0.13676195125E+04  0.13676195125E+04  0.00000000000E+00 0. -1.
          1   -1    0    0  501    0 -0.00000000000E+00 -0.00000000000E+00 -0.87309508702E+02  0.87309508702E+02  0.00000000000E+00 0. -1.
         25    2    1    2    0    0 -0.57342744622E+02 -0.58096230080E+02  0.22090651649E+03  0.26663994269E+03  0.12503522584E+03 0.  0.
          2    1    1    2  501    0  0.38038524823E+01  0.13073812593E+03  0.58985784171E+01  0.13092639189E+03  0.00000000000E+00 0. -1.
          1    1    1    2  502    0  0.53538892140E+02 -0.72641895848E+02  0.10535049089E+04  0.10573626866E+04  0.00000000000E+00 0. -1.
         22    1    3    3    0    0 -0.37096671738E+01  0.23784148297E+01 -0.15857413359E+02  0.16458312371E+02  0.00000000000E+00 0. -1.
         22    1    3    3    0    0 -0.53633077448E+02 -0.60474644910E+02  0.23676392985E+03  0.25018163032E+03  0.00000000000E+00 0. -1.
</event>
<event>
 7    1  0.5139898E-006  0.1179629E+03  0.7818608E-02  0.1311758E+00
          2   -1    0    0  502    0  0.00000000000E+00  0.00000000000E+00  0.26332017105E+04  0.26332017105E+04  0.00000000000E+00 0. -1.
          1   -1    0    0  501    0 -0.00000000000E+00 -0.00000000000E+00 -0.23541426803E+03  0.23541426803E+03  0.00000000000E+00 0. -1.
         25    2    1    2    0    0  0.28395815015E+02  0.11845223953E+03  0.99722521919E+02  0.20101240416E+03  0.12499659950E+03 0.  0.
          2    1    1    2  501    0 -0.63087589599E+02 -0.53381655866E+01 -0.17789121384E+03  0.18882220192E+03  0.00000000000E+00 0. -1.
          1    1    1    2  502    0  0.34691774584E+02 -0.11311407394E+03  0.24759561344E+04  0.24787813725E+04  0.00000000000E+00 0. -1.
         22    1    3    3    0    0 -0.22149263167E+02  0.77010910392E+02 -0.19339702945E+01  0.80156162703E+02  0.00000000000E+00 0. -1.
         22    1    3    3    0    0  0.50545078183E+02  0.41441329140E+02  0.10165649221E+03  0.12085624145E+03  0.00000000000E+00 0. -1.
</event>
<event>
 7    1  0.5139898E-006  0.3147079E+02  0.7818608E-02  0.1630242E+00
          2   -1    0    0  502    0  0.00000000000E+00  0.00000000000E+00  0.39127351671E+03  0.39127351671E+03  0.00000000000E+00 0. -1.
          1   -1    0    0  501    0 -0.00000000000E+00 -0.00000000000E+00 -0.96142122575E+03  0.96142122575E+03  0.00000000000E+00 0. -1.
         25    2    1    2    0    0  0.11534047613E+02  0.14860726212E+02  0.66973613147E+02  0.14305789071E+03  0.12500487910E+03 0.  0.
          2    1    1    2  501    0 -0.16843099202E+02  0.16601793796E+02 -0.92233791439E+03  0.92264106665E+03  0.00000000000E+00 0. -1.
          1    1    1    2  502    0  0.53090515891E+01 -0.31462520008E+02  0.28521659220E+03  0.28699578510E+03  0.00000000000E+00 0. -1.
         22    1    3    3    0    0 -0.32882694314E+01  0.39033884942E+02  0.95263838742E+02  0.10300318374E+03  0.00000000000E+00 0. -1.
         22    1    3    3    0    0  0.14822317044E+02 -0.24173158731E+02 -0.28290225596E+02  0.40054706962E+02  0.00000000000E+00 0. -1.
</event>
<event>
 7    1  0.5139898E-006  0.6683850E+02  0.7818608E-02  0.1435018E+00
          2   -1    0    0  502    0  0.00000000000E+00  0.00000000000E+00  0.33622419051E+03  0.33622419051E+03  0.00000000000E+00 0. -1.
          1   -1    0    0  501    0 -0.00000000000E+00 -0.00000000000E+00 -0.10447368573E+03  0.10447368573E+03  0.00000000000E+00 0. -1.
         25    2    1    2    0    0 -0.70606843163E+02 -0.27821106113E+02  0.58553669496E+02  0.15752276305E+03  0.12500219367E+03 0.  0.
          2    1    1    2  501    0  0.30850765369E+02 -0.26088090178E+02 -0.41711038521E+02  0.58070378917E+02  0.00000000000E+00 0. -1.
          1    1    1    2  502    0  0.39756077793E+02  0.53909196292E+02  0.21490787381E+03  0.22510473427E+03  0.00000000000E+00 0. -1.
         22    1    3    3    0    0 -0.10693577298E+03 -0.18118362491E+02  0.46801846301E+02  0.11812682768E+03  0.00000000000E+00 0. -1.
         22    1    3    3    0    0  0.36328929814E+02 -0.97027436223E+01  0.11751823195E+02  0.39395935370E+02  0.00000000000E+00 0. -1.
</event>
<event>
 7    1  0.5139898E-006  0.9876760E+02  0.7818608E-02  0.1342106E+00
          2   -1    0    0  502    0  0.00000000000E+00  0.00000000000E+00  0.15477348230E+04  0.15477348230E+04  0.00000000000E+00 0. -1.
          1   -1    0    0  501    0 -0.00000000000E+00 -0.00000000000E+00 -0.17923073314E+04  0.17923073314E+04  0.00000000000E+00 0. -1.
         25    2    1    2    0    0  0.39753386520E+01 -0.14939197932E+03 -0.15025165347E+04  0.15150929633E+04  0.12496792961E+03 0.  0.
          2    1    1    2  501    0  0.20988157281E+02  0.53881949135E+02 -0.27895380028E+03  0.28488416923E+03  0.00000000000E+00 0. -1.
          1    1    1    2  502    0 -0.24963495933E+02  0.95510030186E+02  0.15368978267E+04  0.15400650219E+04  0.00000000000E+00 0. -1.
         22    1    3    3    0    0 -0.32487287973E+02 -0.15416643350E+03 -0.11740231599E+04  0.11845476322E+04  0.00000000000E+00 0. -1.
         22    1    3    3    0    0  0.36462626625E+02  0.47744541796E+01 -0.32849337488E+03  0.33054533107E+03  0.00000000000E+00 0. -1.
</event>
<event>
 7    1  0.5139898E-006  0.1668913E+03  0.7818608E-02  0.1333084E+00
          2   -1    0    0  502    0  0.00000000000E+00  0.00000000000E+00  0.15909311192E+03  0.15909311192E+03  0.00000000000E+00 0. -1.
          1   -1    0    0  501    0 -0.00000000000E+00 -0.00000000000E+00 -0.20365515212E+04  0.20365515212E+04  0.00000000000E+00 0. -1.
         25    2    1    2    0    0  0.14933656725E+03 -0.10851070463E+03 -0.12735707245E+04  0.12929370531E+04  0.12501139808E+03 0.  0.
          2    1    1    2  501    0 -0.13345613399E+03  0.75076490271E+02 -0.74307231863E+03  0.75868536944E+03  0.00000000000E+00 0. -1.
          1    1    1    2  502    0 -0.15880433264E+02  0.33434214359E+02  0.13918463383E+03  0.14402221059E+03  0.00000000000E+00 0. -1.
         22    1    3    3    0    0  0.11395827054E+01  0.13215940097E+02 -0.31986231295E+03  0.32013725020E+03  0.00000000000E+00 0. -1.
         22    1    3    3    0    0  0.14819698454E+03 -0.12172664473E+03 -0.95370841151E+03  0.97279980286E+03  0.00000000000E+00 0. -1.
</event>
<event>
 7    1  0.5139898E-006  0.4466285E+02  0.7818608E-02  0.1478949E+00
          2   -1    0    0  502    0  0.00000000000E+00  0.00000000000E+00  0.16193107745E+04  0.16193107745E+04  0.00000000000E+00 0. -1.
          1   -1    0    0  501    0 -0.00000000000E+00 -0.00000000000E+00 -0.31218631751E+03  0.31218631751E+03  0.00000000000E+00 0. -1.
         25    2    1    2    0    0  0.12197292362E+02 -0.28684387507E+02 -0.90219971095E+02  0.15728234160E+03  0.12500609492E+03 0.  0.
          2    1    1    2  501    0  0.31119411748E+02  0.35699979386E+02 -0.18515051251E+03  0.19111153445E+03  0.00000000000E+00 0. -1.
          1    1    1    2  502    0 -0.43316704110E+02 -0.70155918786E+01  0.15824949406E+04  0.15831032159E+04  0.00000000000E+00 0. -1.
         22    1    3    3    0    0  0.24119229166E+01 -0.18756430905E+02 -0.12153886318E+03  0.12300128591E+03  0.00000000000E+00 0. -1.
         22    1    3    3    0    0  0.97853694454E+01 -0.99279566020E+01  0.31318892086E+02  0.34281055686E+02  0.00000000000E+00 0. -1.
</event>
<event>
 7    1  0.5139898E-006  0.1513287E+03  0.7818608E-02  0.1264641E+00
          2   -1    0    0  502    0  0.00000000000E+00  0.00000000000E+00  0.15640576535E+04  0.15640576535E+04  0.00000000000E+00 0. -1.
          1   -1    0    0  501    0 -0.00000000000E+00 -0.00000000000E+00 -0.77870733625E+02  0.77870733625E+02  0.00000000000E+00 0. -1.
         25    2    1    2    0    0  0.11322605101E+03  0.14610587656E+03  0.67547365230E+03  0.71137714884E+03  0.12500290857E+03 0.  0.
          2    1    1    2  501    0 -0.36418887712E+02 -0.14401725632E+03  0.37075747240E+02  0.15310753258E+03  0.00000000000E+00 0. -1.
          1    1    1    2  502    0 -0.76807163300E+02 -0.20886202448E+01  0.77363752033E+03  0.77744370570E+03  0.00000000000E+00 0. -1.
         22    1    3    3    0    0  0.11576599611E+03  0.16625589356E+03  0.62290448318E+03  0.65502120818E+03  0.00000000000E+00 0. -1.
         22    1    3    3    0    0 -0.25399451031E+01 -0.20150016997E+02  0.52569169115E+02  0.56355940659E+02  0.00000000000E+00 0. -1.
</event>
<event>
 7    1  0.5139898E-006  0.1679691E+03  0.7818608E-02  0.1321383E+00
          2   -1    0    0  502    0  0.00000000000E+00  0.00000000000E+00  0.67948979116E+03  0.67948979116E+03  0.00000000000E+00 0. -1.
          1   -1    0    0  501    0 -0.00000000000E+00 -0.00000000000E+00 -0.72816224807E+03  0.72816224807E+03  0.00000000000E+00 0. -1.
         25    2    1    2    0    0  0.12963517277E+03 -0.15795054310E+03  0.40344611618E+02  0.24291125411E+03  0.12499815041E+03 0.  0.
          2    1    1    2  501    0 -0.96639867927E+02  0.13398269188E+03 -0.61519265699E+03  0.63698715137E+03  0.00000000000E+00 0. -1.
          1    1    1    2  502    0 -0.32995304842E+02  0.23967851213E+02  0.52617558847E+03  0.52775363375E+03  0.00000000000E+00 0. -1.
         22    1    3    3    0    0  0.11195330184E+03 -0.12113135576E+03 -0.24017368761E+02  0.16668287598E+03  0.00000000000E+00 0. -1.
         22    1    3    3    0    0  0.17681870931E+02 -0.36819187332E+02  0.64361980379E+02  0.76228378139E+02  0.00000000000E+00 0. -1.
</event>
<event>
 7    1  0.5139898E-006  0.1454360E+03  0.7818608E-02  0.1243825E+00
          2   -1    0    0  502    0  0.00000000000E+00  0.00000000000E+00  0.17258452040E+04  0.17258452040E+04  0.00000000000E+00 0. -1.
          1   -1    0    0  501    0 -0.00000000000E+00 -0.00000000000E+00 -0.76190147354E+02  0.76190147354E+02  0.00000000000E+00 0. -1.
         25    2    1    2    0    0  0.17911221467E+03  0.10379424899E+03  0.34808866472E+03  0.42384533746E+03  0.12499888005E+03 0.  0.
          2    1    1    2  501    0 -0.80849115661E+02 -0.10161082837E+03  0.79663441254E+02  0.15234042083E+03  0.00000000000E+00 0. -1.
          1    1    1    2  502    0 -0.98263099008E+02 -0.21834206228E+01  0.12219029507E+04  0.12258495931E+04  0.00000000000E+00 0. -1.
         22    1    3    3    0    0 -0.77557822019E+01  0.36442363684E+02  0.26006980824E+02  0.45437441389E+02  0.00000000000E+00 0.  1.
         22    1    3    3    0    0  0.18686799687E+03  0.67351885310E+02  0.32208168389E+03  0.37840789607E+03  0.00000000000E+00 0.  1.
</event>
<event>
 7    1  0.5139898E-006  0.6848087E+02  0.7818608E-02  0.1404927E+00
          2   -1    0    0  502    0  0.00000000000E+00  0.00000000000E+00  0.46084624321E+03  0.46084624321E+03  0.00000000000E+00 0. -1.
          1   -1    0    0  501    0 -0.00000000000E+00 -0.00000000000E+00 -0.31301751604E+03  0.31301751604E+03  0.00000000000E+00 0. -1.
         25    2    1    2    0    0  0.66581691304E+02  0.22629111054E+02  0.99215904368E+02  0.17439755671E+03  0.12500205527E+03 0.  0.
          2    1    1    2  501    0 -0.63481013301E+02  0.26977352056E+02 -0.26914590060E+03  0.27784371935E+03  0.00000000000E+00 0. -1.
          1    1    1    2  502    0 -0.31006780030E+01 -0.49606463110E+02  0.31775872341E+03  0.32162248318E+03  0.00000000000E+00 0. -1.
         22    1    3    3    0    0  0.50684389991E+02  0.29642539035E+02  0.12797219266E+03  0.14079939489E+03  0.00000000000E+00 0. -1.
         22    1    3    3    0    0  0.15897301313E+02 -0.70134279808E+01 -0.28756288288E+02  0.33598161813E+02  0.00000000000E+00 0. -1.
</event>
<event>
 7    1  0.5139898E-006  0.5674307E+02  0.7818608E-02  0.1416157E+00
          2   -1    0    0  502    0  0.00000000000E+00  0.00000000000E+00  0.32411186944E+03  0.32411186944E+03  0.00000000000E+00 0. -1.
          1   -1    0    0  501    0 -0.00000000000E+00 -0.00000000000E+00 -0.19388147707E+03  0.19388147707E+03  0.00000000000E+00 0. -1.
         25    2    1    2    0    0 -0.23295768831E+01 -0.23957677376E+01  0.56539502457E+02  0.13723360418E+03  0.12500072058E+03 0.  0.
          2    1    1    2  501    0 -0.20810169635E+02  0.54206268412E+02 -0.14427940874E+03  0.15552469412E+03  0.00000000000E+00 0. -1.
          1    1    1    2  502    0  0.23139746518E+02 -0.51810500675E+02  0.21797029865E+03  0.22523504821E+03  0.00000000000E+00 0. -1.
         22    1    3    3    0    0 -0.35891411795E+02  0.49133292564E+02  0.13934050827E+02  0.62421403791E+02  0.00000000000E+00 0. -1.
         22    1    3    3    0    0  0.33561834912E+02 -0.51529060301E+02  0.42605451630E+02  0.74812200388E+02  0.00000000000E+00 0. -1.
</event>
<event>
 7    1  0.5139898E-006  0.5175342E+02  0.7818608E-02  0.1480387E+00
          2   -1    0    0  502    0  0.00000000000E+00  0.00000000000E+00  0.22541317377E+04  0.22541317377E+04  0.00000000000E+00 0. -1.
          1   -1    0    0  501    0 -0.00000000000E+00 -0.00000000000E+00 -0.11321679895E+03  0.11321679895E+03  0.00000000000E+00 0. -1.
         25    2    1    2    0    0 -0.64956827876E+02  0.55787782536E+02  0.50230729655E+02  0.15962235164E+03  0.12499801108E+03 0.  0.
          2    1    1    2  501    0  0.34792136840E+02 -0.13954330144E+02 -0.52175664690E+02  0.64245747730E+02  0.00000000000E+00 0. -1.
          1    1    1    2  502    0  0.30164691036E+02 -0.41833452392E+02  0.21428598738E+04  0.21434804373E+04  0.00000000000E+00 0. -1.
         22    1    3    3    0    0 -0.74116384642E+02  0.48426428763E+02  0.85114691124E+02  0.12281232886E+03  0.00000000000E+00 0. -1.
         22    1    3    3    0    0  0.91595567669E+01  0.73613537734E+01 -0.34883961469E+02  0.36810022783E+02  0.00000000000E+00 0. -1.
</event>
<event>
 7    1  0.5139898E-006  0.7598909E+02  0.7818608E-02  0.1353512E+00
          2   -1    0    0  502    0  0.00000000000E+00  0.00000000000E+00  0.31476008452E+02  0.31476008452E+02  0.00000000000E+00 0. -1.
          1   -1    0    0  501    0 -0.00000000000E+00 -0.00000000000E+00 -0.13480644743E+04  0.13480644743E+04  0.00000000000E+00 0. -1.
         25    2    1    2    0    0  0.45114945562E+02 -0.12621091261E+03 -0.58856933740E+03  0.61644422540E+03  0.12500026131E+03 0.  0.
          2    1    1    2  501    0 -0.36260108434E+02  0.58620775407E+02 -0.67012754749E+03  0.67366321013E+03  0.00000000000E+00 0. -1.
          1    1    1    2  502    0 -0.88548371285E+01  0.67590137200E+02 -0.57891580916E+02  0.89433047182E+02  0.00000000000E+00 0. -1.
         22    1    3    3    0    0  0.32698075320E+02 -0.27195760349E+02 -0.40736501009E+03  0.40957908266E+03  0.00000000000E+00 0. -1.
         22    1    3    3    0    0  0.12416870243E+02 -0.99015152259E+02 -0.18120432731E+03  0.20686514274E+03  0.00000000000E+00 0. -1.
</event>
<event>
 7    1  0.5139898E-006  0.5764365E+02  0.7818608E-02  0.1492283E+00
          2   -1    0    0  502    0  0.00000000000E+00  0.00000000000E+00  0.55484035914E+03  0.55484035914E+03  0.00000000000E+00 0. -1.
          1   -1    0    0  501    0 -0.00000000000E+00 -0.00000000000E+00 -0.53321336511E+02  0.53321336511E+02  0.00000000000E+00 0. -1.
         25    2    1    2    0    0  0.80765351260E+02 -0.22295466048E+02  0.16841459158E+03  0.22585200403E+03  0.12500209316E+03 0.  0.
          2    1    1    2  501    0 -0.25218749152E+02  0.17969675526E+02 -0.11648002971E+02  0.33084294167E+02  0.00000000000E+00 0. -1.
          1    1    1    2  502    0 -0.55546602108E+02  0.43257905219E+01  0.34475243402E+03  0.34922539746E+03  0.00000000000E+00 0. -1.
         22    1    3    3    0    0  0.62956380432E+02  0.19552723019E+02  0.16789030658E+03  0.18036898252E+03  0.00000000000E+00 0. -1.
         22    1    3    3    0    0  0.17808970827E+02 -0.41848189067E+02  0.52428500740E+00  0.45483021502E+02  0.00000000000E+00 0. -1.
</event>
<event>
 7    1  0.5139898E-006  0.6644180E+02  0.7818608E-02  0.1379754E+00
          2   -1    0    0  502    0  0.00000000000E+00  0.00000000000E+00  0.10789972103E+04  0.10789972103E+04  0.00000000000E+00 0. -1.
          1   -1    0    0  501    0 -0.00000000000E+00 -0.00000000000E+00 -0.13541892670E+04  0.13541892670E+04  0.00000000000E+00 0. -1.
         25    2    1    2    0    0  0.11298759827E+03  0.39787214291E+02  0.21557317244E+03  0.27648760140E+03  0.12499752503E+03 0.  0.
          2    1    1    2  501    0 -0.66259261729E+02  0.19741080807E+01 -0.13217214674E+04  0.13233827202E+04  0.00000000000E+00 0. -1.
          1    1    1    2  502    0 -0.46728336542E+02 -0.41761322372E+02  0.83095623827E+03  0.83331615573E+03  0.00000000000E+00 0. -1.
         22    1    3    3    0    0  0.32273456765E+02  0.77488866838E+02  0.99831023870E+02  0.13043133758E+03  0.00000000000E+00 0. -1.
         22    1    3    3    0    0  0.80714141506E+02 -0.37701652547E+02  0.11574214858E+03  0.14605626382E+03  0.00000000000E+00 0. -1.
</event>
<event>
 7    1  0.5139898E-006  0.1318469E+03  0.7818608E-02  0.1351116E+00
          2   -1    0    0  502    0  0.00000000000E+00  0.00000000000E+00  0.60505226317E+03  0.60505226317E+03  0.00000000000E+00 0. -1.
          1   -1    0    0  501    0 -0.00000000000E+00 -0.00000000000E+00 -0.31998176624E+03  0.31998176624E+03  0.00000000000E+00 0. -1.
         25    2    1    2    0    0  0.98375853045E+02  0.77798520930E+01 -0.41255943514E+02  0.16451122156E+03  0.12499421820E+03 0.  0.
          2    1    1    2  501    0  0.32617196568E+02  0.23320479026E+02 -0.20680394908E+03  0.21065516753E+03  0.00000000000E+00 0. -1.
          1    1    1    2  502    0 -0.13099304961E+03 -0.31100331119E+02  0.53313038952E+03  0.54986764032E+03  0.00000000000E+00 0. -1.
         22    1    3    3    0    0  0.96861652034E+02  0.40811617783E+02 -0.65197786060E+02  0.12368718239E+03  0.00000000000E+00 0.  1.
         22    1    3    3    0    0  0.15142010107E+01 -0.33031765690E+02  0.23941842546E+02  0.40824039166E+02  0.00000000000E+00 0.  1.
</event>
<event>
 7    1  0.5139898E-006  0.8548062E+02  0.7818608E-02  0.1371003E+00
          2   -1    0    0  502    0  0.00000000000E+00  0.00000000000E+00  0.66925772021E+03  0.66925772021E+03  0.00000000000E+00 0. -1.
          1   -1    0    0  501    0 -0.00000000000E+00 -0.00000000000E+00 -0.19318077171E+03  0.19318077171E+03  0.00000000000E+00 0. -1.
         25    2    1    2    0    0  0.19693670568E+02  0.12541123377E+03  0.17398352635E+03  0.24902640868E+03  0.12501226565E+03 0.  0.
          2    1    1    2  501    0 -0.35603086350E+02 -0.75546440335E+02 -0.14281158440E+03  0.16543878941E+03  0.00000000000E+00 0. -1.
          1    1    1    2  502    0  0.15909415782E+02 -0.49864793439E+02  0.44490500655E+03  0.44797329383E+03  0.00000000000E+00 0. -1.
         22    1    3    3    0    0 -0.38692234366E+02  0.18583214931E+02  0.87819900647E+01  0.43812649166E+02  0.00000000000E+00 0.  1.
         22    1    3    3    0    0  0.58385904934E+02  0.10682801884E+03  0.16520153628E+03  0.20521375952E+03  0.00000000000E+00 0.  1.
</event>
<event>
 7    1  0.5139898E-006  0.5909148E+02  0.7818608E-02  0.1426588E+00
          2   -1    0    0  502    0  0.00000000000E+00  0.00000000000E+00  0.18982554463E+04  0.18982554463E+04  0.00000000000E+00 0. -1.
          1   -1    0    0  501    0 -0.00000000000E+00 -0.00000000000E+00 -0.37885627810E+02  0.37885627810E+02  0.00000000000E+00 0. -1.
         25    2    1    2    0    0 -0.85614911597E+01  0.19952821480E+02  0.96222677822E+03  0.97055473597E+03  0.12499883427E+03 0.  0.
          2    1    1    2  501    0 -0.25623306792E+02 -0.54654531669E+02 -0.55169388050E+01  0.60614423174E+02  0.00000000000E+00 0. -1.
          1    1    1    2  502    0  0.34184797952E+02  0.34701710189E+02  0.90365997905E+03  0.90497191494E+03  0.00000000000E+00 0. -1.
         22    1    3    3    0    0 -0.18178404904E+02  0.34643244399E+02  0.89811923526E+02  0.97963209394E+02  0.00000000000E+00 0.  1.
         22    1    3    3    0    0  0.96169137445E+01 -0.14690422919E+02  0.87241485470E+03  0.87259152658E+03  0.00000000000E+00 0.  1.
</event>
<event>
 7    1  0.5139898E-006  0.3834352E+02  0.7818608E-02  0.1559747E+00
          2   -1    0    0  502    0  0.00000000000E+00  0.00000000000E+00  0.12292054149E+04  0.12292054149E+04  0.00000000000E+00 0. -1.
          1   -1    0    0  501    0 -0.00000000000E+00 -0.00000000000E+00 -0.95538117746E+02  0.95538117746E+02  0.00000000000E+00 0. -1.
         25    2    1    2    0    0 -0.30499642949E+01  0.67271834801E+02  0.57077699017E+03  0.58817155673E+03  0.12499842240E+03 0.  0.
          2    1    1    2  501    0 -0.25489210120E+01 -0.38050926626E+02 -0.82294532443E+02  0.90701488882E+02  0.00000000000E+00 0. -1.
          1    1    1    2  502    0  0.55988853069E+01 -0.29220908174E+02  0.64518483945E+03  0.64587048706E+03  0.00000000000E+00 0. -1.
         22    1    3    3    0    0 -0.69545649158E+01 -0.29106331005E+02  0.47956308900E+02  0.56527445025E+02  0.00000000000E+00 0. -1.
         22    1    3    3    0    0  0.39046006209E+01  0.96378165805E+02  0.52282068127E+03  0.53164411171E+03  0.00000000000E+00 0. -1.
</event>
<event>
 7    1  0.5139898E-006  0.6256311E+02  0.7818608E-02  0.1428513E+00
          2   -1    0    0  502    0  0.00000000000E+00  0.00000000000E+00  0.11152931480E+04  0.11152931480E+04  0.00000000000E+00 0. -1.
          1   -1    0    0  501    0 -0.00000000000E+00 -0.00000000000E+00 -0.39535832404E+03  0.39535832404E+03  0.00000000000E+00 0. -1.
         25    2    1    2    0    0  0.16648536781E+02  0.99420654929E+02  0.39361495159E+03  0.42511091902E+03  0.12499969181E+03 0.  0.
          2    1    1    2  501    0 -0.21514201473E+02 -0.39910392300E+02 -0.37698698676E+03  0.37970368508E+03  0.00000000000E+00 0. -1.
          1    1    1    2  502    0  0.48656646916E+01 -0.59510262629E+02  0.70330685914E+03  0.70583686796E+03  0.00000000000E+00 0. -1.
         22    1    3    3    0    0  0.52702921296E+02  0.97970376013E+02  0.20660573453E+03  0.23465234291E+03  0.00000000000E+00 0. -1.
         22    1    3    3    0    0 -0.36054384515E+02  0.14502789159E+01  0.18700921706E+03  0.19045857612E+03  0.00000000000E+00 0. -1.
</event>
<event>
 7    1  0.5139898E-006  0.3636920E+02  0.7818608E-02  0.1541687E+00
          2   -1    0    0  502    0  0.00000000000E+00  0.00000000000E+00  0.13010923140E+04  0.13010923140E+04  0.00000000000E+00 0. -1.
          1   -1    0    0  501    0 -0.00000000000E+00 -0.00000000000E+00 -0.62782922887E+03  0.62782922887E+03  0.00000000000E+00 0. -1.
         25    2    1    2    0    0 -0.20723665660E+01  0.46892654436E+01 -0.76795423604E+02  0.14679263088E+03  0.12499702189E+03 0.  0.
          2    1    1    2  501    0  0.37018187145E+02 -0.28908647283E+00 -0.51512587443E+03  0.51645435060E+03  0.00000000000E+00 0. -1.
          1    1    1    2  502    0 -0.34945820579E+02 -0.44001789708E+01  0.12651843832E+04  0.12656745614E+04  0.00000000000E+00 0. -1.
         22    1    3    3    0    0 -0.13342330703E+02  0.57351079914E+02 -0.79977332497E+01  0.59423294196E+02  0.00000000000E+00 0. -1.
         22    1    3    3    0    0  0.11269964137E+02 -0.52661814471E+02 -0.68797690354E+02  0.87369336687E+02  0.00000000000E+00 0. -1.
</event>
<event>
 7    1  0.5139898E-006  0.1347197E+03  0.7818608E-02  0.1220648E+00
          2   -1    0    0  502    0  0.00000000000E+00  0.00000000000E+00  0.92883544738E+03  0.92883544738E+03  0.00000000000E+00 0. -1.
          1   -1    0    0  501    0 -0.00000000000E+00 -0.00000000000E+00 -0.13674550466E+04  0.13674550466E+04  0.00000000000E+00 0. -1.
         25    2    1    2    0    0  0.21479387755E+02 -0.10052859457E+03  0.11304893223E+03  0.19741495915E+03  0.12500097037E+03 0.  0.
          2    1    1    2  501    0 -0.13464900479E+03  0.43626061604E+01 -0.13146704278E+04  0.13215550388E+04  0.00000000000E+00 0. -1.
          1    1    1    2  502    0  0.11316961703E+03  0.96165988410E+02  0.76300189642E+03  0.77732049599E+03  0.00000000000E+00 0. -1.
         22    1    3    3    0    0  0.34362057718E+02 -0.12734173980E+03  0.88376522758E+02  0.15876737537E+03  0.00000000000E+00 0.  1.
         22    1    3    3    0    0 -0.12882669964E+02  0.26813145234E+02  0.24672409468E+02  0.38647583776E+02  0.00000000000E+00 0.  1.
</event>
<event>
 7    1  0.5139898E-006  0.7690713E+02  0.7818608E-02  0.1406982E+00
          2   -1    0    0  502    0  0.00000000000E+00  0.00000000000E+00  0.23681015343E+04  0.23681015343E+04  0.00000000000E+00 0. -1.
          1   -1    0    0  501    0 -0.00000000000E+00 -0.00000000000E+00 -0.74999950484E+03  0.74999950484E+03  0.00000000000E+00 0. -1.
         25    2    1    2    0    0  0.41400214183E+02  0.11152111713E+03  0.13236824105E+03  0.21748299482E+03  0.12500625784E+03 0.  0.
          2    1    1    2  501    0 -0.19473253290E+02 -0.73894683074E+02 -0.70516146343E+03  0.70929001212E+03  0.00000000000E+00 0. -1.
          1    1    1    2  502    0 -0.21926960893E+02 -0.37626434053E+02  0.21908952518E+04  0.21913280322E+04  0.00000000000E+00 0. -1.
         22    1    3    3    0    0 -0.11756191343E+02  0.11788252880E+03  0.99107315595E+02  0.15445633246E+03  0.00000000000E+00 0. -1.
         22    1    3    3    0    0  0.53156405526E+02 -0.63614116728E+01  0.33260925459E+02  0.63026662368E+02  0.00000000000E+00 0. -1.
</event>
<event>
 7    1  0.5139898E-006  0.1331832E+03  0.7818608E-02  0.1316845E+00
          2   -1    0    0  502    0  0.00000000000E+00  0.00000000000E+00  0.27433849704E+04  0.27433849704E+04  0.00000000000E+00 0. -1.
          1   -1    0    0  501    0 -0.00000000000E+00 -0.00000000000E+00 -0.47013163688E+03  0.47013163688E+03  0.00000000000E+00 0. -1.
         25    2    1    2    0    0  0.34291264672E+02  0.93498545252E+02 -0.47696293622E+02  0.16677218939E+03  0.12498063022E+03 0.  0.
          2    1    1    2  501    0 -0.35283660556E+02  0.40301516954E+02 -0.35924276870E+03  0.36321414598E+03  0.00000000000E+00 0. -1.
          1    1    1    2  502    0  0.99239588430E+00 -0.13380006221E+03  0.26801923959E+04  0.26835302719E+04  0.00000000000E+00 0. -1.
         22    1    3    3    0    0  0.30811344711E+02  0.12364990900E+03 -0.27644073136E+02  0.13039491454E+03  0.00000000000E+00 0. -1.
         22    1    3    3    0    0  0.34799199604E+01 -0.30151363749E+02 -0.20052220486E+02  0.36377274847E+02  0.00000000000E+00 0. -1.
</event>
<event>
 7    1  0.5139898E-006  0.8895409E+02  0.7818608E-02  0.1423092E+00
          2   -1    0    0  502    0  0.00000000000E+00  0.00000000000E+00  0.45531428401E+02  0.45531428401E+02  0.00000000000E+00 0. -1.
          1   -1    0    0  501    0 -0.00000000000E+00 -0.00000000000E+00 -0.63831509496E+03  0.63831509496E+03  0.00000000000E+00 0. -1.
         25    2    1    2    0    0 -0.70581608452E+02 -0.21962287316E+01 -0.28946694777E+03  0.32310986702E+03  0.12498914132E+03 0.  0.
          2    1    1    2  501    0  0.94404145228E+02  0.25369585141E+02 -0.31152640878E+03  0.32650338720E+03  0.00000000000E+00 0. -1.
          1    1    1    2  502    0 -0.23822536776E+02 -0.23173356409E+02  0.82096899916E+01  0.34233269132E+02  0.00000000000E+00 0. -1.
         22    1    3    3    0    0  0.30750187494E+02 -0.24793241386E+02 -0.88284614206E+02  0.96718415800E+02  0.00000000000E+00 0. -1.
         22    1    3    3    0    0 -0.10133179595E+03  0.22597012654E+02 -0.20118233356E+03  0.22639145122E+03  0.00000000000E+00 0. -1.
</event>
<event>
 7    1  0.5139898E-006  0.5492476E+02  0.7818608E-02  0.1485996E+00
          2   -1    0    0  502    0  0.00000000000E+00  0.00000000000E+00  0.80495939989E+03  0.80495939989E+03  0.00000000000E+00 0. -1.
          1   -1    0    0  501    0 -0.00000000000E+00 -0.00000000000E+00 -0.32752232053E+02  0.32752232053E+02  0.00000000000E+00 0. -1.
         25    2    1    2    0    0 -0.30976700160E+02 -0.48854604512E+02  0.32177879031E+03  0.35001852866E+03  0.12500020872E+03 0.  0.
          2    1    1    2  501    0  0.51339121860E+02  0.21681725109E+02  0.25287780878E+02  0.61198647851E+02  0.00000000000E+00 0. -1.
          1    1    1    2  502    0 -0.20362421700E+02  0.27172879403E+02  0.42514059665E+03  0.42649445543E+03  0.00000000000E+00 0. -1.
         22    1    3    3    0    0  0.19873726611E+02 -0.26879484727E+02  0.12297905479E+02  0.35618958264E+02  0.00000000000E+00 0.  1.
         22    1    3    3    0    0 -0.50850426772E+02 -0.21975119785E+02  0.30948088483E+03  0.31439957040E+03  0.00000000000E+00 0.  1.
</event>
<event>
 7    1  0.5139898E-006  0.1873301E+03  0.7818608E-02  0.1355700E+00
          2   -1    0    0  502    0  0.00000000000E+00  0.00000000000E+00  0.13093161645E+04  0.13093161645E+04  0.00000000000E+00 0. -1.
          1   -1    0    0  501    0 -0.00000000000E+00 -0.00000000000E+00 -0.11937539266E+04  0.11937539266E+04  0.00000000000E+00 0. -1.
         25    2    1    2    0    0 -0.19478138596E+03  0.44079707184E+02  0.10875982828E+03  0.25949236916E+03  0.12499912202E+03 0.  0.
          2    1    1    2  501    0  0.18595831982E+03 -0.18409778755E+02 -0.11104159081E+04  0.11260297091E+04  0.00000000000E+00 0. -1.
          1    1    1    2  502    0  0.88230661349E+01 -0.25669928430E+02  0.11172183178E+04  0.11175480129E+04  0.00000000000E+00 0. -1.
         22    1    3    3    0    0 -0.12691656660E+02 -0.32479034023E+02  0.32763993128E+02  0.47848145685E+02  0.00000000000E+00 0.  1.
         22    1    3    3    0    0 -0.18208972930E+03  0.76558741208E+02  0.75995835154E+02  0.21164422348E+03  0.00000000000E+00 0.  1.
</event>
<event>
 7    1  0.5139898E-006  0.4396258E+02  0.7818608E-02  0.1493865E+00
          2   -1    0    0  502    0  0.00000000000E+00  0.00000000000E+00  0.15578216103E+03  0.15578216103E+03  0.00000000000E+00 0. -1.
          1   -1    0    0  501    0 -0.00000000000E+00 -0.00000000000E+00 -0.18335948936E+03  0.18335948936E+03  0.00000000000E+00 0. -1.
         25    2    1    2    0    0  0.55969617926E+02 -0.51827142843E+02  0.84205927069E+02  0.16892382821E+03  0.12500388281E+03 0.  0.
          2    1    1    2  501    0 -0.40589759818E+02  0.14729207330E+02 -0.12146153657E+03  0.12890842880E+03  0.00000000000E+00 0. -1.
          1    1    1    2  502    0 -0.15379858108E+02  0.37097935513E+02  0.96782811773E+01  0.41309393378E+02  0.00000000000E+00 0. -1.
         22    1    3    3    0    0  0.24266727078E+02 -0.40783950569E+02  0.11434898673E+03  0.12380587802E+03  0.00000000000E+00 0. -1.
         22    1    3    3    0    0  0.31702890848E+02 -0.11043192274E+02 -0.30143059659E+02  0.45117950190E+02  0.00000000000E+00 0. -1.
</event>
<event>
 7    1  0.5139898E-006  0.1378877E+03  0.7818608E-02  0.1258791E+00
          2   -1    0    0  502    0  0.00000000000E+00  0.00000000000E+00  0.30408243835E+04  0.30408243835E+04  0.00000000000E+00 0. -1.
          1   -1    0    0  501    0 -0.00000000000E+00 -0.00000000000E+00 -0.80758605215E+03  0.80758605215E+03  0.00000000000E+00 0. -1.
         25    2    1    2    0    0 -0.16002714036E+03 -0.92837309672E+02  0.25302797116E+03  0.33745217791E+03  0.12499346571E+03 0.  0.
          2    1    1    2  501    0  0.23411956427E+02  0.86176938471E+02 -0.76105824273E+03  0.76627947464E+03  0.00000000000E+00 0. -1.
          1    1    1    2  502    0  0.13661518393E+03  0.66603712010E+01  0.27412686029E+04  0.27446787831E+04  0.00000000000E+00 0. -1.
         22    1    3    3    0    0 -0.89158321092E+02 -0.84290756068E+02  0.70603742504E+02  0.14155926757E+03  0.00000000000E+00 0. -1.
         22    1    3    3    0    0 -0.70868819269E+02 -0.85465536039E+01  0.18242422866E+03  0.19589291035E+03  0.00000000000E+00 0. -1.
</event>
<event>
 7    1  0.5139898E-006  0.1694967E+03  0.7818608E-02  0.1287185E+00
          2   -1    0    0  502    0  0.00000000000E+00  0.00000000000E+00  0.35270563142E+03  0.35270563142E+03  0.00000000000E+00 0. -1.
          1   -1    0    0  501    0 -0.00000000000E+00 -0.00000000000E+00 -0.37353305768E+03  0.37353305768E+03  0.00000000000E+00 0. -1.
         25    2    1    2    0    0  0.72015093436E+02  0.11684796464E+03  0.18665274573E+03  0.26325649296E+03  0.12500045231E+03 0.  0.
          2    1    1    2  501    0 -0.12728717927E+03 -0.11753809733E+03 -0.30506442118E+03  0.35082977553E+03  0.00000000000E+00 0. -1.
          1    1    1    2  502    0  0.55272085837E+02  0.69013269307E+00  0.97584249191E+02  0.11215242060E+03  0.00000000000E+00 0. -1.
         22    1    3    3    0    0  0.65048077885E+02  0.13424647727E+03  0.11268843840E+03  0.18695468233E+03  0.00000000000E+00 0. -1.
         22    1    3    3    0    0  0.69670155505E+01 -0.17398512633E+02  0.73964307326E+02  0.76301810632E+02  0.00000000000E+00 0. -1.
</event>
<event>
 7    1  0.5139898E-006  0.8615639E+02  0.7818608E-02  0.1481049E+00
          2   -1    0    0  502    0  0.00000000000E+00  0.00000000000E+00  0.10279484820E+04  0.10279484820E+04  0.00000000000E+00 0. -1.
          1   -1    0    0  501    0 -0.00000000000E+00 -0.00000000000E+00 -0.16020422132E+03  0.16020422132E+03  0.00000000000E+00 0. -1.
         25    2    1    2    0    0  0.40377372388E+02  0.96874017205E+02  0.42270206936E+03  0.45311891285E+03  0.12499920932E+03 0.  0.
          2    1    1    2  501    0 -0.74786533254E+01 -0.21128284295E+02 -0.14121817250E+03  0.14298568773E+03  0.00000000000E+00 0. -1.
          1    1    1    2  502    0 -0.32898719062E+02 -0.75745732910E+02  0.58626036386E+03  0.59204810278E+03  0.00000000000E+00 0. -1.
         22    1    3    3    0    0  0.62197716767E+02  0.14708352777E+01  0.12294825084E+03  0.13779329342E+03  0.00000000000E+00 0.  1.
         22    1    3    3    0    0 -0.21820344379E+02  0.95403181927E+02  0.29975381852E+03  0.31532561943E+03  0.00000000000E+00 0.  1.
</event>
<event>
 7    1  0.5139898E-006  0.1033842E+03  0.7818608E-02  0.1313427E+00
          2   -1    0    0  502    0  0.00000000000E+00  0.00000000000E+00  0.70400346897E+03  0.70400346897E+03  0.00000000000E+00 0. -1.
          1   -1    0    0  501    0 -0.00000000000E+00 -0.00000000000E+00 -0.11146762369E+04  0.11146762369E+04  0.00000000000E+00 0. -1.
         25    2    1    2    0    0 -0.16356367576E+03  0.10489591395E+02  0.28864571743E+03  0.35468906870E+03  0.12499951083E+03 0.  0.
          2    1    1    2  501    0  0.96800050797E+02 -0.35111861102E+02 -0.10758639107E+04  0.10807803879E+04  0.00000000000E+00 0. -1.
          1    1    1    2  502    0  0.66763624960E+02  0.24622269706E+02  0.37654542533E+03  0.38321024924E+03  0.00000000000E+00 0. -1.
         22    1    3    3    0    0 -0.76580467432E+02 -0.52236361909E+02  0.17745920812E+03  0.20021232740E+03  0.00000000000E+00 0. -1.
         22    1    3    3    0    0 -0.86983208326E+02  0.62725953304E+02  0.11118650931E+03  0.15447674130E+03  0.00000000000E+00 0. -1.
</event>
<event>
 7    1  0.5139898E-006  0.1176855E+03  0.7818608E-02  0.1328937E+00
          2   -1    0    0  502    0  0.00000000000E+00  0.00000000000E+00  0.12298238086E+04  0.12298238086E+04  0.00000000000E+00 0. -1.
          1   -1    0    0  501    0 -0.00000000000E+00 -0.00000000000E+00 -0.72141116077E+03  0.72141116077E+03  0.00000000000E+00 0. -1.
         25    2    1    2    0    0 -0.62569361132E+02  0.39894371132E+02 -0.96485894091E+02  0.17447407467E+03  0.12500075669E+03 0.  0.
          2    1    1    2  501    0  0.11666999737E+03 -0.45936897601E+02 -0.57859018743E+03  0.59202085423E+03  0.00000000000E+00 0. -1.
          1    1    1    2  502    0 -0.54100636242E+02  0.60425264687E+01  0.11834887293E+04  0.11847400404E+04  0.00000000000E+00 0. -1.
         22    1    3    3    0    0 -0.18070558822E+02  0.81829360858E+02 -0.49181225210E+02  0.97166775740E+02  0.00000000000E+00 0. -1.
         22    1    3    3    0    0 -0.44498802310E+02 -0.41934989725E+02 -0.47304668881E+02  0.77307298933E+02  0.00000000000E+00 0. -1.
</event>
<event>
 7    1  0.5139898E-006  0.1364875E+03  0.7818608E-02  0.1250600E+00
          2   -1    0    0  502    0  0.00000000000E+00  0.00000000000E+00  0.33786688487E+03  0.33786688487E+03  0.00000000000E+00 0. -1.
          1   -1    0    0  501    0 -0.00000000000E+00 -0.00000000000E+00 -0.13002147860E+04  0.13002147860E+04  0.00000000000E+00 0. -1.
         25    2    1    2    0    0  0.17606143928E+03  0.11390385836E+03 -0.73337737158E+03  0.77294202215E+03  0.12500112444E+03 0.  0.
          2    1    1    2  501    0 -0.86110316349E+02 -0.75393961259E+02 -0.53331237535E+03  0.54545515459E+03  0.00000000000E+00 0. -1.
          1    1    1    2  502    0 -0.89951122930E+02 -0.38509897102E+02  0.30434184579E+03  0.31968449414E+03  0.00000000000E+00 0. -1.
         22    1    3    3    0    0  0.15090121145E+02 -0.19821758771E+02 -0.29488269068E+02  0.38602744586E+02  0.00000000000E+00 0.  1.
         22    1    3    3    0    0  0.16097131813E+03  0.13372561713E+03 -0.70388910251E+03  0.73433927757E+03  0.00000000000E+00 0.  1.
</event>
<event>
 7    1  0.5139898E-006  0.9000350E+02  0.7818608E-02  0.1435220E+00
          2   -1    0    0  502    0  0.00000000000E+00  0.00000000000E+00  0.29469651455E+03  0.29469651455E+03  0.00000000000E+00 0. -1.
          1   -1    0    0  501    0 -0.00000000000E+00 -0.00000000000E+00 -0.74306833554E+03  0.74306833554E+03  0.00000000000E+00 0. -1.
         25    2    1    2    0    0 -0.47865432048E+02 -0.84324375018E+02  0.15624262116E+03  0.22234889169E+03  0.12500229263E+03 0.  0.
          2    1    1    2  501    0  0.29917121755E+02 -0.15676450031E+01 -0.69137180926E+03  0.69202057074E+03  0.00000000000E+00 0. -1.
          1    1    1    2  502    0  0.17948310293E+02  0.85892020021E+02  0.86757367113E+02  0.12339538765E+03  0.00000000000E+00 0. -1.
         22    1    3    3    0    0 -0.50622842598E+01 -0.10623125054E+03  0.12862489165E+03  0.16689837646E+03  0.00000000000E+00 0.  1.
         22    1    3    3    0    0 -0.42803147788E+02  0.21906875527E+02  0.27617729512E+02  0.55450515231E+02  0.00000000000E+00 0.  1.
</event>
<event>
 7    1  0.5139898E-006  0.1669419E+03  0.7818608E-02  0.1318402E+00
          2   -1    0    0  502    0  0.00000000000E+00  0.00000000000E+00  0.27588946846E+04  0.27588946846E+04  0.00000000000E+00 0. -1.
          1   -1    0    0  501    0 -0.00000000000E+00 -0.00000000000E+00 -0.22057382428E+03  0.22057382428E+03  0.00000000000E+00 0. -1.
         25    2    1    2    0    0 -0.11415892067E+02 -0.16018361301E+03  0.22759326277E+03  0.30530789757E+03  0.12500042637E+03 0.  0.
          2    1    1    2  501    0 -0.42122786065E+02  0.12029459474E+01 -0.17640939335E+03  0.18137268330E+03  0.00000000000E+00 0. -1.
          1    1    1    2  502    0  0.53538678132E+02  0.15898066706E+03  0.24871369909E+04  0.24927879280E+04  0.00000000000E+00 0. -1.
         22    1    3    3    0    0  0.48667726128E+02 -0.11799901592E+03  0.16651569114E+03  0.20980893861E+03  0.00000000000E+00 0. -1.
         22    1    3    3    0    0 -0.60083618194E+02 -0.42184597090E+02  0.61077571637E+02  0.95498958969E+02  0.00000000000E+00 0. -1.
</event>
<event>
 7    1  0.5139898E-006  0.6393322E+02  0.7818608E-02  0.1421701E+00
          2   -1    0    0  502    0  0.00000000000E+00  0.00000000000E+00  0.68193284759E+03  0.68193284759E+03  0.00000000000E+00 0. -1.
          1   -1    0    0  501    0 -0.00000000000E+00 -0.00000000000E+00 -0.29868758053E+03  0.29868758053E+03  0.00000000000E+00 0. -1.
         25    2    1    2    0    0 -0.56331478525E+02 -0.79682339459E+02 -0.15866820070E+03  0.22432995240E+03  0.12500327569E+03 0.  0.
          2    1    1    2  501    0  0.18079690494E+01  0.46701496501E+02 -0.10044146398E+03  0.11078260790E+03  0.00000000000E+00 0. -1.
          1    1    1    2  502    0  0.54523509476E+02  0.32980842959E+02  0.64235493174E+03  0.64550786782E+03  0.00000000000E+00 0. -1.
         22    1    3    3    0    0  0.46038822188E-02  0.24002878965E+02  0.29870264246E+01  0.24188024861E+02  0.00000000000E+00 0. -1.
         22    1    3    3    0    0 -0.56336082408E+02 -0.10368521842E+03 -0.16165522713E+03  0.20014192754E+03  0.00000000000E+00 0. -1.
</event>
<event>
 7    1  0.5139898E-006  0.1960684E+03  0.7818608E-02  0.1238017E+00
          2   -1    0    0  502    0  0.00000000000E+00  0.00000000000E+00  0.15136132057E+04  0.15136132057E+04  0.00000000000E+00 0. -1.
          1   -1    0    0  501    0 -0.00000000000E+00 -0.00000000000E+00 -0.13186085162E+04  0.13186085162E+04  0.00000000000E+00 0. -1.
         25    2    1    2    0    0  0.12456264352E+03 -0.19686959189E+03  0.14122325425E+03  0.29973611410E+03  0.12499696871E+03 0.  0.
          2    1    1    2  501    0 -0.15065571355E+03  0.12407661646E+03 -0.12304980265E+04  0.12458802286E+04  0.00000000000E+00 0. -1.
          1    1    1    2  502    0  0.26093070028E+02  0.72792975429E+02  0.12842794619E+04  0.12866053792E+04  0.00000000000E+00 0. -1.
         22    1    3    3    0    0  0.90750580545E+02 -0.10565796619E+03  0.14672268136E+03  0.20230377879E+03  0.00000000000E+00 0. -1.
         22    1    3    3    0    0  0.33812062978E+02 -0.91211625704E+02 -0.54994271095E+01  0.97432335315E+02  0.00000000000E+00 0. -1.
</event>
<event>
 7    1  0.5139898E-006  0.6078314E+02  0.7818608E-02  0.1420451E+00
          2   -1    0    0  502    0  0.00000000000E+00  0.00000000000E+00  0.11570684421E+04  0.11570684421E+04  0.00000000000E+00 0. -1.
          1   -1    0    0  501    0 -0.00000000000E+00 -0.00000000000E+00 -0.57180328409E+03  0.57180328409E+03  0.00000000000E+00 0. -1.
         25    2    1    2    0    0  0.94797716600E+02 -0.50927904042E+02  0.45662692452E+03  0.48550344730E+03  0.12500076265E+03 0.  0.
          2    1    1    2  501    0 -0.58013410025E+02  0.17606720084E+02 -0.55481383018E+03  0.55811642019E+03  0.00000000000E+00 0. -1.
          1    1    1    2  502    0 -0.36784306575E+02  0.33321183958E+02  0.68345206367E+03  0.68525185869E+03  0.00000000000E+00 0. -1.
         22    1    3    3    0    0  0.99108574013E+02 -0.58694365289E+02  0.21668780944E+03  0.24539996887E+03  0.00000000000E+00 0.  1.
         22    1    3    3    0    0 -0.43108574133E+01  0.77664612470E+01  0.23993911508E+03  0.24010347844E+03  0.00000000000E+00 0.  1.
</event>
<event>
 7    1  0.5139898E-006  0.1500205E+03  0.7818608E-02  0.1361957E+00
          2   -1    0    0  502    0  0.00000000000E+00  0.00000000000E+00  0.53027408427E+03  0.53027408427E+03  0.00000000000E+00 0. -1.
          1   -1    0    0  501    0 -0.00000000000E+00 -0.00000000000E+00 -0.29789087153E+03  0.29789087153E+03  0.00000000000E+00 0. -1.
         25    2    1    2    0    0  0.10185663269E+03  0.85636402158E+02 -0.10054818861E+03  0.20842866277E+03  0.12499680888E+03 0.  0.
          2    1    1    2  501    0 -0.12888678419E+03 -0.10305320559E+03 -0.95124562065E+02  0.19047427288E+03  0.00000000000E+00 0. -1.
          1    1    1    2  502    0  0.27030151500E+02  0.17416803434E+02  0.42805596341E+03  0.42926202015E+03  0.00000000000E+00 0. -1.
         22    1    3    3    0    0  0.52296109214E+02  0.98990189657E+02 -0.10918166244E+03  0.15637958978E+03  0.00000000000E+00 0. -1.
         22    1    3    3    0    0  0.49560523480E+02 -0.13353787499E+02  0.86334738304E+01  0.52049072985E+02  0.00000000000E+00 0. -1.
</event>
<event>
 7    1  0.5139898E-006  0.8674519E+02  0.7818608E-02  0.1403310E+00
          2   -1    0    0  502    0  0.00000000000E+00  0.00000000000E+00  0.40511291279E+03  0.40511291279E+03  0.00000000000E+00 0. -1.
          1   -1    0    0  501    0 -0.00000000000E+00 -0.00000000000E+00 -0.69944775185E+02  0.69944775185E+02  0.00000000000E+00 0. -1.
         25    2    1    2    0    0 -0.89124011046E+02  0.39285870592E+02  0.18390274975E+03  0.24275605714E+03  0.12499525166E+03 0.  0.
          2    1    1    2  501    0  0.39575852236E+01 -0.39543138703E+02 -0.17377208448E+02  0.43373836269E+02  0.00000000000E+00 0. -1.
          1    1    1    2  502    0  0.85166425822E+02  0.25726811082E+00  0.16864259631E+03  0.18892779457E+03  0.00000000000E+00 0. -1.
         22    1    3    3    0    0 -0.92570492411E+02  0.73595682593E+02  0.11138236798E+03  0.16245507828E+03  0.00000000000E+00 0. -1.
         22    1    3    3    0    0  0.34464813652E+01 -0.34309812002E+02  0.72520381770E+02  0.80300978857E+02  0.00000000000E+00 0. -1.
</event>
<event>
 7    1  0.5139898E-006  0.4387860E+02  0.7818608E-02  0.1548738E+00
          2   -1    0    0  502    0  0.00000000000E+00  0.00000000000E+00  0.11479250520E+03  0.11479250520E+03  0.00000000000E+00 0. -1.
          1   -1    0    0  501    0 -0.00000000000E+00 -0.00000000000E+00 -0.75274806194E+03  0.75274806194E+03  0.00000000000E+00 0. -1.
         25    2    1    2    0    0  0.13975120871E+02  0.15436618473E+02 -0.23220430291E+03  0.26454083720E+03  0.12501769099E+03 0.  0.
          2    1    1    2  501    0 -0.41751330412E+02 -0.17988318551E+02 -0.50135402732E+03  0.50341097912E+03  0.00000000000E+00 0. -1.
          1    1    1    2  502    0  0.27776209541E+02  0.25517000778E+01  0.95602773496E+02  0.99588750820E+02  0.00000000000E+00 0. -1.
         22    1    3    3    0    0 -0.45350971840E+02  0.39392830789E+02 -0.85508885376E+02  0.10450012078E+03  0.00000000000E+00 0. -1.
         22    1    3    3    0    0  0.59326092711E+02 -0.23956212316E+02 -0.14669541754E+03  0.16004071642E+03  0.00000000000E+00 0. -1.
</event>
<event>
 7    1  0.5139898E-006  0.3661069E+02  0.7818608E-02  0.1545511E+00
          2   -1    0    0  502    0  0.00000000000E+00  0.00000000000E+00  0.11023312027E+04  0.11023312027E+04  0.00000000000E+00 0. -1.
          1   -1    0    0  501    0 -0.00000000000E+00 -0.00000000000E+00 -0.70389196184E+02  0.70389196184E+02  0.00000000000E+00 0. -1.
         25    2    1    2    0    0  0.36684163026E+00  0.44649167773E+01  0.11550521384E+03  0.17025604656E+03  0.12500238762E+03 0.  0.
          2    1    1    2  501    0  0.18139045696E+01 -0.38528728689E+02 -0.33998427402E+02  0.51416400594E+02  0.00000000000E+00 0. -1.
          1    1    1    2  502    0 -0.21807461998E+01  0.34063811912E+02  0.95043522006E+03  0.95104795172E+03  0.00000000000E+00 0. -1.
         22    1    3    3    0    0  0.50435070974E+02 -0.14402618279E+02  0.10257975669E+03  0.11521171069E+03  0.00000000000E+00 0.  1.
         22    1    3    3    0    0 -0.50068229344E+02  0.18867535056E+02  0.12925457156E+02  0.55044335870E+02  0.00000000000E+00 0.  1.
</event>
<event>
 7    1  0.5139898E-006  0.1360008E+03  0.7818608E-02  0.1243005E+00
          2   -1    0    0  502    0  0.00000000000E+00  0.00000000000E+00  0.12438936423E+04  0.12438936423E+04  0.00000000000E+00 0. -1.
          1   -1    0    0  501    0 -0.00000000000E+00 -0.00000000000E+00 -0.61039435735E+03  0.61039435735E+03  0.00000000000E+00 0. -1.
         25    2    1    2    0    0 -0.16600927382E+03  0.14953778146E+03  0.10992642196E+03  0.27862070080E+03  0.12500019835E+03 0.  0.
          2    1    1    2  501    0  0.45240481420E+02 -0.95838537424E+02 -0.51648448691E+03  0.52724562742E+03  0.00000000000E+00 0. -1.
          1    1    1    2  502    0  0.12076879240E+03 -0.53699244034E+02  0.10400573499E+04  0.10484216714E+04  0.00000000000E+00 0. -1.
         22    1    3    3    0    0 -0.11428415861E+03  0.87296658427E+02  0.21303973618E+01  0.14382668068E+03  0.00000000000E+00 0.  1.
         22    1    3    3    0    0 -0.51725115209E+02  0.62241123030E+02  0.10779602460E+03  0.13479402012E+03  0.00000000000E+00 0.  1.
</event>
<event>
 7    1  0.5139898E-006  0.4208128E+02  0.7818608E-02  0.1521224E+00
          2   -1    0    0  502    0  0.00000000000E+00  0.00000000000E+00  0.25560861403E+04  0.25560861403E+04  0.00000000000E+00 0. -1.
          1   -1    0    0  501    0 -0.00000000000E+00 -0.00000000000E+00 -0.19063040575E+02  0.19063040575E+02  0.00000000000E+00 0. -1.
         25    2    1    2    0    0 -0.37812217594E+01 -0.25111364610E+02  0.13122075025E+04  0.13183925231E+04  0.12500174864E+03 0.  0.
          2    1    1    2  501    0 -0.30761238672E+02  0.29589346866E+02  0.13251705132E+02  0.44692179870E+02  0.00000000000E+00 0. -1.
          1    1    1    2  502    0  0.34542460432E+02 -0.44779822555E+01  0.12115638922E+04  0.12120644779E+04  0.00000000000E+00 0. -1.
         22    1    3    3    0    0 -0.52828145007E+02  0.16557721377E+01  0.29827925227E+03  0.30292584376E+03  0.00000000000E+00 0. -1.
         22    1    3    3    0    0  0.49046923248E+02 -0.26767136748E+02  0.10139282502E+04  0.10154666793E+04  0.00000000000E+00 0. -1.
</event>
<event>
 7    1  0.5139898E-006  0.2108999E+03  0.7818608E-02  0.1287551E+00
          2   -1    0    0  502    0  0.00000000000E+00  0.00000000000E+00  0.16515624504E+04  0.16515624504E+04  0.00000000000E+00 0. -1.
          1   -1    0    0  501    0 -0.00000000000E+00 -0.00000000000E+00 -0.18748024504E+03  0.18748024504E+03  0.00000000000E+00 0. -1.
         25    2    1    2    0    0  0.44394527812E+01  0.20179947011E+03  0.27627817137E+03  0.36427446885E+03  0.12499410307E+03 0.  0.
          2    1    1    2  501    0  0.43859203857E+02  0.60311890020E+01 -0.13127731524E+03  0.13854146853E+03  0.00000000000E+00 0. -1.
          1    1    1    2  502    0 -0.48298656638E+02 -0.20783065911E+03  0.13190813492E+04  0.13362267581E+04  0.00000000000E+00 0. -1.
         22    1    3    3    0    0  0.20899634217E+02  0.15101989650E+03  0.27059914206E+03  0.31059249754E+03  0.00000000000E+00 0. -1.
         22    1    3    3    0    0 -0.16460181435E+02  0.50779573615E+02  0.56790293124E+01  0.53681971307E+02  0.00000000000E+00 0. -1.
</event>
<event>
 7    1  0.5139898E-006  0.8809865E+02  0.7818608E-02  0.1341818E+00
          2   -1    0    0  502    0  0.00000000000E+00  0.00000000000E+00  0.40408112991E+03  0.40408112991E+03  0.00000000000E+00 0. -1.
          1   -1    0    0  501    0 -0.00000000000E+00 -0.00000000000E+00 -0.71421127803E+03  0.71421127803E+03  0.00000000000E+00 0. -1.
         25    2    1    2    0    0 -0.48356323006E+02  0.12194066489E+03  0.13571846427E+03  0.22639113545E+03  0.12500233974E+03 0.  0.
          2    1    1    2  501    0  0.51471862465E+02 -0.39677213744E+02 -0.65962663989E+03  0.66282044172E+03  0.00000000000E+00 0. -1.
          1    1    1    2  502    0 -0.31155394585E+01 -0.82263451142E+02  0.21377802750E+03  0.22908083076E+03  0.00000000000E+00 0. -1.
         22    1    3    3    0    0 -0.21821786568E+02  0.83900807418E+01 -0.20743392261E+02  0.31254953949E+02  0.00000000000E+00 0.  1.
         22    1    3    3    0    0 -0.26534536438E+02  0.11355058414E+03  0.15646185653E+03  0.19513618150E+03  0.00000000000E+00 0.  1.
</event>
<event>
 7    1  0.5139898E-006  0.3317898E+02  0.7818608E-02  0.1579061E+00
          2   -1    0    0  502    0  0.00000000000E+00  0.00000000000E+00  0.48662028224E+03  0.48662028224E+03  0.00000000000E+00 0. -1.
          1   -1    0    0  501    0 -0.00000000000E+00 -0.00000000000E+00 -0.55081973314E+03  0.55081973314E+03  0.00000000000E+00 0. -1.
         25    2    1    2    0    0  0.53652839614E+02  0.31874434375E+00 -0.35267948972E+03  0.37800375779E+03  0.12500115855E+03 0.  0.
          2    1    1    2  501    0 -0.27407074232E+02 -0.15792478891E+02 -0.18363487856E+03  0.18633925709E+03  0.00000000000E+00 0. -1.
          1    1    1    2  502    0 -0.26245765382E+02  0.15473734547E+02  0.47211491739E+03  0.47309700050E+03  0.00000000000E+00 0. -1.
         22    1    3    3    0    0  0.82221381759E+02  0.66151998081E+01 -0.13383748939E+03  0.15721510759E+03  0.00000000000E+00 0.  1.
         22    1    3    3    0    0 -0.28568542145E+02 -0.62964554644E+01 -0.21884200033E+03  0.22078865021E+03  0.00000000000E+00 0.  1.
</event>
<event>
 7    1  0.5139898E-006  0.7396055E+02  0.7818608E-02  0.1356658E+00
          2   -1    0    0  502    0  0.00000000000E+00  0.00000000000E+00  0.14661470650E+04  0.14661470650E+04  0.00000000000E+00 0. -1.
          1   -1    0    0  501    0 -0.00000000000E+00 -0.00000000000E+00 -0.99303571551E+02  0.99303571551E+02  0.00000000000E+00 0. -1.
         25    2    1    2    0    0 -0.10568109772E+03 -0.47152068152E+02  0.15397310932E+03  0.22961600525E+03  0.12499591804E+03 0.  0.
          2    1    1    2  501    0  0.33412706135E+02  0.59450332879E+02 -0.41165634683E+02  0.79657771056E+02  0.00000000000E+00 0. -1.
          1    1    1    2  502    0  0.72268391584E+02 -0.12298264728E+02  0.12540360188E+04  0.12561768603E+04  0.00000000000E+00 0. -1.
         22    1    3    3    0    0 -0.12782831411E+02 -0.95899304239E+01 -0.21953218795E+02  0.27153477860E+02  0.00000000000E+00 0. -1.
         22    1    3    3    0    0 -0.92898266308E+02 -0.37562137728E+02  0.17592632812E+03  0.20246252739E+03  0.00000000000E+00 0. -1.
</event>
<event>
 7    1  0.5139898E-006  0.4197852E+02  0.7818608E-02  0.1502704E+00
          2   -1    0    0  502    0  0.00000000000E+00  0.00000000000E+00  0.38547940061E+03  0.38547940061E+03  0.00000000000E+00 0. -1.
          1   -1    0    0  501    0 -0.00000000000E+00 -0.00000000000E+00 -0.31310022261E+02  0.31310022261E+02  0.00000000000E+00 0. -1.
         25    2    1    2    0    0  0.19053780839E+00  0.21250868040E+02  0.16784583451E+03  0.21035034101E+03  0.12499362424E+03 0.  0.
          2    1    1    2  501    0 -0.41978484242E+02  0.52816009068E-01  0.88685425910E+02  0.98118809092E+02  0.00000000000E+00 0. -1.
          1    1    1    2  502    0  0.41787946434E+02 -0.21303684049E+02  0.97638117923E+02  0.10832027277E+03  0.00000000000E+00 0. -1.
         22    1    3    3    0    0 -0.28547589766E+01  0.71899651813E+02  0.12364056481E+03  0.14305488054E+03  0.00000000000E+00 0.  1.
         22    1    3    3    0    0  0.30452967850E+01 -0.50648783772E+02  0.44205269702E+02  0.67295460468E+02  0.00000000000E+00 0.  1.
</event>
<event>
 7    1  0.5139898E-006  0.5091007E+02  0.7818608E-02  0.1480697E+00
          2   -1    0    0  502    0  0.00000000000E+00  0.00000000000E+00  0.45115028624E+03  0.45115028624E+03  0.00000000000E+00 0. -1.
          1   -1    0    0  501    0 -0.00000000000E+00 -0.00000000000E+00 -0.24825491617E+03  0.24825491617E+03  0.00000000000E+00 0. -1.
         25    2    1    2    0    0 -0.54045499713E+02 -0.62398115873E+02 -0.77211896842E+02  0.16852552464E+03  0.12499893815E+03 0.  0.
          2    1    1    2  501    0  0.21407480188E+02  0.42889284658E+02 -0.11986996895E+03  0.12909911077E+03  0.00000000000E+00 0. -1.
          1    1    1    2  502    0  0.32638019525E+02  0.19508831215E+02  0.39997723586E+03  0.40178056700E+03  0.00000000000E+00 0. -1.
         22    1    3    3    0    0 -0.23585410465E+02  0.26836140292E+02 -0.64023936395E+02  0.73317899888E+02  0.00000000000E+00 0. -1.
         22    1    3    3    0    0 -0.30460089248E+02 -0.89234256165E+02 -0.13187960448E+02  0.95207624753E+02  0.00000000000E+00 0. -1.
</event>
<event>
 7    1  0.5139898E-006  0.1188182E+03  0.7818608E-02  0.1382969E+00
          2   -1    0    0  502    0  0.00000000000E+00  0.00000000000E+00  0.22690414702E+04  0.22690414702E+04  0.00000000000E+00 0. -1.
          1   -1    0    0  501    0 -0.00000000000E+00 -0.00000000000E+00 -0.32965842794E+02  0.32965842794E+02  0.00000000000E+00 0. -1.
         25    2    1    2    0    0 -0.49947792026E+02  0.85673996053E+02  0.97521413343E+03  0.98818158232E+03  0.12500167225E+03 0.  0.
          2    1    1    2  501    0  0.35649199506E+02 -0.11667484466E+03  0.11564380784E+03  0.16809930128E+03  0.00000000000E+00 0. -1.
          1    1    1    2  502    0  0.14298592520E+02  0.31000848604E+02  0.11452176862E+04  0.11457264294E+04  0.00000000000E+00 0. -1.
         22    1    3    3    0    0 -0.83623958429E+02  0.62673718425E+02  0.85220556530E+03  0.85858912579E+03  0.00000000000E+00 0. -1.
         22    1    3    3    0    0  0.33676166404E+02  0.23000277628E+02  0.12300856814E+03  0.12959245653E+03  0.00000000000E+00 0. -1.
</event>
<event>
 7    1  0.5139898E-006  0.2373923E+03  0.7818608E-02  0.1298155E+00
          2   -1    0    0  502    0  0.00000000000E+00  0.00000000000E+00  0.24039570483E+04  0.24039570483E+04  0.00000000000E+00 0. -1.
          1   -1    0    0  501    0 -0.00000000000E+00 -0.00000000000E+00 -0.20851109240E+04  0.20851109240E+04  0.00000000000E+00 0. -1.
         25    2    1    2    0    0 -0.36200576702E+02 -0.26175569770E+03 -0.13489209225E+04  0.13802309775E+04  0.12499347557E+03 0.  0.
          2    1    1    2  501    0 -0.18000168485E+02  0.30747847235E+02 -0.71419624172E+03  0.71508440611E+03  0.00000000000E+00 0. -1.
          1    1    1    2  502    0  0.54200745186E+02  0.23100785047E+03  0.23819632886E+04  0.23937525887E+04  0.00000000000E+00 0. -1.
         22    1    3    3    0    0 -0.47646220537E+02 -0.79402274117E+02 -0.69929450483E+03  0.70539895659E+03  0.00000000000E+00 0. -1.
         22    1    3    3    0    0  0.11445643836E+02 -0.18235342359E+03 -0.64962641770E+03  0.67483202090E+03  0.00000000000E+00 0. -1.
</event>
<event>
 7    1  0.7252287E-006  0.1541675E+03  0.7818608E-02  0.1249033E+00
          2   -1    0    0  502    0  0.00000000000E+00  0.00000000000E+00  0.73915095427E+03  0.73915095427E+03  0.00000000000E+00 0. -1.
          1   -1    0    0  501    0 -0.00000000000E+00 -0.00000000000E+00 -0.17484190582E+04  0.17484190582E+04  0.00000000000E+00 0. -1.
         25    2    1    2    0    0  0.61744275489E+02 -0.32287896333E+02 -0.19004638491E+03  0.23790494238E+03  0.12500507743E+03 0.  0.
          2    1    1    2  501    0  0.75448997183E+02 -0.45280337311E+02 -0.15244770533E+04  0.15270144551E+04  0.00000000000E+00 0. -1.
          1    1    1    2  502    0 -0.13719327267E+03  0.77568233644E+02  0.70525533423E+03  0.72265061502E+03  0.00000000000E+00 0. -1.
         22    1    3    3    0    0 -0.36555204883E+02  0.18330700496E+01 -0.31644812414E+02  0.48384267098E+02  0.00000000000E+00 0. -1.
         22    1    3    3    0    0  0.98299480373E+02 -0.34120966383E+02 -0.15840157250E+03  0.18952067528E+03  0.00000000000E+00 0. -1.
</event>
<event>
 7    1  0.5139898E-006  0.6186855E+02  0.7818608E-02  0.1520729E+00
          2   -1    0    0  502    0  0.00000000000E+00  0.00000000000E+00  0.81105642579E+03  0.81105642579E+03  0.00000000000E+00 0. -1.
          1   -1    0    0  501    0 -0.00000000000E+00 -0.00000000000E+00 -0.18174659001E+02  0.18174659001E+02  0.00000000000E+00 0. -1.
         25    2    1    2    0    0 -0.21914490405E+02 -0.44182951358E+02  0.42750992964E+03  0.44813256595E+03  0.12500271452E+03 0.  0.
          2    1    1    2  501    0 -0.23392864379E+02 -0.42167200668E+01  0.25658978351E+02  0.34976992466E+02  0.00000000000E+00 0. -1.
          1    1    1    2  502    0  0.45307354783E+02  0.48399671425E+02  0.33971285879E+03  0.34612152638E+03  0.00000000000E+00 0. -1.
         22    1    3    3    0    0  0.60714065966E+01  0.62086351325E+01  0.35679834205E+03  0.35690400112E+03  0.00000000000E+00 0. -1.
         22    1    3    3    0    0 -0.27985897001E+02 -0.50391586491E+02  0.70711587596E+02  0.91228564827E+02  0.00000000000E+00 0. -1.
</event>
<event>
 7    1  0.5139898E-006  0.1994311E+03  0.7818608E-02  0.1313298E+00
          2   -1    0    0  502    0  0.00000000000E+00  0.00000000000E+00  0.34632845479E+04  0.34632845479E+04  0.00000000000E+00 0. -1.
          1   -1    0    0  501    0 -0.00000000000E+00 -0.00000000000E+00 -0.22415623828E+03  0.22415623828E+03  0.00000000000E+00 0. -1.
         25    2    1    2    0    0 -0.21877951091E+03  0.52301436217E+02  0.75256284460E+03  0.79534578331E+03  0.12499666132E+03 0.  0.
          2    1    1    2  501    0  0.19661862096E+03 -0.22757457027E+02 -0.15430163475E+03  0.25096967635E+03  0.00000000000E+00 0. -1.
          1    1    1    2  502    0  0.22160889946E+02 -0.29543979190E+02  0.26408670997E+04  0.26411253265E+04  0.00000000000E+00 0. -1.
         22    1    3    3    0    0  0.14273844972E+02 -0.10395557079E+01  0.86464854785E+02  0.87641282734E+02  0.00000000000E+00 0. -1.
         22    1    3    3    0    0 -0.23305335588E+03  0.53340991925E+02  0.66609798981E+03  0.70770450058E+03  0.00000000000E+00 0. -1.
</event>
<event>
 7    1  0.5139898E-006  0.5970532E+02  0.7818608E-02  0.1415344E+00
          2   -1    0    0  502    0  0.00000000000E+00  0.00000000000E+00  0.11575650017E+04  0.11575650017E+04  0.00000000000E+00 0. -1.
          1   -1    0    0  501    0 -0.00000000000E+00 -0.00000000000E+00 -0.24532144834E+02  0.24532144834E+02  0.00000000000E+00 0. -1.
         25    2    1    2    0    0  0.19066402884E+01  0.10734022054E+03  0.68188331954E+03  0.70150994137E+03  0.12500311260E+03 0.  0.
          2    1    1    2  501    0 -0.78162389299E+01 -0.55114650034E+02  0.46482756739E+02  0.72521478980E+02  0.00000000000E+00 0. -1.
          1    1    1    2  502    0  0.59095986415E+01 -0.52225570510E+02  0.40466678063E+03  0.40806572622E+03  0.00000000000E+00 0. -1.
         22    1    3    3    0    0  0.34290426188E+02  0.46908003970E+02  0.10042348902E+03  0.11602185704E+03  0.00000000000E+00 0.  1.
         22    1    3    3    0    0 -0.32383785899E+02  0.60432216574E+02  0.58145983051E+03  0.58548808433E+03  0.00000000000E+00 0.  1.
</event>
<event>
 7    1  0.5139898E-006  0.1400842E+03  0.7818608E-02  0.1276828E+00
          2   -1    0    0  502    0  0.00000000000E+00  0.00000000000E+00  0.55621355384E+03  0.55621355384E+03  0.00000000000E+00 0. -1.
          1   -1    0    0  501    0 -0.00000000000E+00 -0.00000000000E+00 -0.37844586108E+03  0.37844586108E+03  0.00000000000E+00 0. -1.
         25    2    1    2    0    0  0.12681724294E+03 -0.15328240974E+03 -0.13175598982E+02  0.23532451849E+03  0.12500368936E+03 0.  0.
          2    1    1    2  501    0 -0.18872119900E+02  0.71331718004E+02 -0.23816484137E+03  0.24933283491E+03  0.00000000000E+00 0. -1.
          1    1    1    2  502    0 -0.10794512304E+03  0.81950691735E+02  0.42910813311E+03  0.45000206151E+03  0.00000000000E+00 0. -1.
         22    1    3    3    0    0  0.96678775876E+02 -0.15073106366E+03  0.31051620459E+02  0.18174389230E+03  0.00000000000E+00 0. -1.
         22    1    3    3    0    0  0.30138467059E+02 -0.25513460824E+01 -0.44227219441E+02  0.53580626191E+02  0.00000000000E+00 0. -1.
</event>
<event>
 7    1  0.5139898E-006  0.5651425E+02  0.7818608E-02  0.1470660E+00
          2   -1    0    0  502    0  0.00000000000E+00  0.00000000000E+00  0.33539139612E+03  0.33539139612E+03  0.00000000000E+00 0. -1.
          1   -1    0    0  501    0 -0.00000000000E+00 -0.00000000000E+00 -0.14975377922E+04  0.14975377922E+04  0.00000000000E+00 0. -1.
         25    2    1    2    0    0 -0.10676820470E+02 -0.80258624712E+02 -0.13890498154E+03  0.20365580763E+03  0.12500261097E+03 0.  0.
          2    1    1    2  501    0 -0.15179613080E+02  0.54092963302E+02 -0.13245432611E+04  0.13257342568E+04  0.00000000000E+00 0. -1.
          1    1    1    2  502    0  0.25856433551E+02  0.26165661410E+02  0.30130184652E+03  0.30353912385E+03  0.00000000000E+00 0. -1.
         22    1    3    3    0    0  0.53404660264E+01 -0.98475037299E+02 -0.48209425648E+02  0.10977250234E+03  0.00000000000E+00 0.  1.
         22    1    3    3    0    0 -0.16017286497E+02  0.18216412586E+02 -0.90695555889E+02  0.93883305290E+02  0.00000000000E+00 0.  1.
</event>
<event>
 7    1  0.5139898E-006  0.1155384E+03  0.7818608E-02  0.1377023E+00
          2   -1    0    0  502    0  0.00000000000E+00  0.00000000000E+00  0.85325995359E+03  0.85325995359E+03  0.00000000000E+00 0. -1.
          1   -1    0    0  501    0 -0.00000000000E+00 -0.00000000000E+00 -0.62395281424E+03  0.62395281424E+03  0.00000000000E+00 0. -1.
         25    2    1    2    0    0  0.74220496523E+02  0.27982749274E+02 -0.20871333057E+03  0.25588675209E+03  0.12500023670E+03 0.  0.
          2    1    1    2  501    0  0.34530972942E+02  0.12874442997E+02 -0.38670572113E+03  0.38845778938E+03  0.00000000000E+00 0. -1.
          1    1    1    2  502    0 -0.10875146947E+03 -0.40857192270E+02  0.82472619105E+03  0.83286822636E+03  0.00000000000E+00 0. -1.
         22    1    3    3    0    0  0.50280281246E+02 -0.30347193486E+02 -0.17457003446E+03  0.18418402690E+03  0.00000000000E+00 0. -1.
         22    1    3    3    0    0  0.23940215277E+02  0.58329942760E+02 -0.34143296109E+02  0.71702725186E+02  0.00000000000E+00 0. -1.
</event>
<event>
 7    1  0.5139898E-006  0.3995024E+02  0.7818608E-02  0.1591529E+00
          2   -1    0    0  502    0  0.00000000000E+00  0.00000000000E+00  0.89552151961E+03  0.89552151961E+03  0.00000000000E+00 0. -1.
          1   -1    0    0  501    0 -0.00000000000E+00 -0.00000000000E+00 -0.12239426637E+04  0.12239426637E+04  0.00000000000E+00 0. -1.
         25    2    1    2    0    0 -0.42033841954E+02  0.25308854559E+02 -0.68897771709E+03  0.70194210985E+03  0.12500019578E+03 0.  0.
          2    1    1    2  501    0  0.21340841770E+01 -0.23343697868E+02 -0.52777370629E+03  0.52829401624E+03  0.00000000000E+00 0. -1.
          1    1    1    2  502    0  0.39899757777E+02 -0.19651566910E+01  0.88833027932E+03  0.88922805718E+03  0.00000000000E+00 0. -1.
         22    1    3    3    0    0 -0.69295207940E+02  0.75715028420E+01 -0.63577962327E+03  0.63958962067E+03  0.00000000000E+00 0.  1.
         22    1    3    3    0    0  0.27261365986E+02  0.17737351717E+02 -0.53198093823E+02  0.62352489186E+02  0.00000000000E+00 0.  1.
</event>
<event>
 7    1  0.5139898E-006  0.6980567E+02  0.7818608E-02  0.1445770E+00
          2   -1    0    0  502    0  0.00000000000E+00  0.00000000000E+00  0.77982466227E+03  0.77982466227E+03  0.00000000000E+00 0. -1.
          1   -1    0    0  501    0 -0.00000000000E+00 -0.00000000000E+00 -0.49981311812E+03  0.49981311812E+03  0.00000000000E+00 0. -1.
         25    2    1    2    0    0  0.86477103307E+02  0.48050153277E+02  0.16379883913E+03  0.22856372739E+03  0.12499684456E+03 0.  0.
          2    1    1    2  501    0 -0.50783136994E+02 -0.47389404937E+02 -0.46429886686E+03  0.46946578200E+03  0.00000000000E+00 0. -1.
          1    1    1    2  502    0 -0.35693966313E+02 -0.66074833988E+00  0.58051157187E+03  0.58160827100E+03  0.00000000000E+00 0. -1.
         22    1    3    3    0    0  0.32796091606E+01 -0.12371374643E+02  0.11327956171E+03  0.11400028880E+03  0.00000000000E+00 0.  1.
         22    1    3    3    0    0  0.83197494147E+02  0.60421527919E+02  0.50519277428E+02  0.11456343858E+03  0.00000000000E+00 0.  1.
</event>
<event>
 7    1  0.5139898E-006  0.6076125E+02  0.7818608E-02  0.1410344E+00
          2   -1    0    0  502    0  0.00000000000E+00  0.00000000000E+00  0.57370751025E+03  0.57370751025E+03  0.00000000000E+00 0. -1.
          1   -1    0    0  501    0 -0.00000000000E+00 -0.00000000000E+00 -0.33086958476E+03  0.33086958476E+03  0.00000000000E+00 0. -1.
         25    2    1    2    0    0  0.13073323052E+02  0.16516659953E+00 -0.15694508072E+03  0.20106729406E+03  0.12500143728E+03 0.  0.
          2    1    1    2  501    0  0.26153309898E+02  0.46891383012E+02 -0.14534769064E+03  0.15494756724E+03  0.00000000000E+00 0. -1.
          1    1    1    2  502    0 -0.39226632950E+02 -0.47056549612E+02  0.54513069685E+03  0.54856223370E+03  0.00000000000E+00 0. -1.
         22    1    3    3    0    0  0.48796311018E+02 -0.43394173288E+02 -0.10913753826E+03  0.12718151006E+03  0.00000000000E+00 0.  1.
         22    1    3    3    0    0 -0.35722987966E+02  0.43559339887E+02 -0.47807542461E+02  0.73885783996E+02  0.00000000000E+00 0.  1.
</event>
<event>
 7    1  0.5139898E-006  0.1836495E+03  0.7818608E-02  0.1241548E+00
          2   -1    0    0  502    0  0.00000000000E+00  0.00000000000E+00  0.37966583088E+04  0.37966583088E+04  0.00000000000E+00 0. -1.
          1   -1    0    0  501    0 -0.00000000000E+00 -0.00000000000E+00 -0.56857990842E+02  0.56857990842E+02  0.00000000000E+00 0. -1.
         25    2    1    2    0    0 -0.12401657201E+03  0.97075188483E+02  0.51837640360E+03  0.55600430458E+03  0.12499195393E+03 0.  0.
          2    1    1    2  501    0  0.36412103182E+02  0.70838326180E+02  0.97323414954E+01  0.80241062961E+02  0.00000000000E+00 0. -1.
          1    1    1    2  502    0  0.87604468827E+02 -0.16791351466E+03  0.32116915729E+04  0.32172709321E+04  0.00000000000E+00 0. -1.
         22    1    3    3    0    0 -0.81108666632E+02  0.29388499462E+00  0.12805766668E+03  0.15158320543E+03  0.00000000000E+00 0. -1.
         22    1    3    3    0    0 -0.42907905377E+02  0.96781303488E+02  0.39031873692E+03  0.40442109915E+03  0.00000000000E+00 0. -1.
</event>
<event>
 7    1  0.5139898E-006  0.3616798E+02  0.7818608E-02  0.1540019E+00
          2   -1    0    0  502    0  0.00000000000E+00  0.00000000000E+00  0.91935357786E+03  0.91935357786E+03  0.00000000000E+00 0. -1.
          1   -1    0    0  501    0 -0.00000000000E+00 -0.00000000000E+00 -0.35944359448E+03  0.35944359448E+03  0.00000000000E+00 0. -1.
         25    2    1    2    0    0 -0.57529122440E+02 -0.91570593775E+01 -0.47801416367E+02  0.14595806493E+03  0.12500131858E+03 0.  0.
          2    1    1    2  501    0  0.31885268501E+02 -0.16286673337E+02 -0.26096611509E+03  0.26341078053E+03  0.00000000000E+00 0. -1.
          1    1    1    2  502    0  0.25643853939E+02  0.25443732715E+02  0.86867751484E+03  0.86942832687E+03  0.00000000000E+00 0. -1.
         22    1    3    3    0    0 -0.50283911683E+02  0.37176524245E+02 -0.70177196698E+02  0.93996833274E+02  0.00000000000E+00 0. -1.
         22    1    3    3    0    0 -0.72452107575E+01 -0.46333583622E+02  0.22375780331E+02  0.51961231660E+02  0.00000000000E+00 0. -1.
</event>
<event>
 7    1  0.6792816E-006  0.8421257E+02  0.7818608E-02  0.1343390E+00
          2   -1    0    0  502    0  0.00000000000E+00  0.00000000000E+00  0.23125831331E+04  0.23125831331E+04  0.00000000000E+00 0. -1.
          1   -1    0    0  501    0 -0.00000000000E+00 -0.00000000000E+00 -0.73793729502E+03  0.73793729502E+03  0.00000000000E+00 0. -1.
         25    2    1    2    0    0 -0.14466247842E+03  0.39612323906E+02 -0.13345648128E+03  0.23649959245E+03  0.12500022387E+03 0.  0.
          2    1    1    2  501    0  0.61839107055E+02 -0.25974306076E+02 -0.55014271912E+03  0.55421633966E+03  0.00000000000E+00 0. -1.
          1    1    1    2  502    0  0.82823371369E+02 -0.13638017829E+02  0.22582450384E+04  0.22598044960E+04  0.00000000000E+00 0. -1.
         22    1    3    3    0    0 -0.76097940122E+02 -0.69284858718E+00 -0.13718427330E+03  0.15687861987E+03  0.00000000000E+00 0.  1.
         22    1    3    3    0    0 -0.68564538302E+02  0.40305172493E+02  0.37277920248E+01  0.79620972587E+02  0.00000000000E+00 0.  1.
</event>
<event>
 7    1  0.5139898E-006  0.9773593E+02  0.7818608E-02  0.1300714E+00
          2   -1    0    0  502    0  0.00000000000E+00  0.00000000000E+00  0.22526629968E+03  0.22526629968E+03  0.00000000000E+00 0. -1.
          1   -1    0    0  501    0 -0.00000000000E+00 -0.00000000000E+00 -0.20705891136E+03  0.20705891136E+03  0.00000000000E+00 0. -1.
         25    2    1    2    0    0  0.23526442932E+02 -0.37991098065E+02 -0.76441170627E+02  0.15318276874E+03  0.12499956408E+03 0.  0.
          2    1    1    2  501    0  0.82687435720E+02  0.17511337162E+02 -0.50242613582E+02  0.98326899548E+02  0.00000000000E+00 0. -1.
          1    1    1    2  502    0 -0.10621387865E+03  0.20479760903E+02  0.14489117253E+03  0.18081554275E+03  0.00000000000E+00 0. -1.
         22    1    3    3    0    0 -0.22146934770E+02 -0.69515174962E+02 -0.62237927791E+02  0.95897893227E+02  0.00000000000E+00 0. -1.
         22    1    3    3    0    0  0.45673377702E+02  0.31524076897E+02 -0.14203242836E+02  0.57284875508E+02  0.00000000000E+00 0. -1.
</event>
<event>
 7    1  0.5139898E-006  0.1278208E+03  0.7818608E-02  0.1235558E+00
          2   -1    0    0  502    0  0.00000000000E+00  0.00000000000E+00  0.88985288498E+03  0.88985288498E+03  0.00000000000E+00 0. -1.
          1   -1    0    0  501    0 -0.00000000000E+00 -0.00000000000E+00 -0.63330196038E+03  0.63330196038E+03  0.00000000000E+00 0. -1.
         25    2    1    2    0    0 -0.22558861806E+02 -0.71793172963E+02  0.46084838086E+02  0.15300796953E+03  0.12499785802E+03 0.  0.
          2    1    1    2  501    0 -0.10874482904E+03  0.67176731509E+02 -0.56721845223E+03  0.58144210688E+03  0.00000000000E+00 0. -1.
          1    1    1    2  502    0  0.13130369084E+03  0.46164414541E+01  0.77768453875E+03  0.78870476895E+03  0.00000000000E+00 0. -1.
         22    1    3    3    0    0 -0.18982099792E+02 -0.61709390047E+02  0.88340649142E+02  0.10941864203E+03  0.00000000000E+00 0. -1.
         22    1    3    3    0    0 -0.35767620142E+01 -0.10083782916E+02 -0.42255811056E+02  0.43589327505E+02  0.00000000000E+00 0. -1.
</event>
<event>
 7    1  0.5139898E-006  0.2601754E+03  0.7818608E-02  0.1151087E+00
          2   -1    0    0  502    0  0.00000000000E+00  0.00000000000E+00  0.21314409290E+04  0.21314409290E+04  0.00000000000E+00 0. -1.
          1   -1    0    0  501    0 -0.00000000000E+00 -0.00000000000E+00 -0.45606376372E+03  0.45606376372E+03  0.00000000000E+00 0. -1.
         25    2    1    2    0    0  0.72830091861E+02 -0.20955053958E+02  0.46727593559E+03  0.48961339912E+03  0.12502457380E+03 0.  0.
          2    1    1    2  501    0 -0.59008270632E+02 -0.25339549684E+03 -0.39414220419E+03  0.47227040024E+03  0.00000000000E+00 0. -1.
          1    1    1    2  502    0 -0.13821821229E+02  0.27435055080E+03  0.16022434339E+04  0.16256208934E+04  0.00000000000E+00 0. -1.
         22    1    3    3    0    0  0.43816430032E+02  0.51802814168E+02  0.21262992216E+03  0.22319250636E+03  0.00000000000E+00 0. -1.
         22    1    3    3    0    0  0.29013661829E+02 -0.72757868126E+02  0.25464601343E+03  0.26642089277E+03  0.00000000000E+00 0. -1.
</event>
<event>
 7    1  0.5139898E-006  0.1797963E+03  0.7818608E-02  0.1378859E+00
          2   -1    0    0  502    0  0.00000000000E+00  0.00000000000E+00  0.56431188603E+03  0.56431188603E+03  0.00000000000E+00 0. -1.
          1   -1    0    0  501    0 -0.00000000000E+00 -0.00000000000E+00 -0.22590469362E+03  0.22590469362E+03  0.00000000000E+00 0. -1.
         25    2    1    2    0    0 -0.16832267097E+03 -0.69944873876E+02 -0.69020750719E+01  0.22112704543E+03  0.12499889855E+03 0.  0.
          2    1    1    2  501    0  0.12631476680E+02 -0.19613387074E+02 -0.92749520144E+02  0.95638447512E+02  0.00000000000E+00 0. -1.
          1    1    1    2  502    0  0.15569119429E+03  0.89558260950E+02  0.43805878762E+03  0.47345108670E+03  0.00000000000E+00 0. -1.
         22    1    3    3    0    0 -0.27579350822E+02 -0.73916965794E+02 -0.14096797253E+02  0.80143983659E+02  0.00000000000E+00 0. -1.
         22    1    3    3    0    0 -0.14074332015E+03  0.39720919180E+01  0.71947221809E+01  0.14098306178E+03  0.00000000000E+00 0. -1.
</event>
<event>
 7    1  0.5139898E-006  0.1658605E+03  0.7818608E-02  0.1308704E+00
          2   -1    0    0  502    0  0.00000000000E+00  0.00000000000E+00  0.14425028929E+04  0.14425028929E+04  0.00000000000E+00 0. -1.
          1   -1    0    0  501    0 -0.00000000000E+00 -0.00000000000E+00 -0.16144464324E+03  0.16144464324E+03  0.00000000000E+00 0. -1.
         25    2    1    2    0    0  0.32223300842E+02 -0.12210131435E+03  0.30157101538E+03  0.35002414253E+03  0.12499900381E+03 0.  0.
          2    1    1    2  501    0 -0.47483926767E+02  0.16580761111E+03 -0.82317416017E+02  0.19111003161E+03  0.00000000000E+00 0. -1.
          1    1    1    2  502    0  0.15260625925E+02 -0.43706296756E+02  0.10618046503E+04  0.10628133620E+04  0.00000000000E+00 0. -1.
         22    1    3    3    0    0 -0.26531150870E+01 -0.11196827521E+02  0.18510598268E+03  0.18546329230E+03  0.00000000000E+00 0.  1.
         22    1    3    3    0    0  0.34876415930E+02 -0.11090448683E+03  0.11646503270E+03  0.16456085023E+03  0.00000000000E+00 0.  1.
</event>
<event>
 7    1  0.5139898E-006  0.5193747E+02  0.7818608E-02  0.1452177E+00
          2   -1    0    0  502    0  0.00000000000E+00  0.00000000000E+00  0.18733316283E+04  0.18733316283E+04  0.00000000000E+00 0. -1.
          1   -1    0    0  501    0 -0.00000000000E+00 -0.00000000000E+00 -0.12889827909E+04  0.12889827909E+04  0.00000000000E+00 0. -1.
         25    2    1    2    0    0 -0.10392073315E+02  0.26564477317E+02  0.21547601746E+03  0.25073242971E+03  0.12499268203E+03 0.  0.
          2    1    1    2  501    0  0.51598179425E+02 -0.66485570172E+01 -0.12705028721E+04  0.12715675850E+04  0.00000000000E+00 0. -1.
          1    1    1    2  502    0 -0.41206106110E+02 -0.19915920300E+02  0.16393756920E+04  0.16400144044E+04  0.00000000000E+00 0. -1.
         22    1    3    3    0    0  0.32124536128E+02  0.55825392191E+02  0.64391791578E+02  0.91075589800E+02  0.00000000000E+00 0.  1.
         22    1    3    3    0    0 -0.42516609443E+02 -0.29260914874E+02  0.15108422588E+03  0.15965683991E+03  0.00000000000E+00 0.  1.
</event>
<event>
 7    1  0.5139898E-006  0.1367418E+03  0.7818608E-02  0.1238214E+00
          2   -1    0    0  502    0  0.00000000000E+00  0.00000000000E+00  0.30529410526E+04  0.30529410526E+04  0.00000000000E+00 0. -1.
          1   -1    0    0  501    0 -0.00000000000E+00 -0.00000000000E+00 -0.30754078899E+02  0.30754078899E+02  0.00000000000E+00 0. -1.
         25    2    1    2    0    0  0.64159363329E+01 -0.35892879390E+02  0.22369681256E+04  0.22407549622E+04  0.12500776970E+03 0.  0.
          2    1    1    2  501    0 -0.15276434363E+02  0.14619266991E+03  0.20492517084E+03  0.25219038805E+03  0.00000000000E+00 0. -1.
          1    1    1    2  502    0  0.88604980305E+01 -0.11029979052E+03  0.58029367722E+03  0.59074978124E+03  0.00000000000E+00 0. -1.
         22    1    3    3    0    0 -0.34839275101E+02  0.32389644379E+02  0.10745661384E+04  0.10756185429E+04  0.00000000000E+00 0. -1.
         22    1    3    3    0    0  0.41255211434E+02 -0.68282523769E+02  0.11624019872E+04  0.11651364192E+04  0.00000000000E+00 0. -1.
</event>
<event>
 7    1  0.5139898E-006  0.9900197E+02  0.7818608E-02  0.1351878E+00
          2   -1    0    0  502    0  0.00000000000E+00  0.00000000000E+00  0.17864697474E+04  0.17864697474E+04  0.00000000000E+00 0. -1.
          1   -1    0    0  501    0 -0.00000000000E+00 -0.00000000000E+00 -0.25853310249E+03  0.25853310249E+03  0.00000000000E+00 0. -1.
         25    2    1    2    0    0 -0.12615817094E+03 -0.18673512669E+02  0.16563373108E+03  0.24356451445E+03  0.12499822261E+03 0.  0.
          2    1    1    2  501    0  0.83845687506E+02  0.50678903935E+02 -0.20816862780E+03  0.23007091997E+03  0.00000000000E+00 0. -1.
          1    1    1    2  502    0  0.42312483432E+02 -0.32005391266E+02  0.15704715416E+04  0.15713674154E+04  0.00000000000E+00 0. -1.
         22    1    3    3    0    0 -0.76842259821E+02 -0.48691103325E+02  0.16190441615E+03  0.18571105623E+03  0.00000000000E+00 0. -1.
         22    1    3    3    0    0 -0.49315911118E+02  0.30017590656E+02  0.37293149339E+01  0.57853458220E+02  0.00000000000E+00 0. -1.
</event>
<event>
 7    1  0.5139898E-006  0.1032088E+03  0.7818608E-02  0.1411939E+00
          2   -1    0    0  502    0  0.00000000000E+00  0.00000000000E+00  0.60340042700E+03  0.60340042700E+03  0.00000000000E+00 0. -1.
          1   -1    0    0  501    0 -0.00000000000E+00 -0.00000000000E+00 -0.12839327689E+03  0.12839327689E+03  0.00000000000E+00 0. -1.
         25    2    1    2    0    0 -0.10462595835E+03  0.77350590063E+02  0.16232805323E+03  0.24270385316E+03  0.12500023412E+03 0.  0.
          2    1    1    2  501    0  0.76763182551E+02 -0.63268525784E+02 -0.59295271222E+02  0.11580769292E+03  0.00000000000E+00 0. -1.
          1    1    1    2  502    0  0.27862775794E+02 -0.14082064279E+02  0.37197436810E+03  0.37328215780E+03  0.00000000000E+00 0. -1.
         22    1    3    3    0    0  0.23526681666E+02 -0.96015247497E+01  0.19510378113E+02  0.32036680256E+02  0.00000000000E+00 0.  1.
         22    1    3    3    0    0 -0.12815264001E+03  0.86952114813E+02  0.14281767512E+03  0.21066717290E+03  0.00000000000E+00 0.  1.
</event>
<event>
 7    1  0.5139898E-006  0.1172753E+03  0.7818608E-02  0.1417135E+00
          2   -1    0    0  502    0  0.00000000000E+00  0.00000000000E+00  0.64067865791E+02  0.64067865791E+02  0.00000000000E+00 0. -1.
          1   -1    0    0  501    0 -0.00000000000E+00 -0.00000000000E+00 -0.67597237700E+03  0.67597237700E+03  0.00000000000E+00 0. -1.
         25    2    1    2    0    0  0.23134896793E+02  0.12288497565E+03 -0.38168011136E+03  0.42064274386E+03  0.12499867943E+03 0.  0.
          2    1    1    2  501    0 -0.25523925414E+02 -0.67050899505E+01 -0.19668808527E+03  0.19845057795E+03  0.00000000000E+00 0. -1.
          1    1    1    2  502    0  0.23890286213E+01 -0.11617988570E+03 -0.33536314567E+02  0.12094692098E+03  0.00000000000E+00 0. -1.
         22    1    3    3    0    0  0.16542392267E+02  0.45811992216E+02 -0.31431674114E+03  0.31806823660E+03  0.00000000000E+00 0. -1.
         22    1    3    3    0    0  0.65925045261E+01  0.77072983436E+02 -0.67363370226E+02  0.10257450726E+03  0.00000000000E+00 0. -1.
</event>
<event>
 7    1  0.5139898E-006  0.1671670E+03  0.7818608E-02  0.1232783E+00
          2   -1    0    0  502    0  0.00000000000E+00  0.00000000000E+00  0.80373178674E+03  0.80373178674E+03  0.00000000000E+00 0. -1.
          1   -1    0    0  501    0 -0.00000000000E+00 -0.00000000000E+00 -0.11087787001E+03  0.11087787001E+03  0.00000000000E+00 0. -1.
         25    2    1    2    0    0 -0.23583998381E+02  0.87878959711E+02  0.37136931002E+03  0.40226931816E+03  0.12500609332E+03 0.  0.
          2    1    1    2  501    0  0.43265554961E+02 -0.18151993447E+03  0.10424980769E+02  0.18689589369E+03  0.00000000000E+00 0. -1.
          1    1    1    2  502    0 -0.19681556580E+02  0.93640974758E+02  0.31105962594E+03  0.32544444490E+03  0.00000000000E+00 0. -1.
         22    1    3    3    0    0 -0.31185330159E+01 -0.28909876460E+02  0.13173729468E+03  0.13490819477E+03  0.00000000000E+00 0.  1.
         22    1    3    3    0    0 -0.20465465365E+02  0.11678883617E+03  0.23963201533E+03  0.26736112339E+03  0.00000000000E+00 0.  1.
</event>
<event>
 7    1  0.5139898E-006  0.7246734E+02  0.7818608E-02  0.1362601E+00
          2   -1    0    0  502    0  0.00000000000E+00  0.00000000000E+00  0.30503597595E+03  0.30503597595E+03  0.00000000000E+00 0. -1.
          1   -1    0    0  501    0 -0.00000000000E+00 -0.00000000000E+00 -0.12079931379E+04  0.12079931379E+04  0.00000000000E+00 0. -1.
         25    2    1    2    0    0  0.70860046122E+02 -0.11108634123E+03 -0.24088390154E+03  0.30168093841E+03  0.12500005294E+03 0.  0.
          2    1    1    2  501    0 -0.51157023097E+02  0.47876527695E+02 -0.93138521710E+03  0.93401693001E+03  0.00000000000E+00 0. -1.
          1    1    1    2  502    0 -0.19703023025E+02  0.63209813534E+02  0.26931195672E+03  0.27733124540E+03  0.00000000000E+00 0. -1.
         22    1    3    3    0    0  0.34510223375E+02 -0.34314693058E+02 -0.26297162999E+01  0.48737758308E+02  0.00000000000E+00 0.  1.
         22    1    3    3    0    0  0.36349822747E+02 -0.76771648171E+02 -0.23825418524E+03  0.25294318010E+03  0.00000000000E+00 0.  1.
</event>
<event>
 7    1  0.5139898E-006  0.1003703E+03  0.7818608E-02  0.1472273E+00
          2   -1    0    0  502    0  0.00000000000E+00  0.00000000000E+00  0.80420792092E+03  0.80420792092E+03  0.00000000000E+00 0. -1.
          1   -1    0    0  501    0 -0.00000000000E+00 -0.00000000000E+00 -0.84641118032E+02  0.84641118032E+02  0.00000000000E+00 0. -1.
         25    2    1    2    0    0 -0.95282388688E+02 -0.21247540631E+02  0.32198111797E+03  0.35892496042E+03  0.12500038122E+03 0.  0.
          2    1    1    2  501    0  0.10087697606E+03  0.15515847260E+01 -0.27322263887E+02  0.10452309705E+03  0.00000000000E+00 0. -1.
          1    1    1    2  502    0 -0.55945873710E+01  0.19695955905E+02  0.42490794880E+03  0.42540098147E+03  0.00000000000E+00 0. -1.
         22    1    3    3    0    0 -0.21104943837E+02 -0.58812035800E+02  0.71251882092E+02  0.94768691618E+02  0.00000000000E+00 0. -1.
         22    1    3    3    0    0 -0.74177444851E+02  0.37564495170E+02  0.25072923588E+03  0.26415626880E+03  0.00000000000E+00 0. -1.
</event>
<event>
 7    1  0.5139898E-006  0.5474036E+02  0.7818608E-02  0.1435183E+00
          2   -1    0    0  502    0  0.00000000000E+00  0.00000000000E+00  0.34988561209E+03  0.34988561209E+03  0.00000000000E+00 0. -1.
          1   -1    0    0  501    0 -0.00000000000E+00 -0.00000000000E+00 -0.18756780917E+04  0.18756780917E+04  0.00000000000E+00 0. -1.
         25    2    1    2    0    0  0.67157842446E+02 -0.31801111330E+02 -0.76404322948E+02  0.16427031381E+03  0.12500251577E+03 0.  0.
          2    1    1    2  501    0 -0.45660731225E+02 -0.18512048675E+02 -0.17525456932E+04  0.17532381485E+04  0.00000000000E+00 0. -1.
          1    1    1    2  502    0 -0.21497111221E+02  0.50313160005E+02  0.30315753657E+03  0.30805524154E+03  0.00000000000E+00 0. -1.
         22    1    3    3    0    0  0.69134714899E+02 -0.62864722351E+02 -0.13935615904E+02  0.94476364828E+02  0.00000000000E+00 0.  1.
         22    1    3    3    0    0 -0.19768724527E+01  0.31063611021E+02 -0.62468707044E+02  0.69793948979E+02  0.00000000000E+00 0.  1.
</event>
<event>
 7    1  0.5139898E-006  0.6947754E+02  0.7818608E-02  0.1409253E+00
          2   -1    0    0  502    0  0.00000000000E+00  0.00000000000E+00  0.19667499921E+04  0.19667499921E+04  0.00000000000E+00 0. -1.
          1   -1    0    0  501    0 -0.00000000000E+00 -0.00000000000E+00 -0.73198516036E+03  0.73198516036E+03  0.00000000000E+00 0. -1.
         25    2    1    2    0    0  0.22003043595E+02  0.23841155606E+02  0.14888847466E+03  0.19709279631E+03  0.12500103137E+03 0.  0.
          2    1    1    2  501    0 -0.68408697626E+02 -0.14395072707E+02 -0.70584345404E+03  0.70929679940E+03  0.00000000000E+00 0. -1.
          1    1    1    2  502    0  0.46405654032E+02 -0.94460828991E+01  0.17917198111E+04  0.17923455567E+04  0.00000000000E+00 0. -1.
         22    1    3    3    0    0  0.24478711041E+02 -0.45775632240E+02  0.97744074573E+02  0.11067303156E+03  0.00000000000E+00 0. -1.
         22    1    3    3    0    0 -0.24756674461E+01  0.69616787846E+02  0.51144400084E+02  0.86419764749E+02  0.00000000000E+00 0. -1.
</event>
<event>
 7    1  0.5139898E-006  0.2097538E+03  0.7818608E-02  0.1261431E+00
          2   -1    0    0  502    0  0.00000000000E+00  0.00000000000E+00  0.49848792827E+03  0.49848792827E+03  0.00000000000E+00 0. -1.
          1   -1    0    0  501    0 -0.00000000000E+00 -0.00000000000E+00 -0.61411061381E+03  0.61411061381E+03  0.00000000000E+00 0. -1.
         25    2    1    2    0    0  0.18092333802E+03 -0.14598451737E+03  0.11185191745E+03  0.28667340565E+03  0.12500422600E+03 0.  0.
          2    1    1    2  501    0  0.95794281749E+00  0.57193197518E+02 -0.49062147935E+03  0.49394474944E+03  0.00000000000E+00 0. -1.
          1    1    1    2  502    0 -0.18188128084E+03  0.88791319849E+02  0.26314687636E+03  0.33198038698E+03  0.00000000000E+00 0. -1.
         22    1    3    3    0    0  0.13428587760E+01 -0.65083485541E+02  0.43029811904E+02  0.78033506087E+02  0.00000000000E+00 0.  1.
         22    1    3    3    0    0  0.17958047925E+03 -0.80901031826E+02  0.68822105548E+02  0.20863989956E+03  0.00000000000E+00 0.  1.
</event>
<event>
 7    1  0.5139898E-006  0.2122294E+03  0.7818608E-02  0.1271928E+00
          2   -1    0    0  502    0  0.00000000000E+00  0.00000000000E+00  0.57374243156E+02  0.57374243156E+02  0.00000000000E+00 0. -1.
          1   -1    0    0  501    0 -0.00000000000E+00 -0.00000000000E+00 -0.12359805761E+04  0.12359805761E+04  0.00000000000E+00 0. -1.
         25    2    1    2    0    0 -0.19831915327E+03 -0.39772609062E+02 -0.50605423860E+03  0.55913202625E+03  0.12500153354E+03 0.  0.
          2    1    1    2  501    0  0.22143701046E+03 -0.57423843179E+01 -0.62985602642E+03  0.66767202922E+03  0.00000000000E+00 0. -1.
          1    1    1    2  502    0 -0.23117857187E+02  0.45514993380E+02 -0.42696067888E+02  0.66550763755E+02  0.00000000000E+00 0. -1.
         22    1    3    3    0    0 -0.18642684982E+03 -0.18082924407E+02 -0.49961717611E+03  0.53357219301E+03  0.00000000000E+00 0.  1.
         22    1    3    3    0    0 -0.11892303458E+02 -0.21689684655E+02 -0.64370624920E+01  0.25559833245E+02  0.00000000000E+00 0.  1.
</event>
<event>
 7    1  0.5139898E-006  0.9450208E+02  0.7818608E-02  0.1425869E+00
          2   -1    0    0  502    0  0.00000000000E+00  0.00000000000E+00  0.96410583072E+03  0.96410583072E+03  0.00000000000E+00 0. -1.
          1   -1    0    0  501    0 -0.00000000000E+00 -0.00000000000E+00 -0.53971147631E+03  0.53971147631E+03  0.00000000000E+00 0. -1.
         25    2    1    2    0    0 -0.72101414185E+01  0.78935235321E+02 -0.16728640899E+03  0.22336590967E+03  0.12499931781E+03 0.  0.
          2    1    1    2  501    0  0.34555973398E+02 -0.92725978655E+02 -0.33701919502E+03  0.35124658037E+03  0.00000000000E+00 0. -1.
          1    1    1    2  502    0 -0.27345831979E+02  0.13790743334E+02  0.92869995842E+03  0.92920481698E+03  0.00000000000E+00 0. -1.
         22    1    3    3    0    0  0.53258781001E+02  0.10124686764E+02 -0.81367146535E+02  0.97773307048E+02  0.00000000000E+00 0.  1.
         22    1    3    3    0    0 -0.60468922420E+02  0.68810548557E+02 -0.85919262459E+02  0.12559260262E+03  0.00000000000E+00 0.  1.
</event>
<event>
 7    1  0.5139898E-006  0.8783467E+02  0.7818608E-02  0.1371286E+00
          2   -1    0    0  502    0  0.00000000000E+00  0.00000000000E+00  0.41296560001E+03  0.41296560001E+03  0.00000000000E+00 0. -1.
          1   -1    0    0  501    0 -0.00000000000E+00 -0.00000000000E+00 -0.42320943671E+03  0.42320943671E+03  0.00000000000E+00 0. -1.
         25    2    1    2    0    0  0.15263634928E+02 -0.85093415518E+02 -0.14433400832E+03  0.20959812576E+03  0.12500080180E+03 0.  0.
          2    1    1    2  501    0  0.46027092329E+02  0.21543605568E+02 -0.23840501258E+03  0.24376129757E+03  0.00000000000E+00 0. -1.
          1    1    1    2  502    0 -0.61290727257E+02  0.63549809950E+02  0.37249518421E+03  0.38281561339E+03  0.00000000000E+00 0. -1.
         22    1    3    3    0    0 -0.50507454976E+02 -0.32721449125E+02 -0.28815819682E+02  0.66723666753E+02  0.00000000000E+00 0. -1.
         22    1    3    3    0    0  0.65771089905E+02 -0.52371966393E+02 -0.11551818864E+03  0.14287445901E+03  0.00000000000E+00 0. -1.
</event>
<event>
 7    1  0.5139898E-006  0.8625910E+02  0.7818608E-02  0.1402009E+00
          2   -1    0    0  502    0  0.00000000000E+00  0.00000000000E+00  0.25686648625E+03  0.25686648625E+03  0.00000000000E+00 0. -1.
          1   -1    0    0  501    0 -0.00000000000E+00 -0.00000000000E+00 -0.11532786023E+04  0.11532786023E+04  0.00000000000E+00 0. -1.
         25    2    1    2    0    0 -0.45019252743E+02 -0.55421689092E+02  0.26450976430E+00  0.14395624101E+03  0.12500013049E+03 0.  0.
          2    1    1    2  501    0  0.17552328680E+02  0.85016391284E+02 -0.10774600087E+04  0.10809514057E+04  0.00000000000E+00 0. -1.
          1    1    1    2  502    0  0.27466924062E+02 -0.29594702191E+02  0.18078338293E+03  0.18523744184E+03  0.00000000000E+00 0. -1.
         22    1    3    3    0    0 -0.32717028229E+02 -0.75089441253E+02 -0.44735968554E+02  0.93328104054E+02  0.00000000000E+00 0.  1.
         22    1    3    3    0    0 -0.12302224514E+02  0.19667752161E+02  0.45000478318E+02  0.50628136959E+02  0.00000000000E+00 0.  1.
</event>
<event>
 7    1  0.5139898E-006  0.3517064E+02  0.7818608E-02  0.1615766E+00
          2   -1    0    0  502    0  0.00000000000E+00  0.00000000000E+00  0.87017744842E+03  0.87017744842E+03  0.00000000000E+00 0. -1.
          1   -1    0    0  501    0 -0.00000000000E+00 -0.00000000000E+00 -0.70880534765E+03  0.70880534765E+03  0.00000000000E+00 0. -1.
         25    2    1    2    0    0  0.67485821258E+00 -0.56102993423E+02  0.47995424384E+03  0.49912900933E+03  0.12500276183E+03 0.  0.
          2    1    1    2  501    0  0.34067727530E+01  0.22775963453E+02 -0.69828733243E+03  0.69866698022E+03  0.00000000000E+00 0. -1.
          1    1    1    2  502    0 -0.40816309655E+01  0.33327029970E+02  0.37970518936E+03  0.38118680652E+03  0.00000000000E+00 0. -1.
         22    1    3    3    0    0 -0.31855486164E+02 -0.31998645960E+02  0.50385071347E+02  0.67656047451E+02  0.00000000000E+00 0. -1.
         22    1    3    3    0    0  0.32530344377E+02 -0.24104347463E+02  0.42956917250E+03  0.43147296188E+03  0.00000000000E+00 0. -1.
</event>
<event>
 7    1  0.5139898E-006  0.6820938E+02  0.7818608E-02  0.1432068E+00
          2   -1    0    0  502    0  0.00000000000E+00  0.00000000000E+00  0.17581205729E+04  0.17581205729E+04  0.00000000000E+00 0. -1.
          1   -1    0    0  501    0 -0.00000000000E+00 -0.00000000000E+00 -0.11608085277E+03  0.11608085277E+03  0.00000000000E+00 0. -1.
         25    2    1    2    0    0 -0.33095363807E+02 -0.19602717646E+02  0.37382208699E+03  0.39603945915E+03  0.12499892334E+03 0.  0.
          2    1    1    2  501    0 -0.52710562481E+01 -0.40136687009E+02 -0.10011450277E+03  0.10798912604E+03  0.00000000000E+00 0. -1.
          1    1    1    2  502    0  0.38366420055E+02  0.59739404655E+02  0.13683321359E+04  0.13701728404E+04  0.00000000000E+00 0. -1.
         22    1    3    3    0    0 -0.17093547527E+02 -0.45668216913E+02  0.46789750459E+02  0.67579998158E+02  0.00000000000E+00 0. -1.
         22    1    3    3    0    0 -0.16001816280E+02  0.26065499267E+02  0.32703233653E+03  0.32845946099E+03  0.00000000000E+00 0. -1.
</event>
<event>
 7    1  0.5139898E-006  0.7935958E+02  0.7818608E-02  0.1331211E+00
          2   -1    0    0  502    0  0.00000000000E+00  0.00000000000E+00  0.34831248884E+04  0.34831248884E+04  0.00000000000E+00 0. -1.
          1   -1    0    0  501    0 -0.00000000000E+00 -0.00000000000E+00 -0.33448333724E+03  0.33448333724E+03  0.00000000000E+00 0. -1.
         25    2    1    2    0    0 -0.38136019504E+01 -0.33753807950E+00  0.14835489131E+04  0.14888105827E+04  0.12499966388E+03 0.  0.
          2    1    1    2  501    0  0.18864017142E+02 -0.77346149607E+02 -0.32628050950E+03  0.33585301678E+03  0.00000000000E+00 0. -1.
          1    1    1    2  502    0 -0.15050415191E+02  0.77683687687E+02  0.19913731475E+04  0.19929446262E+04  0.00000000000E+00 0. -1.
         22    1    3    3    0    0 -0.51101072081E+02 -0.31983076843E+02  0.50071300138E+03  0.50432900623E+03  0.00000000000E+00 0. -1.
         22    1    3    3    0    0  0.47287470130E+02  0.31645538763E+02  0.98283591172E+03  0.98448157643E+03  0.00000000000E+00 0. -1.
</event>
<event>
 7    1  0.5139898E-006  0.5028159E+02  0.7818608E-02  0.1469157E+00
          2   -1    0    0  502    0  0.00000000000E+00  0.00000000000E+00  0.11408438938E+03  0.11408438938E+03  0.00000000000E+00 0. -1.
          1   -1    0    0  501    0 -0.00000000000E+00 -0.00000000000E+00 -0.59153219191E+03  0.59153219191E+03  0.00000000000E+00 0. -1.
         25    2    1    2    0    0 -0.76303108101E+02  0.44683786139E+02 -0.26604017511E+03  0.30695559138E+03  0.12500222100E+03 0.  0.
          2    1    1    2  501    0  0.38658787994E+02 -0.26530085330E+02 -0.29844718290E+03  0.30210770976E+03  0.00000000000E+00 0. -1.
          1    1    1    2  502    0  0.37644320107E+02 -0.18153700809E+02  0.87039555479E+02  0.96553280149E+02  0.00000000000E+00 0. -1.
         22    1    3    3    0    0 -0.10701772267E+03  0.54794596754E+02 -0.21974266704E+03  0.25048369311E+03  0.00000000000E+00 0. -1.
         22    1    3    3    0    0  0.30714614571E+02 -0.10110810614E+02 -0.46297508079E+02  0.56471898267E+02  0.00000000000E+00 0. -1.
</event>
<event>
 7    1  0.5139898E-006  0.8515556E+02  0.7818608E-02  0.1386846E+00
          2   -1    0    0  502    0  0.00000000000E+00  0.00000000000E+00  0.36336201215E+03  0.36336201215E+03  0.00000000000E+00 0. -1.
          1   -1    0    0  501    0 -0.00000000000E+00 -0.00000000000E+00 -0.15041808265E+04  0.15041808265E+04  0.00000000000E+00 0. -1.
         25    2    1    2    0    0 -0.41623946716E+02  0.77462986049E+02 -0.17977674775E+03  0.23596123988E+03  0.12499984220E+03 0.  0.
          2    1    1    2  501    0  0.45490714294E+02  0.78499629059E+01 -0.12904540721E+04  0.12912794969E+04  0.00000000000E+00 0. -1.
          1    1    1    2  502    0 -0.38667675779E+01 -0.85312948954E+02  0.32941200549E+03  0.34030210183E+03  0.00000000000E+00 0. -1.
         22    1    3    3    0    0 -0.52406760023E+02 -0.13157151493E+02 -0.33574819786E+02  0.63614838326E+02  0.00000000000E+00 0.  1.
         22    1    3    3    0    0  0.10782813308E+02  0.90620137542E+02 -0.14620192796E+03  0.17234640156E+03  0.00000000000E+00 0.  1.
</event>
<event>
 7    1  0.5139898E-006  0.6569194E+02  0.7818608E-02  0.1412050E+00
          2   -1    0    0  502    0  0.00000000000E+00  0.00000000000E+00  0.13639434865E+03  0.13639434865E+03  0.00000000000E+00 0. -1.
          1   -1    0    0  501    0 -0.00000000000E+00 -0.00000000000E+00 -0.19704818404E+04  0.19704818404E+04  0.00000000000E+00 0. -1.
         25    2    1    2    0    0 -0.20242973594E+02  0.15207169338E+02 -0.16711769543E+03  0.21022380332E+03  0.12499874950E+03 0.  0.
          2    1    1    2  501    0  0.19225598631E+02 -0.64202697663E+02 -0.17759220119E+04  0.17771861474E+04  0.00000000000E+00 0. -1.
          1    1    1    2  502    0  0.10173749630E+01  0.48995528324E+02  0.10895221554E+03  0.11946623840E+03  0.00000000000E+00 0. -1.
         22    1    3    3    0    0 -0.10782281633E+02  0.57006017396E+02 -0.15527770128E+03  0.16576220356E+03  0.00000000000E+00 0.  1.
         22    1    3    3    0    0 -0.94606919614E+01 -0.41798848058E+02 -0.11839994154E+02  0.44461599757E+02  0.00000000000E+00 0.  1.
</event>
<event>
 7    1  0.5139898E-006  0.7479751E+02  0.7818608E-02  0.1387858E+00
          2   -1    0    0  502    0  0.00000000000E+00  0.00000000000E+00  0.13763520291E+04  0.13763520291E+04  0.00000000000E+00 0. -1.
          1   -1    0    0  501    0 -0.00000000000E+00 -0.00000000000E+00 -0.31524578007E+03  0.31524578007E+03  0.00000000000E+00 0. -1.
         25    2    1    2    0    0  0.17717156900E+02 -0.48068155890E+02  0.11533301784E+04  0.11612135678E+04  0.12498801690E+03 0.  0.
          2    1    1    2  501    0 -0.67492822965E+02  0.32584370670E+02 -0.30358009277E+03  0.31269457157E+03  0.00000000000E+00 0. -1.
          1    1    1    2  502    0  0.49775666066E+02  0.15483785220E+02  0.21135616345E+03  0.21768966986E+03  0.00000000000E+00 0. -1.
         22    1    3    3    0    0  0.62512995782E+02 -0.37580906468E+02  0.94754596098E+03  0.95034917127E+03  0.00000000000E+00 0. -1.
         22    1    3    3    0    0 -0.44795838882E+02 -0.10487249423E+02  0.20578421741E+03  0.21086439651E+03  0.00000000000E+00 0. -1.
</event>
<event>
 7    1  0.5139898E-006  0.1277061E+03  0.7818608E-02  0.1339478E+00
          2   -1    0    0  502    0  0.00000000000E+00  0.00000000000E+00  0.20757634780E+04  0.20757634780E+04  0.00000000000E+00 0. -1.
          1   -1    0    0  501    0 -0.00000000000E+00 -0.00000000000E+00 -0.93093312190E+03  0.93093312190E+03  0.00000000000E+00 0. -1.
         25    2    1    2    0    0 -0.82532763566E+02 -0.14470626497E+02  0.43839805101E+02  0.15674419640E+03  0.12500303396E+03 0.  0.
          2    1    1    2  501    0 -0.45663864400E+02 -0.28114598703E+01 -0.87176284704E+03  0.87296251597E+03  0.00000000000E+00 0. -1.
          1    1    1    2  502    0  0.12819662797E+03  0.17282086368E+02  0.19727533981E+04  0.19769898876E+04  0.00000000000E+00 0. -1.
         22    1    3    3    0    0 -0.10825551952E+03  0.15528278429E+02  0.42106001307E+02  0.11718916453E+03  0.00000000000E+00 0.  1.
         22    1    3    3    0    0  0.25722755952E+02 -0.29998904927E+02  0.17338037936E+01  0.39555031869E+02  0.00000000000E+00 0.  1.
</event>
<event>
 7    1  0.5139898E-006  0.1252833E+03  0.7818608E-02  0.1258532E+00
          2   -1    0    0  502    0  0.00000000000E+00  0.00000000000E+00  0.24795457170E+04  0.24795457170E+04  0.00000000000E+00 0. -1.
          1   -1    0    0  501    0 -0.00000000000E+00 -0.00000000000E+00 -0.95832586161E+02  0.95832586161E+02  0.00000000000E+00 0. -1.
         25    2    1    2    0    0  0.11350780619E+02  0.21121322694E+03  0.10867914255E+04  0.11142172771E+04  0.12499868172E+03 0.  0.
          2    1    1    2  501    0 -0.37175808392E+02 -0.11612158312E+03 -0.34013921429E+02  0.12658281734E+03  0.00000000000E+00 0. -1.
          1    1    1    2  502    0  0.25825027773E+02 -0.95091643828E+02  0.13309356267E+04  0.13345782087E+04  0.00000000000E+00 0. -1.
         22    1    3    3    0    0  0.26526168575E+01 -0.17053812106E+02  0.75845274474E+02  0.77784153551E+02  0.00000000000E+00 0.  1.
         22    1    3    3    0    0  0.86981637620E+01  0.22826703905E+03  0.10109461511E+04  0.10364331235E+04  0.00000000000E+00 0.  1.
</event>
<event>
 7    1  0.5139898E-006  0.1537025E+03  0.7818608E-02  0.1287112E+00
          2   -1    0    0  502    0  0.00000000000E+00  0.00000000000E+00  0.37408230505E+04  0.37408230505E+04  0.00000000000E+00 0. -1.
          1   -1    0    0  501    0 -0.00000000000E+00 -0.00000000000E+00 -0.15706704382E+03  0.15706704382E+03  0.00000000000E+00 0. -1.
         25    2    1    2    0    0  0.11109690465E+03  0.17808748558E+01  0.95085755498E+03  0.96545397446E+03  0.12500237279E+03 0.  0.
          2    1    1    2  501    0 -0.14871173010E+03  0.46239419579E+02 -0.10885319933E+03  0.19000600411E+03  0.00000000000E+00 0. -1.
          1    1    1    2  502    0  0.37614825451E+02 -0.48020294435E+02  0.27417516510E+04  0.27424301157E+04  0.00000000000E+00 0. -1.
         22    1    3    3    0    0  0.27955543818E+02  0.59382823651E+02  0.40996296111E+03  0.41518364811E+03  0.00000000000E+00 0. -1.
         22    1    3    3    0    0  0.83141360836E+02 -0.57601948795E+02  0.54089459387E+03  0.55027032635E+03  0.00000000000E+00 0. -1.
</event>
<event>
 7    1  0.5139898E-006  0.7001396E+02  0.7818608E-02  0.1366530E+00
          2   -1    0    0  502    0  0.00000000000E+00  0.00000000000E+00  0.25074264398E+04  0.25074264398E+04  0.00000000000E+00 0. -1.
          1   -1    0    0  501    0 -0.00000000000E+00 -0.00000000000E+00 -0.65021925269E+03  0.65021925269E+03  0.00000000000E+00 0. -1.
         25    2    1    2    0    0 -0.30751895552E+02 -0.49924064361E+02  0.91892025753E+03  0.92923633563E+03  0.12501054550E+03 0.  0.
          2    1    1    2  501    0  0.63526847487E+02 -0.19039404170E+02 -0.64243268783E+03  0.64584666730E+03  0.00000000000E+00 0. -1.
          1    1    1    2  502    0 -0.32774951934E+02  0.68963468531E+02  0.15807196174E+04  0.15825626896E+04  0.00000000000E+00 0. -1.
         22    1    3    3    0    0 -0.27880736655E+02 -0.63133670096E+01  0.39650497812E+02  0.48881039843E+02  0.00000000000E+00 0. -1.
         22    1    3    3    0    0 -0.28711588974E+01 -0.43610697351E+02  0.87926975972E+03  0.88035529579E+03  0.00000000000E+00 0. -1.
</event>
<event>
 7    1  0.5139898E-006  0.6542780E+02  0.7818608E-02  0.1486427E+00
          2   -1    0    0  502    0  0.00000000000E+00  0.00000000000E+00  0.15062409587E+04  0.15062409587E+04  0.00000000000E+00 0. -1.
          1   -1    0    0  501    0 -0.00000000000E+00 -0.00000000000E+00 -0.14480157521E+03  0.14480157521E+03  0.00000000000E+00 0. -1.
         25    2    1    2    0    0  0.55222842946E+02  0.53203921017E+02 -0.49680868949E+02  0.15482950883E+03  0.12499507379E+03 0.  0.
          2    1    1    2  501    0 -0.56740096233E+02 -0.24825571313E+02 -0.19791684262E+02  0.65018907077E+02  0.00000000000E+00 0. -1.
          1    1    1    2  502    0  0.15172532875E+01 -0.28378349704E+02  0.14309119367E+04  0.14311941180E+04  0.00000000000E+00 0. -1.
         22    1    3    3    0    0 -0.22757899750E+02 -0.26442676692E+02 -0.16039132570E+02  0.38397798443E+02  0.00000000000E+00 0.  1.
         22    1    3    3    0    0  0.77980742696E+02  0.79646597708E+02 -0.33641736379E+02  0.11643171039E+03  0.00000000000E+00 0.  1.
</event>
<event>
 7    1  0.5139898E-006  0.7429191E+02  0.7818608E-02  0.1438066E+00
          2   -1    0    0  502    0  0.00000000000E+00  0.00000000000E+00  0.75039830484E+03  0.75039830484E+03  0.00000000000E+00 0. -1.
          1   -1    0    0  501    0 -0.00000000000E+00 -0.00000000000E+00 -0.29022121323E+04  0.29022121323E+04  0.00000000000E+00 0. -1.
         25    2    1    2    0    0  0.50776800132E+02 -0.81529405944E+01 -0.54098557994E+03  0.55761558732E+03  0.12499996661E+03 0.  0.
          2    1    1    2  501    0 -0.64348594101E+02  0.40985005514E+02 -0.23518674439E+04  0.23531045421E+04  0.00000000000E+00 0. -1.
          1    1    1    2  502    0  0.13571793970E+02 -0.32832064919E+02  0.74103919640E+03  0.74189030771E+03  0.00000000000E+00 0. -1.
         22    1    3    3    0    0 -0.26910223843E+02 -0.30647293230E+02 -0.31427656747E+03  0.31691193981E+03  0.00000000000E+00 0. -1.
         22    1    3    3    0    0  0.77687023975E+02  0.22494352635E+02 -0.22670901247E+03  0.24070364752E+03  0.00000000000E+00 0. -1.
</event>
<event>
 7    1  0.5139898E-006  0.1242368E+03  0.7818608E-02  0.1372322E+00
          2   -1    0    0  502    0  0.00000000000E+00  0.00000000000E+00  0.28573690521E+03  0.28573690521E+03  0.00000000000E+00 0. -1.
          1   -1    0    0  501    0 -0.00000000000E+00 -0.00000000000E+00 -0.14562854275E+03  0.14562854275E+03  0.00000000000E+00 0. -1.
         25    2    1    2    0    0 -0.94776699218E+02 -0.11087498709E+03  0.55853351470E+02  0.20004746303E+03  0.12499402032E+03 0.  0.
          2    1    1    2  501    0  0.61099258282E+02  0.99263394986E+02 -0.22556289458E+02  0.11872290066E+03  0.00000000000E+00 0. -1.
          1    1    1    2  502    0  0.33677440936E+02  0.11611592100E+02  0.10681130045E+03  0.11259508428E+03  0.00000000000E+00 0. -1.
         22    1    3    3    0    0 -0.10833365492E+03 -0.12853541837E+03  0.40224104207E+02  0.17284534452E+03  0.00000000000E+00 0.  1.
         22    1    3    3    0    0  0.13556955699E+02  0.17660431287E+02  0.15629247263E+02  0.27202118503E+02  0.00000000000E+00 0.  1.
</event>
<event>
 7    1  0.5139898E-006  0.1177970E+03  0.7818608E-02  0.1347442E+00
          2   -1    0    0  502    0  0.00000000000E+00  0.00000000000E+00  0.44726812747E+03  0.44726812747E+03  0.00000000000E+00 0. -1.
          1   -1    0    0  501    0 -0.00000000000E+00 -0.00000000000E+00 -0.13730802066E+03  0.13730802066E+03  0.00000000000E+00 0. -1.
         25    2    1    2    0    0  0.76544008772E+02 -0.86730882885E+02  0.14795199958E+03  0.22560022048E+03  0.12499773588E+03 0.  0.
          2    1    1    2  501    0  0.32069122583E+02  0.33408804246E+02 -0.77704431170E+02  0.90457478673E+02  0.00000000000E+00 0. -1.
          1    1    1    2  502    0 -0.10861313136E+03  0.53322078638E+02  0.23971253840E+03  0.26851844897E+03  0.00000000000E+00 0. -1.
         22    1    3    3    0    0  0.10109508003E+03 -0.92482895930E+02  0.94336500008E+02  0.16635106396E+03  0.00000000000E+00 0. -1.
         22    1    3    3    0    0 -0.24551071261E+02  0.57520130453E+01  0.53615499570E+02  0.59249156520E+02  0.00000000000E+00 0. -1.
</event>
<event>
 7    1  0.5139898E-006  0.5326915E+02  0.7818608E-02  0.1542416E+00
          2   -1    0    0  502    0  0.00000000000E+00  0.00000000000E+00  0.74695634944E+03  0.74695634944E+03  0.00000000000E+00 0. -1.
          1   -1    0    0  501    0 -0.00000000000E+00 -0.00000000000E+00 -0.24564047114E+04  0.24564047114E+04  0.00000000000E+00 0. -1.
         25    2    1    2    0    0  0.24911204546E+02 -0.27582307631E+02  0.45353742619E+03  0.47191428813E+03  0.12500218629E+03 0.  0.
          2    1    1    2  501    0 -0.48298682720E+02  0.22496920013E+02 -0.24464218478E+04  0.24470019885E+04  0.00000000000E+00 0. -1.
          1    1    1    2  502    0  0.23387478174E+02  0.50853876184E+01  0.28343605972E+03  0.28444478419E+03  0.00000000000E+00 0. -1.
         22    1    3    3    0    0  0.72121870680E+02 -0.70874345245E+01  0.18901369895E+03  0.20243017154E+03  0.00000000000E+00 0. -1.
         22    1    3    3    0    0 -0.47210666134E+02 -0.20494873107E+02  0.26452372724E+03  0.26948411659E+03  0.00000000000E+00 0. -1.
</event>
<event>
 7    1  0.5139898E-006  0.6848270E+02  0.7818608E-02  0.1395673E+00
          2   -1    0    0  502    0  0.00000000000E+00  0.00000000000E+00  0.19611174339E+03  0.19611174339E+03  0.00000000000E+00 0. -1.
          1   -1    0    0  501    0 -0.00000000000E+00 -0.00000000000E+00 -0.71721514953E+03  0.71721514953E+03  0.00000000000E+00 0. -1.
         25    2    1    2    0    0  0.35153422782E+01  0.23989129216E+02 -0.23047238797E+03  0.26330554592E+03  0.12499781176E+03 0.  0.
          2    1    1    2  501    0  0.26667179796E+01 -0.77109199157E+02 -0.46308357495E+03  0.46946707804E+03  0.00000000000E+00 0. -1.
          1    1    1    2  502    0 -0.61820602578E+01  0.53120069941E+02  0.17245255677E+03  0.18055426895E+03  0.00000000000E+00 0. -1.
         22    1    3    3    0    0 -0.48658481628E+02  0.26282444444E+02 -0.18807753210E+03  0.19603972250E+03  0.00000000000E+00 0.  1.
         22    1    3    3    0    0  0.52173823906E+02 -0.22933152282E+01 -0.42394855873E+02  0.67265823419E+02  0.00000000000E+00 0.  1.
</event>
<event>
 7    1  0.5139898E-006  0.9400165E+02  0.7818608E-02  0.1312896E+00
          2   -1    0    0  502    0  0.00000000000E+00  0.00000000000E+00  0.78250818130E+03  0.78250818130E+03  0.00000000000E+00 0. -1.
          1   -1    0    0  501    0 -0.00000000000E+00 -0.00000000000E+00 -0.52231945739E+03  0.52231945739E+03  0.00000000000E+00 0. -1.
         25    2    1    2    0    0  0.79696014137E+02 -0.13101402750E+02  0.39173555055E+01  0.14887468918E+03  0.12500090392E+03 0.  0.
          2    1    1    2  501    0 -0.47133263496E+02  0.84681352856E+02 -0.44238933042E+03  0.45288055348E+03  0.00000000000E+00 0. -1.
          1    1    1    2  502    0 -0.32562750640E+02 -0.71579950107E+02  0.69866069882E+03  0.70307239603E+03  0.00000000000E+00 0. -1.
         22    1    3    3    0    0  0.66775125225E+02 -0.47400176980E+02  0.45309454150E+02  0.93587610088E+02  0.00000000000E+00 0.  1.
         22    1    3    3    0    0  0.12920888911E+02  0.34298774231E+02 -0.41392098645E+02  0.55287079089E+02  0.00000000000E+00 0.  1.
</event>
<event>
 7    1  0.5139898E-006  0.6992597E+02  0.7818608E-02  0.1512036E+00
          2   -1    0    0  502    0  0.00000000000E+00  0.00000000000E+00  0.20659010218E+03  0.20659010218E+03  0.00000000000E+00 0. -1.
          1   -1    0    0  501    0 -0.00000000000E+00 -0.00000000000E+00 -0.20361362713E+03  0.20361362713E+03  0.00000000000E+00 0. -1.
         25    2    1    2    0    0 -0.66196577418E+02 -0.21172496675E+02  0.11494318322E+01  0.14302566040E+03  0.12499902745E+03 0.  0.
          2    1    1    2  501    0  0.56900492140E+02  0.41437951186E+02 -0.12227537225E+03  0.14108875385E+03  0.00000000000E+00 0. -1.
          1    1    1    2  502    0  0.92960852771E+01 -0.20265454512E+02  0.12410241546E+03  0.12608931506E+03  0.00000000000E+00 0. -1.
         22    1    3    3    0    0 -0.65005015748E+02 -0.69178505084E+02 -0.13845345221E+01  0.94938056510E+02  0.00000000000E+00 0.  1.
         22    1    3    3    0    0 -0.11915616698E+01  0.48006008410E+02  0.25339663543E+01  0.48087603892E+02  0.00000000000E+00 0.  1.
</event>
<event>
 7    1  0.5139898E-006  0.6530726E+02  0.7818608E-02  0.1475435E+00
          2   -1    0    0  502    0  0.00000000000E+00  0.00000000000E+00  0.17165085949E+04  0.17165085949E+04  0.00000000000E+00 0. -1.
          1   -1    0    0  501    0 -0.00000000000E+00 -0.00000000000E+00 -0.52553882309E+02  0.52553882309E+02  0.00000000000E+00 0. -1.
         25    2    1    2    0    0  0.48026149923E+02 -0.15537978777E+02  0.36672006818E+03  0.39071269219E+03  0.12499943829E+03 0.  0.
          2    1    1    2  501    0 -0.47926522268E-01 -0.30767075414E+02 -0.33765392076E+02  0.45680596850E+02  0.00000000000E+00 0. -1.
          1    1    1    2  502    0 -0.47978223400E+02  0.46305054192E+02  0.13310000365E+04  0.13326691882E+04  0.00000000000E+00 0. -1.
         22    1    3    3    0    0 -0.28258306661E+02  0.22811610039E+02  0.44845567232E+02  0.57706380482E+02  0.00000000000E+00 0.  1.
         22    1    3    3    0    0  0.76284456584E+02 -0.38349588816E+02  0.32187450095E+03  0.33300631171E+03  0.00000000000E+00 0.  1.
</event>
<event>
 7    1  0.5139898E-006  0.6967087E+02  0.7818608E-02  0.1431220E+00
          2   -1    0    0  502    0  0.00000000000E+00  0.00000000000E+00  0.14549353044E+04  0.14549353044E+04  0.00000000000E+00 0. -1.
          1   -1    0    0  501    0 -0.00000000000E+00 -0.00000000000E+00 -0.83870722514E+02  0.83870722514E+02  0.00000000000E+00 0. -1.
         25    2    1    2    0    0 -0.72107303199E+02  0.75361109862E+02  0.40698434644E+03  0.43833836521E+03  0.12500201645E+03 0.  0.
          2    1    1    2  501    0  0.34965561604E+02 -0.19193690417E+02 -0.61160612020E+02  0.73017865709E+02  0.00000000000E+00 0. -1.
          1    1    1    2  502    0  0.37141741595E+02 -0.56167419444E+02  0.10252408475E+04  0.10274497960E+04  0.00000000000E+00 0. -1.
         22    1    3    3    0    0  0.13881373016E+02 -0.22603108458E+02  0.33307939666E+02  0.42579477140E+02  0.00000000000E+00 0. -1.
         22    1    3    3    0    0 -0.85988676215E+02  0.97964218320E+02  0.37367640678E+03  0.39575888807E+03  0.00000000000E+00 0. -1.
</event>
<event>
 7    1  0.5139898E-006  0.8286821E+02  0.7818608E-02  0.1473077E+00
          2   -1    0    0  502    0  0.00000000000E+00  0.00000000000E+00  0.91031183596E+03  0.91031183596E+03  0.00000000000E+00 0. -1.
          1   -1    0    0  501    0 -0.00000000000E+00 -0.00000000000E+00 -0.60927841526E+03  0.60927841526E+03  0.00000000000E+00 0. -1.
         25    2    1    2    0    0 -0.70659630386E+02  0.26472969068E+01 -0.14533487775E+03  0.20431547079E+03  0.12499117316E+03 0.  0.
          2    1    1    2  501    0 -0.99522285689E+01 -0.22559918837E+02 -0.43214409439E+03  0.43284698810E+03  0.00000000000E+00 0. -1.
          1    1    1    2  502    0  0.80611858955E+02  0.19912621930E+02  0.87851239284E+03  0.88242779234E+03  0.00000000000E+00 0. -1.
         22    1    3    3    0    0 -0.61687532458E+02 -0.58105003302E+01 -0.36211070357E+01  0.62066303185E+02  0.00000000000E+00 0.  1.
         22    1    3    3    0    0 -0.89720979278E+01  0.84577972370E+01 -0.14171377071E+03  0.14224916761E+03  0.00000000000E+00 0.  1.
</event>
<event>
 7    1  0.5139898E-006  0.5072011E+02  0.7818608E-02  0.1556171E+00
          2   -1    0    0  502    0  0.00000000000E+00  0.00000000000E+00  0.99780302726E+03  0.99780302726E+03  0.00000000000E+00 0. -1.
          1   -1    0    0  501    0 -0.00000000000E+00 -0.00000000000E+00 -0.59608953195E+03  0.59608953195E+03  0.00000000000E+00 0. -1.
         25    2    1    2    0    0  0.47608872315E+02 -0.26855052279E+02  0.48373901673E+03  0.50260968884E+03  0.12500105782E+03 0.  0.
          2    1    1    2  501    0  0.30180055888E+01  0.22810648269E+02 -0.58514962530E+03  0.58560184257E+03  0.00000000000E+00 0. -1.
          1    1    1    2  502    0 -0.50626877903E+02  0.40444040092E+01  0.50312410388E+03  0.50568102779E+03  0.00000000000E+00 0. -1.
         22    1    3    3    0    0  0.51311283914E+02  0.41785036293E+02  0.27473479008E+03  0.28259165238E+03  0.00000000000E+00 0.  1.
         22    1    3    3    0    0 -0.37024115990E+01 -0.68640088572E+02  0.20900422666E+03  0.22001803647E+03  0.00000000000E+00 0.  1.
</event>
<event>
 7    1  0.5139898E-006  0.1021904E+03  0.7818608E-02  0.1436306E+00
          2   -1    0    0  502    0  0.00000000000E+00  0.00000000000E+00  0.32218895125E+03  0.32218895125E+03  0.00000000000E+00 0. -1.
          1   -1    0    0  501    0 -0.00000000000E+00 -0.00000000000E+00 -0.10951981351E+04  0.10951981351E+04  0.00000000000E+00 0. -1.
         25    2    1    2    0    0 -0.61106698131E+02 -0.99396429203E+02  0.88336363880E+01  0.17121947065E+03  0.12499758119E+03 0.  0.
          2    1    1    2  501    0  0.35218724151E+02  0.95557928490E+02 -0.10107004641E+04  0.10158184406E+04  0.00000000000E+00 0. -1.
          1    1    1    2  502    0  0.25887973980E+02  0.38385007134E+01  0.22885764387E+03  0.23034917504E+03  0.00000000000E+00 0. -1.
         22    1    3    3    0    0 -0.96937395149E+01  0.11541726904E+02  0.41921811524E+02  0.44549055290E+02  0.00000000000E+00 0. -1.
         22    1    3    3    0    0 -0.51412958616E+02 -0.11093815611E+03 -0.33088175136E+02  0.12667041536E+03  0.00000000000E+00 0. -1.
</event>
<event>
 7    1  0.5139898E-006  0.1549369E+03  0.7818608E-02  0.1307151E+00
          2   -1    0    0  502    0  0.00000000000E+00  0.00000000000E+00  0.17448021419E+04  0.17448021419E+04  0.00000000000E+00 0. -1.
          1   -1    0    0  501    0 -0.00000000000E+00 -0.00000000000E+00 -0.82621389369E+03  0.82621389369E+03  0.00000000000E+00 0. -1.
         25    2    1    2    0    0  0.62232772484E+02 -0.18258383045E+03  0.40096554865E+03  0.46217821186E+03  0.12500222079E+03 0.  0.
          2    1    1    2  501    0 -0.21746986983E+02  0.15279553552E+03 -0.78763463123E+03  0.80261305710E+03  0.00000000000E+00 0. -1.
          1    1    1    2  502    0 -0.40485785501E+02  0.29788294929E+02  0.13052573308E+04  0.13062247666E+04  0.00000000000E+00 0. -1.
         22    1    3    3    0    0  0.98203147064E+02 -0.13093588375E+03  0.32190079611E+03  0.36112073644E+03  0.00000000000E+00 0. -1.
         22    1    3    3    0    0 -0.35970374581E+02 -0.51647946695E+02  0.79064752539E+02  0.10105747543E+03  0.00000000000E+00 0. -1.
</event>
<event>
 7    1  0.5139898E-006  0.8627018E+02  0.7818608E-02  0.1352788E+00
          2   -1    0    0  502    0  0.00000000000E+00  0.00000000000E+00  0.18294890133E+03  0.18294890133E+03  0.00000000000E+00 0. -1.
          1   -1    0    0  501    0 -0.00000000000E+00 -0.00000000000E+00 -0.66381502236E+03  0.66381502236E+03  0.00000000000E+00 0. -1.
         25    2    1    2    0    0  0.70934815005E+02 -0.48896586431E+02  0.31737421717E+02  0.15509499211E+03  0.12499827398E+03 0.  0.
          2    1    1    2  501    0 -0.21888659760E+02  0.84171695502E+02 -0.58837090097E+03  0.59476407495E+03  0.00000000000E+00 0. -1.
          1    1    1    2  502    0 -0.49046155244E+02 -0.35275109072E+02  0.75767358221E+02  0.96904856618E+02  0.00000000000E+00 0. -1.
         22    1    3    3    0    0  0.68207752450E+02  0.59101289616E+01  0.62055667604E+02  0.92402018378E+02  0.00000000000E+00 0.  1.
         22    1    3    3    0    0  0.27270625542E+01 -0.54806715392E+02 -0.30318245887E+02  0.62692973736E+02  0.00000000000E+00 0.  1.
</event>
<event>
 7    1  0.5139898E-006  0.1437636E+03  0.7818608E-02  0.1238239E+00
          2   -1    0    0  502    0  0.00000000000E+00  0.00000000000E+00  0.13409243424E+04  0.13409243424E+04  0.00000000000E+00 0. -1.
          1   -1    0    0  501    0 -0.00000000000E+00 -0.00000000000E+00 -0.57275317274E+03  0.57275317274E+03  0.00000000000E+00 0. -1.
         25    2    1    2    0    0  0.11101908683E+03 -0.14519956780E+02 -0.40359933723E+02  0.17259600146E+03  0.12499755472E+03 0.  0.
          2    1    1    2  501    0 -0.12674827763E+03 -0.89521906825E+02 -0.45111007129E+03  0.47705303070E+03  0.00000000000E+00 0. -1.
          1    1    1    2  502    0  0.15729190800E+02  0.10404186361E+03  0.12596411747E+04  0.12640284830E+04  0.00000000000E+00 0. -1.
         22    1    3    3    0    0  0.12072861818E+03 -0.49297857749E+02 -0.40290409088E+02  0.13648807673E+03  0.00000000000E+00 0. -1.
         22    1    3    3    0    0 -0.97095313499E+01  0.34777900969E+02 -0.69524635398E-01  0.36107924733E+02  0.00000000000E+00 0. -1.
</event>
<event>
 7    1  0.5139898E-006  0.4578323E+02  0.7818608E-02  0.1530863E+00
          2   -1    0    0  502    0  0.00000000000E+00  0.00000000000E+00  0.12499889298E+04  0.12499889298E+04  0.00000000000E+00 0. -1.
          1   -1    0    0  501    0 -0.00000000000E+00 -0.00000000000E+00 -0.32146933421E+03  0.32146933421E+03  0.00000000000E+00 0. -1.
         25    2    1    2    0    0 -0.23370516847E+02 -0.29408214329E+02  0.26235604744E+02  0.13313305771E+03  0.12500031988E+03 0.  0.
          2    1    1    2  501    0 -0.15403602828E+01  0.46183076455E+02 -0.26583448620E+03  0.26982072440E+03  0.00000000000E+00 0. -1.
          1    1    1    2  502    0  0.24910877130E+02 -0.16774862126E+02  0.11681184770E+04  0.11685044819E+04  0.00000000000E+00 0. -1.
         22    1    3    3    0    0  0.15896482727E+02 -0.77884506993E+01  0.68967498415E+02  0.71203047442E+02  0.00000000000E+00 0. -1.
         22    1    3    3    0    0 -0.39266999574E+02 -0.21619763629E+02 -0.42731893671E+02  0.61930010267E+02  0.00000000000E+00 0. -1.
</event>
<event>
 7    1  0.5139898E-006  0.3865540E+02  0.7818608E-02  0.1545541E+00
          2   -1    0    0  502    0  0.00000000000E+00  0.00000000000E+00  0.55217911931E+03  0.55217911931E+03  0.00000000000E+00 0. -1.
          1   -1    0    0  501    0 -0.00000000000E+00 -0.00000000000E+00 -0.21383071912E+03  0.21383071912E+03  0.00000000000E+00 0. -1.
         25    2    1    2    0    0 -0.94002012993E+01  0.12025254238E+02  0.21875621518E+03  0.25240895817E+03  0.12499211958E+03 0.  0.
          2    1    1    2  501    0 -0.10580585262E+02 -0.37431212645E+02 -0.19424616265E+03  0.19810253953E+03  0.00000000000E+00 0. -1.
          1    1    1    2  502    0  0.19980786561E+02  0.25405958407E+02  0.31383834765E+03  0.31549834074E+03  0.00000000000E+00 0. -1.
         22    1    3    3    0    0  0.25556904041E+02  0.41972962113E+02  0.19403183230E+03  0.20015802966E+03  0.00000000000E+00 0. -1.
         22    1    3    3    0    0 -0.34957105341E+02 -0.29947707875E+02  0.24724382883E+02  0.52250928506E+02  0.00000000000E+00 0. -1.
</event>
<event>
 7    1  0.5139898E-006  0.9638830E+02  0.7818608E-02  0.1361538E+00
          2   -1    0    0  502    0  0.00000000000E+00  0.00000000000E+00  0.79871746123E+03  0.79871746123E+03  0.00000000000E+00 0. -1.
          1   -1    0    0  501    0 -0.00000000000E+00 -0.00000000000E+00 -0.34036707596E+03  0.34036707596E+03  0.00000000000E+00 0. -1.
         25    2    1    2    0    0 -0.13681448236E+02 -0.54193621877E+02  0.10177726040E+03  0.17061364582E+03  0.12500509881E+03 0.  0.
          2    1    1    2  501    0  0.17932146074E+02 -0.46912738286E+02 -0.29998488193E+03  0.30415998465E+03  0.00000000000E+00 0. -1.
          1    1    1    2  502    0 -0.42506978382E+01  0.10110636016E+03  0.65655800680E+03  0.66431090672E+03  0.00000000000E+00 0. -1.
         22    1    3    3    0    0 -0.34980918892E+00 -0.82292824173E+02  0.22290743760E+02  0.85259067167E+02  0.00000000000E+00 0.  1.
         22    1    3    3    0    0 -0.13331639047E+02  0.28099202296E+02  0.79486516645E+02  0.85354578656E+02  0.00000000000E+00 0.  1.
</event>
<event>
 7    1  0.5139898E-006  0.9097937E+02  0.7818608E-02  0.1419050E+00
          2   -1    0    0  502    0  0.00000000000E+00  0.00000000000E+00  0.68620158198E+03  0.68620158198E+03  0.00000000000E+00 0. -1.
          1   -1    0    0  501    0 -0.00000000000E+00 -0.00000000000E+00 -0.31305122798E+02  0.31305122798E+02  0.00000000000E+00 0. -1.
         25    2    1    2    0    0 -0.35286532941E+02  0.89868839055E+02  0.34543853062E+03  0.37983836201E+03  0.12501142017E+03 0.  0.
          2    1    1    2  501    0  0.33514806686E+02  0.50694086816E+00  0.33941570635E+02  0.47702510138E+02  0.00000000000E+00 0. -1.
          1    1    1    2  502    0  0.17717262544E+01 -0.90375779923E+02  0.27551635792E+03  0.28996583263E+03  0.00000000000E+00 0. -1.
         22    1    3    3    0    0  0.18902470374E+02  0.94608726385E+02  0.27086165965E+03  0.28753113425E+03  0.00000000000E+00 0. -1.
         22    1    3    3    0    0 -0.54189003315E+02 -0.47398873296E+01  0.74576870973E+02  0.92307227758E+02  0.00000000000E+00 0. -1.
</event>
<event>
 7    1  0.5139898E-006  0.1273620E+03  0.7818608E-02  0.1397894E+00
          2   -1    0    0  502    0  0.00000000000E+00  0.00000000000E+00  0.94525080757E+03  0.94525080757E+03  0.00000000000E+00 0. -1.
          1   -1    0    0  501    0 -0.00000000000E+00 -0.00000000000E+00 -0.50247881943E+03  0.50247881943E+03  0.00000000000E+00 0. -1.
         25    2    1    2    0    0  0.57209068648E+02  0.97578650467E+02  0.64367066979E+02  0.18045925736E+03  0.12501181422E+03 0.  0.
          2    1    1    2  501    0  0.28225256961E+02 -0.12281528921E+01 -0.43893761880E+03  0.43984588970E+03  0.00000000000E+00 0. -1.
          1    1    1    2  502    0 -0.85434325609E+02 -0.96350497575E+02  0.81734253996E+03  0.82742447994E+03  0.00000000000E+00 0. -1.
         22    1    3    3    0    0 -0.25738224603E+02  0.10580983492E+02  0.52820304690E+02  0.59702579550E+02  0.00000000000E+00 0.  1.
         22    1    3    3    0    0  0.82947293250E+02  0.86997666975E+02  0.11546762289E+02  0.12075667781E+03  0.00000000000E+00 0.  1.
</event>
<event>
 7    1  0.5139898E-006  0.1486189E+03  0.7818608E-02  0.1342109E+00
          2   -1    0    0  502    0  0.00000000000E+00  0.00000000000E+00  0.29825981553E+03  0.29825981553E+03  0.00000000000E+00 0. -1.
          1   -1    0    0  501    0 -0.00000000000E+00 -0.00000000000E+00 -0.27153365188E+03  0.27153365188E+03  0.00000000000E+00 0. -1.
         25    2    1    2    0    0  0.98057729210E+02  0.83768769131E+02 -0.93142517665E+02  0.20231828901E+03  0.12499854611E+03 0.  0.
          2    1    1    2  501    0 -0.64675291636E+01  0.37879719222E+02 -0.95941841245E+02  0.10335153102E+03  0.00000000000E+00 0. -1.
          1    1    1    2  502    0 -0.91590200047E+02 -0.12164848835E+03  0.21581052256E+03  0.26412364739E+03  0.00000000000E+00 0. -1.
         22    1    3    3    0    0  0.20203541163E+02 -0.24659591093E+02 -0.54865356838E+02  0.63454597071E+02  0.00000000000E+00 0. -1.
         22    1    3    3    0    0  0.77854188047E+02  0.10842836022E+03 -0.38277160827E+02  0.13886369194E+03  0.00000000000E+00 0. -1.
</event>
<event>
 7    1  0.5139898E-006  0.2433609E+03  0.7818608E-02  0.1215055E+00
          2   -1    0    0  502    0  0.00000000000E+00  0.00000000000E+00  0.17384718108E+04  0.17384718108E+04  0.00000000000E+00 0. -1.
          1   -1    0    0  501    0 -0.00000000000E+00 -0.00000000000E+00 -0.82807838491E+02  0.82807838491E+02  0.00000000000E+00 0. -1.
         25    2    1    2    0    0 -0.24404510249E+03 -0.38608559861E+02  0.44925594942E+03  0.52773615957E+03  0.12500365229E+03 0.  0.
          2    1    1    2  501    0  0.26432051294E+02 -0.74530507945E+02  0.19349596881E+02  0.81411650577E+02  0.00000000000E+00 0. -1.
          1    1    1    2  502    0  0.21761305119E+03  0.11313906781E+03  0.11870584260E+04  0.12121318392E+04  0.00000000000E+00 0. -1.
         22    1    3    3    0    0 -0.22389522224E+03 -0.74311131458E+02  0.38244017204E+03  0.44934585788E+03  0.00000000000E+00 0.  1.
         22    1    3    3    0    0 -0.20149880244E+02  0.35702571597E+02  0.66815777378E+02  0.78390301691E+02  0.00000000000E+00 0.  1.
</event>
<event>
 7    1  0.5139898E-006  0.4032984E+02  0.7818608E-02  0.1548337E+00
          2   -1    0    0  502    0  0.00000000000E+00  0.00000000000E+00  0.70794685172E+03  0.70794685172E+03  0.00000000000E+00 0. -1.
          1   -1    0    0  501    0 -0.00000000000E+00 -0.00000000000E+00 -0.26035781544E+04  0.26035781544E+04  0.00000000000E+00 0. -1.
         25    2    1    2    0    0  0.31802543325E+01  0.24495069491E+02  0.39594422906E+03  0.41594051327E+03  0.12499822240E+03 0.  0.
          2    1    1    2  501    0  0.26698690831E+02 -0.30239480611E+02 -0.25926563766E+04  0.25929701760E+04  0.00000000000E+00 0. -1.
          1    1    1    2  502    0 -0.29878945163E+02  0.57444111201E+01  0.30108084488E+03  0.30261431687E+03  0.00000000000E+00 0. -1.
         22    1    3    3    0    0  0.17953455583E+02  0.67892526020E+02  0.14827910979E+03  0.16406832740E+03  0.00000000000E+00 0. -1.
         22    1    3    3    0    0 -0.14773201251E+02 -0.43397456530E+02  0.24766511927E+03  0.25187218587E+03  0.00000000000E+00 0. -1.
</event>
<event>
 7    1  0.5139898E-006  0.1035427E+03  0.7818608E-02  0.1357502E+00
          2   -1    0    0  502    0  0.00000000000E+00  0.00000000000E+00  0.17017801808E+04  0.17017801808E+04  0.00000000000E+00 0. -1.
          1   -1    0    0  501    0 -0.00000000000E+00 -0.00000000000E+00 -0.51798875645E+02  0.51798875645E+02  0.00000000000E+00 0. -1.
         25    2    1    2    0    0  0.28909650155E+00  0.10685845713E+03  0.17341937217E+03  0.23899427559E+03  0.12500068674E+03 0.  0.
          2    1    1    2  501    0 -0.47117778386E+02 -0.94756851125E+02  0.13213692220E+03  0.16929002358E+03  0.00000000000E+00 0. -1.
          1    1    1    2  502    0  0.46828681884E+02 -0.12101606001E+02  0.13444250108E+04  0.13452947573E+04  0.00000000000E+00 0. -1.
         22    1    3    3    0    0  0.22914935006E+02 -0.11529974189E+02  0.86948440965E+02  0.90653548951E+02  0.00000000000E+00 0.  1.
         22    1    3    3    0    0 -0.22625838505E+02  0.11838843131E+03  0.86470931202E+02  0.14834072664E+03  0.00000000000E+00 0.  1.
</event>
<event>
 7    1  0.5139898E-006  0.1986835E+03  0.7818608E-02  0.1258535E+00
          2   -1    0    0  502    0  0.00000000000E+00  0.00000000000E+00  0.88477633023E+03  0.88477633023E+03  0.00000000000E+00 0. -1.
          1   -1    0    0  501    0 -0.00000000000E+00 -0.00000000000E+00 -0.63644767860E+03  0.63644767860E+03  0.00000000000E+00 0. -1.
         25    2    1    2    0    0 -0.96898725129E+02  0.11396216907E+03  0.50892374714E+02  0.20146986068E+03  0.12499332801E+03 0.  0.
          2    1    1    2  501    0  0.15489854378E+03 -0.13624201311E+03 -0.54085111790E+03  0.57885695706E+03  0.00000000000E+00 0. -1.
          1    1    1    2  502    0 -0.57999818652E+02  0.22279844045E+02  0.73828739481E+03  0.74089719108E+03  0.00000000000E+00 0. -1.
         22    1    3    3    0    0 -0.11127460015E+03  0.13144740511E+03  0.43140999348E+02  0.17754324198E+03  0.00000000000E+00 0.  1.
         22    1    3    3    0    0  0.14375875023E+02 -0.17485236043E+02  0.77513753667E+01  0.23926618696E+02  0.00000000000E+00 0.  1.
</event>
<event>
 7    1  0.5139898E-006  0.7633872E+02  0.7818608E-02  0.1464232E+00
          2   -1    0    0  502    0  0.00000000000E+00  0.00000000000E+00  0.17537524349E+04  0.17537524349E+04  0.00000000000E+00 0. -1.
          1   -1    0    0  501    0 -0.00000000000E+00 -0.00000000000E+00 -0.12838204221E+03  0.12838204221E+03  0.00000000000E+00 0. -1.
         25    2    1    2    0    0 -0.79634436166E+02 -0.18308194540E+02  0.22519274542E+03  0.27021061338E+03  0.12500067832E+03 0.  0.
          2    1    1    2  501    0  0.15901321765E+02 -0.23676414279E+02 -0.10296651350E+03  0.10684347209E+03  0.00000000000E+00 0. -1.
          1    1    1    2  502    0  0.63733114401E+02  0.41984608819E+02  0.15031441607E+04  0.15050803916E+04  0.00000000000E+00 0. -1.
         22    1    3    3    0    0  0.13117161535E+02 -0.48722456238E+02  0.60661160864E+02  0.78903194524E+02  0.00000000000E+00 0. -1.
         22    1    3    3    0    0 -0.92751597701E+02  0.30414261698E+02  0.16453158456E+03  0.19130741885E+03  0.00000000000E+00 0. -1.
</event>
<event>
 7    1  0.5139898E-006  0.7515747E+02  0.7818608E-02  0.1506941E+00
          2   -1    0    0  502    0  0.00000000000E+00  0.00000000000E+00  0.44715784504E+03  0.44715784504E+03  0.00000000000E+00 0. -1.
          1   -1    0    0  501    0 -0.00000000000E+00 -0.00000000000E+00 -0.51878685673E+03  0.51878685673E+03  0.00000000000E+00 0. -1.
         25    2    1    2    0    0 -0.51718658093E+02 -0.63410773746E+02  0.43884089838E+02  0.15571534741E+03  0.12500284099E+03 0.  0.
          2    1    1    2  501    0  0.30834726146E+02  0.68407461713E+02 -0.45949322994E+03  0.46557962747E+03  0.00000000000E+00 0. -1.
          1    1    1    2  502    0  0.20883931947E+02 -0.49966879672E+01  0.34398012841E+03  0.34464972689E+03  0.00000000000E+00 0. -1.
         22    1    3    3    0    0  0.29690559703E+02 -0.35636437436E+02 -0.17996207634E+02  0.49752874267E+02  0.00000000000E+00 0. -1.
         22    1    3    3    0    0 -0.81409217796E+02 -0.27774336310E+02  0.61880297472E+02  0.10596247314E+03  0.00000000000E+00 0. -1.
</event>
<event>
 7    1  0.5139898E-006  0.7720718E+02  0.7818608E-02  0.1398963E+00
          2   -1    0    0  502    0  0.00000000000E+00  0.00000000000E+00  0.52333651735E+03  0.52333651735E+03  0.00000000000E+00 0. -1.
          1   -1    0    0  501    0 -0.00000000000E+00 -0.00000000000E+00 -0.91488067082E+02  0.91488067082E+02  0.00000000000E+00 0. -1.
         25    2    1    2    0    0 -0.41387001059E+01 -0.41218321463E+02  0.17960299413E+03  0.22270931552E+03  0.12500449933E+03 0.  0.
          2    1    1    2  501    0 -0.22949460223E+02  0.78657627655E+02 -0.43508927084E+02  0.92772446603E+02  0.00000000000E+00 0. -1.
          1    1    1    2  502    0  0.27088160328E+02 -0.37439306192E+02  0.29575438322E+03  0.29934282232E+03  0.00000000000E+00 0. -1.
         22    1    3    3    0    0 -0.10077490432E+02  0.44567234843E+02  0.61266340341E+02  0.76428781841E+02  0.00000000000E+00 0. -1.
         22    1    3    3    0    0  0.59387903258E+01 -0.85785556306E+02  0.11833665379E+03  0.14628053367E+03  0.00000000000E+00 0. -1.
</event>
<event>
 7    1  0.5139898E-006  0.1312899E+03  0.7818608E-02  0.1238415E+00
          2   -1    0    0  502    0  0.00000000000E+00  0.00000000000E+00  0.93346670159E+03  0.93346670159E+03  0.00000000000E+00 0. -1.
          1   -1    0    0  501    0 -0.00000000000E+00 -0.00000000000E+00 -0.13176006554E+04  0.13176006554E+04  0.00000000000E+00 0. -1.
         25    2    1    2    0    0  0.16245770549E+03 -0.72380223558E+02 -0.24844045233E+03  0.33011997503E+03  0.12500054688E+03 0.  0.
          2    1    1    2  501    0 -0.12517265204E+03 -0.36423238893E+02 -0.10204515423E+04  0.10287449613E+04  0.00000000000E+00 0. -1.
          1    1    1    2  502    0 -0.37285053454E+02  0.10880346245E+03  0.88475804084E+03  0.89220242069E+03  0.00000000000E+00 0. -1.
         22    1    3    3    0    0  0.96876201337E+02 -0.50639058773E+02 -0.23576726187E+03  0.25987595969E+03  0.00000000000E+00 0. -1.
         22    1    3    3    0    0  0.65581504153E+02 -0.21741164785E+02 -0.12673190466E+02  0.70244015331E+02  0.00000000000E+00 0. -1.
</event>
<event>
 7    1  0.5139898E-006  0.1593341E+03  0.7818608E-02  0.1213244E+00
          2   -1    0    0  502    0  0.00000000000E+00  0.00000000000E+00  0.78929461994E+02  0.78929461994E+02  0.00000000000E+00 0. -1.
          1   -1    0    0  501    0 -0.00000000000E+00 -0.00000000000E+00 -0.15942336912E+04  0.15942336912E+04  0.00000000000E+00 0. -1.
         25    2    1    2    0    0 -0.12688809136E+03  0.42088055047E+02 -0.15717271388E+03  0.24124769560E+03  0.12500078614E+03 0.  0.
          2    1    1    2  501    0  0.71171387449E+02 -0.15188241386E+03 -0.12687029107E+04  0.12797424388E+04  0.00000000000E+00 0. -1.
          1    1    1    2  502    0  0.55716703915E+02  0.10979435881E+03 -0.89428604598E+02  0.15217301877E+03  0.00000000000E+00 0. -1.
         22    1    3    3    0    0 -0.70930950552E+01 -0.15100943773E+02 -0.91752580995E+02  0.93257099566E+02  0.00000000000E+00 0.  1.
         22    1    3    3    0    0 -0.11979499631E+03  0.57188998821E+02 -0.65420132886E+02  0.14799059603E+03  0.00000000000E+00 0.  1.
</event>
<event>
 7    1  0.5139898E-006  0.1383265E+03  0.7818608E-02  0.1257302E+00
          2   -1    0    0  502    0  0.00000000000E+00  0.00000000000E+00  0.92065827445E+03  0.92065827445E+03  0.00000000000E+00 0. -1.
          1   -1    0    0  501    0 -0.00000000000E+00 -0.00000000000E+00 -0.19804290387E+04  0.19804290387E+04  0.00000000000E+00 0. -1.
         25    2    1    2    0    0  0.15029117534E+03  0.90116571134E+02 -0.69074862861E+02  0.22606403019E+03  0.12500070116E+03 0.  0.
          2    1    1    2  501    0 -0.13788481259E+03 -0.63846542850E+00 -0.18278329498E+04  0.18330264378E+04  0.00000000000E+00 0. -1.
          1    1    1    2  502    0 -0.12406362746E+02 -0.89478105705E+02  0.83713704848E+03  0.84199684511E+03  0.00000000000E+00 0. -1.
         22    1    3    3    0    0  0.77757418874E+02  0.11261267474E+02 -0.87227794522E+02  0.11739557263E+03  0.00000000000E+00 0.  1.
         22    1    3    3    0    0  0.72533756466E+02  0.78855303659E+02  0.18152931661E+02  0.10866845757E+03  0.00000000000E+00 0.  1.
</event>
<event>
 7    1  0.5139898E-006  0.3193855E+03  0.7818608E-02  0.1225397E+00
          2   -1    0    0  502    0  0.00000000000E+00  0.00000000000E+00  0.11178476319E+04  0.11178476319E+04  0.00000000000E+00 0. -1.
          1   -1    0    0  501    0 -0.00000000000E+00 -0.00000000000E+00 -0.54594709178E+03  0.54594709178E+03  0.00000000000E+00 0. -1.
         25    2    1    2    0    0  0.33883523884E+03 -0.56173590921E+02  0.58014546040E+02  0.37007353142E+03  0.12499575875E+03 0.  0.
          2    1    1    2  501    0 -0.37788239792E+02 -0.38656103812E+02 -0.36028321569E+03  0.36431612775E+03  0.00000000000E+00 0. -1.
          1    1    1    2  502    0 -0.30104699905E+03  0.94829694734E+02  0.87416920978E+03  0.92940506453E+03  0.00000000000E+00 0. -1.
         22    1    3    3    0    0  0.26097941757E+00  0.17763835677E+02 -0.34882643508E+01  0.18104970489E+02  0.00000000000E+00 0. -1.
         22    1    3    3    0    0  0.33857425942E+03 -0.73937426598E+02  0.61502810391E+02  0.35196856093E+03  0.00000000000E+00 0. -1.
</event>
<event>
 7    1  0.5139898E-006  0.7467915E+02  0.7818608E-02  0.1367246E+00
          2   -1    0    0  502    0  0.00000000000E+00  0.00000000000E+00  0.18484527631E+03  0.18484527631E+03  0.00000000000E+00 0. -1.
          1   -1    0    0  501    0 -0.00000000000E+00 -0.00000000000E+00 -0.59679290348E+03  0.59679290348E+03  0.00000000000E+00 0. -1.
         25    2    1    2    0    0 -0.36709570623E+02 -0.67599835732E+02 -0.31323601099E+03  0.34591761770E+03  0.12499947713E+03 0.  0.
          2    1    1    2  501    0 -0.24401925733E+02  0.76844116679E+02 -0.25511268848E+03  0.26754991324E+03  0.00000000000E+00 0. -1.
          1    1    1    2  502    0  0.61111496356E+02 -0.92442809463E+01  0.15640107230E+03  0.16817064885E+03  0.00000000000E+00 0. -1.
         22    1    3    3    0    0 -0.30486031836E+01 -0.32738870953E+00 -0.24294357210E+03  0.24296291978E+03  0.00000000000E+00 0. -1.
         22    1    3    3    0    0 -0.33660967440E+02 -0.67272447023E+02 -0.70292438900E+02  0.10295469792E+03  0.00000000000E+00 0. -1.
</event>
<event>
 7    1  0.5139898E-006  0.4392003E+02  0.7818608E-02  0.1592896E+00
          2   -1    0    0  502    0  0.00000000000E+00  0.00000000000E+00  0.21940404464E+04  0.21940404464E+04  0.00000000000E+00 0. -1.
          1   -1    0    0  501    0 -0.00000000000E+00 -0.00000000000E+00 -0.13150784070E+02  0.13150784070E+02  0.00000000000E+00 0. -1.
         25    2    1    2    0    0  0.24419010228E+01 -0.28113530232E+02  0.95258274967E+03  0.96116370438E+03  0.12500175273E+03 0.  0.
          2    1    1    2  501    0  0.12320222944E+02  0.43253795635E+02  0.48922901241E+02  0.66453961478E+02  0.00000000000E+00 0. -1.
          1    1    1    2  502    0 -0.14762123967E+02 -0.15140265403E+02  0.11793840115E+04  0.11795735647E+04  0.00000000000E+00 0. -1.
         22    1    3    3    0    0  0.23817205071E+02  0.43918704645E+02  0.28275923785E+03  0.28713916219E+03  0.00000000000E+00 0.  1.
         22    1    3    3    0    0 -0.21375304048E+02 -0.72032234877E+02  0.66982351182E+03  0.67402454219E+03  0.00000000000E+00 0.  1.
</event>
<event>
 7    1  0.5139898E-006  0.1433488E+03  0.7818608E-02  0.1343046E+00
          2   -1    0    0  502    0  0.00000000000E+00  0.00000000000E+00  0.28837907912E+04  0.28837907912E+04  0.00000000000E+00 0. -1.
          1   -1    0    0  501    0 -0.00000000000E+00 -0.00000000000E+00 -0.66199663854E+03  0.66199663854E+03  0.00000000000E+00 0. -1.
         25    2    1    2    0    0  0.43775752764E+02 -0.10471903408E+03  0.13808901487E+03  0.21811939484E+03  0.12500040699E+03 0.  0.
          2    1    1    2  501    0 -0.13794809366E+02 -0.37034096999E+02 -0.61941157922E+03  0.62067102846E+03  0.00000000000E+00 0. -1.
          1    1    1    2  502    0 -0.29980943398E+02  0.14175313108E+03  0.27031167170E+04  0.27069970064E+04  0.00000000000E+00 0. -1.
         22    1    3    3    0    0 -0.37659127975E+02 -0.31887374504E+01  0.22094006453E+02  0.43778111968E+02  0.00000000000E+00 0. -1.
         22    1    3    3    0    0  0.81434880739E+02 -0.10153029663E+03  0.11599500842E+03  0.17434128287E+03  0.00000000000E+00 0. -1.
</event>
<event>
 7    1  0.5139898E-006  0.1378792E+03  0.7818608E-02  0.1239385E+00
          2   -1    0    0  502    0  0.00000000000E+00  0.00000000000E+00  0.17305855215E+04  0.17305855215E+04  0.00000000000E+00 0. -1.
          1   -1    0    0  501    0 -0.00000000000E+00 -0.00000000000E+00 -0.49245323279E+02  0.49245323279E+02  0.00000000000E+00 0. -1.
         25    2    1    2    0    0 -0.53529134127E+02 -0.24232047944E+02  0.49994933198E+03  0.51867789730E+03  0.12499946502E+03 0.  0.
          2    1    1    2  501    0  0.15156596866E+03  0.70584901226E+02  0.15167535795E+03  0.22574296300E+03  0.00000000000E+00 0. -1.
          1    1    1    2  502    0 -0.98036834531E+02 -0.46352853282E+02  0.10297155083E+04  0.10354099845E+04  0.00000000000E+00 0. -1.
         22    1    3    3    0    0  0.47517045852E+01  0.12643757103E+02 -0.48276335834E+00  0.13515781538E+02  0.00000000000E+00 0. -1.
         22    1    3    3    0    0 -0.58280838712E+02 -0.36875805047E+02  0.50043209533E+03  0.50516211576E+03  0.00000000000E+00 0. -1.
</event>
<event>
 7    1  0.5139898E-006  0.1264771E+03  0.7818608E-02  0.1326828E+00
          2   -1    0    0  502    0  0.00000000000E+00  0.00000000000E+00  0.12394661930E+04  0.12394661930E+04  0.00000000000E+00 0. -1.
          1   -1    0    0  501    0 -0.00000000000E+00 -0.00000000000E+00 -0.35979090431E+03  0.35979090431E+03  0.00000000000E+00 0. -1.
         25    2    1    2    0    0 -0.16758144746E+03 -0.27367661705E+02  0.34190637641E+03  0.40169524227E+03  0.12500626782E+03 0.  0.
          2    1    1    2  501    0  0.51396190969E+02 -0.46339638796E+01 -0.32365797284E+03  0.32774612957E+03  0.00000000000E+00 0. -1.
          1    1    1    2  502    0  0.11618525649E+03  0.32001625584E+02  0.86142688510E+03  0.86981572545E+03  0.00000000000E+00 0. -1.
         22    1    3    3    0    0  0.14961047220E+02 -0.23856521907E+02  0.41264697231E+02  0.49957399942E+02  0.00000000000E+00 0. -1.
         22    1    3    3    0    0 -0.18254249468E+03 -0.35111397977E+01  0.30064167918E+03  0.35173784233E+03  0.00000000000E+00 0. -1.
</event>
<event>
 7    1  0.5146930E-006  0.6003467E+02  0.7818608E-02  0.1401456E+00
          2   -1    0    0  502    0  0.00000000000E+00  0.00000000000E+00  0.20489622459E+04  0.20489622459E+04  0.00000000000E+00 0. -1.
          1   -1    0    0  501    0 -0.00000000000E+00 -0.00000000000E+00 -0.94066967288E+03  0.94066967288E+03  0.00000000000E+00 0. -1.
         25    2    1    2    0    0 -0.84013336713E+01  0.79792777739E+01  0.88542017517E+02  0.15362288925E+03  0.12500420775E+03 0.  0.
          2    1    1    2  501    0 -0.45274751750E+02 -0.36679714486E+02 -0.90671340992E+03  0.90858373985E+03  0.00000000000E+00 0. -1.
          1    1    1    2  502    0  0.53676085421E+02  0.28700436712E+02  0.19264639655E+04  0.19274252897E+04  0.00000000000E+00 0. -1.
         22    1    3    3    0    0 -0.62653158885E+02 -0.14214484670E+02  0.61980903827E+02  0.89269828788E+02  0.00000000000E+00 0. -1.
         22    1    3    3    0    0  0.54251825214E+02  0.22193762444E+02  0.26561113690E+02  0.64353060463E+02  0.00000000000E+00 0. -1.
</event>
<event>
 7    1  0.5139898E-006  0.7272344E+02  0.7818608E-02  0.1439765E+00
          2   -1    0    0  502    0  0.00000000000E+00  0.00000000000E+00  0.10690239330E+04  0.10690239330E+04  0.00000000000E+00 0. -1.
          1   -1    0    0  501    0 -0.00000000000E+00 -0.00000000000E+00 -0.16609044182E+03  0.16609044182E+03  0.00000000000E+00 0. -1.
         25    2    1    2    0    0  0.39915594284E+02  0.82172732635E+02  0.22655182878E+02  0.15647459985E+03  0.12500172171E+03 0.  0.
          2    1    1    2  501    0 -0.34437797178E+02 -0.99055714497E+01 -0.94554324925E+02  0.10111677696E+03  0.00000000000E+00 0. -1.
          1    1    1    2  502    0 -0.54777971055E+01 -0.72267161186E+02  0.97483263318E+03  0.97752299797E+03  0.00000000000E+00 0. -1.
         22    1    3    3    0    0  0.24295154885E+02 -0.12581569216E+01  0.59243521891E+02  0.64043987975E+02  0.00000000000E+00 0. -1.
         22    1    3    3    0    0  0.15620439399E+02  0.83430889557E+02 -0.36588339013E+02  0.92430611872E+02  0.00000000000E+00 0. -1.
</event>
<event>
 7    1  0.5139898E-006  0.1737749E+03  0.7818608E-02  0.1226668E+00
          2   -1    0    0  502    0  0.00000000000E+00  0.00000000000E+00  0.75604582027E+03  0.75604582027E+03  0.00000000000E+00 0. -1.
          1   -1    0    0  501    0 -0.00000000000E+00 -0.00000000000E+00 -0.85369186542E+03  0.85369186542E+03  0.00000000000E+00 0. -1.
         25    2    1    2    0    0  0.18409984102E+03  0.17709591037E+03 -0.69006878445E+02  0.29265230882E+03  0.12501084613E+03 0.  0.
          2    1    1    2  501    0 -0.14076802872E+03 -0.89140531030E+02 -0.65869722077E+03  0.67944367009E+03  0.00000000000E+00 0. -1.
          1    1    1    2  502    0 -0.43331812309E+02 -0.87955379341E+02  0.63005805407E+03  0.63764170677E+03  0.00000000000E+00 0. -1.
         22    1    3    3    0    0  0.18956003014E+03  0.14049641506E+03 -0.28301723899E+02  0.23764097973E+03  0.00000000000E+00 0.  1.
         22    1    3    3    0    0 -0.54601891128E+01  0.36599495307E+02 -0.40705154546E+02  0.55011329092E+02  0.00000000000E+00 0.  1.
</event>
<event>
 7    1  0.5139898E-006  0.9617879E+02  0.7818608E-02  0.1479791E+00
          2   -1    0    0  502    0  0.00000000000E+00  0.00000000000E+00  0.11440335842E+04  0.11440335842E+04  0.00000000000E+00 0. -1.
          1   -1    0    0  501    0 -0.00000000000E+00 -0.00000000000E+00 -0.98406914483E+02  0.98406914483E+02  0.00000000000E+00 0. -1.
         25    2    1    2    0    0 -0.16891303654E+02  0.10363569960E+03  0.64130099210E+03  0.66175425103E+03  0.12500420758E+03 0.  0.
          2    1    1    2  501    0  0.32168030102E+02 -0.90333775582E+02 -0.61826468869E+02  0.11409419540E+03  0.00000000000E+00 0. -1.
          1    1    1    2  502    0 -0.15276726448E+02 -0.13301924017E+02  0.46615214653E+03  0.46659205229E+03  0.00000000000E+00 0. -1.
         22    1    3    3    0    0 -0.29128991066E+01  0.10547185858E+03  0.26562267206E+03  0.28581147955E+03  0.00000000000E+00 0.  1.
         22    1    3    3    0    0 -0.13978404547E+02 -0.18361589798E+01  0.37567832004E+03  0.37594277147E+03  0.00000000000E+00 0.  1.
</event>
<event>
 7    1  0.5139898E-006  0.7743133E+02  0.7818608E-02  0.1463934E+00
          2   -1    0    0  502    0  0.00000000000E+00  0.00000000000E+00  0.11599439553E+04  0.11599439553E+04  0.00000000000E+00 0. -1.
          1   -1    0    0  501    0 -0.00000000000E+00 -0.00000000000E+00 -0.63531333206E+02  0.63531333206E+02  0.00000000000E+00 0. -1.
         25    2    1    2    0    0 -0.37157523428E+02 -0.52543759497E+02  0.53932336874E+03  0.55734748908E+03  0.12499999720E+03 0.  0.
          2    1    1    2  501    0 -0.28064141576E+02  0.25392959401E+01 -0.47904332698E+02  0.55577595824E+02  0.00000000000E+00 0. -1.
          1    1    1    2  502    0  0.65221665005E+02  0.50004463557E+02  0.60499358604E+03  0.61055020359E+03  0.00000000000E+00 0. -1.
         22    1    3    3    0    0 -0.76412954816E+02 -0.23943132499E+02  0.21539634274E+03  0.22979947285E+03  0.00000000000E+00 0. -1.
         22    1    3    3    0    0  0.39255431387E+02 -0.28600626998E+02  0.32392702600E+03  0.32754801623E+03  0.00000000000E+00 0. -1.
</event>
<event>
 7    1  0.5139898E-006  0.5386127E+02  0.7818608E-02  0.1435718E+00
          2   -1    0    0  502    0  0.00000000000E+00  0.00000000000E+00  0.42459614080E+03  0.42459614080E+03  0.00000000000E+00 0. -1.
          1   -1    0    0  501    0 -0.00000000000E+00 -0.00000000000E+00 -0.48261370234E+03  0.48261370234E+03  0.00000000000E+00 0. -1.
         25    2    1    2    0    0  0.22643569330E+02  0.74012083848E+01  0.13014867778E+01  0.12725491978E+03  0.12499844648E+03 0.  0.
          2    1    1    2  501    0 -0.15361637479E+02  0.47448900759E+02 -0.41601452679E+03  0.41899339444E+03  0.00000000000E+00 0. -1.
          1    1    1    2  502    0 -0.72819318512E+01 -0.54850109144E+02  0.35669547846E+03  0.36096152892E+03  0.00000000000E+00 0. -1.
         22    1    3    3    0    0  0.77675574706E+01 -0.43077693870E+02 -0.40817055869E+02  0.59850269072E+02  0.00000000000E+00 0.  1.
         22    1    3    3    0    0  0.14876011860E+02  0.50478902255E+02  0.42118542646E+02  0.67404650703E+02  0.00000000000E+00 0.  1.
</event>
<event>
 7    1  0.5139898E-006  0.1570649E+03  0.7818608E-02  0.1258599E+00
          2   -1    0    0  502    0  0.00000000000E+00  0.00000000000E+00  0.50458621232E+03  0.50458621232E+03  0.00000000000E+00 0. -1.
          1   -1    0    0  501    0 -0.00000000000E+00 -0.00000000000E+00 -0.67873785849E+03  0.67873785849E+03  0.00000000000E+00 0. -1.
         25    2    1    2    0    0 -0.21908376309E+03 -0.58336791264E+02 -0.85883987917E+02  0.27277044987E+03  0.12500712971E+03 0.  0.
          2    1    1    2  501    0  0.14558574452E+03  0.30633290371E+02 -0.48438843419E+03  0.50672059625E+03  0.00000000000E+00 0. -1.
          1    1    1    2  502    0  0.73498018567E+02  0.27703500893E+02  0.39612077594E+03  0.40383302468E+03  0.00000000000E+00 0. -1.
         22    1    3    3    0    0 -0.49813587084E+02 -0.40058084496E+02  0.26039169157E+02  0.69022329156E+02  0.00000000000E+00 0. -1.
         22    1    3    3    0    0 -0.16927017600E+03 -0.18278706768E+02 -0.11192315707E+03  0.20374812071E+03  0.00000000000E+00 0. -1.
</event>
<event>
 7    1  0.5139898E-006  0.1347842E+03  0.7818608E-02  0.1318872E+00
          2   -1    0    0  502    0  0.00000000000E+00  0.00000000000E+00  0.43641136333E+03  0.43641136333E+03  0.00000000000E+00 0. -1.
          1   -1    0    0  501    0 -0.00000000000E+00 -0.00000000000E+00 -0.40795099654E+04  0.40795099654E+04  0.00000000000E+00 0. -1.
         25    2    1    2    0    0  0.17656262202E+03 -0.44114077656E+02 -0.10987156923E+04  0.11206790492E+04  0.12499978947E+03 0.  0.
          2    1    1    2  501    0 -0.43054454213E+02  0.29115930733E+02 -0.29589721232E+04  0.29594285681E+04  0.00000000000E+00 0. -1.
          1    1    1    2  502    0 -0.13350816781E+03  0.14998146924E+02  0.41458921343E+03  0.43581371155E+03  0.00000000000E+00 0. -1.
         22    1    3    3    0    0  0.13783426805E+03 -0.58568792345E+02 -0.53841026757E+03  0.55885078967E+03  0.00000000000E+00 0.  1.
         22    1    3    3    0    0  0.38728353969E+02  0.14454714689E+02 -0.56030542473E+03  0.56182825949E+03  0.00000000000E+00 0.  1.
</event>
<event>
 7    1  0.5139898E-006  0.5358828E+02  0.7818608E-02  0.1496753E+00
          2   -1    0    0  502    0  0.00000000000E+00  0.00000000000E+00  0.40422305777E+04  0.40422305777E+04  0.00000000000E+00 0. -1.
          1   -1    0    0  501    0 -0.00000000000E+00 -0.00000000000E+00 -0.21059578917E+03  0.21059578917E+03  0.00000000000E+00 0. -1.
         25    2    1    2    0    0  0.29930683602E+02 -0.29921848130E+02  0.24155886965E+04  0.24191910506E+04  0.12500170264E+03 0.  0.
          2    1    1    2  501    0 -0.17363764602E+02 -0.27229199161E+02 -0.20701544694E+03  0.20951927090E+03  0.00000000000E+00 0. -1.
          1    1    1    2  502    0 -0.12566919000E+02  0.57151047291E+02  0.16230615390E+04  0.16241160454E+04  0.00000000000E+00 0. -1.
         22    1    3    3    0    0  0.15370304802E+02 -0.79090491319E+02  0.14248039098E+04  0.14270801427E+04  0.00000000000E+00 0.  1.
         22    1    3    3    0    0  0.14560378800E+02  0.49168643189E+02  0.99078478670E+03  0.99211090795E+03  0.00000000000E+00 0.  1.
</event>
<event>
 7    1  0.5139898E-006  0.5233537E+02  0.7818608E-02  0.1460946E+00
          2   -1    0    0  502    0  0.00000000000E+00  0.00000000000E+00  0.16478958564E+04  0.16478958564E+04  0.00000000000E+00 0. -1.
          1   -1    0    0  501    0 -0.00000000000E+00 -0.00000000000E+00 -0.53387551938E+03  0.53387551938E+03  0.00000000000E+00 0. -1.
         25    2    1    2    0    0 -0.31484605620E+02 -0.31903860452E+02  0.98510353355E+03  0.99401542231E+03  0.12501420431E+03 0.  0.
          2    1    1    2  501    0 -0.26385587532E+02  0.33448603068E+02 -0.52728611247E+03  0.52900439760E+03  0.00000000000E+00 0. -1.
          1    1    1    2  502    0  0.57870193152E+02 -0.15447426152E+01  0.65620291591E+03  0.65875155585E+03  0.00000000000E+00 0. -1.
         22    1    3    3    0    0 -0.35480324586E+02 -0.35899071166E+02  0.98682004289E+03  0.98811001098E+03  0.00000000000E+00 0. -1.
         22    1    3    3    0    0  0.39957189659E+01  0.39952107138E+01 -0.17165093412E+01  0.59054113337E+01  0.00000000000E+00 0. -1.
</event>
<event>
 7    1  0.5139898E-006  0.8492898E+02  0.7818608E-02  0.1334305E+00
          2   -1    0    0  502    0  0.00000000000E+00  0.00000000000E+00  0.15581876218E+04  0.15581876218E+04  0.00000000000E+00 0. -1.
          1   -1    0    0  501    0 -0.00000000000E+00 -0.00000000000E+00 -0.13687744662E+03  0.13687744662E+03  0.00000000000E+00 0. -1.
         25    2    1    2    0    0  0.77183881663E+02  0.27569728444E+02  0.18891184588E+03  0.24089298159E+03  0.12499720617E+03 0.  0.
          2    1    1    2  501    0 -0.47687792069E+02  0.53892861805E+02 -0.97651849569E+02  0.12130313182E+03  0.00000000000E+00 0. -1.
          1    1    1    2  502    0 -0.29496089594E+02 -0.81462590249E+02  0.13300501789E+04  0.13328689550E+04  0.00000000000E+00 0. -1.
         22    1    3    3    0    0  0.94094825915E+02 -0.16708620685E+02  0.90294516583E+02  0.13147666711E+03  0.00000000000E+00 0.  1.
         22    1    3    3    0    0 -0.16910944252E+02  0.44278349130E+02  0.98617329301E+02  0.10941631449E+03  0.00000000000E+00 0.  1.
</event>
<event>
 7    1  0.5139898E-006  0.1422300E+03  0.7818608E-02  0.1311282E+00
          2   -1    0    0  502    0  0.00000000000E+00  0.00000000000E+00  0.59863302147E+03  0.59863302147E+03  0.00000000000E+00 0. -1.
          1   -1    0    0  501    0 -0.00000000000E+00 -0.00000000000E+00 -0.12011934955E+04  0.12011934955E+04  0.00000000000E+00 0. -1.
         25    2    1    2    0    0  0.48941990831E+02 -0.11178062688E+03 -0.12119561815E+03  0.21260689678E+03  0.12499235051E+03 0.  0.
          2    1    1    2  501    0 -0.42036028649E+02 -0.31846632977E+02 -0.10242537161E+04  0.10256105063E+04  0.00000000000E+00 0. -1.
          1    1    1    2  502    0 -0.69059621821E+01  0.14362725986E+03  0.54288886028E+03  0.56160911380E+03  0.00000000000E+00 0. -1.
         22    1    3    3    0    0  0.49573482450E+02 -0.13706013388E+03 -0.85874513690E+02  0.16916690741E+03  0.00000000000E+00 0. -1.
         22    1    3    3    0    0 -0.63149161901E+00  0.25279507000E+02 -0.35321104461E+02  0.43439989367E+02  0.00000000000E+00 0. -1.
</event>
<event>
 7    1  0.5139898E-006  0.5595502E+03  0.7818608E-02  0.1164508E+00
          2   -1    0    0  502    0  0.00000000000E+00  0.00000000000E+00  0.19488092591E+04  0.19488092591E+04  0.00000000000E+00 0. -1.
          1   -1    0    0  501    0 -0.00000000000E+00 -0.00000000000E+00 -0.30322902339E+04  0.30322902339E+04  0.00000000000E+00 0. -1.
         25    2    1    2    0    0 -0.37713690182E+03  0.43863400801E+03 -0.20066158098E+04  0.20920714878E+04  0.12499626391E+03 0.  0.
          2    1    1    2  501    0 -0.28050758259E+02 -0.53200240937E+02 -0.94094765078E+03  0.94286774904E+03  0.00000000000E+00 0. -1.
          1    1    1    2  502    0  0.40518766008E+03 -0.38543376707E+03  0.18640824858E+04  0.19461602561E+04  0.00000000000E+00 0. -1.
         22    1    3    3    0    0 -0.26741264918E+03  0.33225019255E+03 -0.12678556388E+04  0.13376687319E+04  0.00000000000E+00 0.  1.
         22    1    3    3    0    0 -0.10972425264E+03  0.10638381546E+03 -0.73876017102E+03  0.75440275589E+03  0.00000000000E+00 0.  1.
</event>
<event>
 7    1  0.5139898E-006  0.5002697E+02  0.7818608E-02  0.1579425E+00
          2   -1    0    0  502    0  0.00000000000E+00  0.00000000000E+00  0.90408031755E+02  0.90408031755E+02  0.00000000000E+00 0. -1.
          1   -1    0    0  501    0 -0.00000000000E+00 -0.00000000000E+00 -0.31681032153E+03  0.31681032153E+03  0.00000000000E+00 0. -1.
         25    2    1    2    0    0 -0.39628475587E+02  0.92393892308E+01  0.41538705813E+01  0.13150344312E+03  0.12498047256E+03 0.  0.
          2    1    1    2  501    0 -0.16119219328E+02 -0.12109952152E+02 -0.21744057294E+03  0.21837326515E+03  0.00000000000E+00 0. -1.
          1    1    1    2  502    0  0.55747694915E+02  0.28705629208E+01 -0.13115587420E+02  0.57341645016E+02  0.00000000000E+00 0. -1.
         22    1    3    3    0    0 -0.47098234947E+02  0.36851877298E+02 -0.44856780121E+02  0.74755838022E+02  0.00000000000E+00 0. -1.
         22    1    3    3    0    0  0.74697593599E+01 -0.27612488067E+02  0.49010650702E+02  0.56747605098E+02  0.00000000000E+00 0. -1.
</event>
<event>
 7    1  0.5139898E-006  0.6512956E+02  0.7818608E-02  0.1512431E+00
          2   -1    0    0  502    0  0.00000000000E+00  0.00000000000E+00  0.12136281664E+03  0.12136281664E+03  0.00000000000E+00 0. -1.
          1   -1    0    0  501    0 -0.00000000000E+00 -0.00000000000E+00 -0.49086465472E+03  0.49086465472E+03  0.00000000000E+00 0. -1.
         25    2    1    2    0    0 -0.59162386718E+01 -0.45994676724E+02 -0.34798449728E+02  0.13779311122E+03  0.12500198890E+03 0.  0.
          2    1    1    2  501    0 -0.74640767067E+01  0.65766846155E+02 -0.39972520374E+03  0.40516814904E+03  0.00000000000E+00 0. -1.
          1    1    1    2  502    0  0.13380315378E+02 -0.19772169431E+02  0.65021815384E+02  0.69266211095E+02  0.00000000000E+00 0. -1.
         22    1    3    3    0    0  0.37103067560E+02 -0.48709261759E+02  0.23244904432E+02  0.65494697385E+02  0.00000000000E+00 0.  1.
         22    1    3    3    0    0 -0.43019306232E+02  0.27145850352E+01 -0.58043354161E+02  0.72298413834E+02  0.00000000000E+00 0.  1.
</event>
<event>
 7    1  0.5139898E-006  0.5897111E+02  0.7818608E-02  0.1504056E+00
          2   -1    0    0  502    0  0.00000000000E+00  0.00000000000E+00  0.71112297321E+03  0.71112297321E+03  0.00000000000E+00 0. -1.
          1   -1    0    0  501    0 -0.00000000000E+00 -0.00000000000E+00 -0.45510427399E+03  0.45510427399E+03  0.00000000000E+00 0. -1.
         25    2    1    2    0    0  0.48540788070E+02  0.21576701683E+02 -0.54384669217E+02  0.14630495184E+03  0.12500273807E+03 0.  0.
          2    1    1    2  501    0 -0.36799486643E+02 -0.46898180736E+02 -0.35195921953E+03  0.35697189495E+03  0.00000000000E+00 0. -1.
          1    1    1    2  502    0 -0.11741301427E+02  0.25321479053E+02  0.66236258797E+03  0.66295040041E+03  0.00000000000E+00 0. -1.
         22    1    3    3    0    0  0.11246784657E+02  0.66589784127E+02 -0.16116598368E+01  0.67552105538E+02  0.00000000000E+00 0. -1.
         22    1    3    3    0    0  0.37294003414E+02 -0.45013082445E+02 -0.52773009380E+02  0.78752846303E+02  0.00000000000E+00 0. -1.
</event>
<event>
 7    1  0.5139898E-006  0.5325823E+02  0.7818608E-02  0.1464256E+00
          2   -1    0    0  502    0  0.00000000000E+00  0.00000000000E+00  0.41887393654E+02  0.41887393654E+02  0.00000000000E+00 0. -1.
          1   -1    0    0  501    0 -0.00000000000E+00 -0.00000000000E+00 -0.22590476926E+04  0.22590476926E+04  0.00000000000E+00 0. -1.
         25    2    1    2    0    0  0.69843908302E+01  0.29936050779E+02 -0.76342733058E+03  0.77419936804E+03  0.12497369140E+03 0.  0.
          2    1    1    2  501    0  0.29742990981E+02 -0.47873741364E+02 -0.14780839327E+04  0.14791580892E+04  0.00000000000E+00 0. -1.
          1    1    1    2  502    0 -0.36727381812E+02  0.17937690585E+02  0.24350964364E+02  0.47577629026E+02  0.00000000000E+00 0. -1.
         22    1    3    3    0    0  0.40984374802E+02  0.43616701235E+02 -0.68524000803E+03  0.68784882366E+03  0.00000000000E+00 0.  1.
         22    1    3    3    0    0 -0.33999983971E+02 -0.13680650456E+02 -0.78187322550E+02  0.86350544379E+02  0.00000000000E+00 0.  1.
</event>
<event>
 7    1  0.5139898E-006  0.6823993E+02  0.7818608E-02  0.1521863E+00
          2   -1    0    0  502    0  0.00000000000E+00  0.00000000000E+00  0.12819663535E+03  0.12819663535E+03  0.00000000000E+00 0. -1.
          1   -1    0    0  501    0 -0.00000000000E+00 -0.00000000000E+00 -0.19309545154E+04  0.19309545154E+04  0.00000000000E+00 0. -1.
         25    2    1    2    0    0  0.74156972435E+02  0.29441679579E-02 -0.35824226706E+03  0.38660207496E+03  0.12499754351E+03 0.  0.
          2    1    1    2  501    0 -0.65246610617E+02 -0.19446443418E+02 -0.15567787208E+04  0.15582667518E+04  0.00000000000E+00 0. -1.
          1    1    1    2  502    0 -0.89103618182E+01  0.19443499250E+02  0.11226310778E+03  0.11428232400E+03  0.00000000000E+00 0. -1.
         22    1    3    3    0    0  0.40505045738E+02 -0.62139459424E+02 -0.16748701365E+03  0.18317715712E+03  0.00000000000E+00 0.  1.
         22    1    3    3    0    0  0.33651926697E+02  0.62142403592E+02 -0.19075525341E+03  0.20342491784E+03  0.00000000000E+00 0.  1.
</event>
<event>
 7    1  0.5139898E-006  0.1073393E+03  0.7818608E-02  0.1346033E+00
          2   -1    0    0  502    0  0.00000000000E+00  0.00000000000E+00  0.17492710311E+04  0.17492710311E+04  0.00000000000E+00 0. -1.
          1   -1    0    0  501    0 -0.00000000000E+00 -0.00000000000E+00 -0.11343620918E+04  0.11343620918E+04  0.00000000000E+00 0. -1.
         25    2    1    2    0    0  0.17050612120E+02  0.67926698235E+02  0.74376291370E+02  0.16143127201E+03  0.12499385249E+03 0.  0.
          2    1    1    2  501    0 -0.32175801429E+02  0.40132975214E+02 -0.10884020117E+04  0.10896168487E+04  0.00000000000E+00 0. -1.
          1    1    1    2  502    0  0.15125189309E+02 -0.10805967345E+03  0.16289346595E+04  0.16325850022E+04  0.00000000000E+00 0. -1.
         22    1    3    3    0    0  0.35128602900E+02  0.85090058327E+02  0.92584848279E+02  0.13056144492E+03  0.00000000000E+00 0.  1.
         22    1    3    3    0    0 -0.18077990781E+02 -0.17163360092E+02 -0.18208556910E+02  0.30869827098E+02  0.00000000000E+00 0.  1.
</event>
<event>
 7    1  0.5139898E-006  0.8843602E+02  0.7818608E-02  0.1444653E+00
          2   -1    0    0  502    0  0.00000000000E+00  0.00000000000E+00  0.95304949695E+02  0.95304949695E+02  0.00000000000E+00 0. -1.
          1   -1    0    0  501    0 -0.00000000000E+00 -0.00000000000E+00 -0.62832975693E+03  0.62832975693E+03  0.00000000000E+00 0. -1.
         25    2    1    2    0    0 -0.65670153794E+02 -0.28738945356E+02 -0.17512210917E+03  0.22678270612E+03  0.12499658633E+03 0.  0.
          2    1    1    2  501    0  0.72858398952E+02  0.56228565278E+02 -0.41925609119E+03  0.42923847434E+03  0.00000000000E+00 0. -1.
          1    1    1    2  502    0 -0.71882451585E+01 -0.27489619922E+02  0.61353393130E+02  0.67613526165E+02  0.00000000000E+00 0. -1.
         22    1    3    3    0    0 -0.36388142097E+02  0.34043687450E+01 -0.17940612757E+03  0.18309081140E+03  0.00000000000E+00 0. -1.
         22    1    3    3    0    0 -0.29282011697E+02 -0.32143314101E+02  0.42840183940E+01  0.43691894717E+02  0.00000000000E+00 0. -1.
</event>
<event>
 7    1  0.5139898E-006  0.8366448E+02  0.7818608E-02  0.1374183E+00
          2   -1    0    0  502    0  0.00000000000E+00  0.00000000000E+00  0.76297966998E+03  0.76297966998E+03  0.00000000000E+00 0. -1.
          1   -1    0    0  501    0 -0.00000000000E+00 -0.00000000000E+00 -0.29979352112E+03  0.29979352112E+03  0.00000000000E+00 0. -1.
         25    2    1    2    0    0  0.18739824000E+02  0.54291564061E+02 -0.60511361155E+02  0.15028544392E+03  0.12500133956E+03 0.  0.
          2    1    1    2  501    0  0.51576327773E+02 -0.73218978590E+01 -0.18835792776E+03  0.19542885336E+03  0.00000000000E+00 0. -1.
          1    1    1    2  502    0 -0.70316151774E+02 -0.46969666202E+02  0.71205543778E+03  0.71705889383E+03  0.00000000000E+00 0. -1.
         22    1    3    3    0    0 -0.67904239279E+01  0.78675620473E+02  0.14395429450E+01  0.78981234466E+02  0.00000000000E+00 0. -1.
         22    1    3    3    0    0  0.25530247928E+02 -0.24384056412E+02 -0.61950904100E+02  0.71304209449E+02  0.00000000000E+00 0. -1.
</event>
<event>
 7    1  0.5139898E-006  0.2219802E+03  0.7818608E-02  0.1160044E+00
          2   -1    0    0  502    0  0.00000000000E+00  0.00000000000E+00  0.13305517169E+04  0.13305517169E+04  0.00000000000E+00 0. -1.
          1   -1    0    0  501    0 -0.00000000000E+00 -0.00000000000E+00 -0.39815238554E+03  0.39815238554E+03  0.00000000000E+00 0. -1.
         25    2    1    2    0    0 -0.20396292764E+03 -0.22619557797E+03  0.38741765389E+03  0.50841209319E+03  0.12500041045E+03 0.  0.
          2    1    1    2  501    0  0.38293170513E+01  0.15960898606E+03 -0.30514655420E+03  0.34438947667E+03  0.00000000000E+00 0. -1.
          1    1    1    2  502    0  0.20013361059E+03  0.66586591905E+02  0.85012823166E+03  0.87590253258E+03  0.00000000000E+00 0. -1.
         22    1    3    3    0    0 -0.25437803722E+02 -0.61119611739E+02  0.22526154639E+02  0.69929367509E+02  0.00000000000E+00 0. -1.
         22    1    3    3    0    0 -0.17852512392E+03 -0.16507596623E+03  0.36489149925E+03  0.43848272569E+03  0.00000000000E+00 0. -1.
</event>
<event>
 7    1  0.5139898E-006  0.5045271E+02  0.7818608E-02  0.1445567E+00
          2   -1    0    0  502    0  0.00000000000E+00  0.00000000000E+00  0.10285160640E+04  0.10285160640E+04  0.00000000000E+00 0. -1.
          1   -1    0    0  501    0 -0.00000000000E+00 -0.00000000000E+00 -0.31503448721E+03  0.31503448721E+03  0.00000000000E+00 0. -1.
         25    2    1    2    0    0 -0.14712658343E+02  0.57887874544E+02  0.42123075356E+03  0.44342797318E+03  0.12500220525E+03 0.  0.
          2    1    1    2  501    0 -0.32605109842E+02 -0.37202785702E+02 -0.30079344811E+03  0.30483411698E+03  0.00000000000E+00 0. -1.
          1    1    1    2  502    0  0.47317768185E+02 -0.20685088842E+02  0.59304427134E+03  0.59528846105E+03  0.00000000000E+00 0. -1.
         22    1    3    3    0    0  0.37100307709E+02  0.64494825584E+02  0.15267769838E+03  0.16984255928E+03  0.00000000000E+00 0. -1.
         22    1    3    3    0    0 -0.51812966051E+02 -0.66069510408E+01  0.26855305518E+03  0.27358541390E+03  0.00000000000E+00 0. -1.
</event>
<event>
 7    1  0.5139898E-006  0.8805574E+02  0.7818608E-02  0.1368131E+00
          2   -1    0    0  502    0  0.00000000000E+00  0.00000000000E+00  0.63897424796E+03  0.63897424796E+03  0.00000000000E+00 0. -1.
          1   -1    0    0  501    0 -0.00000000000E+00 -0.00000000000E+00 -0.11766266547E+03  0.11766266547E+03  0.00000000000E+00 0. -1.
         25    2    1    2    0    0  0.63229567827E+02 -0.35589457195E+02  0.22322272079E+03  0.26592824677E+03  0.12499944657E+03 0.  0.
          2    1    1    2  501    0 -0.39056258201E+02  0.81667380070E+02 -0.72812650367E+02  0.11617501593E+03  0.00000000000E+00 0. -1.
          1    1    1    2  502    0 -0.24173309625E+02 -0.46077922874E+02  0.37090151207E+03  0.37453365073E+03  0.00000000000E+00 0. -1.
         22    1    3    3    0    0  0.45999327419E+02 -0.42352381473E+01  0.22540054641E+03  0.23008537913E+03  0.00000000000E+00 0.  1.
         22    1    3    3    0    0  0.17230240407E+02 -0.31354219048E+02 -0.21778256193E+01  0.35842867645E+02  0.00000000000E+00 0.  1.
</event>
<event>
 7    1  0.5139898E-006  0.3287159E+02  0.7818608E-02  0.1584506E+00
          2   -1    0    0  502    0  0.00000000000E+00  0.00000000000E+00  0.11485944342E+02  0.11485944342E+02  0.00000000000E+00 0. -1.
          1   -1    0    0  501    0 -0.00000000000E+00 -0.00000000000E+00 -0.28067356396E+04  0.28067356396E+04  0.00000000000E+00 0. -1.
         25    2    1    2    0    0  0.14068696877E+02  0.25937528550E+02 -0.83755717469E+03  0.84734847702E+03  0.12500694788E+03 0.  0.
          2    1    1    2  501    0 -0.29463474457E+02  0.40323505560E+01 -0.19203390012E+04  0.19205692478E+04  0.00000000000E+00 0. -1.
          1    1    1    2  502    0  0.15394777579E+02 -0.29969879106E+02 -0.37353519378E+02  0.50303859099E+02  0.00000000000E+00 0. -1.
         22    1    3    3    0    0 -0.44859672661E+02  0.29261002171E+02 -0.19940385613E+03  0.20647153392E+03  0.00000000000E+00 0. -1.
         22    1    3    3    0    0  0.58928369538E+02 -0.33234736208E+01 -0.63815331856E+03  0.64087694311E+03  0.00000000000E+00 0. -1.
</event>
<event>
 7    1  0.5139898E-006  0.7685485E+02  0.7818608E-02  0.1421926E+00
          2   -1    0    0  502    0  0.00000000000E+00  0.00000000000E+00  0.22033816365E+04  0.22033816365E+04  0.00000000000E+00 0. -1.
          1   -1    0    0  501    0 -0.00000000000E+00 -0.00000000000E+00 -0.55886676906E+02  0.55886676906E+02  0.00000000000E+00 0. -1.
         25    2    1    2    0    0  0.57665177430E+01  0.47623749691E+02  0.32615384619E+03  0.35256335436E+03  0.12499325258E+03 0.  0.
          2    1    1    2  501    0 -0.26270605795E+02  0.28568999670E+02 -0.32842950672E+02  0.50842815420E+02  0.00000000000E+00 0. -1.
          1    1    1    2  502    0  0.20504088052E+02 -0.76192749360E+02  0.18541840641E+04  0.18558621437E+04  0.00000000000E+00 0. -1.
         22    1    3    3    0    0  0.22126892680E+02  0.51432377519E+02  0.33050264895E+03  0.33521170892E+03  0.00000000000E+00 0. -1.
         22    1    3    3    0    0 -0.16360374937E+02 -0.38086278286E+01 -0.43488027540E+01  0.17351645439E+02  0.00000000000E+00 0. -1.
</event>
<event>
 7    1  0.5174017E-006  0.5851456E+02  0.7818608E-02  0.1415413E+00
          2   -1    0    0  502    0  0.00000000000E+00  0.00000000000E+00  0.89651521840E+03  0.89651521840E+03  0.00000000000E+00 0. -1.
          1   -1    0    0  501    0 -0.00000000000E+00 -0.00000000000E+00 -0.70713330250E+03  0.70713330250E+03  0.00000000000E+00 0. -1.
         25    2    1    2    0    0 -0.66383127875E+02  0.85379067398E+02 -0.26417546906E+02  0.16739027033E+03  0.12500124399E+03 0.  0.
          2    1    1    2  501    0  0.42688011143E+02 -0.32413769232E+02 -0.60803001691E+03  0.61038792599E+03  0.00000000000E+00 0. -1.
          1    1    1    2  502    0  0.23695116732E+02 -0.52965298166E+02  0.82382947972E+03  0.82587032458E+03  0.00000000000E+00 0. -1.
         22    1    3    3    0    0 -0.26755847652E+02  0.79265848883E+01 -0.66113110530E+02  0.71761058490E+02  0.00000000000E+00 0.  1.
         22    1    3    3    0    0 -0.39627280224E+02  0.77452482510E+02  0.39695563625E+02  0.95629211836E+02  0.00000000000E+00 0.  1.
</event>
<event>
 7    1  0.5139898E-006  0.8091921E+02  0.7818608E-02  0.1367478E+00
          2   -1    0    0  502    0  0.00000000000E+00  0.00000000000E+00  0.11864261534E+03  0.11864261534E+03  0.00000000000E+00 0. -1.
          1   -1    0    0  501    0 -0.00000000000E+00 -0.00000000000E+00 -0.36283670231E+03  0.36283670231E+03  0.00000000000E+00 0. -1.
         25    2    1    2    0    0 -0.70691166482E+02  0.43569837269E+02 -0.12827978516E+03  0.19742582874E+03  0.12500273132E+03 0.  0.
          2    1    1    2  501    0  0.83714750059E+02  0.11851415499E+02 -0.17967553048E+03  0.19857470050E+03  0.00000000000E+00 0. -1.
          1    1    1    2  502    0 -0.13023583578E+02 -0.55421252768E+02  0.63761228657E+02  0.85478788407E+02  0.00000000000E+00 0. -1.
         22    1    3    3    0    0 -0.65859895249E+02  0.85001475728E+02 -0.10142180407E+03  0.14781461030E+03  0.00000000000E+00 0. -1.
         22    1    3    3    0    0 -0.48312712327E+01 -0.41431638459E+02 -0.26857981090E+02  0.49611218442E+02  0.00000000000E+00 0. -1.
</event>
<event>
 7    1  0.5139898E-006  0.5069758E+02  0.7818608E-02  0.1485417E+00
          2   -1    0    0  502    0  0.00000000000E+00  0.00000000000E+00  0.19693050685E+04  0.19693050685E+04  0.00000000000E+00 0. -1.
          1   -1    0    0  501    0 -0.00000000000E+00 -0.00000000000E+00 -0.13722452872E+03  0.13722452872E+03  0.00000000000E+00 0. -1.
         25    2    1    2    0    0  0.82458757276E+01  0.85445427531E+02  0.39972409846E+03  0.42752028300E+03  0.12500128773E+03 0.  0.
          2    1    1    2  501    0  0.27896891277E+01 -0.50195999109E+02 -0.11797387390E+03  0.12823905651E+03  0.00000000000E+00 0. -1.
          1    1    1    2  502    0 -0.11035564855E+02 -0.35249428422E+02  0.15503303152E+04  0.15507702577E+04  0.00000000000E+00 0. -1.
         22    1    3    3    0    0 -0.34934381514E+01  0.89517282431E+02  0.13212339332E+03  0.15963125955E+03  0.00000000000E+00 0. -1.
         22    1    3    3    0    0  0.11739313879E+02 -0.40718548999E+01  0.26760070514E+03  0.26788902345E+03  0.00000000000E+00 0. -1.
</event>
<event>
 7    1  0.5139898E-006  0.8868060E+02  0.7818608E-02  0.1378284E+00
          2   -1    0    0  502    0  0.00000000000E+00  0.00000000000E+00  0.14914260606E+03  0.14914260606E+03  0.00000000000E+00 0. -1.
          1   -1    0    0  501    0 -0.00000000000E+00 -0.00000000000E+00 -0.32102759729E+04  0.32102759729E+04  0.00000000000E+00 0. -1.
         25    2    1    2    0    0 -0.39613144997E+02 -0.99296469478E+02 -0.40332751831E+02  0.16935287348E+03  0.12499869911E+03 0.  0.
          2    1    1    2  501    0  0.45740094903E+02  0.12889034589E+02 -0.30830362111E+04  0.30834024328E+04  0.00000000000E+00 0. -1.
          1    1    1    2  502    0 -0.61269499061E+01  0.86407434890E+02  0.62235596098E+02  0.10666327269E+03  0.00000000000E+00 0. -1.
         22    1    3    3    0    0 -0.43883526067E+02 -0.11895947799E+03 -0.28695688718E+01  0.12682805561E+03  0.00000000000E+00 0.  1.
         22    1    3    3    0    0  0.42703810705E+01  0.19663008510E+02 -0.37463182959E+02  0.42524817878E+02  0.00000000000E+00 0.  1.
</event>
<event>
 7    1  0.5139898E-006  0.4962661E+02  0.7818608E-02  0.1464612E+00
          2   -1    0    0  502    0  0.00000000000E+00  0.00000000000E+00  0.13216209680E+04  0.13216209680E+04  0.00000000000E+00 0. -1.
          1   -1    0    0  501    0 -0.00000000000E+00 -0.00000000000E+00 -0.97051804048E+03  0.97051804048E+03  0.00000000000E+00 0. -1.
         25    2    1    2    0    0 -0.16772364251E+01  0.32448834402E+02  0.78354455927E+03  0.79411758934E+03  0.12499971749E+03 0.  0.
          2    1    1    2  501    0  0.44276981681E+02 -0.22473074756E+02 -0.96369305441E+03  0.96497139507E+03  0.00000000000E+00 0. -1.
          1    1    1    2  502    0 -0.42599745256E+02 -0.99757596458E+01  0.53125142263E+03  0.53305002403E+03  0.00000000000E+00 0. -1.
         22    1    3    3    0    0 -0.47349992432E+02  0.42691024907E+02  0.23230962991E+03  0.24089896126E+03  0.00000000000E+00 0. -1.
         22    1    3    3    0    0  0.45672756007E+02 -0.10242190505E+02  0.55123492936E+03  0.55321862808E+03  0.00000000000E+00 0. -1.
</event>
<event>
 7    1  0.5139898E-006  0.7530960E+02  0.7818608E-02  0.1459958E+00
          2   -1    0    0  502    0  0.00000000000E+00  0.00000000000E+00  0.12566247268E+04  0.12566247268E+04  0.00000000000E+00 0. -1.
          1   -1    0    0  501    0 -0.00000000000E+00 -0.00000000000E+00 -0.11149175711E+03  0.11149175711E+03  0.00000000000E+00 0. -1.
         25    2    1    2    0    0 -0.10042950102E+02 -0.94605226502E+02  0.12327203487E+03  0.19967751256E+03  0.12499641881E+03 0.  0.
          2    1    1    2  501    0  0.21434234017E+02  0.20730772705E+02 -0.68922929600E+02  0.75097014252E+02  0.00000000000E+00 0. -1.
          1    1    1    2  502    0 -0.11391283915E+02  0.73874453797E+02  0.10907838644E+04  0.10933419571E+04  0.00000000000E+00 0. -1.
         22    1    3    3    0    0  0.27868671335E+02 -0.74727988465E+02  0.12252360709E+02  0.80691111313E+02  0.00000000000E+00 0.  1.
         22    1    3    3    0    0 -0.37911621438E+02 -0.19877238038E+02  0.11101967416E+03  0.11898640125E+03  0.00000000000E+00 0.  1.
</event>
<event>
 7    1  0.5139898E-006  0.1587314E+03  0.7818608E-02  0.1268939E+00
          2   -1    0    0  502    0  0.00000000000E+00  0.00000000000E+00  0.12006099934E+04  0.12006099934E+04  0.00000000000E+00 0. -1.
          1   -1    0    0  501    0 -0.00000000000E+00 -0.00000000000E+00 -0.50796837754E+03  0.50796837754E+03  0.00000000000E+00 0. -1.
         25    2    1    2    0    0  0.18956874815E+03  0.48741806809E+01  0.15908307953E+03  0.27729436347E+03  0.12499867961E+03 0.  0.
          2    1    1    2  501    0 -0.44566778677E+02  0.54309807577E+02 -0.43981525937E+03  0.44539108134E+03  0.00000000000E+00 0. -1.
          1    1    1    2  502    0 -0.14500196947E+03 -0.59183988258E+02  0.97337379570E+03  0.98589292612E+03  0.00000000000E+00 0. -1.
         22    1    3    3    0    0  0.44422684377E+02 -0.53705995146E+02  0.37837022908E+02  0.79305416615E+02  0.00000000000E+00 0. -1.
         22    1    3    3    0    0  0.14514606377E+03  0.58580175827E+02  0.12124605662E+03  0.19798894685E+03  0.00000000000E+00 0. -1.
</event>
<event>
 7    1  0.5139898E-006  0.2571852E+02  0.7818608E-02  0.1680825E+00
          2   -1    0    0  502    0  0.00000000000E+00  0.00000000000E+00  0.15456706023E+04  0.15456706023E+04  0.00000000000E+00 0. -1.
          1   -1    0    0  501    0 -0.00000000000E+00 -0.00000000000E+00 -0.21593151132E+03  0.21593151132E+03  0.00000000000E+00 0. -1.
         25    2    1    2    0    0 -0.41254181375E+02  0.20080473965E+02 -0.69580992849E+02  0.15023892319E+03  0.12500034624E+03 0.  0.
          2    1    1    2  501    0  0.20090671844E+02 -0.14890952168E+02 -0.10446687799E+03  0.10741836038E+03  0.00000000000E+00 0. -1.
          1    1    1    2  502    0  0.21163509531E+02 -0.51895217971E+01  0.15037869618E+04  0.15039448301E+04  0.00000000000E+00 0. -1.
         22    1    3    3    0    0  0.42589055442E+02 -0.99239668736E+01 -0.28277018845E+02  0.52075930685E+02  0.00000000000E+00 0. -1.
         22    1    3    3    0    0 -0.83843236817E+02  0.30004440839E+02 -0.41303974003E+02  0.98162992510E+02  0.00000000000E+00 0. -1.
</event>
<event>
 7    1  0.5139898E-006  0.8051124E+02  0.7818608E-02  0.1403419E+00
          2   -1    0    0  502    0  0.00000000000E+00  0.00000000000E+00  0.87428618551E+02  0.87428618551E+02  0.00000000000E+00 0. -1.
          1   -1    0    0  501    0 -0.00000000000E+00 -0.00000000000E+00 -0.68177569460E+03  0.68177569460E+03  0.00000000000E+00 0. -1.
         25    2    1    2    0    0  0.18650564141E+02  0.11409672920E+03 -0.34278303157E+03  0.38274158659E+03  0.12500003287E+03 0.  0.
          2    1    1    2  501    0 -0.86275330509E+01 -0.72506463245E+02 -0.30749537792E+03  0.31604592860E+03  0.00000000000E+00 0. -1.
          1    1    1    2  502    0 -0.10023031090E+02 -0.41590265956E+02  0.55931333444E+02  0.70416797963E+02  0.00000000000E+00 0. -1.
         22    1    3    3    0    0  0.62198716713E+02  0.89238035389E+02 -0.16198339514E+03  0.19511721508E+03  0.00000000000E+00 0.  1.
         22    1    3    3    0    0 -0.43548152572E+02  0.24858693812E+02 -0.18079963643E+03  0.18762437151E+03  0.00000000000E+00 0.  1.
</event>
<event>
 7    1  0.5139898E-006  0.6120195E+02  0.7818608E-02  0.1432160E+00
          2   -1    0    0  502    0  0.00000000000E+00  0.00000000000E+00  0.68648104228E+02  0.68648104228E+02  0.00000000000E+00 0. -1.
          1   -1    0    0  501    0 -0.00000000000E+00 -0.00000000000E+00 -0.47538340877E+03  0.47538340877E+03  0.00000000000E+00 0. -1.
         25    2    1    2    0    0 -0.83951975883E+02  0.41141267157E+02 -0.23700737239E+03  0.28379127783E+03  0.12499782673E+03 0.  0.
          2    1    1    2  501    0  0.24893468515E+02 -0.37589510168E+02 -0.19184863161E+03  0.19707499461E+03  0.00000000000E+00 0. -1.
          1    1    1    2  502    0  0.59058507368E+02 -0.35517569889E+01  0.22120699458E+02  0.63165240558E+02  0.00000000000E+00 0. -1.
         22    1    3    3    0    0 -0.10966501713E+03  0.36803441766E+02 -0.22892532119E+03  0.25649115383E+03  0.00000000000E+00 0. -1.
         22    1    3    3    0    0  0.25713041244E+02  0.43378253910E+01 -0.80820511975E+01  0.27300124006E+02  0.00000000000E+00 0. -1.
</event>
<event>
 7    1  0.5139898E-006  0.6256635E+02  0.7818608E-02  0.1420614E+00
          2   -1    0    0  502    0  0.00000000000E+00  0.00000000000E+00  0.29405024860E+04  0.29405024860E+04  0.00000000000E+00 0. -1.
          1   -1    0    0  501    0 -0.00000000000E+00 -0.00000000000E+00 -0.93608320253E+02  0.93608320253E+02  0.00000000000E+00 0. -1.
         25    2    1    2    0    0  0.10251531817E+03  0.23721216425E+02  0.93641414894E+03  0.95056235680E+03  0.12500099702E+03 0.  0.
          2    1    1    2  501    0 -0.42554699972E+02 -0.22544569291E+02 -0.79347149769E+02  0.92817726059E+02  0.00000000000E+00 0. -1.
          1    1    1    2  502    0 -0.59960618200E+02 -0.11766471341E+01  0.19898271666E+04  0.19907307234E+04  0.00000000000E+00 0. -1.
         22    1    3    3    0    0  0.10395404199E+03  0.16393262339E+01  0.38757695173E+03  0.40127923413E+03  0.00000000000E+00 0. -1.
         22    1    3    3    0    0 -0.14387238128E+01  0.22081890191E+02  0.54883719722E+03  0.54928312267E+03  0.00000000000E+00 0. -1.
</event>
<event>
 7    1  0.5139898E-006  0.8556152E+02  0.7818608E-02  0.1454870E+00
          2   -1    0    0  502    0  0.00000000000E+00  0.00000000000E+00  0.15275853997E+04  0.15275853997E+04  0.00000000000E+00 0. -1.
          1   -1    0    0  501    0 -0.00000000000E+00 -0.00000000000E+00 -0.11781090917E+03  0.11781090917E+03  0.00000000000E+00 0. -1.
         25    2    1    2    0    0  0.72390795602E+01 -0.64203585070E+02  0.14904476051E+03  0.20498516644E+03  0.12502029122E+03 0.  0.
          2    1    1    2  501    0  0.20527149388E+02 -0.17904108103E+02 -0.86350845775E+02  0.90544958529E+02  0.00000000000E+00 0. -1.
          1    1    1    2  502    0 -0.27766228948E+02  0.82107693172E+02  0.13470805757E+04  0.13498661839E+04  0.00000000000E+00 0. -1.
         22    1    3    3    0    0 -0.19637928132E+02 -0.37692271321E+02 -0.81887935844E+01  0.43282928263E+02  0.00000000000E+00 0. -1.
         22    1    3    3    0    0  0.26877007692E+02 -0.26511313749E+02  0.15723355409E+03  0.16170223818E+03  0.00000000000E+00 0. -1.
</event>
<event>
 7    1  0.5139898E-006  0.1761931E+03  0.7818608E-02  0.1239307E+00
          2   -1    0    0  502    0  0.00000000000E+00  0.00000000000E+00  0.70040357682E+03  0.70040357682E+03  0.00000000000E+00 0. -1.
          1   -1    0    0  501    0 -0.00000000000E+00 -0.00000000000E+00 -0.47736398151E+03  0.47736398151E+03  0.00000000000E+00 0. -1.
         25    2    1    2    0    0  0.95918447559E+02 -0.22701386167E+03  0.14860588814E+03  0.31375917078E+03  0.12500186112E+03 0.  0.
          2    1    1    2  501    0 -0.35776470476E+02  0.16704819757E+03 -0.37211426010E+03  0.40945583244E+03  0.00000000000E+00 0. -1.
          1    1    1    2  502    0 -0.60141977083E+02  0.59965664107E+02  0.44654796727E+03  0.45455255511E+03  0.00000000000E+00 0. -1.
         22    1    3    3    0    0  0.71014402730E+02 -0.29297745728E+02  0.47216759351E+02  0.90171091063E+02  0.00000000000E+00 0.  1.
         22    1    3    3    0    0  0.24904044829E+02 -0.19771611595E+03  0.10138912879E+03  0.22358807971E+03  0.00000000000E+00 0.  1.
</event>
<event>
 7    1  0.5139898E-006  0.1054922E+03  0.7818608E-02  0.1270088E+00
          2   -1    0    0  502    0  0.00000000000E+00  0.00000000000E+00  0.16343668358E+03  0.16343668358E+03  0.00000000000E+00 0. -1.
          1   -1    0    0  501    0 -0.00000000000E+00 -0.00000000000E+00 -0.11626781371E+04  0.11626781371E+04  0.00000000000E+00 0. -1.
         25    2    1    2    0    0  0.19108922522E+02  0.23298630097E+02  0.56069089920E+02  0.14027334274E+03  0.12499956302E+03 0.  0.
          2    1    1    2  501    0 -0.98544463070E+02  0.44664228648E+02 -0.10741761871E+04  0.10796112196E+04  0.00000000000E+00 0. -1.
          1    1    1    2  502    0  0.79435540548E+02 -0.67962858746E+02  0.18865643697E+02  0.10623025832E+03  0.00000000000E+00 0. -1.
         22    1    3    3    0    0 -0.29486871751E+02  0.49571762048E+02  0.62037817105E+02  0.84708476254E+02  0.00000000000E+00 0. -1.
         22    1    3    3    0    0  0.48595794273E+02 -0.26273131950E+02 -0.59687271846E+01  0.55564866487E+02  0.00000000000E+00 0. -1.
</event>
<event>
 7    1  0.5139898E-006  0.1292597E+03  0.7818608E-02  0.1245644E+00
          2   -1    0    0  502    0  0.00000000000E+00  0.00000000000E+00  0.67981747733E+03  0.67981747733E+03  0.00000000000E+00 0. -1.
          1   -1    0    0  501    0 -0.00000000000E+00 -0.00000000000E+00 -0.16385041186E+03  0.16385041186E+03  0.00000000000E+00 0. -1.
         25    2    1    2    0    0  0.14309512343E+03 -0.17745820214E+03  0.29108139574E+03  0.39028322319E+03  0.12499995002E+03 0.  0.
          2    1    1    2  501    0 -0.74424969471E+02  0.93351989489E+02 -0.70517071033E+02  0.13865903263E+03  0.00000000000E+00 0. -1.
          1    1    1    2  502    0 -0.68670153963E+02  0.84106212647E+02  0.29540274077E+03  0.31472563338E+03  0.00000000000E+00 0. -1.
         22    1    3    3    0    0  0.51055919744E+02 -0.51044701807E+02  0.16128993071E+02  0.73975759144E+02  0.00000000000E+00 0. -1.
         22    1    3    3    0    0  0.92039203689E+02 -0.12641350033E+03  0.27495240267E+03  0.31630746405E+03  0.00000000000E+00 0. -1.
</event>
<event>
 7    1  0.5139898E-006  0.6163233E+02  0.7818608E-02  0.1437968E+00
          2   -1    0    0  502    0  0.00000000000E+00  0.00000000000E+00  0.11620656792E+04  0.11620656792E+04  0.00000000000E+00 0. -1.
          1   -1    0    0  501    0 -0.00000000000E+00 -0.00000000000E+00 -0.22337241624E+03  0.22337241624E+03  0.00000000000E+00 0. -1.
         25    2    1    2    0    0 -0.66577948447E+02  0.69721972010E+02  0.11485507182E+03  0.19520533393E+03  0.12497863126E+03 0.  0.
          2    1    1    2  501    0  0.40227619618E+02 -0.14775713015E+02 -0.17975410239E+03  0.18479210048E+03  0.00000000000E+00 0. -1.
          1    1    1    2  502    0  0.26350328829E+02 -0.54946258994E+02  0.10035922935E+04  0.10054406610E+04  0.00000000000E+00 0. -1.
         22    1    3    3    0    0  0.16765284843E+02 -0.24576396629E+02  0.99625932237E+01  0.31373990993E+02  0.00000000000E+00 0.  1.
         22    1    3    3    0    0 -0.83343233289E+02  0.94298368638E+02  0.10489247859E+03  0.16383134294E+03  0.00000000000E+00 0.  1.
</event>
<event>
 7    1  0.5139898E-006  0.4363483E+02  0.7818608E-02  0.1548210E+00
          2   -1    0    0  502    0  0.00000000000E+00  0.00000000000E+00  0.18009080129E+03  0.18009080129E+03  0.00000000000E+00 0. -1.
          1   -1    0    0  501    0 -0.00000000000E+00 -0.00000000000E+00 -0.32853958367E+03  0.32853958367E+03  0.00000000000E+00 0. -1.
         25    2    1    2    0    0 -0.26165058740E+02 -0.28887188498E+02 -0.20676574242E+03  0.24473793389E+03  0.12500201635E+03 0.  0.
          2    1    1    2  501    0 -0.17152114302E+02  0.22314086624E+02 -0.97786994239E+02  0.10175662008E+03  0.00000000000E+00 0. -1.
          1    1    1    2  502    0  0.43317173042E+02  0.65731018735E+01  0.15610395427E+03  0.16213583098E+03  0.00000000000E+00 0. -1.
         22    1    3    3    0    0 -0.48213104175E+02 -0.48997652590E+02 -0.20340594223E+03  0.21470736063E+03  0.00000000000E+00 0. -1.
         22    1    3    3    0    0  0.22048045435E+02  0.20110464093E+02 -0.33598001881E+01  0.30030573269E+02  0.00000000000E+00 0. -1.
</event>
<event>
 7    1  0.5139898E-006  0.7907931E+02  0.7818608E-02  0.1411967E+00
          2   -1    0    0  502    0  0.00000000000E+00  0.00000000000E+00  0.83351087577E+03  0.83351087577E+03  0.00000000000E+00 0. -1.
          1   -1    0    0  501    0 -0.00000000000E+00 -0.00000000000E+00 -0.10690958041E+04  0.10690958041E+04  0.00000000000E+00 0. -1.
         25    2    1    2    0    0 -0.54912971623E+02 -0.89180560544E+02  0.87384656204E+01  0.16334906675E+03  0.12505178926E+03 0.  0.
          2    1    1    2  501    0  0.16016281338E+02  0.77077680459E+02 -0.98967124803E+03  0.99279739588E+03  0.00000000000E+00 0. -1.
          1    1    1    2  502    0  0.38896690286E+02  0.12102880085E+02  0.74534785412E+03  0.74646021720E+03  0.00000000000E+00 0. -1.
         22    1    3    3    0    0 -0.88421452891E+02 -0.30371732392E+02 -0.73412606512E+01  0.93780006227E+02  0.00000000000E+00 0.  1.
         22    1    3    3    0    0  0.33508481268E+02 -0.58808828152E+02  0.16079726272E+02  0.69569060526E+02  0.00000000000E+00 0.  1.
</event>
<event>
 7    1  0.5139898E-006  0.9989455E+02  0.7818608E-02  0.1300152E+00
          2   -1    0    0  502    0  0.00000000000E+00  0.00000000000E+00  0.35659820718E+04  0.35659820718E+04  0.00000000000E+00 0. -1.
          1   -1    0    0  501    0 -0.00000000000E+00 -0.00000000000E+00 -0.22961060019E+04  0.22961060019E+04  0.00000000000E+00 0. -1.
         25    2    1    2    0    0 -0.18212846160E+03  0.77645796322E+01 -0.14719836611E+03  0.26556157938E+03  0.12499811294E+03 0.  0.
          2    1    1    2  501    0  0.82537192663E+02 -0.98595349380E+01 -0.20881915693E+04  0.20898453600E+04  0.00000000000E+00 0. -1.
          1    1    1    2  502    0  0.99591268938E+02  0.20949553058E+01  0.35052660053E+04  0.35066811343E+04  0.00000000000E+00 0. -1.
         22    1    3    3    0    0 -0.56458717329E+01  0.31987736073E+02 -0.57678451770E+02  0.66195882993E+02  0.00000000000E+00 0.  1.
         22    1    3    3    0    0 -0.17648258987E+03 -0.24223156441E+02 -0.89519914338E+02  0.19936569639E+03  0.00000000000E+00 0.  1.
</event>
<event>
 7    1  0.5139898E-006  0.7551675E+02  0.7818608E-02  0.1417518E+00
          2   -1    0    0  502    0  0.00000000000E+00  0.00000000000E+00  0.20582137982E+03  0.20582137982E+03  0.00000000000E+00 0. -1.
          1   -1    0    0  501    0 -0.00000000000E+00 -0.00000000000E+00 -0.44890649480E+03  0.44890649480E+03  0.00000000000E+00 0. -1.
         25    2    1    2    0    0  0.83373102621E+02 -0.70463582099E+02  0.14053171508E+03  0.21746301502E+03  0.12499923726E+03 0.  0.
          2    1    1    2  501    0 -0.43651969522E+02  0.60876122866E+02 -0.38891277002E+03  0.39606128246E+03  0.00000000000E+00 0. -1.
          1    1    1    2  502    0 -0.39721133099E+02  0.95874592332E+01  0.52959399551E+01  0.41203577141E+02  0.00000000000E+00 0. -1.
         22    1    3    3    0    0  0.74116365831E+02 -0.98932072487E+02  0.14101165044E+03  0.18752353508E+03  0.00000000000E+00 0. -1.
         22    1    3    3    0    0  0.92567367895E+01  0.28468490388E+02 -0.47993535634E+00  0.29939479937E+02  0.00000000000E+00 0. -1.
</event>
<event>
 7    1  0.5139898E-006  0.9377183E+02  0.7818608E-02  0.1376566E+00
          2   -1    0    0  502    0  0.00000000000E+00  0.00000000000E+00  0.79687731834E+03  0.79687731834E+03  0.00000000000E+00 0. -1.
          1   -1    0    0  501    0 -0.00000000000E+00 -0.00000000000E+00 -0.15913108546E+03  0.15913108546E+03  0.00000000000E+00 0. -1.
         25    2    1    2    0    0 -0.14424988094E+02  0.72740282217E+02  0.54860042975E+02  0.15535063198E+03  0.12499986241E+03 0.  0.
          2    1    1    2  501    0 -0.45545478988E+02  0.17164380094E+01 -0.10063907371E+03  0.11047877612E+03  0.00000000000E+00 0. -1.
          1    1    1    2  502    0  0.59970467082E+02 -0.74456720227E+02  0.68352526362E+03  0.69017899570E+03  0.00000000000E+00 0. -1.
         22    1    3    3    0    0 -0.35306141689E+02  0.70292516010E+02 -0.17000957515E+02  0.80477288749E+02  0.00000000000E+00 0. -1.
         22    1    3    3    0    0  0.20881153595E+02  0.24477662073E+01  0.71861000490E+02  0.74873343229E+02  0.00000000000E+00 0. -1.
</event>
<event>
 7    1  0.5139898E-006  0.7596603E+02  0.7818608E-02  0.1410483E+00
          2   -1    0    0  502    0  0.00000000000E+00  0.00000000000E+00  0.30380387720E+03  0.30380387720E+03  0.00000000000E+00 0. -1.
          1   -1    0    0  501    0 -0.00000000000E+00 -0.00000000000E+00 -0.11759803138E+03  0.11759803138E+03  0.00000000000E+00 0. -1.
         25    2    1    2    0    0  0.68101910791E+02  0.35366227065E+02  0.61147325887E+02  0.15889421932E+03  0.12497894703E+03 0.  0.
          2    1    1    2  501    0 -0.39346123263E+02 -0.67200169554E+02 -0.43072604537E+02  0.88990052621E+02  0.00000000000E+00 0. -1.
          1    1    1    2  502    0 -0.28755787528E+02  0.31833942489E+02  0.16813112446E+03  0.17351763664E+03  0.00000000000E+00 0. -1.
         22    1    3    3    0    0  0.74905137098E+02 -0.10490892830E+02  0.78857697414E+02  0.10926744638E+03  0.00000000000E+00 0. -1.
         22    1    3    3    0    0 -0.68032263069E+01  0.45857119895E+02 -0.17710371527E+02  0.49626772944E+02  0.00000000000E+00 0. -1.
</event>
<event>
 7    1  0.5139898E-006  0.8395803E+02  0.7818608E-02  0.1455953E+00
          2   -1    0    0  502    0  0.00000000000E+00  0.00000000000E+00  0.67390491934E+03  0.67390491934E+03  0.00000000000E+00 0. -1.
          1   -1    0    0  501    0 -0.00000000000E+00 -0.00000000000E+00 -0.83790260163E+03  0.83790260163E+03  0.00000000000E+00 0. -1.
         25    2    1    2    0    0  0.41062715449E+02  0.65305942570E+02  0.61473800068E+02  0.15923266694E+03  0.12500000557E+03 0.  0.
          2    1    1    2  501    0 -0.65585259410E+02 -0.52773131647E+02 -0.78643909332E+03  0.79093165139E+03  0.00000000000E+00 0. -1.
          1    1    1    2  502    0  0.24522543960E+02 -0.12532810923E+02  0.56096761096E+03  0.56164320263E+03  0.00000000000E+00 0. -1.
         22    1    3    3    0    0 -0.32666702475E+02 -0.20300956501E+01  0.48545762670E+02  0.58548491118E+02  0.00000000000E+00 0.  1.
         22    1    3    3    0    0  0.73729417925E+02  0.67336038220E+02  0.12928037398E+02  0.10068417583E+03  0.00000000000E+00 0.  1.
</event>
<event>
 7    1  0.5139898E-006  0.1478936E+03  0.7818608E-02  0.1247466E+00
          2   -1    0    0  502    0  0.00000000000E+00  0.00000000000E+00  0.44701898641E+03  0.44701898641E+03  0.00000000000E+00 0. -1.
          1   -1    0    0  501    0 -0.00000000000E+00 -0.00000000000E+00 -0.72493216119E+03  0.72493216119E+03  0.00000000000E+00 0. -1.
         25    2    1    2    0    0  0.39142824253E+02  0.10786769848E+03 -0.54325762562E+02  0.17816891138E+03  0.12500108575E+03 0.  0.
          2    1    1    2  501    0  0.43777211201E+02 -0.15036850909E+03 -0.59272510642E+03  0.61306621545E+03  0.00000000000E+00 0. -1.
          1    1    1    2  502    0 -0.82920035454E+02  0.42500810609E+02  0.36913769421E+03  0.38071602077E+03  0.00000000000E+00 0. -1.
         22    1    3    3    0    0 -0.36813237666E+02  0.22658889322E+01 -0.25760718745E+02  0.44988480196E+02  0.00000000000E+00 0.  1.
         22    1    3    3    0    0  0.75956061919E+02  0.10560180954E+03 -0.28565043817E+02  0.13318043118E+03  0.00000000000E+00 0.  1.
</event>
<event>
 7    1  0.5139898E-006  0.9017090E+02  0.7818608E-02  0.1359982E+00
          2   -1    0    0  502    0  0.00000000000E+00  0.00000000000E+00  0.56461318627E+03  0.56461318627E+03  0.00000000000E+00 0. -1.
          1   -1    0    0  501    0 -0.00000000000E+00 -0.00000000000E+00 -0.49973352016E+02  0.49973352016E+02  0.00000000000E+00 0. -1.
         25    2    1    2    0    0 -0.94052740778E+02 -0.73269292554E+02  0.28044738816E+03  0.32936891774E+03  0.12497535423E+03 0.  0.
          2    1    1    2  501    0  0.39671727722E+02  0.74362563788E+02  0.61978411858E+02  0.10461816482E+03  0.00000000000E+00 0. -1.
          1    1    1    2  502    0  0.54381013056E+02 -0.10932712339E+01  0.17221403424E+03  0.18059945574E+03  0.00000000000E+00 0. -1.
         22    1    3    3    0    0 -0.68355655091E+02 -0.10779522596E+03  0.18608222885E+03  0.22565217086E+03  0.00000000000E+00 0. -1.
         22    1    3    3    0    0 -0.25697085686E+02  0.34525933401E+02  0.94365159309E+02  0.10371674687E+03  0.00000000000E+00 0. -1.
</event>
<event>
 7    1  0.5672807E-006  0.1466559E+03  0.7818608E-02  0.1378051E+00
          2   -1    0    0  502    0  0.00000000000E+00  0.00000000000E+00  0.13030659126E+04  0.13030659126E+04  0.00000000000E+00 0. -1.
          1   -1    0    0  501    0 -0.00000000000E+00 -0.00000000000E+00 -0.93594450968E+03  0.93594450968E+03  0.00000000000E+00 0. -1.
         25    2    1    2    0    0  0.37913250469E+02  0.12537793258E+03 -0.90626898086E+02  0.20247539774E+03  0.12500404591E+03 0.  0.
          2    1    1    2  501    0 -0.20005124120E+02  0.20704411602E+02 -0.78478640638E+03  0.78531432006E+03  0.00000000000E+00 0. -1.
          1    1    1    2  502    0 -0.17908126348E+02 -0.14608234418E+03  0.12425347074E+04  0.12512207045E+04  0.00000000000E+00 0. -1.
         22    1    3    3    0    0 -0.32686276998E+02  0.43806583049E+02  0.92800643000E+01  0.55439417528E+02  0.00000000000E+00 0.  1.
         22    1    3    3    0    0  0.70599527467E+02  0.81571349532E+02 -0.99906962386E+02  0.14703598021E+03  0.00000000000E+00 0.  1.
</event>
<event>
 7    1  0.5139898E-006  0.1229498E+03  0.7818608E-02  0.1374311E+00
          2   -1    0    0  502    0  0.00000000000E+00  0.00000000000E+00  0.15890460327E+03  0.15890460327E+03  0.00000000000E+00 0. -1.
          1   -1    0    0  501    0 -0.00000000000E+00 -0.00000000000E+00 -0.61420227153E+03  0.61420227153E+03  0.00000000000E+00 0. -1.
         25    2    1    2    0    0 -0.70419088389E+02 -0.12732826367E+03 -0.32836906306E+01  0.19185092313E+03  0.12499863737E+03 0.  0.
          2    1    1    2  501    0  0.78294902642E+02  0.92804224848E+02 -0.50396437257E+03  0.51838480374E+03  0.00000000000E+00 0. -1.
          1    1    1    2  502    0 -0.78758142533E+01  0.34524038820E+02  0.51950394947E+02  0.62871147927E+02  0.00000000000E+00 0. -1.
         22    1    3    3    0    0 -0.82856048324E+02 -0.12602461911E+03 -0.37505814063E+02  0.15541562165E+03  0.00000000000E+00 0.  1.
         22    1    3    3    0    0  0.12436959935E+02 -0.13036445618E+01  0.34222123433E+02  0.36435301478E+02  0.00000000000E+00 0.  1.
</event>
<event>
 7    1  0.5139898E-006  0.7760595E+02  0.7818608E-02  0.1503115E+00
          2   -1    0    0  502    0  0.00000000000E+00  0.00000000000E+00  0.49895881099E+02  0.49895881099E+02  0.00000000000E+00 0. -1.
          1   -1    0    0  501    0 -0.00000000000E+00 -0.00000000000E+00 -0.12747904928E+04  0.12747904928E+04  0.00000000000E+00 0. -1.
         25    2    1    2    0    0  0.51219718673E+02  0.28246747319E+02 -0.36731038159E+03  0.39238325161E+03  0.12500544550E+03 0.  0.
          2    1    1    2  501    0  0.19639355185E+02  0.83635400594E+01 -0.85208879983E+03  0.85235613207E+03  0.00000000000E+00 0. -1.
          1    1    1    2  502    0 -0.70859073858E+02 -0.36610287379E+02 -0.54954302675E+01  0.79946990211E+02  0.00000000000E+00 0. -1.
         22    1    3    3    0    0 -0.22279861081E+02 -0.12200366229E+02 -0.23052427527E+03  0.23191956070E+03  0.00000000000E+00 0. -1.
         22    1    3    3    0    0  0.73499579754E+02  0.40447113549E+02 -0.13678610632E+03  0.16046369091E+03  0.00000000000E+00 0. -1.
</event>
<event>
 7    1  0.5139898E-006  0.4255029E+02  0.7818608E-02  0.1555017E+00
          2   -1    0    0  502    0  0.00000000000E+00  0.00000000000E+00  0.51737649820E+03  0.51737649820E+03  0.00000000000E+00 0. -1.
          1   -1    0    0  501    0 -0.00000000000E+00 -0.00000000000E+00 -0.23874025214E+03  0.23874025214E+03  0.00000000000E+00 0. -1.
         25    2    1    2    0    0 -0.99765702062E+01 -0.45320812320E+02 -0.80301905494E+02  0.15563439160E+03  0.12498063786E+03 0.  0.
          2    1    1    2  501    0 -0.17022617162E+02  0.39450937386E+02 -0.11653676608E+03  0.12420532921E+03  0.00000000000E+00 0. -1.
          1    1    1    2  502    0  0.26999187368E+02  0.58698749347E+01  0.47547491764E+03  0.47627702952E+03  0.00000000000E+00 0. -1.
         22    1    3    3    0    0  0.41115396972E+02  0.15285181414E+02 -0.15432847209E+01  0.43891848523E+02  0.00000000000E+00 0. -1.
         22    1    3    3    0    0 -0.51091967178E+02 -0.60605993734E+02 -0.78758620773E+02  0.11174254307E+03  0.00000000000E+00 0. -1.
</event>
<event>
 7    1  0.5139898E-006  0.5849430E+02  0.7818608E-02  0.1441456E+00
          2   -1    0    0  502    0  0.00000000000E+00  0.00000000000E+00  0.33836873313E+03  0.33836873313E+03  0.00000000000E+00 0. -1.
          1   -1    0    0  501    0 -0.00000000000E+00 -0.00000000000E+00 -0.17657523234E+03  0.17657523234E+03  0.00000000000E+00 0. -1.
         25    2    1    2    0    0  0.18127775989E+02  0.18535789409E+02 -0.11403409137E+03  0.17117501051E+03  0.12499967390E+03 0.  0.
          2    1    1    2  501    0 -0.75999517784E+02 -0.27047261188E+02  0.22460681362E+02  0.83737466216E+02  0.00000000000E+00 0. -1.
          1    1    1    2  502    0  0.57871741795E+02  0.85114717790E+01  0.25336691080E+03  0.26003148874E+03  0.00000000000E+00 0. -1.
         22    1    3    3    0    0  0.34276240855E+02 -0.83400540904E+01  0.15039000031E+02  0.38348255649E+02  0.00000000000E+00 0.  1.
         22    1    3    3    0    0 -0.16148464866E+02  0.26875843499E+02 -0.12907309140E+03  0.13282675486E+03  0.00000000000E+00 0.  1.
</event>
<event>
 7    1  0.5139898E-006  0.6098841E+02  0.7818608E-02  0.1396143E+00
          2   -1    0    0  502    0  0.00000000000E+00  0.00000000000E+00  0.99473297948E+02  0.99473297948E+02  0.00000000000E+00 0. -1.
          1   -1    0    0  501    0 -0.00000000000E+00 -0.00000000000E+00 -0.14370286319E+04  0.14370286319E+04  0.00000000000E+00 0. -1.
         25    2    1    2    0    0  0.50361367615E+02  0.97861056672E+01 -0.87181716083E+03  0.88222567194E+03  0.12499975645E+03 0.  0.
          2    1    1    2  501    0 -0.50404336261E+02  0.51202286475E+02 -0.54754412691E+03  0.55223803035E+03  0.00000000000E+00 0. -1.
          1    1    1    2  502    0  0.42968646419E-01 -0.60988392143E+02  0.81805953744E+02  0.10203822759E+03  0.00000000000E+00 0. -1.
         22    1    3    3    0    0 -0.42105980378E+02  0.63951192020E+01 -0.27467966949E+03  0.27796174551E+03  0.00000000000E+00 0.  1.
         22    1    3    3    0    0  0.92467347993E+02  0.33909864653E+01 -0.59713749134E+03  0.60426392644E+03  0.00000000000E+00 0.  1.
</event>
<event>
 7    1  0.5139898E-006  0.2614778E+03  0.7818608E-02  0.1200693E+00
          2   -1    0    0  502    0  0.00000000000E+00  0.00000000000E+00  0.12359910179E+04  0.12359910179E+04  0.00000000000E+00 0. -1.
          1   -1    0    0  501    0 -0.00000000000E+00 -0.00000000000E+00 -0.26457732651E+03  0.26457732651E+03  0.00000000000E+00 0. -1.
         25    2    1    2    0    0 -0.24091616615E+03  0.78483397919E+02  0.63481378445E+03  0.69484770994E+03  0.12499822483E+03 0.  0.
          2    1    1    2  501    0  0.26377191883E+03  0.42618364892E+01 -0.15547582314E+03  0.30621319370E+03  0.00000000000E+00 0. -1.
          1    1    1    2  502    0 -0.22855752679E+02 -0.82745234408E+02  0.49207573009E+03  0.49950744078E+03  0.00000000000E+00 0. -1.
         22    1    3    3    0    0 -0.99897225592E+02  0.70012140844E+02  0.17140021321E+03  0.21037867913E+03  0.00000000000E+00 0.  1.
         22    1    3    3    0    0 -0.14101894056E+03  0.84712570755E+01  0.46341357125E+03  0.48446903081E+03  0.00000000000E+00 0.  1.
</event>
<event>
 7    1  0.5139898E-006  0.2802606E+02  0.7818608E-02  0.1646196E+00
          2   -1    0    0  502    0  0.00000000000E+00  0.00000000000E+00  0.21654859168E+04  0.21654859168E+04  0.00000000000E+00 0. -1.
          1   -1    0    0  501    0 -0.00000000000E+00 -0.00000000000E+00 -0.56191056919E+01  0.56191056919E+01  0.00000000000E+00 0. -1.
         25    2    1    2    0    0  0.27304011326E+02  0.31712362284E+02  0.11392174020E+04  0.11468185069E+04  0.12500086305E+03 0.  0.
          2    1    1    2  501    0 -0.26209568841E+02 -0.75008761346E+01  0.11045730621E+03  0.11377179412E+03  0.00000000000E+00 0. -1.
          1    1    1    2  502    0 -0.10944424844E+01 -0.24211486149E+02  0.91019210285E+03  0.91051472144E+03  0.00000000000E+00 0. -1.
         22    1    3    3    0    0  0.34500785939E+02 -0.16880806389E+02  0.96618831650E+03  0.96695146145E+03  0.00000000000E+00 0. -1.
         22    1    3    3    0    0 -0.71967746138E+01  0.48593168673E+02  0.17302908553E+03  0.17986704546E+03  0.00000000000E+00 0. -1.
</event>
<event>
 7    1  0.5139898E-006  0.2854597E+02  0.7818608E-02  0.1619224E+00
          2   -1    0    0  502    0  0.00000000000E+00  0.00000000000E+00  0.17778832436E+03  0.17778832436E+03  0.00000000000E+00 0. -1.
          1   -1    0    0  501    0 -0.00000000000E+00 -0.00000000000E+00 -0.65484780228E+03  0.65484780228E+03  0.00000000000E+00 0. -1.
         25    2    1    2    0    0 -0.84090458222E+01  0.54471342928E+02 -0.32242053015E+02  0.14036517437E+03  0.12499997176E+03 0.  0.
          2    1    1    2  501    0 -0.33461119545E+00 -0.27800323622E+02 -0.56660714082E+03  0.56728883471E+03  0.00000000000E+00 0. -1.
          1    1    1    2  502    0  0.87436570177E+01 -0.26671019306E+02  0.12178971591E+03  0.12498211756E+03  0.00000000000E+00 0. -1.
         22    1    3    3    0    0  0.31823759985E+02  0.80162395840E+02 -0.33722182962E+02  0.92606409228E+02  0.00000000000E+00 0.  1.
         22    1    3    3    0    0 -0.40232805807E+02 -0.25691052912E+02  0.14801299469E+01  0.47758765138E+02  0.00000000000E+00 0.  1.
</event>
<event>
 7    1  0.5139898E-006  0.1156622E+03  0.7818608E-02  0.1292403E+00
          2   -1    0    0  502    0  0.00000000000E+00  0.00000000000E+00  0.16627147948E+04  0.16627147948E+04  0.00000000000E+00 0. -1.
          1   -1    0    0  501    0 -0.00000000000E+00 -0.00000000000E+00 -0.58332802973E+02  0.58332802973E+02  0.00000000000E+00 0. -1.
         25    2    1    2    0    0 -0.18109347888E+03  0.35148383343E+02  0.46870201034E+03  0.51897638091E+03  0.12499861000E+03 0.  0.
          2    1    1    2  501    0  0.77018027283E+02 -0.43365016979E+01  0.18102908953E+02  0.79235705879E+02  0.00000000000E+00 0. -1.
          1    1    1    2  502    0  0.10407545159E+03 -0.30811881645E+02  0.11175770725E+04  0.11228355109E+04  0.00000000000E+00 0. -1.
         22    1    3    3    0    0 -0.17603378861E+03  0.13151593409E+02  0.46326821394E+03  0.49576032232E+03  0.00000000000E+00 0.  1.
         22    1    3    3    0    0 -0.50596902694E+01  0.21996789934E+02  0.54337963975E+01  0.23216058587E+02  0.00000000000E+00 0.  1.
</event>
<event>
 7    1  0.5139898E-006  0.3775111E+02  0.7818608E-02  0.1556592E+00
          2   -1    0    0  502    0  0.00000000000E+00  0.00000000000E+00  0.58813400347E+03  0.58813400347E+03  0.00000000000E+00 0. -1.
          1   -1    0    0  501    0 -0.00000000000E+00 -0.00000000000E+00 -0.24814777587E+03  0.24814777587E+03  0.00000000000E+00 0. -1.
         25    2    1    2    0    0  0.44767600142E+01  0.72025919897E+01 -0.58480965240E+02  0.13826249492E+03  0.12499830197E+03 0.  0.
          2    1    1    2  501    0 -0.27193787228E+01  0.30711053448E+02 -0.14752359318E+03  0.15071089665E+03  0.00000000000E+00 0. -1.
          1    1    1    2  502    0 -0.17573812914E+01 -0.37913645438E+02  0.54599078602E+03  0.54730838777E+03  0.00000000000E+00 0. -1.
         22    1    3    3    0    0  0.99279920604E+01 -0.57078481880E+02 -0.13128677681E+02  0.59404379449E+02  0.00000000000E+00 0. -1.
         22    1    3    3    0    0 -0.54512320462E+01  0.64281073870E+02 -0.45352287560E+02  0.78858115471E+02  0.00000000000E+00 0. -1.
</event>
<event>
 7    1  0.5139898E-006  0.6507772E+02  0.7818608E-02  0.1389856E+00
          2   -1    0    0  502    0  0.00000000000E+00  0.00000000000E+00  0.14562308574E+04  0.14562308574E+04  0.00000000000E+00 0. -1.
          1   -1    0    0  501    0 -0.00000000000E+00 -0.00000000000E+00 -0.78618292384E+02  0.78618292384E+02  0.00000000000E+00 0. -1.
         25    2    1    2    0    0 -0.34728769969E+02  0.10216793660E+03  0.35415740712E+03  0.39076229507E+03  0.12499330984E+03 0.  0.
          2    1    1    2  501    0  0.45727008788E+02 -0.44244626357E+02 -0.42490864944E+02  0.76511567085E+02  0.00000000000E+00 0. -1.
          1    1    1    2  502    0 -0.10998238819E+02 -0.57923310241E+02  0.10659460229E+04  0.10675752876E+04  0.00000000000E+00 0. -1.
         22    1    3    3    0    0  0.42317575864E+02  0.53998370131E+02  0.10377459513E+03  0.12440163905E+03  0.00000000000E+00 0. -1.
         22    1    3    3    0    0 -0.77046345833E+02  0.48169566467E+02  0.25038281199E+03  0.26636065603E+03  0.00000000000E+00 0. -1.
</event>
<event>
 7    1  0.5139898E-006  0.4393019E+02  0.7818608E-02  0.1543965E+00
          2   -1    0    0  502    0  0.00000000000E+00  0.00000000000E+00  0.11753446233E+04  0.11753446233E+04  0.00000000000E+00 0. -1.
          1   -1    0    0  501    0 -0.00000000000E+00 -0.00000000000E+00 -0.19063087806E+02  0.19063087806E+02  0.00000000000E+00 0. -1.
         25    2    1    2    0    0  0.38656873861E+02  0.55384579843E+02  0.40553020347E+03  0.42970142595E+03  0.12500705565E+03 0.  0.
          2    1    1    2  501    0 -0.24525798157E+02 -0.14967147539E+02  0.26178755623E+02  0.38869750793E+02  0.00000000000E+00 0. -1.
          1    1    1    2  502    0 -0.14131075704E+02 -0.40417432304E+02  0.72457257638E+03  0.72583653433E+03  0.00000000000E+00 0. -1.
         22    1    3    3    0    0 -0.66728745872E+01  0.10257787455E+01 -0.78223289860E+01  0.10332875111E+02  0.00000000000E+00 0. -1.
         22    1    3    3    0    0  0.45329748449E+02  0.54358801098E+02  0.41335253245E+03  0.41936855084E+03  0.00000000000E+00 0. -1.
</event>
<event>
 7    1  0.5139898E-006  0.2457825E+03  0.7818608E-02  0.1156830E+00
          2   -1    0    0  502    0  0.00000000000E+00  0.00000000000E+00  0.27205879603E+03  0.27205879603E+03  0.00000000000E+00 0. -1.
          1   -1    0    0  501    0 -0.00000000000E+00 -0.00000000000E+00 -0.13337688547E+04  0.13337688547E+04  0.00000000000E+00 0. -1.
         25    2    1    2    0    0 -0.23616555833E+03  0.77317183616E+02  0.12412079020E+03  0.30460436822E+03  0.12500293099E+03 0.  0.
          2    1    1    2  501    0  0.14877040036E+03 -0.19886457739E+03 -0.11020116744E+04  0.11296501594E+04  0.00000000000E+00 0. -1.
          1    1    1    2  502    0  0.87395157968E+02  0.12154739378E+03 -0.83819174534E+02  0.17157312316E+03  0.00000000000E+00 0. -1.
         22    1    3    3    0    0 -0.53330378818E+02  0.62278408953E+02 -0.19390371694E+01  0.82015177813E+02  0.00000000000E+00 0. -1.
         22    1    3    3    0    0 -0.18283517951E+03  0.15038774663E+02  0.12605982737E+03  0.22258919041E+03  0.00000000000E+00 0. -1.
</event>
<event>
 7    1  0.5139898E-006  0.7410542E+02  0.7818608E-02  0.1478152E+00
          2   -1    0    0  502    0  0.00000000000E+00  0.00000000000E+00  0.17976857263E+02  0.17976857263E+02  0.00000000000E+00 0. -1.
          1   -1    0    0  501    0 -0.00000000000E+00 -0.00000000000E+00 -0.13332426270E+04  0.13332426270E+04  0.00000000000E+00 0. -1.
         25    2    1    2    0    0 -0.52176431587E+02  0.83000856622E+02 -0.11033447653E+04  0.11147225416E+04  0.12500060646E+03 0.  0.
          2    1    1    2  501    0  0.15402116253E+02 -0.21682889373E+02 -0.10166822257E+03  0.10508948738E+03  0.00000000000E+00 0. -1.
          1    1    1    2  502    0  0.36774315334E+02 -0.61317967249E+02 -0.11025278195E+03  0.13140745528E+03  0.00000000000E+00 0. -1.
         22    1    3    3    0    0 -0.39862369109E+02  0.45026644832E+02 -0.16649439065E+03  0.17702200240E+03  0.00000000000E+00 0. -1.
         22    1    3    3    0    0 -0.12314062478E+02  0.37974211790E+02 -0.93685037461E+03  0.93770053925E+03  0.00000000000E+00 0. -1.
</event>
<event>
 7    1  0.5139898E-006  0.2533076E+02  0.7818608E-02  0.1685952E+00
          2   -1    0    0  502    0  0.00000000000E+00  0.00000000000E+00  0.14858199539E+04  0.14858199539E+04  0.00000000000E+00 0. -1.
          1   -1    0    0  501    0 -0.00000000000E+00 -0.00000000000E+00 -0.75336683130E+02  0.75336683130E+02  0.00000000000E+00 0. -1.
         25    2    1    2    0    0  0.84590892147E+01  0.18878369790E+02  0.52304288466E+03  0.53816964820E+03  0.12499904806E+03 0.  0.
          2    1    1    2  501    0  0.12845500750E+02 -0.21901355142E+02 -0.65269483342E+02  0.70034146687E+02  0.00000000000E+00 0. -1.
          1    1    1    2  502    0 -0.21304589964E+02  0.30229853515E+01  0.95270986947E+03  0.95295284216E+03  0.00000000000E+00 0. -1.
         22    1    3    3    0    0  0.43159359922E+02 -0.31030221624E+02  0.12990124015E+03  0.14035646474E+03  0.00000000000E+00 0. -1.
         22    1    3    3    0    0 -0.34700270707E+02  0.49908591415E+02  0.39314164451E+03  0.39781318345E+03  0.00000000000E+00 0. -1.
</event>
<event>
 7    1  0.5139898E-006  0.4148022E+02  0.7818608E-02  0.1598061E+00
          2   -1    0    0  502    0  0.00000000000E+00  0.00000000000E+00  0.12523633039E+04  0.12523633039E+04  0.00000000000E+00 0. -1.
          1   -1    0    0  501    0 -0.00000000000E+00 -0.00000000000E+00 -0.29720348021E+03  0.29720348021E+03  0.00000000000E+00 0. -1.
         25    2    1    2    0    0 -0.46153771682E+02 -0.42749141179E+02  0.52086568560E+03  0.53933680086E+03  0.12500185044E+03 0.  0.
          2    1    1    2  501    0  0.28671000862E+02  0.29893365236E+02 -0.28631430272E+03  0.28929486604E+03  0.00000000000E+00 0. -1.
          1    1    1    2  502    0  0.17482770821E+02  0.12855775943E+02  0.72060844078E+03  0.72093511717E+03  0.00000000000E+00 0. -1.
         22    1    3    3    0    0 -0.83251085943E+02 -0.20500040661E+02  0.23369601713E+03  0.24892734563E+03  0.00000000000E+00 0. -1.
         22    1    3    3    0    0  0.37097314261E+02 -0.22249100518E+02  0.28716966847E+03  0.29040945523E+03  0.00000000000E+00 0. -1.
</event>
<event>
 7    1  0.5139898E-006  0.5878263E+02  0.7818608E-02  0.1506075E+00
          2   -1    0    0  502    0  0.00000000000E+00  0.00000000000E+00  0.14267644304E+04  0.14267644304E+04  0.00000000000E+00 0. -1.
          1   -1    0    0  501    0 -0.00000000000E+00 -0.00000000000E+00 -0.53517953985E+02  0.53517953985E+02  0.00000000000E+00 0. -1.
         25    2    1    2    0    0  0.22606726434E+02  0.65980461676E+02  0.13654294603E+04  0.13729118390E+04  0.12499928488E+03 0.  0.
          2    1    1    2  501    0  0.39973997516E+01 -0.58567848082E+02 -0.25578659211E+02  0.64034676861E+02  0.00000000000E+00 0. -1.
          1    1    1    2  502    0 -0.26604126185E+02 -0.74126135944E+01  0.33395675350E+02  0.43335868544E+02  0.00000000000E+00 0. -1.
         22    1    3    3    0    0  0.14166242753E+02  0.45137196853E+02  0.15019465977E+03  0.15746899631E+03  0.00000000000E+00 0. -1.
         22    1    3    3    0    0  0.84404836803E+01  0.20843264823E+02  0.12152348005E+04  0.12154428427E+04  0.00000000000E+00 0. -1.
</event>
<event>
 7    1  0.5139898E-006  0.4489075E+02  0.7818608E-02  0.1510747E+00
          2   -1    0    0  502    0  0.00000000000E+00  0.00000000000E+00  0.19800907041E+03  0.19800907041E+03  0.00000000000E+00 0. -1.
          1   -1    0    0  501    0 -0.00000000000E+00 -0.00000000000E+00 -0.20226793034E+03  0.20226793034E+03  0.00000000000E+00 0. -1.
         25    2    1    2    0    0 -0.25197860148E+02 -0.62519787764E+02 -0.58044898636E+02  0.15342245945E+03  0.12500233912E+03 0.  0.
          2    1    1    2  501    0  0.32676743979E+02  0.28292982174E+02 -0.89476973065E+02  0.99369971049E+02  0.00000000000E+00 0. -1.
          1    1    1    2  502    0 -0.74788838309E+01  0.34226805590E+02  0.14326301176E+03  0.14748457026E+03  0.00000000000E+00 0. -1.
         22    1    3    3    0    0 -0.49248378463E+01  0.38086763920E+02 -0.79413424497E+01  0.39216329936E+02  0.00000000000E+00 0. -1.
         22    1    3    3    0    0 -0.20273022302E+02 -0.10060655168E+03 -0.50103556187E+02  0.11420612951E+03  0.00000000000E+00 0. -1.
</event>
<event>
 7    1  0.5139898E-006  0.5273531E+02  0.7818608E-02  0.1433272E+00
          2   -1    0    0  502    0  0.00000000000E+00  0.00000000000E+00  0.24306350610E+03  0.24306350610E+03  0.00000000000E+00 0. -1.
          1   -1    0    0  501    0 -0.00000000000E+00 -0.00000000000E+00 -0.83141738748E+02  0.83141738748E+02  0.00000000000E+00 0. -1.
         25    2    1    2    0    0  0.15912950341E+02  0.68636271232E+02  0.69586845319E+02  0.15946756383E+03  0.12499366046E+03 0.  0.
          2    1    1    2  501    0  0.29635798054E+02 -0.43787903300E+02 -0.99716791599E+01  0.53806090613E+02  0.00000000000E+00 0. -1.
          1    1    1    2  502    0 -0.45548748395E+02 -0.24848367932E+02  0.10030660119E+03  0.11293159041E+03  0.00000000000E+00 0. -1.
         22    1    3    3    0    0 -0.44713910005E+00 -0.70109073943E+01 -0.31432371415E+02  0.32207867496E+02  0.00000000000E+00 0.  1.
         22    1    3    3    0    0  0.16360089441E+02  0.75647178626E+02  0.10101921673E+03  0.12725969633E+03  0.00000000000E+00 0.  1.
</event>
<event>
 7    1  0.5139898E-006  0.1096095E+03  0.7818608E-02  0.1300322E+00
          2   -1    0    0  502    0  0.00000000000E+00  0.00000000000E+00  0.51496946088E+03  0.51496946088E+03  0.00000000000E+00 0. -1.
          1   -1    0    0  501    0 -0.00000000000E+00 -0.00000000000E+00 -0.50662895249E+03  0.50662895249E+03  0.00000000000E+00 0. -1.
         25    2    1    2    0    0  0.13445815978E+02  0.53479679817E+02 -0.14686915602E+03  0.20059027093E+03  0.12500016673E+03 0.  0.
          2    1    1    2  501    0 -0.56944838768E+02  0.49783232469E+02 -0.32202853651E+03  0.33079217528E+03  0.00000000000E+00 0. -1.
          1    1    1    2  502    0  0.43499022789E+02 -0.10326291229E+03  0.47723820093E+03  0.49021596716E+03  0.00000000000E+00 0. -1.
         22    1    3    3    0    0  0.46531029163E+02  0.74665957521E+02 -0.13189780115E+03  0.15854706505E+03  0.00000000000E+00 0. -1.
         22    1    3    3    0    0 -0.33085213185E+02 -0.21186277705E+02 -0.14971354871E+02  0.42043205886E+02  0.00000000000E+00 0. -1.
</event>
<event>
 7    1  0.5139898E-006  0.5574190E+02  0.7818608E-02  0.1540212E+00
          2   -1    0    0  502    0  0.00000000000E+00  0.00000000000E+00  0.29430318024E+03  0.29430318024E+03  0.00000000000E+00 0. -1.
          1   -1    0    0  501    0 -0.00000000000E+00 -0.00000000000E+00 -0.14582220814E+03  0.14582220814E+03  0.00000000000E+00 0. -1.
         25    2    1    2    0    0 -0.70302673076E+02 -0.14394587039E+02  0.13610677089E+03  0.19824473739E+03  0.12500501127E+03 0.  0.
          2    1    1    2  501    0  0.49435607605E+02  0.24538798576E+02 -0.10693434064E+03  0.12033696499E+03  0.00000000000E+00 0. -1.
          1    1    1    2  502    0  0.20867065471E+02 -0.10144211537E+02  0.11930854184E+03  0.12154368600E+03  0.00000000000E+00 0. -1.
         22    1    3    3    0    0 -0.61654329977E+02  0.34636267298E+02  0.22505197386E+02  0.74211935204E+02  0.00000000000E+00 0.  1.
         22    1    3    3    0    0 -0.86483430988E+01 -0.49030854337E+02  0.11360157351E+03  0.12403280219E+03  0.00000000000E+00 0.  1.
</event>
<event>
 7    1  0.5536551E-006  0.6132029E+02  0.7818608E-02  0.1418758E+00
          2   -1    0    0  502    0  0.00000000000E+00  0.00000000000E+00  0.24250694807E+04  0.24250694807E+04  0.00000000000E+00 0. -1.
          1   -1    0    0  501    0 -0.00000000000E+00 -0.00000000000E+00 -0.79965314693E+03  0.79965314693E+03  0.00000000000E+00 0. -1.
         25    2    1    2    0    0  0.38733188347E+02  0.13194976704E+02  0.54704167036E+02  0.14245111109E+03  0.12500162347E+03 0.  0.
          2    1    1    2  501    0  0.11892073867E+02 -0.48403289132E+02 -0.75454870520E+03  0.75619312900E+03  0.00000000000E+00 0. -1.
          1    1    1    2  502    0 -0.50625262214E+02  0.35208312428E+02  0.23252608719E+04  0.23260783876E+04  0.00000000000E+00 0. -1.
         22    1    3    3    0    0 -0.23753007978E+02 -0.41933813234E+02  0.20690801932E+02  0.52447682169E+02  0.00000000000E+00 0. -1.
         22    1    3    3    0    0  0.62486196325E+02  0.55128789938E+02  0.34013365104E+02  0.90003428917E+02  0.00000000000E+00 0. -1.
</event>
<event>
 7    1  0.5139898E-006  0.6451156E+02  0.7818608E-02  0.1403830E+00
          2   -1    0    0  502    0  0.00000000000E+00  0.00000000000E+00  0.25756853762E+03  0.25756853762E+03  0.00000000000E+00 0. -1.
          1   -1    0    0  501    0 -0.00000000000E+00 -0.00000000000E+00 -0.67042319974E+03  0.67042319974E+03  0.00000000000E+00 0. -1.
         25    2    1    2    0    0 -0.17469299268E+02 -0.26864640446E+02 -0.37980056123E+03  0.40111701260E+03  0.12497802270E+03 0.  0.
          2    1    1    2  501    0  0.41220467024E+02 -0.33661226737E+02 -0.27307025114E+03  0.27820777693E+03  0.00000000000E+00 0. -1.
          1    1    1    2  502    0 -0.23751167756E+02  0.60525867183E+02  0.24001615025E+03  0.24866694784E+03  0.00000000000E+00 0. -1.
         22    1    3    3    0    0 -0.12969850975E+02 -0.24775829600E+02 -0.77308279295E+01  0.29014211468E+02  0.00000000000E+00 0.  1.
         22    1    3    3    0    0 -0.44994482938E+01 -0.20888108465E+01 -0.37206973330E+03  0.37210280113E+03  0.00000000000E+00 0.  1.
</event>
<event>
 7    1  0.5139898E-006  0.1133961E+03  0.7818608E-02  0.1307291E+00
          2   -1    0    0  502    0  0.00000000000E+00  0.00000000000E+00  0.31003258570E+04  0.31003258570E+04  0.00000000000E+00 0. -1.
          1   -1    0    0  501    0 -0.00000000000E+00 -0.00000000000E+00 -0.31395961563E+03  0.31395961563E+03  0.00000000000E+00 0. -1.
         25    2    1    2    0    0 -0.78242706102E+02 -0.32661672761E+02  0.12175507727E+03  0.19400648645E+03  0.12500204805E+03 0.  0.
          2    1    1    2  501    0  0.61625477573E+02  0.99207769145E+02 -0.26514135322E+03  0.28972369273E+03  0.00000000000E+00 0. -1.
          1    1    1    2  502    0  0.16617228529E+02 -0.66546096385E+02  0.29297525174E+04  0.29305552935E+04  0.00000000000E+00 0. -1.
         22    1    3    3    0    0  0.25808993835E+02 -0.17828665492E+02 -0.22535494398E+01  0.31449069320E+02  0.00000000000E+00 0.  1.
         22    1    3    3    0    0 -0.10405169994E+03 -0.14833007269E+02  0.12400862671E+03  0.16255741713E+03  0.00000000000E+00 0.  1.
</event>
<event>
 7    1  0.5139898E-006  0.1182916E+03  0.7818608E-02  0.1339272E+00
          2   -1    0    0  502    0  0.00000000000E+00  0.00000000000E+00  0.29503400530E+04  0.29503400530E+04  0.00000000000E+00 0. -1.
          1   -1    0    0  501    0 -0.00000000000E+00 -0.00000000000E+00 -0.34926540127E+03  0.34926540127E+03  0.00000000000E+00 0. -1.
         25    2    1    2    0    0 -0.36642247787E+02 -0.79482663426E+02  0.28753013248E+03  0.32551192068E+03  0.12499714124E+03 0.  0.
          2    1    1    2  501    0  0.27563685158E+02 -0.41091266564E+02 -0.32703002891E+03  0.33075200489E+03  0.00000000000E+00 0. -1.
          1    1    1    2  502    0  0.90785626295E+01  0.12057392999E+03  0.26405745481E+04  0.26433415287E+04  0.00000000000E+00 0. -1.
         22    1    3    3    0    0  0.45753561718E+02 -0.40853934837E+02  0.12504232278E+03  0.13927675645E+03  0.00000000000E+00 0.  1.
         22    1    3    3    0    0 -0.82395809506E+02 -0.38628728589E+02  0.16248780970E+03  0.18623516423E+03  0.00000000000E+00 0.  1.
</event>
<event>
 7    1  0.5139898E-006  0.4996954E+02  0.7818608E-02  0.1511881E+00
          2   -1    0    0  502    0  0.00000000000E+00  0.00000000000E+00  0.15915193876E+04  0.15915193876E+04  0.00000000000E+00 0. -1.
          1   -1    0    0  501    0 -0.00000000000E+00 -0.00000000000E+00 -0.10814527446E+02  0.10814527446E+02  0.00000000000E+00 0. -1.
         25    2    1    2    0    0 -0.57937234884E+02  0.93967130523E+00  0.13708277967E+04  0.13777338136E+04  0.12499602675E+03 0.  0.
          2    1    1    2  501    0  0.18618670806E+02 -0.25076870047E+02  0.58062431496E+02  0.65929889012E+02  0.00000000000E+00 0. -1.
          1    1    1    2  502    0  0.39318564078E+02  0.24137198741E+02  0.15181463195E+03  0.15867021244E+03  0.00000000000E+00 0. -1.
         22    1    3    3    0    0 -0.95786710146E+02  0.80994369936E+00  0.11169650941E+04  0.11210650165E+04  0.00000000000E+00 0. -1.
         22    1    3    3    0    0  0.37849475262E+02  0.12972760586E+00  0.25386270261E+03  0.25666879706E+03  0.00000000000E+00 0. -1.
</event>
<event>
 7    1  0.5139898E-006  0.5727739E+02  0.7818608E-02  0.1429759E+00
          2   -1    0    0  502    0  0.00000000000E+00  0.00000000000E+00  0.74299104666E+03  0.74299104666E+03  0.00000000000E+00 0. -1.
          1   -1    0    0  501    0 -0.00000000000E+00 -0.00000000000E+00 -0.26472612221E+03  0.26472612221E+03  0.00000000000E+00 0. -1.
         25    2    1    2    0    0  0.40813679964E+02  0.51829520192E+02 -0.16565147821E+02  0.14230846173E+03  0.12500095408E+03 0.  0.
          2    1    1    2  501    0 -0.57726876322E+02 -0.57795011396E+01 -0.17983549235E+03  0.18896189878E+03  0.00000000000E+00 0. -1.
          1    1    1    2  502    0  0.16913196358E+02 -0.46050019053E+02  0.67466556462E+03  0.67644680836E+03  0.00000000000E+00 0. -1.
         22    1    3    3    0    0  0.47746648974E+02  0.10535940555E+02 -0.63022876826E+02  0.79766105177E+02  0.00000000000E+00 0.  1.
         22    1    3    3    0    0 -0.69329690094E+01  0.41293579637E+02  0.46457729005E+02  0.62542356550E+02  0.00000000000E+00 0.  1.
</event>
<event>
 7    1  0.5139898E-006  0.1666262E+03  0.7818608E-02  0.1293833E+00
          2   -1    0    0  502    0  0.00000000000E+00  0.00000000000E+00  0.19024270799E+04  0.19024270799E+04  0.00000000000E+00 0. -1.
          1   -1    0    0  501    0 -0.00000000000E+00 -0.00000000000E+00 -0.87008969012E+03  0.87008969012E+03  0.00000000000E+00 0. -1.
         25    2    1    2    0    0 -0.15881040817E+03 -0.43891693321E+02 -0.42441387091E+03  0.47212316270E+03  0.12500368173E+03 0.  0.
          2    1    1    2  501    0  0.14314852327E+03  0.94354417128E+02 -0.40400962043E+03  0.43888270545E+03  0.00000000000E+00 0. -1.
          1    1    1    2  502    0  0.15661884903E+02 -0.50462723807E+02  0.18607608811E+04  0.18615109019E+04  0.00000000000E+00 0. -1.
         22    1    3    3    0    0 -0.20643579674E+02  0.40064573571E+02 -0.97737887797E+02  0.10762909527E+03  0.00000000000E+00 0.  1.
         22    1    3    3    0    0 -0.13816682850E+03 -0.83956266892E+02 -0.32667598311E+03  0.36449406743E+03  0.00000000000E+00 0.  1.
</event>
<event>
 7    1  0.5139898E-006  0.9600806E+02  0.7818608E-02  0.1331878E+00
          2   -1    0    0  502    0  0.00000000000E+00  0.00000000000E+00  0.47736814950E+03  0.47736814950E+03  0.00000000000E+00 0. -1.
          1   -1    0    0  501    0 -0.00000000000E+00 -0.00000000000E+00 -0.14370458445E+04  0.14370458445E+04  0.00000000000E+00 0. -1.
         25    2    1    2    0    0  0.87964740360E+02 -0.36793907136E+02  0.34231115086E+03  0.37668863919E+03  0.12500327893E+03 0.  0.
          2    1    1    2  501    0 -0.31664968807E+02 -0.56794698208E+02 -0.13936347561E+04  0.13951509386E+04  0.00000000000E+00 0. -1.
          1    1    1    2  502    0 -0.56299771553E+02  0.93588605345E+02  0.91645910177E+02  0.14257441629E+03  0.00000000000E+00 0. -1.
         22    1    3    3    0    0  0.10465775494E+03 -0.55772744372E+02  0.20298856022E+03  0.23509189749E+03  0.00000000000E+00 0.  1.
         22    1    3    3    0    0 -0.16693014580E+02  0.18978837236E+02  0.13932259064E+03  0.14159674170E+03  0.00000000000E+00 0.  1.
</event>
<event>
 7    1  0.5139898E-006  0.7275651E+02  0.7818608E-02  0.1442279E+00
          2   -1    0    0  502    0  0.00000000000E+00  0.00000000000E+00  0.46130436841E+03  0.46130436841E+03  0.00000000000E+00 0. -1.
          1   -1    0    0  501    0 -0.00000000000E+00 -0.00000000000E+00 -0.47604114865E+03  0.47604114865E+03  0.00000000000E+00 0. -1.
         25    2    1    2    0    0  0.42163797201E+02  0.12305363708E+02 -0.15558708939E+03  0.20435462092E+03  0.12499704372E+03 0.  0.
          2    1    1    2  501    0 -0.76597540146E+02 -0.19376900052E+02 -0.29007056574E+03  0.30063862114E+03  0.00000000000E+00 0. -1.
          1    1    1    2  502    0  0.34433742945E+02  0.70715363444E+01  0.43092087489E+03  0.43235227499E+03  0.00000000000E+00 0. -1.
         22    1    3    3    0    0  0.14721352458E+02 -0.48142890802E+02 -0.11747199751E+03  0.12780503258E+03  0.00000000000E+00 0.  1.
         22    1    3    3    0    0  0.27442444744E+02  0.60448254509E+02 -0.38115091874E+02  0.76549588342E+02  0.00000000000E+00 0.  1.
</event>
<event>
 7    1  0.9633374E-006  0.8858258E+02  0.7818608E-02  0.1463151E+00
          2   -1    0    0  502    0  0.00000000000E+00  0.00000000000E+00  0.79055733274E+03  0.79055733274E+03  0.00000000000E+00 0. -1.
          1   -1    0    0  501    0 -0.00000000000E+00 -0.00000000000E+00 -0.17753036860E+04  0.17753036860E+04  0.00000000000E+00 0. -1.
         25    2    1    2    0    0 -0.97514665047E+02 -0.51956873663E+02 -0.12696104359E+04  0.12805239521E+04  0.12498922555E+03 0.  0.
          2    1    1    2  501    0  0.15075954992E+02  0.19655340384E+02 -0.49743096382E+03  0.49804736782E+03  0.00000000000E+00 0. -1.
          1    1    1    2  502    0  0.82438710055E+02  0.32301533279E+02  0.78229504649E+03  0.78728969873E+03  0.00000000000E+00 0. -1.
         22    1    3    3    0    0 -0.11610808824E+03 -0.18811137813E+02 -0.71475267713E+03  0.72436616191E+03  0.00000000000E+00 0. -1.
         22    1    3    3    0    0  0.18593423194E+02 -0.33145735851E+02 -0.55485775876E+03  0.55615779024E+03  0.00000000000E+00 0. -1.
</event>
<event>
 7    1  0.5139898E-006  0.3491697E+02  0.7818608E-02  0.1608605E+00
          2   -1    0    0  502    0  0.00000000000E+00  0.00000000000E+00  0.15347511643E+04  0.15347511643E+04  0.00000000000E+00 0. -1.
          1   -1    0    0  501    0 -0.00000000000E+00 -0.00000000000E+00 -0.41549837597E+02  0.41549837597E+02  0.00000000000E+00 0. -1.
         25    2    1    2    0    0  0.31913706897E+02  0.41743474092E+02  0.13634461091E+04  0.13701719683E+04  0.12499971244E+03 0.  0.
          2    1    1    2  501    0 -0.13247907081E+02 -0.20253797255E+02 -0.32988896557E+02  0.40914430723E+02  0.00000000000E+00 0. -1.
          1    1    1    2  502    0 -0.18665799816E+02 -0.21489676837E+02  0.16274411419E+03  0.16521460285E+03  0.00000000000E+00 0. -1.
         22    1    3    3    0    0  0.22005665178E+02  0.79062851773E+02  0.11720586364E+04  0.11749283514E+04  0.00000000000E+00 0.  1.
         22    1    3    3    0    0  0.99080417192E+01 -0.37319377680E+02  0.19138747265E+03  0.19524361687E+03  0.00000000000E+00 0.  1.
</event>
<event>
 7    1  0.5139898E-006  0.9450446E+02  0.7818608E-02  0.1317567E+00
          2   -1    0    0  502    0  0.00000000000E+00  0.00000000000E+00  0.94280522481E+03  0.94280522481E+03  0.00000000000E+00 0. -1.
          1   -1    0    0  501    0 -0.00000000000E+00 -0.00000000000E+00 -0.12229703086E+03  0.12229703086E+03  0.00000000000E+00 0. -1.
         25    2    1    2    0    0  0.34171669102E+02 -0.11141895385E+03  0.49393530842E+03  0.52266486339E+03  0.12499833706E+03 0.  0.
          2    1    1    2  501    0  0.44276133869E+02  0.60535440935E+02 -0.89050572151E+02  0.11642559873E+03  0.00000000000E+00 0. -1.
          1    1    1    2  502    0 -0.78447802971E+02  0.50883512918E+02  0.41562345768E+03  0.42601179356E+03  0.00000000000E+00 0. -1.
         22    1    3    3    0    0  0.62038747055E+02 -0.70012745468E+02  0.43722266068E+03  0.44711770897E+03  0.00000000000E+00 0.  1.
         22    1    3    3    0    0 -0.27867077953E+02 -0.41406208384E+02  0.56712647739E+02  0.75547154413E+02  0.00000000000E+00 0.  1.
</event>
<event>
 7    1  0.5139898E-006  0.1134324E+03  0.7818608E-02  0.1377542E+00
          2   -1    0    0  502    0  0.00000000000E+00  0.00000000000E+00  0.21461147430E+03  0.21461147430E+03  0.00000000000E+00 0. -1.
          1   -1    0    0  501    0 -0.00000000000E+00 -0.00000000000E+00 -0.98550622130E+03  0.98550622130E+03  0.00000000000E+00 0. -1.
         25    2    1    2    0    0 -0.93254896615E+02 -0.11521729299E+03 -0.10681785039E+03  0.22137616488E+03  0.12500341142E+03 0.  0.
          2    1    1    2  501    0  0.66708141848E+02  0.88903930221E+02 -0.81536427888E+03  0.82290509312E+03  0.00000000000E+00 0. -1.
          1    1    1    2  502    0  0.26546754767E+02  0.26313362772E+02  0.15128738228E+03  0.15583643761E+03  0.00000000000E+00 0. -1.
         22    1    3    3    0    0 -0.55538714342E+02 -0.11612431175E+03 -0.24788994313E+02  0.13108737090E+03  0.00000000000E+00 0.  1.
         22    1    3    3    0    0 -0.37716182273E+02  0.90701875613E+00 -0.82028856082E+02  0.90288793980E+02  0.00000000000E+00 0.  1.
</event>
<event>
 7    1  0.5139898E-006  0.6093782E+02  0.7818608E-02  0.1469176E+00
          2   -1    0    0  502    0  0.00000000000E+00  0.00000000000E+00  0.16764241499E+04  0.16764241499E+04  0.00000000000E+00 0. -1.
          1   -1    0    0  501    0 -0.00000000000E+00 -0.00000000000E+00 -0.57732206310E+02  0.57732206310E+02  0.00000000000E+00 0. -1.
         25    2    1    2    0    0 -0.11231246051E+02 -0.40644417777E+02  0.89296183687E+02  0.15930183168E+03  0.12500062229E+03 0.  0.
          2    1    1    2  501    0 -0.34478556744E+02 -0.32279834030E+00 -0.86788793220E+01  0.35555562437E+02  0.00000000000E+00 0. -1.
          1    1    1    2  502    0  0.45709802795E+02  0.40967216117E+02  0.15380746392E+04  0.15392989621E+04  0.00000000000E+00 0. -1.
         22    1    3    3    0    0  0.41463540835E+01 -0.31198621625E+02 -0.27089205689E+02  0.41525550067E+02  0.00000000000E+00 0. -1.
         22    1    3    3    0    0 -0.15377600134E+02 -0.94457961517E+01  0.11638538938E+03  0.11777628162E+03  0.00000000000E+00 0. -1.
</event>
<event>
 7    1  0.5139898E-006  0.1265783E+03  0.7818608E-02  0.1304730E+00
          2   -1    0    0  502    0  0.00000000000E+00  0.00000000000E+00  0.50425129059E+03  0.50425129059E+03  0.00000000000E+00 0. -1.
          1   -1    0    0  501    0 -0.00000000000E+00 -0.00000000000E+00 -0.15439667199E+04  0.15439667199E+04  0.00000000000E+00 0. -1.
         25    2    1    2    0    0  0.89321480383E+02  0.58481074861E+02 -0.36170940023E+03  0.39731284189E+03  0.12500176455E+03 0.  0.
          2    1    1    2  501    0  0.37731105488E+02 -0.50326491723E+02 -0.11552551997E+04  0.11569662780E+04  0.00000000000E+00 0. -1.
          1    1    1    2  502    0 -0.12705258587E+03 -0.81545831375E+01  0.47724917060E+03  0.49393889059E+03  0.00000000000E+00 0. -1.
         22    1    3    3    0    0  0.49847748915E+02  0.59281204492E+02 -0.74719919259E+02  0.10762028439E+03  0.00000000000E+00 0. -1.
         22    1    3    3    0    0  0.39473731468E+02 -0.80012963108E+00 -0.28698948097E+03  0.28969255750E+03  0.00000000000E+00 0. -1.
</event>
<event>
 7    1  0.5139898E-006  0.8987106E+02  0.7818608E-02  0.1364462E+00
          2   -1    0    0  502    0  0.00000000000E+00  0.00000000000E+00  0.20551687542E+03  0.20551687542E+03  0.00000000000E+00 0. -1.
          1   -1    0    0  501    0 -0.00000000000E+00 -0.00000000000E+00 -0.49931501341E+03  0.49931501341E+03  0.00000000000E+00 0. -1.
         25    2    1    2    0    0  0.68319918756E+01 -0.51303982211E+02  0.24317983792E+02  0.13746024646E+03  0.12500072127E+03 0.  0.
          2    1    1    2  501    0 -0.53498830032E+02  0.75493744385E+02 -0.43207663607E+03  0.44187288861E+03  0.00000000000E+00 0. -1.
          1    1    1    2  502    0  0.46666838156E+02 -0.24189762174E+02  0.11396051429E+03  0.12549875376E+03  0.00000000000E+00 0. -1.
         22    1    3    3    0    0 -0.29814914768E+01 -0.39350588591E+02 -0.48779886201E+02  0.62744206200E+02  0.00000000000E+00 0. -1.
         22    1    3    3    0    0  0.98134833524E+01 -0.11953393620E+02  0.73097869993E+02  0.74716040260E+02  0.00000000000E+00 0. -1.
</event>
<event>
 7    1  0.5139898E-006  0.1252359E+03  0.7818608E-02  0.1272963E+00
          2   -1    0    0  502    0  0.00000000000E+00  0.00000000000E+00  0.23629651614E+04  0.23629651614E+04  0.00000000000E+00 0. -1.
          1   -1    0    0  501    0 -0.00000000000E+00 -0.00000000000E+00 -0.16764065280E+04  0.16764065280E+04  0.00000000000E+00 0. -1.
         25    2    1    2    0    0 -0.10638598752E+02  0.14913082791E+03 -0.66382878558E+02  0.20587460542E+03  0.12499793187E+03 0.  0.
          2    1    1    2  501    0  0.78871594717E+02 -0.97356262335E+02 -0.15369277092E+04  0.15420265087E+04  0.00000000000E+00 0. -1.
          1    1    1    2  502    0 -0.68232995965E+02 -0.51774565576E+02  0.22898692212E+04  0.22914705753E+04  0.00000000000E+00 0. -1.
         22    1    3    3    0    0 -0.68009303853E+02  0.83857165636E+02 -0.37655344305E+02  0.11434690461E+03  0.00000000000E+00 0. -1.
         22    1    3    3    0    0  0.57370705101E+02  0.65273662274E+02 -0.28727534253E+02  0.91527700805E+02  0.00000000000E+00 0. -1.
</event>
<event>
 7    1  0.5139898E-006  0.1040570E+03  0.7818608E-02  0.1338201E+00
          2   -1    0    0  502    0  0.00000000000E+00  0.00000000000E+00  0.53322653248E+03  0.53322653248E+03  0.00000000000E+00 0. -1.
          1   -1    0    0  501    0 -0.00000000000E+00 -0.00000000000E+00 -0.45661406886E+03  0.45661406886E+03  0.00000000000E+00 0. -1.
         25    2    1    2    0    0  0.99629801149E+02 -0.93599359053E+02 -0.24350463626E+03  0.30595273978E+03  0.12500253520E+03 0.  0.
          2    1    1    2  501    0 -0.84767448411E+02  0.38805449102E+02 -0.16818543607E+03  0.19229592844E+03  0.00000000000E+00 0. -1.
          1    1    1    2  502    0 -0.14862352738E+02  0.54793909950E+02  0.48830253595E+03  0.49159193312E+03  0.00000000000E+00 0. -1.
         22    1    3    3    0    0  0.28255684459E+02 -0.10392666890E+03 -0.18050533565E+03  0.21019351182E+03  0.00000000000E+00 0.  1.
         22    1    3    3    0    0  0.71374116690E+02  0.10327309850E+02 -0.62999300616E+02  0.95759227964E+02  0.00000000000E+00 0.  1.
</event>
<event>
 7    1  0.5139898E-006  0.8832574E+02  0.7818608E-02  0.1400592E+00
          2   -1    0    0  502    0  0.00000000000E+00  0.00000000000E+00  0.14486121012E+04  0.14486121012E+04  0.00000000000E+00 0. -1.
          1   -1    0    0  501    0 -0.00000000000E+00 -0.00000000000E+00 -0.75859705079E+03  0.75859705079E+03  0.00000000000E+00 0. -1.
         25    2    1    2    0    0  0.11915256494E+03  0.45831490873E+02  0.19405572981E+03  0.26377905872E+03  0.12499562495E+03 0.  0.
          2    1    1    2  501    0 -0.82741932980E+02 -0.29571916193E+02 -0.72074057305E+03  0.72607692384E+03  0.00000000000E+00 0. -1.
          1    1    1    2  502    0 -0.36410631964E+02 -0.16259574680E+02  0.12166998937E+04  0.12173531694E+04  0.00000000000E+00 0. -1.
         22    1    3    3    0    0 -0.14693096724E+02  0.31422216994E+02  0.10679196657E+02  0.36294463123E+02  0.00000000000E+00 0. -1.
         22    1    3    3    0    0  0.13384566167E+03  0.14409273879E+02  0.18337653315E+03  0.22748459559E+03  0.00000000000E+00 0. -1.
</event>
<event>
 7    1  0.5139898E-006  0.1889347E+03  0.7818608E-02  0.1205695E+00
          2   -1    0    0  502    0  0.00000000000E+00  0.00000000000E+00  0.16492234267E+04  0.16492234267E+04  0.00000000000E+00 0. -1.
          1   -1    0    0  501    0 -0.00000000000E+00 -0.00000000000E+00 -0.65659920409E+03  0.65659920409E+03  0.00000000000E+00 0. -1.
         25    2    1    2    0    0  0.17466756065E+03  0.16046266020E+02  0.74506711087E+03  0.77557503786E+03  0.12500160095E+03 0.  0.
          2    1    1    2  501    0 -0.14350155174E+03 -0.12420210655E+03 -0.62360455637E+03  0.65184469112E+03  0.00000000000E+00 0. -1.
          1    1    1    2  502    0 -0.31166008918E+02  0.10815584053E+03  0.87116166814E+03  0.87840290186E+03  0.00000000000E+00 0. -1.
         22    1    3    3    0    0 -0.29530226762E+01 -0.27906816064E+02  0.16385157418E+03  0.16623732760E+03  0.00000000000E+00 0. -1.
         22    1    3    3    0    0  0.17762058333E+03  0.43953082084E+02  0.58121553670E+03  0.60933771026E+03  0.00000000000E+00 0. -1.
</event>
<event>
 7    1  0.5139898E-006  0.1055009E+03  0.7818608E-02  0.1334816E+00
          2   -1    0    0  502    0  0.00000000000E+00  0.00000000000E+00  0.17742028525E+04  0.17742028525E+04  0.00000000000E+00 0. -1.
          1   -1    0    0  501    0 -0.00000000000E+00 -0.00000000000E+00 -0.23426583312E+03  0.23426583312E+03  0.00000000000E+00 0. -1.
         25    2    1    2    0    0  0.39849365990E+02  0.44712286437E+02 -0.15394767947E+01  0.13861742408E+03  0.12500103896E+03 0.  0.
          2    1    1    2  501    0  0.57656507304E+02 -0.13434341708E+01 -0.15739655101E+03  0.16762980618E+03  0.00000000000E+00 0. -1.
          1    1    1    2  502    0 -0.97505873294E+02 -0.43368852266E+02  0.16988730472E+04  0.17022214554E+04  0.00000000000E+00 0. -1.
         22    1    3    3    0    0 -0.15139476016E+00  0.26610000153E+02  0.58481822303E+02  0.64251370167E+02  0.00000000000E+00 0. -1.
         22    1    3    3    0    0  0.40000760750E+02  0.18102286284E+02 -0.60021299098E+02  0.74366053913E+02  0.00000000000E+00 0. -1.
</event>
<event>
 7    1  0.5139898E-006  0.1284364E+03  0.7818608E-02  0.1357276E+00
          2   -1    0    0  502    0  0.00000000000E+00  0.00000000000E+00  0.60955711528E+03  0.60955711528E+03  0.00000000000E+00 0. -1.
          1   -1    0    0  501    0 -0.00000000000E+00 -0.00000000000E+00 -0.10742337005E+04  0.10742337005E+04  0.00000000000E+00 0. -1.
         25    2    1    2    0    0 -0.92835037611E+02 -0.12866709407E+02  0.15210310207E+03  0.21804704909E+03  0.12500106215E+03 0.  0.
          2    1    1    2  501    0  0.12920336013E+03 -0.14013430759E+01 -0.10363423031E+04  0.10443662391E+04  0.00000000000E+00 0. -1.
          1    1    1    2  502    0 -0.36368322522E+02  0.14268052483E+02  0.41956261582E+03  0.42137752764E+03  0.00000000000E+00 0. -1.
         22    1    3    3    0    0 -0.50078398118E+02  0.55961058748E+02  0.69066266646E+02  0.10202762000E+03  0.00000000000E+00 0.  1.
         22    1    3    3    0    0 -0.42756639493E+02 -0.68827768155E+02  0.83036835422E+02  0.11601942909E+03  0.00000000000E+00 0.  1.
</event>
<event>
 7    1  0.5139898E-006  0.8547798E+02  0.7818608E-02  0.1493362E+00
          2   -1    0    0  502    0  0.00000000000E+00  0.00000000000E+00  0.62620530289E+03  0.62620530289E+03  0.00000000000E+00 0. -1.
          1   -1    0    0  501    0 -0.00000000000E+00 -0.00000000000E+00 -0.24318553620E+04  0.24318553620E+04  0.00000000000E+00 0. -1.
         25    2    1    2    0    0  0.45083673373E+02  0.55124173466E+02  0.86430454418E+02  0.16783070183E+03  0.12500283565E+03 0.  0.
          2    1    1    2  501    0 -0.65806165021E+02 -0.54699803256E+02 -0.23901740557E+04  0.23917053615E+04  0.00000000000E+00 0. -1.
          1    1    1    2  502    0  0.20722491648E+02 -0.42437021010E+00  0.49809354208E+03  0.49852460162E+03  0.00000000000E+00 0. -1.
         22    1    3    3    0    0  0.36026454100E+02  0.50327121651E+02  0.11875733179E+03  0.13391799141E+03  0.00000000000E+00 0.  1.
         22    1    3    3    0    0  0.90572192731E+01  0.47970518156E+01 -0.32326877375E+02  0.33912710418E+02  0.00000000000E+00 0.  1.
</event>
<event>
 7    1  0.5139898E-006  0.1163739E+03  0.7818608E-02  0.1333773E+00
          2   -1    0    0  502    0  0.00000000000E+00  0.00000000000E+00  0.41705604265E+03  0.41705604265E+03  0.00000000000E+00 0. -1.
          1   -1    0    0  501    0 -0.00000000000E+00 -0.00000000000E+00 -0.42230827005E+04  0.42230827005E+04  0.00000000000E+00 0. -1.
         25    2    1    2    0    0 -0.59442001547E+02 -0.69482849892E+02 -0.65983867232E+03  0.67777119239E+03  0.12500199106E+03 0.  0.
          2    1    1    2  501    0  0.33329084311E+02  0.11533024708E+03 -0.35515539045E+04  0.35535822813E+04  0.00000000000E+00 0. -1.
          1    1    1    2  502    0  0.26112917235E+02 -0.45847397186E+02  0.40536591894E+03  0.40878526944E+03  0.00000000000E+00 0. -1.
         22    1    3    3    0    0 -0.24223811538E+02 -0.40170071925E+02 -0.60272993029E+03  0.60455255900E+03  0.00000000000E+00 0. -1.
         22    1    3    3    0    0 -0.35218190009E+02 -0.29312777967E+02 -0.57108742029E+02  0.73218633391E+02  0.00000000000E+00 0. -1.
</event>
<event>
 7    1  0.5139898E-006  0.2826388E+03  0.7818608E-02  0.1229190E+00
          2   -1    0    0  502    0  0.00000000000E+00  0.00000000000E+00  0.25880459979E+03  0.25880459979E+03  0.00000000000E+00 0. -1.
          1   -1    0    0  501    0 -0.00000000000E+00 -0.00000000000E+00 -0.14904852293E+04  0.14904852293E+04  0.00000000000E+00 0. -1.
         25    2    1    2    0    0 -0.22466208288E+02 -0.24155175821E+03 -0.12090745134E+03  0.29849024733E+03  0.12500333416E+03 0.  0.
          2    1    1    2  501    0 -0.10385956617E+02  0.29023310588E+03 -0.12586323801E+04  0.12917037555E+04  0.00000000000E+00 0. -1.
          1    1    1    2  502    0  0.32852164905E+02 -0.48681347666E+02  0.14785920189E+03  0.15909582626E+03  0.00000000000E+00 0. -1.
         22    1    3    3    0    0  0.47320314629E+02 -0.80139856451E+02 -0.18164997153E+02  0.94823920453E+02  0.00000000000E+00 0.  1.
         22    1    3    3    0    0 -0.69786522917E+02 -0.16141190176E+03 -0.10274245418E+03  0.20366632687E+03  0.00000000000E+00 0.  1.
</event>
<event>
 7    1  0.5139898E-006  0.1105794E+03  0.7818608E-02  0.1388441E+00
          2   -1    0    0  502    0  0.00000000000E+00  0.00000000000E+00  0.20903459236E+03  0.20903459236E+03  0.00000000000E+00 0. -1.
          1   -1    0    0  501    0 -0.00000000000E+00 -0.00000000000E+00 -0.14806399409E+03  0.14806399409E+03  0.00000000000E+00 0. -1.
         25    2    1    2    0    0 -0.51268135975E+02  0.65566897532E+02 -0.34782659417E+02  0.15416736483E+03  0.12502121086E+03 0.  0.
          2    1    1    2  501    0 -0.26522713848E+02  0.22983074132E+02 -0.17724145360E+02  0.39316934967E+02  0.00000000000E+00 0. -1.
          1    1    1    2  502    0  0.77790849824E+02 -0.88549971665E+02  0.11347740304E+03  0.16361428666E+03  0.00000000000E+00 0. -1.
         22    1    3    3    0    0 -0.57000053630E+02  0.57844015369E+02 -0.76372747223E+02  0.11147974142E+03  0.00000000000E+00 0.  1.
         22    1    3    3    0    0  0.57319176548E+01  0.77228821630E+01  0.41590087806E+02  0.42687623413E+02  0.00000000000E+00 0.  1.
</event>
<event>
 7    1  0.5139898E-006  0.4438169E+02  0.7818608E-02  0.1525951E+00
          2   -1    0    0  502    0  0.00000000000E+00  0.00000000000E+00  0.20938610169E+04  0.20938610169E+04  0.00000000000E+00 0. -1.
          1   -1    0    0  501    0 -0.00000000000E+00 -0.00000000000E+00 -0.11344941565E+02  0.11344941565E+02  0.00000000000E+00 0. -1.
         25    2    1    2    0    0  0.35468074537E+02 -0.60559395429E+02  0.11862803450E+04  0.11949105247E+04  0.12499872216E+03 0.  0.
          2    1    1    2  501    0 -0.32075288385E+02  0.28736400494E+02  0.62242563553E+02  0.75688450611E+02  0.00000000000E+00 0. -1.
          1    1    1    2  502    0 -0.33927861526E+01  0.31822994936E+02  0.83399316677E+03  0.83460698309E+03  0.00000000000E+00 0. -1.
         22    1    3    3    0    0  0.29428420441E+02 -0.97361737195E+02  0.98202615993E+03  0.98727945313E+03  0.00000000000E+00 0. -1.
         22    1    3    3    0    0  0.60396540960E+01  0.36802341765E+02  0.20425418507E+03  0.20763107161E+03  0.00000000000E+00 0. -1.
</event>
<event>
 7    1  0.5139898E-006  0.3262689E+02  0.7818608E-02  0.1582547E+00
          2   -1    0    0  502    0  0.00000000000E+00  0.00000000000E+00  0.26023522532E+04  0.26023522532E+04  0.00000000000E+00 0. -1.
          1   -1    0    0  501    0 -0.00000000000E+00 -0.00000000000E+00 -0.46606228766E+02  0.46606228766E+02  0.00000000000E+00 0. -1.
         25    2    1    2    0    0  0.38015392168E+02 -0.24485821974E+02  0.10799990359E+04  0.10881484461E+04  0.12499759026E+03 0.  0.
          2    1    1    2  501    0 -0.85116325288E+01  0.31491012553E+02 -0.36102083297E+02  0.48656882127E+02  0.00000000000E+00 0. -1.
          1    1    1    2  502    0 -0.29503759640E+02 -0.70051905789E+01  0.15118490718E+04  0.15121531538E+04  0.00000000000E+00 0. -1.
         22    1    3    3    0    0 -0.16668118311E+02  0.39833245760E+02  0.52405500059E+03  0.52583092081E+03  0.00000000000E+00 0. -1.
         22    1    3    3    0    0  0.54683510480E+02 -0.64319067734E+02  0.55594403532E+03  0.56231752524E+03  0.00000000000E+00 0. -1.
</event>
<event>
 7    1  0.5139898E-006  0.3350358E+02  0.7818608E-02  0.1578708E+00
          2   -1    0    0  502    0  0.00000000000E+00  0.00000000000E+00  0.21679547081E+03  0.21679547081E+03  0.00000000000E+00 0. -1.
          1   -1    0    0  501    0 -0.00000000000E+00 -0.00000000000E+00 -0.15372279128E+03  0.15372279128E+03  0.00000000000E+00 0. -1.
         25    2    1    2    0    0 -0.39303507056E+02 -0.12328231557E+02  0.71887463109E+02  0.14996658786E+03  0.12500167663E+03 0.  0.
          2    1    1    2  501    0  0.14870239069E+02  0.30143107577E+02 -0.10996044683E+03  0.11498274136E+03  0.00000000000E+00 0. -1.
          1    1    1    2  502    0  0.24433267987E+02 -0.17814876020E+02  0.10114566325E+03  0.10556893287E+03  0.00000000000E+00 0. -1.
         22    1    3    3    0    0 -0.70258075897E+02 -0.39824559573E+02  0.72544217291E+02  0.10855807771E+03  0.00000000000E+00 0. -1.
         22    1    3    3    0    0  0.30954568842E+02  0.27496328016E+02 -0.65675418116E+00  0.41408510147E+02  0.00000000000E+00 0. -1.
</event>
<event>
 7    1  0.5139898E-006  0.6171204E+02  0.7818608E-02  0.1410556E+00
          2   -1    0    0  502    0  0.00000000000E+00  0.00000000000E+00  0.53714944841E+03  0.53714944841E+03  0.00000000000E+00 0. -1.
          1   -1    0    0  501    0 -0.00000000000E+00 -0.00000000000E+00 -0.11790003544E+04  0.11790003544E+04  0.00000000000E+00 0. -1.
         25    2    1    2    0    0  0.70552850332E+02  0.55309900068E+02  0.29197942778E+03  0.33002035689E+03  0.12499823990E+03 0.  0.
          2    1    1    2  501    0 -0.17906699219E+02 -0.59024502996E+02 -0.11560673318E+04  0.11577116297E+04  0.00000000000E+00 0. -1.
          1    1    1    2  502    0 -0.52646151112E+02  0.37146029277E+01  0.22223699801E+03  0.22841781626E+03  0.00000000000E+00 0. -1.
         22    1    3    3    0    0  0.69467428518E+02 -0.24451229217E+02  0.12817396302E+03  0.14782473079E+03  0.00000000000E+00 0.  1.
         22    1    3    3    0    0  0.10854218133E+01  0.79761129285E+02  0.16380546476E+03  0.18219562610E+03  0.00000000000E+00 0.  1.
</event>
<event>
 7    1  0.5139898E-006  0.1290811E+03  0.7818608E-02  0.1230977E+00
          2   -1    0    0  502    0  0.00000000000E+00  0.00000000000E+00  0.79536332209E+03  0.79536332209E+03  0.00000000000E+00 0. -1.
          1   -1    0    0  501    0 -0.00000000000E+00 -0.00000000000E+00 -0.24652747276E+04  0.24652747276E+04  0.00000000000E+00 0. -1.
         25    2    1    2    0    0  0.20269013560E+03 -0.15213380319E+03  0.99992370711E+02  0.29975536218E+03  0.12500727104E+03 0.  0.
          2    1    1    2  501    0 -0.95929531247E+02  0.84755193727E+02 -0.23569458844E+04  0.23604194161E+04  0.00000000000E+00 0. -1.
          1    1    1    2  502    0 -0.10676060435E+03  0.67378609464E+02  0.58704210814E+03  0.60046327147E+03  0.00000000000E+00 0. -1.
         22    1    3    3    0    0  0.17268016887E+02 -0.19320617487E+02 -0.28053553535E+02  0.38189953303E+02  0.00000000000E+00 0.  1.
         22    1    3    3    0    0  0.18542211871E+03 -0.13281318570E+03  0.12804592425E+03  0.26156540887E+03  0.00000000000E+00 0.  1.
</event>
<event>
 7    1  0.5139898E-006  0.6478732E+02  0.7818608E-02  0.1390307E+00
          2   -1    0    0  502    0  0.00000000000E+00  0.00000000000E+00  0.24611838086E+03  0.24611838086E+03  0.00000000000E+00 0. -1.
          1   -1    0    0  501    0 -0.00000000000E+00 -0.00000000000E+00 -0.54587021359E+03  0.54587021359E+03  0.00000000000E+00 0. -1.
         25    2    1    2    0    0 -0.24349436823E+02 -0.80790633738E+01  0.93801768122E+02  0.15837279519E+03  0.12500001686E+03 0.  0.
          2    1    1    2  501    0 -0.58527427184E+02  0.75182708708E+01 -0.49732301436E+03  0.50081150620E+03  0.00000000000E+00 0. -1.
          1    1    1    2  502    0  0.82876864007E+02  0.56079250297E+00  0.10376941350E+03  0.13280429306E+03  0.00000000000E+00 0. -1.
         22    1    3    3    0    0 -0.70132791131E+02  0.19185858370E+02  0.41560734997E+02  0.83749628337E+02  0.00000000000E+00 0. -1.
         22    1    3    3    0    0  0.45783354307E+02 -0.27264921744E+02  0.52241033125E+02  0.74623166854E+02  0.00000000000E+00 0. -1.
</event>
<event>
 7    1  0.5139898E-006  0.6406070E+02  0.7818608E-02  0.1499916E+00
          2   -1    0    0  502    0  0.00000000000E+00  0.00000000000E+00  0.31344185057E+03  0.31344185057E+03  0.00000000000E+00 0. -1.
          1   -1    0    0  501    0 -0.00000000000E+00 -0.00000000000E+00 -0.54510202594E+03  0.54510202594E+03  0.00000000000E+00 0. -1.
         25    2    1    2    0    0  0.34485355063E+02  0.45712816446E+02  0.22673903428E+03  0.26517133054E+03  0.12500537418E+03 0.  0.
          2    1    1    2  501    0 -0.11975306997E+02  0.23564562444E+02 -0.50578377831E+03  0.50647401412E+03  0.00000000000E+00 0. -1.
          1    1    1    2  502    0 -0.22510048067E+02 -0.69277378891E+02  0.47384568656E+02  0.86898531844E+02  0.00000000000E+00 0. -1.
         22    1    3    3    0    0 -0.23938186529E+02 -0.32188499670E+02  0.64931356678E+02  0.76323111607E+02  0.00000000000E+00 0.  1.
         22    1    3    3    0    0  0.58423541592E+02  0.77901316116E+02  0.16180767760E+03  0.18884821894E+03  0.00000000000E+00 0.  1.
</event>
<event>
 7    1  0.5139898E-006  0.8703053E+02  0.7818608E-02  0.1351814E+00
          2   -1    0    0  502    0  0.00000000000E+00  0.00000000000E+00  0.86619475906E+03  0.86619475906E+03  0.00000000000E+00 0. -1.
          1   -1    0    0  501    0 -0.00000000000E+00 -0.00000000000E+00 -0.53792560251E+03  0.53792560251E+03  0.00000000000E+00 0. -1.
         25    2    1    2    0    0  0.77600363636E+02 -0.69591057167E+01 -0.41252309117E+03  0.43803079198E+03  0.12500171354E+03 0.  0.
          2    1    1    2  501    0 -0.10859366855E+03 -0.44864275091E+02 -0.80597796891E+02  0.14248295649E+03  0.00000000000E+00 0. -1.
          1    1    1    2  502    0  0.30993304910E+02  0.51823380808E+02  0.82139004461E+03  0.82360661309E+03  0.00000000000E+00 0. -1.
         22    1    3    3    0    0 -0.43378842041E+01 -0.52149956215E+02 -0.17787326422E+03  0.18541125451E+03  0.00000000000E+00 0. -1.
         22    1    3    3    0    0  0.81938247840E+02  0.45190850499E+02 -0.23464982695E+03  0.25261953748E+03  0.00000000000E+00 0. -1.
</event>
<event>
 7    1  0.5139898E-006  0.9089148E+02  0.7818608E-02  0.1394299E+00
          2   -1    0    0  502    0  0.00000000000E+00  0.00000000000E+00  0.92621488653E+03  0.92621488653E+03  0.00000000000E+00 0. -1.
          1   -1    0    0  501    0 -0.00000000000E+00 -0.00000000000E+00 -0.67111379130E+03  0.67111379130E+03  0.00000000000E+00 0. -1.
         25    2    1    2    0    0 -0.11295257783E+02  0.57294745717E+02  0.28323711843E+02  0.14084641746E+03  0.12500083970E+03 0.  0.
          2    1    1    2  501    0  0.21467919420E+02  0.34622313651E+02 -0.61163242621E+03  0.61298760261E+03  0.00000000000E+00 0. -1.
          1    1    1    2  502    0 -0.10172661637E+02 -0.91917059368E+02  0.83840980959E+03  0.84349465776E+03  0.00000000000E+00 0. -1.
         22    1    3    3    0    0 -0.31308405315E+02  0.18292088002E+02  0.70964096512E+02  0.79691403053E+02  0.00000000000E+00 0. -1.
         22    1    3    3    0    0  0.20013147532E+02  0.39002657715E+02 -0.42640384669E+02  0.61155014412E+02  0.00000000000E+00 0. -1.
</event>
<event>
 7    1  0.5139898E-006  0.5514725E+02  0.7818608E-02  0.1463772E+00
          2   -1    0    0  502    0  0.00000000000E+00  0.00000000000E+00  0.56736588074E+03  0.56736588074E+03  0.00000000000E+00 0. -1.
          1   -1    0    0  501    0 -0.00000000000E+00 -0.00000000000E+00 -0.19149953856E+03  0.19149953856E+03  0.00000000000E+00 0. -1.
         25    2    1    2    0    0  0.76047138690E+02 -0.53813723801E+02  0.92714769089E+02  0.18138274644E+03  0.12499835250E+03 0.  0.
          2    1    1    2  501    0 -0.30723855395E+02  0.25002664775E+02 -0.14278290248E+03  0.14817572600E+03  0.00000000000E+00 0. -1.
          1    1    1    2  502    0 -0.45323283295E+02  0.28811059027E+02  0.42593447558E+03  0.42930694685E+03  0.00000000000E+00 0. -1.
         22    1    3    3    0    0  0.98870274173E+02 -0.52666032317E+02  0.31990282633E+02  0.11650073072E+03  0.00000000000E+00 0. -1.
         22    1    3    3    0    0 -0.22823135483E+02 -0.11476914844E+01  0.60724486456E+02  0.64882015724E+02  0.00000000000E+00 0. -1.
</event>
<event>
 7    1  0.5139898E-006  0.5555952E+02  0.7818608E-02  0.1437580E+00
          2   -1    0    0  502    0  0.00000000000E+00  0.00000000000E+00  0.21271944292E+04  0.21271944292E+04  0.00000000000E+00 0. -1.
          1   -1    0    0  501    0 -0.00000000000E+00 -0.00000000000E+00 -0.57779431168E+03  0.57779431168E+03  0.00000000000E+00 0. -1.
         25    2    1    2    0    0  0.77731463146E+02 -0.18809417352E+02  0.40520702312E+02  0.15382771143E+03  0.12500025177E+03 0.  0.
          2    1    1    2  501    0 -0.26335498583E+02  0.39744418117E+02 -0.51967004282E+03  0.52185259476E+03  0.00000000000E+00 0. -1.
          1    1    1    2  502    0 -0.51395964563E+02 -0.20935000765E+02  0.20285494580E+04  0.20293084347E+04  0.00000000000E+00 0. -1.
         22    1    3    3    0    0  0.10965204724E+03 -0.56472083768E+00  0.19185984664E+02  0.11131932618E+03  0.00000000000E+00 0. -1.
         22    1    3    3    0    0 -0.31920584090E+02 -0.18244696515E+02  0.21334717648E+02  0.42508385251E+02  0.00000000000E+00 0. -1.
</event>
<event>
 7    1  0.5139898E-006  0.5473562E+02  0.7818608E-02  0.1486328E+00
          2   -1    0    0  502    0  0.00000000000E+00  0.00000000000E+00  0.53905701846E+02  0.53905701846E+02  0.00000000000E+00 0. -1.
          1   -1    0    0  501    0 -0.00000000000E+00 -0.00000000000E+00 -0.10956885164E+04  0.10956885164E+04  0.00000000000E+00 0. -1.
         25    2    1    2    0    0  0.16464510609E+02 -0.24213779991E+02 -0.15796886518E+03  0.20356028167E+03  0.12500095461E+03 0.  0.
          2    1    1    2  501    0  0.33043705610E+02 -0.79817066128E+01 -0.88627496678E+03  0.88692666600E+03  0.00000000000E+00 0. -1.
          1    1    1    2  502    0 -0.49508216219E+02  0.32195486604E+02  0.24610173896E+01  0.59107270597E+02  0.00000000000E+00 0. -1.
         22    1    3    3    0    0  0.12924866220E+01 -0.20582966066E+02  0.17713673184E+02  0.27186453086E+02  0.00000000000E+00 0. -1.
         22    1    3    3    0    0  0.15172023987E+02 -0.36308139259E+01 -0.17568253837E+03  0.17637382858E+03  0.00000000000E+00 0. -1.
</event>
<event>
 7    1  0.5139898E-006  0.5831131E+02  0.7818608E-02  0.1495266E+00
          2   -1    0    0  502    0  0.00000000000E+00  0.00000000000E+00  0.48373883986E+03  0.48373883986E+03  0.00000000000E+00 0. -1.
          1   -1    0    0  501    0 -0.00000000000E+00 -0.00000000000E+00 -0.11317309175E+04  0.11317309175E+04  0.00000000000E+00 0. -1.
         25    2    1    2    0    0  0.19075105041E+02  0.25797004715E+02 -0.36915261000E+03  0.39105867547E+03  0.12499557234E+03 0.  0.
          2    1    1    2  501    0 -0.43322727891E+02 -0.43436870183E+02 -0.74989595690E+03  0.75240120057E+03  0.00000000000E+00 0. -1.
          1    1    1    2  502    0  0.24247622850E+02  0.17639865469E+02  0.47105648922E+03  0.47200988136E+03  0.00000000000E+00 0. -1.
         22    1    3    3    0    0 -0.35788337340E+02  0.13733997242E+02 -0.29775283038E+03  0.30021021930E+03  0.00000000000E+00 0. -1.
         22    1    3    3    0    0  0.54863442381E+02  0.12063007472E+02 -0.71399779614E+02  0.90848456168E+02  0.00000000000E+00 0. -1.
</event>
<event>
 7    1  0.5139898E-006  0.1677116E+03  0.7818608E-02  0.1335692E+00
          2   -1    0    0  502    0  0.00000000000E+00  0.00000000000E+00  0.12788235179E+03  0.12788235179E+03  0.00000000000E+00 0. -1.
          1   -1    0    0  501    0 -0.00000000000E+00 -0.00000000000E+00 -0.17333674021E+04  0.17333674021E+04  0.00000000000E+00 0. -1.
         25    2    1    2    0    0 -0.13604291016E+03  0.72081822734E+02 -0.60338421573E+03  0.63513844534E+03  0.12499948153E+03 0.  0.
          2    1    1    2  501    0  0.13691301490E+03 -0.10807437239E+03 -0.11041782854E+04  0.11178707124E+04  0.00000000000E+00 0. -1.
          1    1    1    2  502    0 -0.87010473866E+00  0.35992549655E+02  0.10207745078E+03  0.10824059622E+03  0.00000000000E+00 0. -1.
         22    1    3    3    0    0 -0.23062019973E+01  0.62278395987E+02 -0.15269691328E+03  0.16492502690E+03  0.00000000000E+00 0. -1.
         22    1    3    3    0    0 -0.13373670817E+03  0.98034267476E+01 -0.45068730245E+03  0.47021341844E+03  0.00000000000E+00 0. -1.
</event>
<event>
 7    1  0.5139898E-006  0.5630420E+02  0.7818608E-02  0.1547896E+00
          2   -1    0    0  502    0  0.00000000000E+00  0.00000000000E+00  0.18588996239E+04  0.18588996239E+04  0.00000000000E+00 0. -1.
          1   -1    0    0  501    0 -0.00000000000E+00 -0.00000000000E+00 -0.43262286078E+03  0.43262286078E+03  0.00000000000E+00 0. -1.
         25    2    1    2    0    0 -0.63609527877E+02  0.35321014443E+02 -0.14775884852E+03  0.20676314197E+03  0.12499829384E+03 0.  0.
          2    1    1    2  501    0  0.21737772864E+02  0.22675161081E+01 -0.25446064272E+03  0.25539751583E+03  0.00000000000E+00 0. -1.
          1    1    1    2  502    0  0.41871755013E+02 -0.37588530551E+02  0.18284962544E+04  0.18293618269E+04  0.00000000000E+00 0. -1.
         22    1    3    3    0    0 -0.54346348216E+02 -0.40224475281E+02 -0.81107150575E+02  0.10559310513E+03  0.00000000000E+00 0.  1.
         22    1    3    3    0    0 -0.92631796602E+01  0.75545489724E+02 -0.66651697945E+02  0.10117003684E+03  0.00000000000E+00 0.  1.
</event>
<event>
 7    1  0.5139898E-006  0.3964051E+02  0.7818608E-02  0.1511190E+00
          2   -1    0    0  502    0  0.00000000000E+00  0.00000000000E+00  0.70700718536E+03  0.70700718536E+03  0.00000000000E+00 0. -1.
          1   -1    0    0  501    0 -0.00000000000E+00 -0.00000000000E+00 -0.30203341684E+03  0.30203341684E+03  0.00000000000E+00 0. -1.
         25    2    1    2    0    0 -0.47253554398E+02  0.16570625771E+02  0.64118910984E+02  0.14915276584E+03  0.12501131456E+03 0.  0.
          2    1    1    2  501    0  0.13298010289E+02 -0.37253358390E+02 -0.25734547175E+03  0.26036770464E+03  0.00000000000E+00 0. -1.
          1    1    1    2  502    0  0.33955544109E+02  0.20682732619E+02  0.59820032928E+03  0.59952013173E+03  0.00000000000E+00 0. -1.
         22    1    3    3    0    0  0.29020694551E+02 -0.56728620556E+01 -0.18219136890E+02  0.34732103667E+02  0.00000000000E+00 0. -1.
         22    1    3    3    0    0 -0.76274248949E+02  0.22243487826E+02  0.82338047874E+02  0.11442066217E+03  0.00000000000E+00 0. -1.
</event>
<event>
 7    1  0.5139898E-006  0.1278300E+03  0.7818608E-02  0.1243479E+00
          2   -1    0    0  502    0  0.00000000000E+00  0.00000000000E+00  0.28297204180E+03  0.28297204180E+03  0.00000000000E+00 0. -1.
          1   -1    0    0  501    0 -0.00000000000E+00 -0.00000000000E+00 -0.62551015549E+03  0.62551015549E+03  0.00000000000E+00 0. -1.
         25    2    1    2    0    0 -0.10966917138E+03 -0.46085355255E+02 -0.98780025401E+02  0.19883168228E+03  0.12500142935E+03 0.  0.
          2    1    1    2  501    0 -0.77751267811E+01  0.11194664028E+03 -0.44975874990E+03  0.46354658448E+03  0.00000000000E+00 0. -1.
          1    1    1    2  502    0  0.11744429817E+03 -0.65861285025E+02  0.20600066162E+03  0.24610393053E+03  0.00000000000E+00 0. -1.
         22    1    3    3    0    0 -0.13894975487E+02 -0.51738571149E+02 -0.86998781969E+02  0.10217014316E+03  0.00000000000E+00 0.  1.
         22    1    3    3    0    0 -0.95774195898E+02  0.56532158941E+01 -0.11781243433E+02  0.96661539128E+02  0.00000000000E+00 0.  1.
</event>
<event>
 7    1  0.5139898E-006  0.3404389E+03  0.7818608E-02  0.1209102E+00
          2   -1    0    0  502    0  0.00000000000E+00  0.00000000000E+00  0.11626416230E+04  0.11626416230E+04  0.00000000000E+00 0. -1.
          1   -1    0    0  501    0 -0.00000000000E+00 -0.00000000000E+00 -0.79638754686E+03  0.79638754686E+03  0.00000000000E+00 0. -1.
         25    2    1    2    0    0  0.33397484801E+03  0.19622327264E+03  0.28276563014E+03  0.49559987147E+03  0.12498023517E+03 0.  0.
          2    1    1    2  501    0 -0.30287319707E+03 -0.14465035455E+03 -0.64784016296E+03  0.72962509231E+03  0.00000000000E+00 0. -1.
          1    1    1    2  502    0 -0.31101650933E+02 -0.51572918093E+02  0.73132860896E+03  0.73380420607E+03  0.00000000000E+00 0. -1.
         22    1    3    3    0    0  0.12936919165E+03  0.26248551498E+02  0.14484041070E+03  0.19596968841E+03  0.00000000000E+00 0. -1.
         22    1    3    3    0    0  0.20460565636E+03  0.16997472114E+03  0.13792521944E+03  0.29963018306E+03  0.00000000000E+00 0. -1.
</event>
<event>
 7    1  0.5139898E-006  0.8396770E+02  0.7818608E-02  0.1394001E+00
          2   -1    0    0  502    0  0.00000000000E+00  0.00000000000E+00  0.22340771447E+04  0.22340771447E+04  0.00000000000E+00 0. -1.
          1   -1    0    0  501    0 -0.00000000000E+00 -0.00000000000E+00 -0.36805188450E+02  0.36805188450E+02  0.00000000000E+00 0. -1.
         25    2    1    2    0    0 -0.54491594470E+02 -0.45988538049E+02  0.10980150828E+04  0.11074046911E+04  0.12499499267E+03 0.  0.
          2    1    1    2  501    0  0.27129676506E+02  0.80703587690E+02  0.25593949135E+02  0.88905222826E+02  0.00000000000E+00 0. -1.
          1    1    1    2  502    0  0.27361917964E+02 -0.34715049641E+02  0.10736629243E+04  0.10745724193E+04  0.00000000000E+00 0. -1.
         22    1    3    3    0    0 -0.20760521140E+02 -0.87316613233E+02  0.63049551326E+03  0.63685146025E+03  0.00000000000E+00 0. -1.
         22    1    3    3    0    0 -0.33731073330E+02  0.41328075184E+02  0.46751956956E+03  0.47055323082E+03  0.00000000000E+00 0. -1.
</event>
<event>
 7    1  0.5139898E-006  0.6099504E+02  0.7818608E-02  0.1497591E+00
          2   -1    0    0  502    0  0.00000000000E+00  0.00000000000E+00  0.19280305513E+04  0.19280305513E+04  0.00000000000E+00 0. -1.
          1   -1    0    0  501    0 -0.00000000000E+00 -0.00000000000E+00 -0.18542737181E+02  0.18542737181E+02  0.00000000000E+00 0. -1.
         25    2    1    2    0    0 -0.14108797922E+02  0.35792651266E+02  0.91117546751E+03  0.92051391156E+03  0.12499982688E+03 0.  0.
          2    1    1    2  501    0  0.54936799499E+01 -0.62654349023E+02  0.58725039769E+02  0.86048697066E+02  0.00000000000E+00 0. -1.
          1    1    1    2  502    0  0.86151179725E+01  0.26861697757E+02  0.93958730681E+03  0.94001067983E+03  0.00000000000E+00 0. -1.
         22    1    3    3    0    0 -0.10175016994E+02  0.68792513230E+02  0.82843522893E+03  0.83134882533E+03  0.00000000000E+00 0.  1.
         22    1    3    3    0    0 -0.39337809280E+01 -0.32999861964E+02  0.82740238584E+02  0.89165086233E+02  0.00000000000E+00 0.  1.
</event>
<event>
 7    1  0.5139898E-006  0.6137682E+02  0.7818608E-02  0.1424202E+00
          2   -1    0    0  502    0  0.00000000000E+00  0.00000000000E+00  0.18396823114E+04  0.18396823114E+04  0.00000000000E+00 0. -1.
          1   -1    0    0  501    0 -0.00000000000E+00 -0.00000000000E+00 -0.28049586721E+02  0.28049586721E+02  0.00000000000E+00 0. -1.
         25    2    1    2    0    0 -0.22479774507E+02 -0.64164054849E+02  0.72358239104E+03  0.73744114449E+03  0.12500239508E+03 0.  0.
          2    1    1    2  501    0 -0.32775910516E+02  0.34737853275E+02  0.79968185412E+01  0.48424455258E+02  0.00000000000E+00 0. -1.
          1    1    1    2  502    0  0.55255685024E+02  0.29426201575E+02  0.10800535151E+04  0.10818662983E+04  0.00000000000E+00 0. -1.
         22    1    3    3    0    0 -0.23329228448E+02  0.32155391947E+02  0.32333306250E+03  0.32576447233E+03  0.00000000000E+00 0.  1.
         22    1    3    3    0    0  0.84945394051E+00 -0.96319446797E+02  0.40024932854E+03  0.41167667216E+03  0.00000000000E+00 0.  1.
</event>
<event>
 7    1  0.5139898E-006  0.1672173E+03  0.7818608E-02  0.1280018E+00
          2   -1    0    0  502    0  0.00000000000E+00  0.00000000000E+00  0.71926319425E+03  0.71926319425E+03  0.00000000000E+00 0. -1.
          1   -1    0    0  501    0 -0.00000000000E+00 -0.00000000000E+00 -0.12928375387E+04  0.12928375387E+04  0.00000000000E+00 0. -1.
         25    2    1    2    0    0 -0.26591293517E+02  0.21897248818E+03 -0.62453244015E+03  0.67403432524E+03  0.12500182133E+03 0.  0.
          2    1    1    2  501    0  0.28853916568E+02 -0.52561669739E+02 -0.63214488418E+03  0.63498222985E+03  0.00000000000E+00 0. -1.
          1    1    1    2  502    0 -0.22626230513E+01 -0.16641081845E+03  0.68310297991E+03  0.70308417783E+03  0.00000000000E+00 0. -1.
         22    1    3    3    0    0 -0.37162512004E+02  0.85409758169E+01 -0.56306900089E+02  0.68003437883E+02  0.00000000000E+00 0. -1.
         22    1    3    3    0    0  0.10571218487E+02  0.21043151237E+03 -0.56822554006E+03  0.60603088736E+03  0.00000000000E+00 0. -1.
</event>
<event>
 7    1  0.5139898E-006  0.1971390E+03  0.7818608E-02  0.1165150E+00
          2   -1    0    0  502    0  0.00000000000E+00  0.00000000000E+00  0.38699160259E+04  0.38699160259E+04  0.00000000000E+00 0. -1.
          1   -1    0    0  501    0 -0.00000000000E+00 -0.00000000000E+00 -0.20701759663E+04  0.20701759663E+04  0.00000000000E+00 0. -1.
         25    2    1    2    0    0 -0.25944975191E+03  0.57979729154E+02  0.24968254242E+03  0.38554229525E+03  0.12500266668E+03 0.  0.
          2    1    1    2  501    0  0.17561400763E+03  0.89272484907E+02 -0.19953719992E+04  0.20050733831E+04  0.00000000000E+00 0. -1.
          1    1    1    2  502    0  0.83835744281E+02 -0.14725221406E+03  0.35454295164E+04  0.35494763139E+04  0.00000000000E+00 0. -1.
         22    1    3    3    0    0 -0.10267932682E+03  0.83173944694E+02  0.86956218333E+02  0.15818449083E+03  0.00000000000E+00 0. -1.
         22    1    3    3    0    0 -0.15677042509E+03 -0.25194215540E+02  0.16272632409E+03  0.22735780442E+03  0.00000000000E+00 0. -1.
</event>
<event>
 7    1  0.5139898E-006  0.6032625E+02  0.7818608E-02  0.1401896E+00
          2   -1    0    0  502    0  0.00000000000E+00  0.00000000000E+00  0.47082046917E+03  0.47082046917E+03  0.00000000000E+00 0. -1.
          1   -1    0    0  501    0 -0.00000000000E+00 -0.00000000000E+00 -0.14708074308E+03  0.14708074308E+03  0.00000000000E+00 0. -1.
         25    2    1    2    0    0  0.73837918646E+01  0.10130960269E+02  0.11256467760E+03  0.16868102625E+03  0.12500130093E+03 0.  0.
          2    1    1    2  501    0  0.22799276884E+02 -0.59406770378E+02 -0.10773178020E+03  0.12512037347E+03  0.00000000000E+00 0. -1.
          1    1    1    2  502    0 -0.30183068748E+02  0.49275810109E+02  0.31890682869E+03  0.32409981254E+03  0.00000000000E+00 0. -1.
         22    1    3    3    0    0  0.37000260073E+02  0.26741528497E+02 -0.53590239286E+01  0.45965723418E+02  0.00000000000E+00 0. -1.
         22    1    3    3    0    0 -0.29616468209E+02 -0.16610568228E+02  0.11792370153E+03  0.12271530283E+03  0.00000000000E+00 0. -1.
</event>
<event>
 7    1  0.5139898E-006  0.4329154E+02  0.7818608E-02  0.1517706E+00
          2   -1    0    0  502    0  0.00000000000E+00  0.00000000000E+00  0.18677589758E+04  0.18677589758E+04  0.00000000000E+00 0. -1.
          1   -1    0    0  501    0 -0.00000000000E+00 -0.00000000000E+00 -0.10250382516E+03  0.10250382516E+03  0.00000000000E+00 0. -1.
         25    2    1    2    0    0 -0.15659586402E+02  0.78043018033E+01  0.90584717280E+03  0.91459854733E+03  0.12500109017E+03 0.  0.
          2    1    1    2  501    0  0.10727112461E+02 -0.42115816489E+02 -0.92985202965E+02  0.10264044481E+03  0.00000000000E+00 0. -1.
          1    1    1    2  502    0  0.49324739416E+01  0.34311514686E+02  0.95239318085E+03  0.95302380886E+03  0.00000000000E+00 0. -1.
         22    1    3    3    0    0  0.42726082439E+02  0.40276425653E+02  0.47185217271E+03  0.47549151567E+03  0.00000000000E+00 0. -1.
         22    1    3    3    0    0 -0.58385668841E+02 -0.32472123850E+02  0.43399500008E+03  0.43910703166E+03  0.00000000000E+00 0. -1.
</event>
<event>
 7    1  0.5139898E-006  0.6087030E+02  0.7818608E-02  0.1481213E+00
          2   -1    0    0  502    0  0.00000000000E+00  0.00000000000E+00  0.15598050626E+03  0.15598050626E+03  0.00000000000E+00 0. -1.
          1   -1    0    0  501    0 -0.00000000000E+00 -0.00000000000E+00 -0.10982031035E+03  0.10982031035E+03  0.00000000000E+00 0. -1.
         25    2    1    2    0    0  0.19323447246E+02  0.33888690074E+02 -0.16032790103E+02  0.13192651914E+03  0.12500286863E+03 0.  0.
          2    1    1    2  501    0  0.30885524929E+02  0.70800324537E+01 -0.13315750955E+02  0.34370797680E+02  0.00000000000E+00 0. -1.
          1    1    1    2  502    0 -0.50208972175E+02 -0.40968722527E+02  0.75508736971E+02  0.99503499795E+02  0.00000000000E+00 0. -1.
         22    1    3    3    0    0  0.41781970240E+02  0.46927077696E+02 -0.56064944863E+02  0.84209035743E+02  0.00000000000E+00 0.  1.
         22    1    3    3    0    0 -0.22458522993E+02 -0.13038387622E+02  0.40032154761E+02  0.47717483396E+02  0.00000000000E+00 0.  1.
</event>
<event>
 7    1  0.5139898E-006  0.9786292E+02  0.7818608E-02  0.1373753E+00
          2   -1    0    0  502    0  0.00000000000E+00  0.00000000000E+00  0.56198428975E+03  0.56198428975E+03  0.00000000000E+00 0. -1.
          1   -1    0    0  501    0 -0.00000000000E+00 -0.00000000000E+00 -0.32853372947E+03  0.32853372947E+03  0.00000000000E+00 0. -1.
         25    2    1    2    0    0 -0.66068168422E+02 -0.89676474113E+02  0.21323019624E+03  0.27110772100E+03  0.12500162762E+03 0.  0.
          2    1    1    2  501    0  0.84547264438E+02  0.48982340939E+02 -0.28998358352E+03  0.30600324893E+03  0.00000000000E+00 0. -1.
          1    1    1    2  502    0 -0.18479096016E+02  0.40694133174E+02  0.31020394755E+03  0.31340704929E+03  0.00000000000E+00 0. -1.
         22    1    3    3    0    0  0.11966110506E+02 -0.75422075816E+02  0.15471449029E+03  0.17253478150E+03  0.00000000000E+00 0. -1.
         22    1    3    3    0    0 -0.78034278928E+02 -0.14254398297E+02  0.58515705955E+02  0.98572939502E+02  0.00000000000E+00 0. -1.
</event>
<event>
 7    1  0.5139898E-006  0.4780931E+02  0.7818608E-02  0.1522202E+00
          2   -1    0    0  502    0  0.00000000000E+00  0.00000000000E+00  0.58662805420E+03  0.58662805420E+03  0.00000000000E+00 0. -1.
          1   -1    0    0  501    0 -0.00000000000E+00 -0.00000000000E+00 -0.21428722903E+03  0.21428722903E+03  0.00000000000E+00 0. -1.
         25    2    1    2    0    0  0.40956974431E+02 -0.64054142021E+02 -0.35324887008E+02  0.15051041052E+03  0.12500051667E+03 0.  0.
          2    1    1    2  501    0 -0.22845920645E+02  0.20144706280E+02 -0.11837157658E+03  0.12222755591E+03  0.00000000000E+00 0. -1.
          1    1    1    2  502    0 -0.18111053786E+02  0.43909435741E+02  0.52603728876E+03  0.52817731680E+03  0.00000000000E+00 0. -1.
         22    1    3    3    0    0 -0.18515409905E+01 -0.92797559495E+02 -0.10896595497E+02  0.93453469950E+02  0.00000000000E+00 0.  1.
         22    1    3    3    0    0  0.42808515421E+02  0.28743417475E+02 -0.24428291511E+02  0.57056940567E+02  0.00000000000E+00 0.  1.
</event>
<event>
 7    1  0.5139898E-006  0.9184247E+02  0.7818608E-02  0.1330475E+00
          2   -1    0    0  502    0  0.00000000000E+00  0.00000000000E+00  0.14517154656E+04  0.14517154656E+04  0.00000000000E+00 0. -1.
          1   -1    0    0  501    0 -0.00000000000E+00 -0.00000000000E+00 -0.14227636752E+04  0.14227636752E+04  0.00000000000E+00 0. -1.
         25    2    1    2    0    0 -0.33576755388E+02  0.15419972221E+02  0.29177390947E+03  0.31957508776E+03  0.12502419136E+03 0.  0.
          2    1    1    2  501    0 -0.33926074483E+02  0.59873031525E+02 -0.14057891112E+04  0.14074724805E+04  0.00000000000E+00 0. -1.
          1    1    1    2  502    0  0.67502829872E+02 -0.75293003745E+02  0.11429669921E+04  0.11474315725E+04  0.00000000000E+00 0. -1.
         22    1    3    3    0    0  0.45475094581E+02  0.21085121453E+02  0.94385677043E+02  0.10687012026E+03  0.00000000000E+00 0.  1.
         22    1    3    3    0    0 -0.79051849969E+02 -0.56651492318E+01  0.19738823243E+03  0.21270496750E+03  0.00000000000E+00 0.  1.
</event>
<event>
 7    1  0.5139898E-006  0.9696993E+02  0.7818608E-02  0.1322241E+00
          2   -1    0    0  502    0  0.00000000000E+00  0.00000000000E+00  0.22856329156E+04  0.22856329156E+04  0.00000000000E+00 0. -1.
          1   -1    0    0  501    0 -0.00000000000E+00 -0.00000000000E+00 -0.27506838481E+04  0.27506838481E+04  0.00000000000E+00 0. -1.
         25    2    1    2    0    0  0.98606764107E+02 -0.62859095467E+02  0.18813138059E+03  0.25434991455E+03  0.12500361138E+03 0.  0.
          2    1    1    2  501    0 -0.18206507011E+01  0.70079499671E+02 -0.27159813088E+04  0.27168858866E+04  0.00000000000E+00 0. -1.
          1    1    1    2  502    0 -0.96786113406E+02 -0.72204042041E+01  0.20627989956E+04  0.20650809626E+04  0.00000000000E+00 0. -1.
         22    1    3    3    0    0  0.17405967504E+02  0.14233427709E+02 -0.11656001344E+02  0.25326281536E+02  0.00000000000E+00 0. -1.
         22    1    3    3    0    0  0.81200796603E+02 -0.77092523176E+02  0.19978738193E+03  0.22902363301E+03  0.00000000000E+00 0. -1.
</event>
<event>
 7    1  0.5826628E-006  0.1184953E+03  0.7818608E-02  0.1317664E+00
          2   -1    0    0  502    0  0.00000000000E+00  0.00000000000E+00  0.49629445504E+03  0.49629445504E+03  0.00000000000E+00 0. -1.
          1   -1    0    0  501    0 -0.00000000000E+00 -0.00000000000E+00 -0.23544597855E+04  0.23544597855E+04  0.00000000000E+00 0. -1.
         25    2    1    2    0    0 -0.79182333315E+02 -0.16558731788E+02 -0.37735113197E+03  0.40566312874E+03  0.12499865483E+03 0.  0.
          2    1    1    2  501    0  0.10178738308E+03  0.71881533619E+02 -0.19591136018E+04  0.19630725231E+04  0.00000000000E+00 0. -1.
          1    1    1    2  502    0 -0.22605049761E+02 -0.55322801830E+02  0.47829940329E+03  0.48201858871E+03  0.00000000000E+00 0. -1.
         22    1    3    3    0    0 -0.81337071885E+02  0.30050668509E+02 -0.14729224916E+03  0.17092035748E+03  0.00000000000E+00 0. -1.
         22    1    3    3    0    0  0.21547385700E+01 -0.46609400297E+02 -0.23005888281E+03  0.23474277125E+03  0.00000000000E+00 0. -1.
</event>
<event>
 7    1  0.5139898E-006  0.2967520E+02  0.7818608E-02  0.1615306E+00
          2   -1    0    0  502    0  0.00000000000E+00  0.00000000000E+00  0.21720789505E+03  0.21720789505E+03  0.00000000000E+00 0. -1.
          1   -1    0    0  501    0 -0.00000000000E+00 -0.00000000000E+00 -0.11745801457E+04  0.11745801457E+04  0.00000000000E+00 0. -1.
         25    2    1    2    0    0  0.24327641914E+02 -0.47626534803E+02 -0.17699489965E+03  0.22318675090E+03  0.12500004118E+03 0.  0.
          2    1    1    2  501    0 -0.20311572989E+02  0.18342779610E+02 -0.97317061507E+03  0.97355537264E+03  0.00000000000E+00 0. -1.
          1    1    1    2  502    0 -0.40160689243E+01  0.29283755194E+02  0.19279326410E+03  0.19504591718E+03  0.00000000000E+00 0. -1.
         22    1    3    3    0    0 -0.48195669027E+02 -0.19906133892E+02 -0.39997280897E+02  0.65718027654E+02  0.00000000000E+00 0. -1.
         22    1    3    3    0    0  0.72523310941E+02 -0.27720400911E+02 -0.13699761875E+03  0.15746872324E+03  0.00000000000E+00 0. -1.
</event>
<event>
 7    1  0.5139898E-006  0.9363599E+02  0.7818608E-02  0.1315985E+00
          2   -1    0    0  502    0  0.00000000000E+00  0.00000000000E+00  0.27731793034E+03  0.27731793034E+03  0.00000000000E+00 0. -1.
          1   -1    0    0  501    0 -0.00000000000E+00 -0.00000000000E+00 -0.12661781604E+04  0.12661781604E+04  0.00000000000E+00 0. -1.
         25    2    1    2    0    0  0.12792249652E+03 -0.10267293001E+03 -0.39325305952E+03  0.44404783059E+03  0.12499844543E+03 0.  0.
          2    1    1    2  501    0 -0.66233005405E+02  0.56964299355E+02 -0.83935769596E+03  0.84389163059E+03  0.00000000000E+00 0. -1.
          1    1    1    2  502    0 -0.61689491115E+02  0.45708630659E+02  0.24375052546E+03  0.25555662952E+03  0.00000000000E+00 0. -1.
         22    1    3    3    0    0 -0.16774337906E+02 -0.22738776855E+02 -0.16737770443E+02  0.32841792650E+02  0.00000000000E+00 0. -1.
         22    1    3    3    0    0  0.14469683443E+03 -0.79934153159E+02 -0.37651528908E+03  0.41120603794E+03  0.00000000000E+00 0. -1.
</event>
<event>
 7    1  0.5139898E-006  0.1184678E+03  0.7818608E-02  0.1394337E+00
          2   -1    0    0  502    0  0.00000000000E+00  0.00000000000E+00  0.18768130352E+03  0.18768130352E+03  0.00000000000E+00 0. -1.
          1   -1    0    0  501    0 -0.00000000000E+00 -0.00000000000E+00 -0.52179236337E+03  0.52179236337E+03  0.00000000000E+00 0. -1.
         25    2    1    2    0    0  0.11045646576E+03  0.27020110746E+02 -0.25046424531E+03  0.30214236991E+03  0.12500782496E+03 0.  0.
          2    1    1    2  501    0  0.86486725342E+01 -0.30024877728E+02 -0.22232024402E+03  0.22450519753E+03  0.00000000000E+00 0. -1.
          1    1    1    2  502    0 -0.11910513829E+03  0.30047669823E+01  0.13867342948E+03  0.18282609944E+03  0.00000000000E+00 0. -1.
         22    1    3    3    0    0 -0.27166711048E+02 -0.51515127095E+01 -0.41919397697E+02  0.50217568396E+02  0.00000000000E+00 0. -1.
         22    1    3    3    0    0  0.13762317681E+03  0.32171623455E+02 -0.20854484762E+03  0.25192480151E+03  0.00000000000E+00 0. -1.
</event>
<event>
 7    1  0.5139898E-006  0.8015644E+02  0.7818608E-02  0.1343459E+00
          2   -1    0    0  502    0  0.00000000000E+00  0.00000000000E+00  0.11054213586E+04  0.11054213586E+04  0.00000000000E+00 0. -1.
          1   -1    0    0  501    0 -0.00000000000E+00 -0.00000000000E+00 -0.33330864184E+03  0.33330864184E+03  0.00000000000E+00 0. -1.
         25    2    1    2    0    0  0.12871343990E+03  0.66372047653E+02  0.89261649588E+02  0.21110643083E+03  0.12500353888E+03 0.  0.
          2    1    1    2  501    0 -0.52681289962E+02 -0.46736845884E+02 -0.26618532887E+03  0.27534393107E+03  0.00000000000E+00 0. -1.
          1    1    1    2  502    0 -0.76032149936E+02 -0.19635201769E+02  0.94903639603E+03  0.95227963853E+03  0.00000000000E+00 0. -1.
         22    1    3    3    0    0  0.29539125438E+01  0.15136611687E+02  0.72684297410E+02  0.74302420571E+02  0.00000000000E+00 0. -1.
         22    1    3    3    0    0  0.12575952735E+03  0.51235435966E+02  0.16577352178E+02  0.13680401026E+03  0.00000000000E+00 0. -1.
</event>
<event>
 7    1  0.5139898E-006  0.7623547E+02  0.7818608E-02  0.1450917E+00
          2   -1    0    0  502    0  0.00000000000E+00  0.00000000000E+00  0.20041950236E+04  0.20041950236E+04  0.00000000000E+00 0. -1.
          1   -1    0    0  501    0 -0.00000000000E+00 -0.00000000000E+00 -0.26695792428E+03  0.26695792428E+03  0.00000000000E+00 0. -1.
         25    2    1    2    0    0  0.63143872604E+02 -0.35800608616E+02  0.85093701930E+03  0.86312692191E+03  0.12500176114E+03 0.  0.
          2    1    1    2  501    0 -0.45072802924E+02  0.61564906259E+02 -0.25506208457E+03  0.26623009265E+03  0.00000000000E+00 0. -1.
          1    1    1    2  502    0 -0.18071069680E+02 -0.25764297643E+02  0.11413621646E+04  0.11417959334E+04  0.00000000000E+00 0. -1.
         22    1    3    3    0    0  0.31715732853E+02 -0.47980218798E+02  0.13949415121E+03  0.15088607401E+03  0.00000000000E+00 0.  1.
         22    1    3    3    0    0  0.31428139751E+02  0.12179610182E+02  0.71144286808E+03  0.71224084790E+03  0.00000000000E+00 0.  1.
</event>
<event>
 7    1  0.5139898E-006  0.2467303E+03  0.7818608E-02  0.1189427E+00
          2   -1    0    0  502    0  0.00000000000E+00  0.00000000000E+00  0.13260821963E+04  0.13260821963E+04  0.00000000000E+00 0. -1.
          1   -1    0    0  501    0 -0.00000000000E+00 -0.00000000000E+00 -0.17822025406E+04  0.17822025406E+04  0.00000000000E+00 0. -1.
         25    2    1    2    0    0  0.10857148510E+03  0.15910161484E+03 -0.32984014044E+03  0.40189634830E+03  0.12500026123E+03 0.  0.
          2    1    1    2  501    0 -0.77114757790E+02 -0.25709918462E+03 -0.14015252514E+04  0.14269967439E+04  0.00000000000E+00 0. -1.
          1    1    1    2  502    0 -0.31456727313E+02  0.97997569786E+02  0.12752450476E+04  0.12793916448E+04  0.00000000000E+00 0. -1.
         22    1    3    3    0    0  0.74099301995E+02  0.22383882309E+02 -0.18109582491E+03  0.19694527805E+03  0.00000000000E+00 0. -1.
         22    1    3    3    0    0  0.34472183107E+02  0.13671773253E+03 -0.14874431553E+03  0.20495107025E+03  0.00000000000E+00 0. -1.
</event>
<event>
 7    1  0.5139898E-006  0.3359690E+02  0.7818608E-02  0.1578533E+00
          2   -1    0    0  502    0  0.00000000000E+00  0.00000000000E+00  0.11605275311E+02  0.11605275311E+02  0.00000000000E+00 0. -1.
          1   -1    0    0  501    0 -0.00000000000E+00 -0.00000000000E+00 -0.18446052890E+04  0.18446052890E+04  0.00000000000E+00 0. -1.
         25    2    1    2    0    0  0.61516127723E+01  0.21840964740E+02 -0.10605369100E+04  0.10681190724E+04  0.12499978073E+03 0.  0.
          2    1    1    2  501    0 -0.34263236559E+02 -0.10841437531E+02 -0.74899150905E+03  0.74985317681E+03  0.00000000000E+00 0. -1.
          1    1    1    2  502    0  0.28111623787E+02 -0.10999527208E+02 -0.23471594671E+02  0.38238315172E+02  0.00000000000E+00 0. -1.
         22    1    3    3    0    0  0.51875401564E+02  0.48080793053E+02 -0.47846881415E+03  0.48366850844E+03  0.00000000000E+00 0.  1.
         22    1    3    3    0    0 -0.45723788792E+02 -0.26239828313E+02 -0.58206809586E+03  0.58445056392E+03  0.00000000000E+00 0.  1.
</event>
<event>
 7    1  0.5139898E-006  0.3636971E+02  0.7818608E-02  0.1536823E+00
          2   -1    0    0  502    0  0.00000000000E+00  0.00000000000E+00  0.88436129041E+02  0.88436129041E+02  0.00000000000E+00 0. -1.
          1   -1    0    0  501    0 -0.00000000000E+00 -0.00000000000E+00 -0.20597132891E+04  0.20597132891E+04  0.00000000000E+00 0. -1.
         25    2    1    2    0    0  0.23888967807E+02 -0.41675764267E+02 -0.13889310730E+04  0.13953715468E+04  0.12499870445E+03 0.  0.
          2    1    1    2  501    0  0.11802471738E+02  0.34759131800E+02 -0.66315358519E+03  0.66416878362E+03  0.00000000000E+00 0. -1.
          1    1    1    2  502    0 -0.35691439545E+02  0.69166324665E+01  0.80807498136E+02  0.88609087663E+02  0.00000000000E+00 0. -1.
         22    1    3    3    0    0  0.12588123582E+02 -0.78041948303E+02 -0.55838057011E+03  0.56394846185E+03  0.00000000000E+00 0. -1.
         22    1    3    3    0    0  0.11300844225E+02  0.36366184036E+02 -0.83055050286E+03  0.83142308497E+03  0.00000000000E+00 0. -1.
</event>
<event>
 7    1  0.5139898E-006  0.5266804E+02  0.7818608E-02  0.1441154E+00
          2   -1    0    0  502    0  0.00000000000E+00  0.00000000000E+00  0.40778090036E+03  0.40778090036E+03  0.00000000000E+00 0. -1.
          1   -1    0    0  501    0 -0.00000000000E+00 -0.00000000000E+00 -0.35884371202E+03  0.35884371202E+03  0.00000000000E+00 0. -1.
         25    2    1    2    0    0  0.83596718569E+02 -0.26775031649E+02 -0.74794632125E+02  0.17007077099E+03  0.12499806588E+03 0.  0.
          2    1    1    2  501    0 -0.47668357890E+02 -0.11211154828E+02 -0.23194325967E+03  0.23705619175E+03  0.00000000000E+00 0. -1.
          1    1    1    2  502    0 -0.35928360679E+02  0.37986186477E+02  0.35567508014E+03  0.35949764964E+03  0.00000000000E+00 0. -1.
         22    1    3    3    0    0 -0.90362006257E+01 -0.33892503954E+02 -0.68491928346E+02  0.76951276758E+02  0.00000000000E+00 0. -1.
         22    1    3    3    0    0  0.92632919195E+02  0.71174723052E+01 -0.63027037785E+01  0.93119494229E+02  0.00000000000E+00 0. -1.
</event>
<event>
 7    1  0.5139898E-006  0.4013987E+02  0.7818608E-02  0.1568296E+00
          2   -1    0    0  502    0  0.00000000000E+00  0.00000000000E+00  0.24448441787E+04  0.24448441787E+04  0.00000000000E+00 0. -1.
          1   -1    0    0  501    0 -0.00000000000E+00 -0.00000000000E+00 -0.52369596060E+02  0.52369596060E+02  0.00000000000E+00 0. -1.
         25    2    1    2    0    0 -0.12921684357E+02 -0.12254384366E+02  0.40716988595E+02  0.13266050672E+03  0.12499518799E+03 0.  0.
          2    1    1    2  501    0 -0.17249373061E+02  0.38729217891E+02  0.66005985599E+02  0.78449240432E+02  0.00000000000E+00 0. -1.
          1    1    1    2  502    0  0.30171057418E+02 -0.26474833525E+02  0.22857516084E+04  0.22861040276E+04  0.00000000000E+00 0. -1.
         22    1    3    3    0    0 -0.16916955382E+02 -0.31343358950E+02  0.80680266842E+02  0.88192374882E+02  0.00000000000E+00 0.  1.
         22    1    3    3    0    0  0.39952710252E+01  0.19088974584E+02 -0.39963278247E+02  0.44468131841E+02  0.00000000000E+00 0.  1.
</event>
<event>
 7    1  0.5139898E-006  0.1544035E+03  0.7818608E-02  0.1257033E+00
          2   -1    0    0  502    0  0.00000000000E+00  0.00000000000E+00  0.69084566331E+03  0.69084566331E+03  0.00000000000E+00 0. -1.
          1   -1    0    0  501    0 -0.00000000000E+00 -0.00000000000E+00 -0.17519304451E+04  0.17519304451E+04  0.00000000000E+00 0. -1.
         25    2    1    2    0    0  0.72534900983E+02 -0.88721664079E+02  0.64104844985E+02  0.18128549971E+03  0.12498862235E+03 0.  0.
          2    1    1    2  501    0  0.78103730066E+02  0.22001861554E+02 -0.16803966890E+04  0.16823546911E+04  0.00000000000E+00 0. -1.
          1    1    1    2  502    0 -0.15063863105E+03  0.66719802525E+02  0.55520706213E+03  0.57913591760E+03  0.00000000000E+00 0. -1.
         22    1    3    3    0    0 -0.65307037081E+01 -0.87337952987E+02  0.16922966520E+02  0.89201765222E+02  0.00000000000E+00 0.  1.
         22    1    3    3    0    0  0.79065604691E+02 -0.13837110922E+01  0.47181878465E+02  0.92083734487E+02  0.00000000000E+00 0.  1.
</event>
<event>
 7    1  0.5139898E-006  0.4246796E+02  0.7818608E-02  0.1513491E+00
          2   -1    0    0  502    0  0.00000000000E+00  0.00000000000E+00  0.49890509989E+03  0.49890509989E+03  0.00000000000E+00 0. -1.
          1   -1    0    0  501    0 -0.00000000000E+00 -0.00000000000E+00 -0.32004490906E+03  0.32004490906E+03  0.00000000000E+00 0. -1.
         25    2    1    2    0    0 -0.28464687223E+02 -0.26428603761E+00  0.32891967686E+00  0.12820113614E+03  0.12500045941E+03 0.  0.
          2    1    1    2  501    0  0.54309536526E+01 -0.35944561075E+02 -0.25375098848E+03  0.25634170726E+03  0.00000000000E+00 0. -1.
          1    1    1    2  502    0  0.23033733570E+02  0.36208847113E+02  0.43228225963E+03  0.43440716555E+03  0.00000000000E+00 0. -1.
         22    1    3    3    0    0 -0.57123114585E+02  0.44924951536E+02 -0.11011751396E+02  0.73502109896E+02  0.00000000000E+00 0.  1.
         22    1    3    3    0    0  0.28658427362E+02 -0.45189237573E+02  0.11340671073E+02  0.54699026241E+02  0.00000000000E+00 0.  1.
</event>
<event>
 7    1  0.5139898E-006  0.1346602E+03  0.7818608E-02  0.1253723E+00
          2   -1    0    0  502    0  0.00000000000E+00  0.00000000000E+00  0.89941029387E+03  0.89941029387E+03  0.00000000000E+00 0. -1.
          1   -1    0    0  501    0 -0.00000000000E+00 -0.00000000000E+00 -0.86205653011E+02  0.86205653011E+02  0.00000000000E+00 0. -1.
         25    2    1    2    0    0  0.18359658106E+03 -0.31199895556E+02  0.20037596711E+03  0.30073973243E+03  0.12495087197E+03 0.  0.
          2    1    1    2  501    0 -0.95085935057E+02  0.68733411679E+02  0.76648368070E+02  0.14014488665E+03  0.00000000000E+00 0. -1.
          1    1    1    2  502    0 -0.88510646006E+02 -0.37533516123E+02  0.53618030568E+03  0.54473132780E+03  0.00000000000E+00 0. -1.
         22    1    3    3    0    0  0.30334519658E+02 -0.46894035298E+02  0.10669804216E+03  0.12043133243E+03  0.00000000000E+00 0. -1.
         22    1    3    3    0    0  0.15326206141E+03  0.15694139742E+02  0.93677924949E+02  0.18030840000E+03  0.00000000000E+00 0. -1.
</event>
<event>
 7    1  0.5139898E-006  0.8395002E+02  0.7818608E-02  0.1452509E+00
          2   -1    0    0  502    0  0.00000000000E+00  0.00000000000E+00  0.23656230675E+04  0.23656230675E+04  0.00000000000E+00 0. -1.
          1   -1    0    0  501    0 -0.00000000000E+00 -0.00000000000E+00 -0.77742886563E+03  0.77742886563E+03  0.00000000000E+00 0. -1.
         25    2    1    2    0    0  0.85659974538E+02 -0.14232811241E+02  0.62302200288E+03  0.64134457696E+03  0.12500498458E+03 0.  0.
          2    1    1    2  501    0 -0.82803275357E+02 -0.13867966263E+02 -0.76585831926E+03  0.77044640831E+03  0.00000000000E+00 0. -1.
          1    1    1    2  502    0 -0.28566991811E+01  0.28100777504E+02  0.17310305183E+04  0.17312609479E+04  0.00000000000E+00 0. -1.
         22    1    3    3    0    0  0.91423506940E+02 -0.27348612140E+02  0.24318830071E+03  0.26124079660E+03  0.00000000000E+00 0.  1.
         22    1    3    3    0    0 -0.57635324016E+01  0.13115800899E+02  0.37983370217E+03  0.38010378036E+03  0.00000000000E+00 0.  1.
</event>
<event>
 7    1  0.5139898E-006  0.9136486E+02  0.7818608E-02  0.1336503E+00
          2   -1    0    0  502    0  0.00000000000E+00  0.00000000000E+00  0.25261646328E+04  0.25261646328E+04  0.00000000000E+00 0. -1.
          1   -1    0    0  501    0 -0.00000000000E+00 -0.00000000000E+00 -0.79566532897E+03  0.79566532897E+03  0.00000000000E+00 0. -1.
         25    2    1    2    0    0 -0.20652212065E+01 -0.15181820536E+03  0.76326487421E+03  0.78819827085E+03  0.12502085167E+03 0.  0.
          2    1    1    2  501    0  0.41685984336E+00  0.65621740143E+02 -0.78075978321E+03  0.78351274759E+03  0.00000000000E+00 0. -1.
          1    1    1    2  502    0  0.16483613631E+01  0.86196465221E+02  0.17479942128E+04  0.17501189433E+04  0.00000000000E+00 0. -1.
         22    1    3    3    0    0 -0.46750457560E+02 -0.14378632895E+03  0.57713818669E+03  0.59661428093E+03  0.00000000000E+00 0. -1.
         22    1    3    3    0    0  0.44685236354E+02 -0.80318764136E+01  0.18612668752E+03  0.19158398992E+03  0.00000000000E+00 0. -1.
</event>
<event>
 7    1  0.5139898E-006  0.1406003E+03  0.7818608E-02  0.1359624E+00
          2   -1    0    0  502    0  0.00000000000E+00  0.00000000000E+00  0.29116147820E+03  0.29116147820E+03  0.00000000000E+00 0. -1.
          1   -1    0    0  501    0 -0.00000000000E+00 -0.00000000000E+00 -0.24319586973E+03  0.24319586973E+03  0.00000000000E+00 0. -1.
         25    2    1    2    0    0 -0.12505948348E+03 -0.53031505027E+02 -0.12841242322E+03  0.22487007674E+03  0.12499834417E+03 0.  0.
          2    1    1    2  501    0 -0.14941524873E+02  0.31637330162E+02 -0.38570472118E+02  0.52075437057E+02  0.00000000000E+00 0. -1.
          1    1    1    2  502    0  0.14000100835E+03  0.21394174865E+02  0.21494850381E+03  0.25741183412E+03  0.00000000000E+00 0. -1.
         22    1    3    3    0    0 -0.47366829300E+02  0.28161172148E+02 -0.11837480375E+01  0.55118684618E+02  0.00000000000E+00 0. -1.
         22    1    3    3    0    0 -0.77692654178E+02 -0.81192677175E+02 -0.12722867518E+03  0.16975139212E+03  0.00000000000E+00 0. -1.
</event>
<event>
 7    1  0.5139898E-006  0.5464366E+02  0.7818608E-02  0.1469212E+00
          2   -1    0    0  502    0  0.00000000000E+00  0.00000000000E+00  0.49657441760E+03  0.49657441760E+03  0.00000000000E+00 0. -1.
          1   -1    0    0  501    0 -0.00000000000E+00 -0.00000000000E+00 -0.11713968576E+04  0.11713968576E+04  0.00000000000E+00 0. -1.
         25    2    1    2    0    0  0.78886189452E+02  0.40426154789E+02 -0.11758584321E+03  0.19315557749E+03  0.12500136684E+03 0.  0.
          2    1    1    2  501    0 -0.40763507487E+02 -0.35484377396E+02 -0.10145003791E+04  0.10159388879E+04  0.00000000000E+00 0. -1.
          1    1    1    2  502    0 -0.38122681965E+02 -0.49417773936E+01  0.45726378232E+03  0.45887680990E+03  0.00000000000E+00 0. -1.
         22    1    3    3    0    0  0.19278034265E+02  0.19815240892E+02 -0.12647506966E+03  0.12946130550E+03  0.00000000000E+00 0. -1.
         22    1    3    3    0    0  0.59608155187E+02  0.20610913897E+02  0.88892264501E+01  0.63694271982E+02  0.00000000000E+00 0. -1.
</event>
<event>
 7    1  0.5139898E-006  0.4314572E+02  0.7818608E-02  0.1523156E+00
          2   -1    0    0  502    0  0.00000000000E+00  0.00000000000E+00  0.66530488654E+03  0.66530488654E+03  0.00000000000E+00 0. -1.
          1   -1    0    0  501    0 -0.00000000000E+00 -0.00000000000E+00 -0.18553073579E+03  0.18553073579E+03  0.00000000000E+00 0. -1.
         25    2    1    2    0    0 -0.23361057456E+01 -0.73070288057E+02  0.22498113452E+02  0.14654492137E+03  0.12499809793E+03 0.  0.
          2    1    1    2  501    0 -0.98659067473E+01  0.32053336072E+02 -0.12042455536E+03  0.12500730380E+03  0.00000000000E+00 0. -1.
          1    1    1    2  502    0  0.12202012493E+02  0.41016951985E+02  0.57770059266E+03  0.57928339716E+03  0.00000000000E+00 0. -1.
         22    1    3    3    0    0  0.41299503988E+02 -0.66275451889E+02  0.51653044580E+02  0.93627568414E+02  0.00000000000E+00 0.  1.
         22    1    3    3    0    0 -0.43635609733E+02 -0.67948361683E+01 -0.29154931128E+02  0.52917352961E+02  0.00000000000E+00 0.  1.
</event>
<event>
 7    1  0.5139898E-006  0.6512500E+02  0.7818608E-02  0.1456012E+00
          2   -1    0    0  502    0  0.00000000000E+00  0.00000000000E+00  0.31332819966E+03  0.31332819966E+03  0.00000000000E+00 0. -1.
          1   -1    0    0  501    0 -0.00000000000E+00 -0.00000000000E+00 -0.20724047613E+03  0.20724047613E+03  0.00000000000E+00 0. -1.
         25    2    1    2    0    0  0.89397850265E+02  0.14437177173E+02 -0.56837454919E+02  0.16448962494E+03  0.12500373080E+03 0.  0.
          2    1    1    2  501    0 -0.60637434680E+02  0.63534134175E+01 -0.85566461772E+02  0.10506609218E+03  0.00000000000E+00 0. -1.
          1    1    1    2  502    0 -0.28760415585E+02 -0.20790590591E+02  0.24849164022E+03  0.25101295867E+03  0.00000000000E+00 0. -1.
         22    1    3    3    0    0  0.10628195461E+03  0.48239894529E+01 -0.80832294513E+02  0.13361506122E+03  0.00000000000E+00 0. -1.
         22    1    3    3    0    0 -0.16884104342E+02  0.96131877204E+01  0.23994839594E+02  0.30874563717E+02  0.00000000000E+00 0. -1.
</event>
<event>
 7    1  0.5139898E-006  0.6906139E+02  0.7818608E-02  0.1371198E+00
          2   -1    0    0  502    0  0.00000000000E+00  0.00000000000E+00  0.75873854791E+03  0.75873854791E+03  0.00000000000E+00 0. -1.
          1   -1    0    0  501    0 -0.00000000000E+00 -0.00000000000E+00 -0.48375465740E+03  0.48375465740E+03  0.00000000000E+00 0. -1.
         25    2    1    2    0    0 -0.27237263906E+02 -0.10340753770E+03 -0.18036926331E+03  0.24411317210E+03  0.12499272877E+03 0.  0.
          2    1    1    2  501    0 -0.22679672915E+02  0.62274346562E+02 -0.26600032116E+03  0.27413250931E+03  0.00000000000E+00 0. -1.
          1    1    1    2  502    0  0.49916936821E+02  0.41133191136E+02  0.72135347498E+03  0.72424752389E+03  0.00000000000E+00 0. -1.
         22    1    3    3    0    0  0.10729941929E+02  0.25609554374E+02 -0.17196374042E+02  0.32660315510E+02  0.00000000000E+00 0. -1.
         22    1    3    3    0    0 -0.37967205835E+02 -0.12901709207E+03 -0.16317288927E+03  0.21145285659E+03  0.00000000000E+00 0. -1.
</event>
<event>
 7    1  0.5139898E-006  0.7181386E+02  0.7818608E-02  0.1359056E+00
          2   -1    0    0  502    0  0.00000000000E+00  0.00000000000E+00  0.10284689625E+04  0.10284689625E+04  0.00000000000E+00 0. -1.
          1   -1    0    0  501    0 -0.00000000000E+00 -0.00000000000E+00 -0.83508832375E+02  0.83508832375E+02  0.00000000000E+00 0. -1.
         25    2    1    2    0    0 -0.31648069528E+02  0.51261588575E+02  0.22144948955E+03  0.26133110311E+03  0.12499887304E+03 0.  0.
          2    1    1    2  501    0  0.72008880087E+02  0.81373610217E+01 -0.40669670428E+02  0.83099443731E+02  0.00000000000E+00 0. -1.
          1    1    1    2  502    0 -0.40360810559E+02 -0.59398949597E+02  0.76418031104E+03  0.76754724807E+03  0.00000000000E+00 0. -1.
         22    1    3    3    0    0 -0.77065354743E+02  0.38019375652E+02  0.17535810952E+03  0.19528186910E+03  0.00000000000E+00 0. -1.
         22    1    3    3    0    0  0.45417285216E+02  0.13242212923E+02  0.46091380034E+02  0.66049234007E+02  0.00000000000E+00 0. -1.
</event>
<event>
 7    1  0.5139898E-006  0.8613650E+02  0.7818608E-02  0.1427908E+00
          2   -1    0    0  502    0  0.00000000000E+00  0.00000000000E+00  0.51616337762E+03  0.51616337762E+03  0.00000000000E+00 0. -1.
          1   -1    0    0  501    0 -0.00000000000E+00 -0.00000000000E+00 -0.22160417985E+03  0.22160417985E+03  0.00000000000E+00 0. -1.
         25    2    1    2    0    0  0.66375493380E+02  0.36290555401E+02  0.39205417556E+03  0.41839418360E+03  0.12499802303E+03 0.  0.
          2    1    1    2  501    0  0.22258514639E+02  0.24475475240E+02 -0.18054938508E+03  0.18355536171E+03  0.00000000000E+00 0. -1.
          1    1    1    2  502    0 -0.88634008020E+02 -0.60766030641E+02  0.83054407283E+02  0.13581801216E+03  0.00000000000E+00 0. -1.
         22    1    3    3    0    0 -0.27421924887E+01  0.81010402395E+01  0.29890066283E+03  0.29902299696E+03  0.00000000000E+00 0.  1.
         22    1    3    3    0    0  0.69117685869E+02  0.28189515162E+02  0.93153512738E+02  0.11937118664E+03  0.00000000000E+00 0.  1.
</event>
<event>
 7    1  0.5139898E-006  0.4972317E+02  0.7818608E-02  0.1466964E+00
          2   -1    0    0  502    0  0.00000000000E+00  0.00000000000E+00  0.38011636891E+04  0.38011636891E+04  0.00000000000E+00 0. -1.
          1   -1    0    0  501    0 -0.00000000000E+00 -0.00000000000E+00 -0.60373857839E+02  0.60373857839E+02  0.00000000000E+00 0. -1.
         25    2    1    2    0    0 -0.15703965170E+02 -0.15407580432E+01  0.24337812192E+04  0.24370408571E+04  0.12501251095E+03 0.  0.
          2    1    1    2  501    0  0.32259284350E+02 -0.38072249327E+02 -0.47744780264E+02  0.69063171358E+02  0.00000000000E+00 0. -1.
          1    1    1    2  502    0 -0.16555319181E+02  0.39613007370E+02  0.13547533923E+04  0.13554335184E+04  0.00000000000E+00 0. -1.
         22    1    3    3    0    0  0.15995074569E+02  0.50350876188E+02  0.62202612075E+03  0.62426560697E+03  0.00000000000E+00 0.  1.
         22    1    3    3    0    0 -0.31699039738E+02 -0.51891634231E+02  0.18117550984E+04  0.18127752502E+04  0.00000000000E+00 0.  1.
</event>
<event>
 7    1  0.5139898E-006  0.7428009E+02  0.7818608E-02  0.1381718E+00
          2   -1    0    0  502    0  0.00000000000E+00  0.00000000000E+00  0.13330067125E+04  0.13330067125E+04  0.00000000000E+00 0. -1.
          1   -1    0    0  501    0 -0.00000000000E+00 -0.00000000000E+00 -0.19486109140E+03  0.19486109140E+03  0.00000000000E+00 0. -1.
         25    2    1    2    0    0  0.74086268944E+02  0.19322019680E+02  0.53839573069E+03  0.55799216428E+03  0.12499270730E+03 0.  0.
          2    1    1    2  501    0 -0.56634574503E+01 -0.54876049185E+02 -0.17900466524E+03  0.18731290853E+03  0.00000000000E+00 0. -1.
          1    1    1    2  502    0 -0.68422811493E+02  0.35554029505E+02  0.77875455564E+03  0.78256273108E+03  0.00000000000E+00 0. -1.
         22    1    3    3    0    0 -0.53829492510E+01 -0.37017119714E+02  0.67940951180E+02  0.77557824504E+02  0.00000000000E+00 0.  1.
         22    1    3    3    0    0  0.79469218194E+02  0.56339139394E+02  0.47045477951E+03  0.48043433977E+03  0.00000000000E+00 0.  1.
</event>
<event>
 7    1  0.5139898E-006  0.4573079E+02  0.7818608E-02  0.1479206E+00
          2   -1    0    0  502    0  0.00000000000E+00  0.00000000000E+00  0.36306263104E+04  0.36306263104E+04  0.00000000000E+00 0. -1.
          1   -1    0    0  501    0 -0.00000000000E+00 -0.00000000000E+00 -0.18560283125E+02  0.18560283125E+02  0.00000000000E+00 0. -1.
         25    2    1    2    0    0  0.52185939749E+02 -0.39368409998E+02  0.67705983498E+03  0.69159746717E+03  0.12499516969E+03 0.  0.
          2    1    1    2  501    0 -0.42460709834E+02 -0.52070130076E+01  0.30058666585E+02  0.52283346306E+02  0.00000000000E+00 0. -1.
          1    1    1    2  502    0 -0.97252299152E+01  0.44575423005E+02  0.29049475257E+04  0.29053057800E+04  0.00000000000E+00 0. -1.
         22    1    3    3    0    0 -0.36212469755E+02 -0.34986341730E+02  0.30691877620E+03  0.31102173920E+03  0.00000000000E+00 0.  1.
         22    1    3    3    0    0  0.88398409504E+02 -0.43820682678E+01  0.37014105878E+03  0.38057572797E+03  0.00000000000E+00 0.  1.
</event>
<event>
 7    1  0.5139898E-006  0.7695886E+02  0.7818608E-02  0.1399641E+00
          2   -1    0    0  502    0  0.00000000000E+00  0.00000000000E+00  0.28003804215E+03  0.28003804215E+03  0.00000000000E+00 0. -1.
          1   -1    0    0  501    0 -0.00000000000E+00 -0.00000000000E+00 -0.35762095513E+03  0.35762095513E+03  0.00000000000E+00 0. -1.
         25    2    1    2    0    0  0.79047511912E+02  0.91654620174E+02  0.17557815771E+03  0.24718757176E+03  0.12499971052E+03 0.  0.
          2    1    1    2  501    0 -0.43401978291E+02 -0.62402653124E+02 -0.30890940403E+03  0.31812394241E+03  0.00000000000E+00 0. -1.
          1    1    1    2  502    0 -0.35645533621E+02 -0.29251967050E+02  0.55748333332E+02  0.72347483112E+02  0.00000000000E+00 0. -1.
         22    1    3    3    0    0  0.50429664415E+02  0.11194155699E+03  0.83035006904E+02  0.14821901230E+03  0.00000000000E+00 0. -1.
         22    1    3    3    0    0  0.28617847498E+02 -0.20286936820E+02  0.92543150806E+02  0.98968559462E+02  0.00000000000E+00 0. -1.
</event>
<event>
 7    1  0.5139898E-006  0.4864514E+02  0.7818608E-02  0.1467253E+00
          2   -1    0    0  502    0  0.00000000000E+00  0.00000000000E+00  0.38833441900E+03  0.38833441900E+03  0.00000000000E+00 0. -1.
          1   -1    0    0  501    0 -0.00000000000E+00 -0.00000000000E+00 -0.10691385742E+04  0.10691385742E+04  0.00000000000E+00 0. -1.
         25    2    1    2    0    0  0.16221290457E+02 -0.16725634543E+02 -0.44250676988E+03  0.46041267982E+03  0.12499886892E+03 0.  0.
          2    1    1    2  501    0 -0.52484897939E+02 -0.78274352838E+01 -0.61526913045E+03  0.61755326583E+03  0.00000000000E+00 0. -1.
          1    1    1    2  502    0  0.36263607482E+02  0.24553069827E+02  0.37697174516E+03  0.37950704752E+03  0.00000000000E+00 0. -1.
         22    1    3    3    0    0  0.63632933395E+02 -0.37966578914E+02 -0.28922143665E+03  0.29856264124E+03  0.00000000000E+00 0.  1.
         22    1    3    3    0    0 -0.47411642938E+02  0.21240944371E+02 -0.15328533324E+03  0.16185003858E+03  0.00000000000E+00 0.  1.
</event>
<event>
 7    1  0.5139898E-006  0.1328581E+03  0.7818608E-02  0.1284132E+00
          2   -1    0    0  502    0  0.00000000000E+00  0.00000000000E+00  0.79464749970E+03  0.79464749970E+03  0.00000000000E+00 0. -1.
          1   -1    0    0  501    0 -0.00000000000E+00 -0.00000000000E+00 -0.22312569307E+03  0.22312569307E+03  0.00000000000E+00 0. -1.
         25    2    1    2    0    0  0.12919266794E+02  0.12865784813E+03 -0.78399210900E+02  0.19619201962E+03  0.12500049181E+03 0.  0.
          2    1    1    2  501    0 -0.84873030963E+02 -0.11914530182E+03 -0.20084061823E+02  0.14765637091E+03  0.00000000000E+00 0. -1.
          1    1    1    2  502    0  0.71953764169E+02 -0.95125463085E+01  0.67000507936E+03  0.67392480224E+03  0.00000000000E+00 0. -1.
         22    1    3    3    0    0 -0.24177109397E+02  0.20430970696E+02 -0.75366376954E+02  0.81743794612E+02  0.00000000000E+00 0.  1.
         22    1    3    3    0    0  0.37096376191E+02  0.10822687743E+03 -0.30328339467E+01  0.11444822501E+03  0.00000000000E+00 0.  1.
</event>
<event>
 7    1  0.5139898E-006  0.7955688E+02  0.7818608E-02  0.1348023E+00
          2   -1    0    0  502    0  0.00000000000E+00  0.00000000000E+00  0.78818567165E+03  0.78818567165E+03  0.00000000000E+00 0. -1.
          1   -1    0    0  501    0 -0.00000000000E+00 -0.00000000000E+00 -0.41676126010E+02  0.41676126010E+02  0.00000000000E+00 0. -1.
         25    2    1    2    0    0  0.19755269953E+02 -0.15599488049E+02  0.93745197971E+02  0.15826288958E+03  0.12500146142E+03 0.  0.
          2    1    1    2  501    0  0.68225213717E+02 -0.67254595457E+00  0.30068862151E+03  0.30833225457E+03  0.00000000000E+00 0. -1.
          1    1    1    2  502    0 -0.87980483670E+02  0.16272034004E+02  0.35207572616E+03  0.36326665350E+03  0.00000000000E+00 0. -1.
         22    1    3    3    0    0  0.34114117909E+02  0.11998053846E+02  0.11502238323E+03  0.12057311052E+03  0.00000000000E+00 0.  1.
         22    1    3    3    0    0 -0.14358847956E+02 -0.27597541895E+02 -0.21277185259E+02  0.37689779063E+02  0.00000000000E+00 0.  1.
</event>
<event>
 7    1  0.5139898E-006  0.1000030E+03  0.7818608E-02  0.1350322E+00
          2   -1    0    0  502    0  0.00000000000E+00  0.00000000000E+00  0.10559154131E+04  0.10559154131E+04  0.00000000000E+00 0. -1.
          1   -1    0    0  501    0 -0.00000000000E+00 -0.00000000000E+00 -0.17548531558E+04  0.17548531558E+04  0.00000000000E+00 0. -1.
         25    2    1    2    0    0  0.85349307142E+01  0.11607427161E+03 -0.39956948933E+02  0.17540401741E+03  0.12499571985E+03 0.  0.
          2    1    1    2  501    0 -0.47473345980E+02 -0.24062526578E+02 -0.16442155632E+04  0.16450767587E+04  0.00000000000E+00 0. -1.
          1    1    1    2  502    0  0.38938415265E+02 -0.92011745036E+02  0.98523476948E+03  0.99028779272E+03  0.00000000000E+00 0. -1.
         22    1    3    3    0    0  0.42748586091E+01 -0.43714442348E+01 -0.53749675844E+02  0.54096317750E+02  0.00000000000E+00 0.  1.
         22    1    3    3    0    0  0.42600721051E+01  0.12044571585E+03  0.13792726911E+02  0.12130769966E+03  0.00000000000E+00 0.  1.
</event>
<event>
 7    1  0.5139898E-006  0.8525931E+02  0.7818608E-02  0.1365987E+00
          2   -1    0    0  502    0  0.00000000000E+00  0.00000000000E+00  0.86347980378E+02  0.86347980378E+02  0.00000000000E+00 0. -1.
          1   -1    0    0  501    0 -0.00000000000E+00 -0.00000000000E+00 -0.19917905802E+04  0.19917905802E+04  0.00000000000E+00 0. -1.
         25    2    1    2    0    0  0.32304830067E+02  0.47260538726E+02 -0.25993098516E+03  0.29405768580E+03  0.12501457901E+03 0.  0.
          2    1    1    2  501    0 -0.35093960408E+02  0.41967181036E+02 -0.16854111498E+04  0.16862987796E+04  0.00000000000E+00 0. -1.
          1    1    1    2  502    0  0.27891303412E+01 -0.89227719763E+02  0.39899535150E+02  0.97782095126E+02  0.00000000000E+00 0. -1.
         22    1    3    3    0    0 -0.30408834256E+02  0.25692758067E+02 -0.18898027634E+02  0.44067567057E+02  0.00000000000E+00 0.  1.
         22    1    3    3    0    0  0.62713664323E+02  0.21567780660E+02 -0.24103295753E+03  0.24999011875E+03  0.00000000000E+00 0.  1.
</event>
<event>
 7    1  0.5139898E-006  0.2016086E+03  0.7818608E-02  0.1318953E+00
          2   -1    0    0  502    0  0.00000000000E+00  0.00000000000E+00  0.23420016340E+04  0.23420016340E+04  0.00000000000E+00 0. -1.
          1   -1    0    0  501    0 -0.00000000000E+00 -0.00000000000E+00 -0.19136065017E+03  0.19136065017E+03  0.00000000000E+00 0. -1.
         25    2    1    2    0    0 -0.59160117693E+02 -0.18927339586E+03  0.66144721633E+03  0.70175604138E+03  0.12499913487E+03 0.  0.
          2    1    1    2  501    0  0.92539384158E+02  0.17970938038E+03 -0.11128882014E+03  0.23074704875E+03  0.00000000000E+00 0. -1.
          1    1    1    2  502    0 -0.33379266464E+02  0.95640154803E+01  0.16004825877E+04  0.16008591941E+04  0.00000000000E+00 0. -1.
         22    1    3    3    0    0 -0.45883821053E+02 -0.93506532775E+02  0.52060735619E+03  0.53092449183E+03  0.00000000000E+00 0.  1.
         22    1    3    3    0    0 -0.13276296641E+02 -0.95766863088E+02  0.14083986014E+03  0.17083154955E+03  0.00000000000E+00 0.  1.
</event>
<event>
 7    1  0.5139898E-006  0.1627386E+03  0.7818608E-02  0.1266480E+00
          2   -1    0    0  502    0  0.00000000000E+00  0.00000000000E+00  0.16261208081E+04  0.16261208081E+04  0.00000000000E+00 0. -1.
          1   -1    0    0  501    0 -0.00000000000E+00 -0.00000000000E+00 -0.32859552329E+03  0.32859552329E+03  0.00000000000E+00 0. -1.
         25    2    1    2    0    0 -0.22490553858E+02 -0.16241162539E+03 -0.59488284755E+02  0.21457810564E+03  0.12498618452E+03 0.  0.
          2    1    1    2  501    0 -0.47648733592E+02  0.16000783989E+03 -0.15421691581E+03  0.22727905262E+03  0.00000000000E+00 0. -1.
          1    1    1    2  502    0  0.70139287451E+02  0.24037855013E+01  0.15112304853E+04  0.15128591731E+04  0.00000000000E+00 0. -1.
         22    1    3    3    0    0 -0.51617597853E+02 -0.13878008421E+02 -0.26514037503E+02  0.59665481734E+02  0.00000000000E+00 0.  1.
         22    1    3    3    0    0  0.29127043995E+02 -0.14853361697E+03 -0.32974247252E+02  0.15491262390E+03  0.00000000000E+00 0.  1.
</event>
<event>
 7    1  0.5139898E-006  0.2561419E+03  0.7818608E-02  0.1224214E+00
          2   -1    0    0  502    0  0.00000000000E+00  0.00000000000E+00  0.27358901260E+04  0.27358901260E+04  0.00000000000E+00 0. -1.
          1   -1    0    0  501    0 -0.00000000000E+00 -0.00000000000E+00 -0.14294095484E+03  0.14294095484E+03  0.00000000000E+00 0. -1.
         25    2    1    2    0    0  0.32964485796E+02 -0.30549989619E+03  0.10306695997E+04  0.10827378251E+04  0.12499812163E+03 0.  0.
          2    1    1    2  501    0 -0.12659092231E+02  0.67056184898E+02 -0.97578639472E+02  0.11907298363E+03  0.00000000000E+00 0. -1.
          1    1    1    2  502    0 -0.20305393565E+02  0.23844371129E+03  0.16598582109E+04  0.16770202720E+04  0.00000000000E+00 0. -1.
         22    1    3    3    0    0  0.48689997858E+02 -0.35465066453E+02  0.15726551886E+03  0.16840703742E+03  0.00000000000E+00 0. -1.
         22    1    3    3    0    0 -0.15725512062E+02 -0.27003482974E+03  0.87340408081E+03  0.91433078773E+03  0.00000000000E+00 0. -1.
</event>
<event>
 7    1  0.5139898E-006  0.1477417E+03  0.7818608E-02  0.1248885E+00
          2   -1    0    0  502    0  0.00000000000E+00  0.00000000000E+00  0.36526698380E+04  0.36526698380E+04  0.00000000000E+00 0. -1.
          1   -1    0    0  501    0 -0.00000000000E+00 -0.00000000000E+00 -0.30263689122E+02  0.30263689122E+02  0.00000000000E+00 0. -1.
         25    2    1    2    0    0  0.90044253559E+01  0.13359524265E+03  0.15735725697E+04  0.15841983162E+04  0.12499961831E+03 0.  0.
          2    1    1    2  501    0 -0.91253523977E+02  0.11352286243E+02  0.77187899251E+02  0.12005853502E+03  0.00000000000E+00 0. -1.
          1    1    1    2  502    0  0.82249098621E+02 -0.14494752889E+03  0.19716456799E+04  0.19786766759E+04  0.00000000000E+00 0. -1.
         22    1    3    3    0    0  0.41202585871E+02  0.97567694513E+01  0.18697777162E+03  0.19171211415E+03  0.00000000000E+00 0. -1.
         22    1    3    3    0    0 -0.32198160515E+02  0.12383847320E+03  0.13865947981E+04  0.13924862021E+04  0.00000000000E+00 0. -1.
</event>
<event>
 7    1  0.5139898E-006  0.7430381E+02  0.7818608E-02  0.1473476E+00
          2   -1    0    0  502    0  0.00000000000E+00  0.00000000000E+00  0.87457763699E+03  0.87457763699E+03  0.00000000000E+00 0. -1.
          1   -1    0    0  501    0 -0.00000000000E+00 -0.00000000000E+00 -0.94029511157E+02  0.94029511157E+02  0.00000000000E+00 0. -1.
         25    2    1    2    0    0  0.61017017903E+02 -0.32480071457E+02  0.11640290027E+03  0.18426073496E+03  0.12499740694E+03 0.  0.
          2    1    1    2  501    0 -0.75242915075E+02  0.90373346595E+01 -0.35835130567E+02  0.83829149283E+02  0.00000000000E+00 0. -1.
          1    1    1    2  502    0  0.14225897172E+02  0.23442736798E+02  0.69998035613E+03  0.70051726390E+03  0.00000000000E+00 0. -1.
         22    1    3    3    0    0 -0.22271043725E+02 -0.15838519237E+01 -0.14089259901E+02  0.26401045814E+02  0.00000000000E+00 0. -1.
         22    1    3    3    0    0  0.83288061628E+02 -0.30896219534E+02  0.13049216017E+03  0.15785968914E+03  0.00000000000E+00 0. -1.
</event>
<event>
 7    1  0.5139898E-006  0.9557220E+02  0.7818608E-02  0.1453180E+00
          2   -1    0    0  502    0  0.00000000000E+00  0.00000000000E+00  0.92627190855E+03  0.92627190855E+03  0.00000000000E+00 0. -1.
          1   -1    0    0  501    0 -0.00000000000E+00 -0.00000000000E+00 -0.77211110373E+02  0.77211110373E+02  0.00000000000E+00 0. -1.
         25    2    1    2    0    0  0.62677090313E+02  0.54350877672E+02  0.32871106862E+03  0.36132952408E+03  0.12500249111E+03 0.  0.
          2    1    1    2  501    0 -0.57386967629E+02 -0.78466445398E+02 -0.21648126040E+02  0.99593616603E+02  0.00000000000E+00 0. -1.
          1    1    1    2  502    0 -0.52901226838E+01  0.24115567726E+02  0.54199785560E+03  0.54255987824E+03  0.00000000000E+00 0. -1.
         22    1    3    3    0    0 -0.26586592553E+02 -0.17690047371E+02  0.43895342413E+02  0.54282462777E+02  0.00000000000E+00 0. -1.
         22    1    3    3    0    0  0.89263682865E+02  0.72040925043E+02  0.28481572621E+03  0.30704706130E+03  0.00000000000E+00 0. -1.
</event>
<event>
 7    1  0.5139898E-006  0.4322996E+02  0.7818608E-02  0.1510711E+00
          2   -1    0    0  502    0  0.00000000000E+00  0.00000000000E+00  0.11520143950E+04  0.11520143950E+04  0.00000000000E+00 0. -1.
          1   -1    0    0  501    0 -0.00000000000E+00 -0.00000000000E+00 -0.64421815746E+02  0.64421815746E+02  0.00000000000E+00 0. -1.
         25    2    1    2    0    0 -0.33611697180E+02  0.37385353308E+02  0.16009835356E+03  0.20924430194E+03  0.12499713698E+03 0.  0.
          2    1    1    2  501    0  0.35902396227E+02  0.59315188212E+01 -0.30947331446E+02  0.47769260974E+02  0.00000000000E+00 0. -1.
          1    1    1    2  502    0 -0.22906990467E+01 -0.43316872129E+02  0.95844155714E+03  0.95942264783E+03  0.00000000000E+00 0. -1.
         22    1    3    3    0    0 -0.32237839980E+01 -0.45313161526E+02  0.41726190680E+02  0.61682658661E+02  0.00000000000E+00 0. -1.
         22    1    3    3    0    0 -0.30387913182E+02  0.82698514834E+02  0.11837216288E+03  0.14756164328E+03  0.00000000000E+00 0. -1.
</event>
<event>
 7    1  0.5268803E-006  0.1401942E+03  0.7818608E-02  0.1302217E+00
          2   -1    0    0  502    0  0.00000000000E+00  0.00000000000E+00  0.75131330831E+03  0.75131330831E+03  0.00000000000E+00 0. -1.
          1   -1    0    0  501    0 -0.00000000000E+00 -0.00000000000E+00 -0.16894018438E+04  0.16894018438E+04  0.00000000000E+00 0. -1.
         25    2    1    2    0    0 -0.11183629611E+03 -0.13581877138E+03 -0.37302854372E+03  0.43096195180E+03  0.12499525464E+03 0.  0.
          2    1    1    2  501    0 -0.41761534619E+01  0.57964206791E+02 -0.12799852931E+04  0.12813038828E+04  0.00000000000E+00 0. -1.
          1    1    1    2  502    0  0.11601244957E+03  0.77854564588E+02  0.71492530134E+03  0.72844931750E+03  0.00000000000E+00 0. -1.
         22    1    3    3    0    0 -0.23696998605E+02 -0.68840416166E+02 -0.27032169765E+03  0.27995422994E+03  0.00000000000E+00 0. -1.
         22    1    3    3    0    0 -0.88139297503E+02 -0.66978355213E+02 -0.10270684607E+03  0.15100772186E+03  0.00000000000E+00 0. -1.
</event>
<event>
 7    1  0.5139898E-006  0.6925260E+02  0.7818608E-02  0.1472805E+00
          2   -1    0    0  502    0  0.00000000000E+00  0.00000000000E+00  0.85799108869E+03  0.85799108869E+03  0.00000000000E+00 0. -1.
          1   -1    0    0  501    0 -0.00000000000E+00 -0.00000000000E+00 -0.21519294875E+03  0.21519294875E+03  0.00000000000E+00 0. -1.
         25    2    1    2    0    0 -0.53327344991E+02  0.11100706936E+02 -0.59449379912E+02  0.14875924514E+03  0.12501221070E+03 0.  0.
          2    1    1    2  501    0  0.63005134772E+02 -0.39034615191E+02 -0.98422877953E+02  0.12320881095E+03  0.00000000000E+00 0. -1.
          1    1    1    2  502    0 -0.96777897810E+01  0.27933908255E+02  0.80067039781E+03  0.80121598135E+03  0.00000000000E+00 0. -1.
         22    1    3    3    0    0 -0.41574145040E+02 -0.52210193159E+02 -0.50616563425E+02  0.83763657385E+02  0.00000000000E+00 0. -1.
         22    1    3    3    0    0 -0.11753199951E+02  0.63310900096E+02 -0.88328164861E+01  0.64995587751E+02  0.00000000000E+00 0. -1.
</event>
<event>
 7    1  0.5139898E-006  0.1121482E+03  0.7818608E-02  0.1299798E+00
          2   -1    0    0  502    0  0.00000000000E+00  0.00000000000E+00  0.22213709793E+03  0.22213709793E+03  0.00000000000E+00 0. -1.
          1   -1    0    0  501    0 -0.00000000000E+00 -0.00000000000E+00 -0.13034042686E+04  0.13034042686E+04  0.00000000000E+00 0. -1.
         25    2    1    2    0    0  0.10728110073E+03 -0.82735427472E+02  0.59163131666E+01  0.18441173144E+03  0.12497319072E+03 0.  0.
          2    1    1    2  501    0 -0.36707642481E+02  0.10591790991E+03 -0.12004525838E+04  0.12056751057E+04  0.00000000000E+00 0. -1.
          1    1    1    2  502    0 -0.70573458245E+02 -0.23182482442E+02  0.11326909999E+03  0.13545452932E+03  0.00000000000E+00 0. -1.
         22    1    3    3    0    0  0.94267909009E+02 -0.98989607822E+02  0.41784358806E+02  0.14293814665E+03  0.00000000000E+00 0.  1.
         22    1    3    3    0    0  0.13013191717E+02  0.16254180350E+02 -0.35868045640E+02  0.41473584792E+02  0.00000000000E+00 0.  1.
</event>
<event>
 7    1  0.5139898E-006  0.5217362E+02  0.7818608E-02  0.1493984E+00
          2   -1    0    0  502    0  0.00000000000E+00  0.00000000000E+00  0.17892500512E+04  0.17892500512E+04  0.00000000000E+00 0. -1.
          1   -1    0    0  501    0 -0.00000000000E+00 -0.00000000000E+00 -0.79279282740E+02  0.79279282740E+02  0.00000000000E+00 0. -1.
         25    2    1    2    0    0  0.60675489422E+02  0.11978604889E+01  0.43822877259E+03  0.45973013724E+03  0.12499756830E+03 0.  0.
          2    1    1    2  501    0 -0.17854456187E+02  0.28712720652E+02 -0.63816264358E+02  0.72219924741E+02  0.00000000000E+00 0. -1.
          1    1    1    2  502    0 -0.42821033236E+02 -0.29910581141E+02  0.13355582603E+04  0.13365792720E+04  0.00000000000E+00 0. -1.
         22    1    3    3    0    0  0.92418660131E+02  0.22846103185E+02  0.24767689718E+03  0.26534317132E+03  0.00000000000E+00 0. -1.
         22    1    3    3    0    0 -0.31743170709E+02 -0.21648242696E+02  0.19055187540E+03  0.19438696592E+03  0.00000000000E+00 0. -1.
</event>
<event>
 7    1  0.5139898E-006  0.1415108E+03  0.7818608E-02  0.1314434E+00
          2   -1    0    0  502    0  0.00000000000E+00  0.00000000000E+00  0.34250083256E+03  0.34250083256E+03  0.00000000000E+00 0. -1.
          1   -1    0    0  501    0 -0.00000000000E+00 -0.00000000000E+00 -0.23148655941E+04  0.23148655941E+04  0.00000000000E+00 0. -1.
         25    2    1    2    0    0  0.15430475725E+03 -0.42574185386E+02  0.17513378590E+03  0.26817706530E+03  0.12499830406E+03 0.  0.
          2    1    1    2  501    0 -0.14122006180E+03 -0.72538075468E+01 -0.22605419181E+04  0.22649603720E+04  0.00000000000E+00 0. -1.
          1    1    1    2  502    0 -0.13084695454E+02  0.49827992932E+02  0.11304337065E+03  0.12422898930E+03  0.00000000000E+00 0. -1.
         22    1    3    3    0    0  0.10619705376E+02  0.31254206797E+02  0.64271091632E+02  0.72252175084E+02  0.00000000000E+00 0. -1.
         22    1    3    3    0    0  0.14368505188E+03 -0.73828392183E+02  0.11086269427E+03  0.19592489022E+03  0.00000000000E+00 0. -1.
</event>
<event>
 7    1  0.5139898E-006  0.1281302E+03  0.7818608E-02  0.1241450E+00
          2   -1    0    0  502    0  0.00000000000E+00  0.00000000000E+00  0.22508339536E+04  0.22508339536E+04  0.00000000000E+00 0. -1.
          1   -1    0    0  501    0 -0.00000000000E+00 -0.00000000000E+00 -0.12177603004E+04  0.12177603004E+04  0.00000000000E+00 0. -1.
         25    2    1    2    0    0  0.17160002738E+01 -0.11847741475E+03  0.12265551523E+04  0.12385884822E+04  0.12499617592E+03 0.  0.
          2    1    1    2  501    0  0.11399121831E+03  0.80394566958E+01 -0.12027371630E+04  0.12081536798E+04  0.00000000000E+00 0. -1.
          1    1    1    2  502    0 -0.11570721859E+03  0.11043795805E+03  0.10092556638E+04  0.10218520920E+04  0.00000000000E+00 0. -1.
         22    1    3    3    0    0  0.88647278179E+01 -0.83127442323E+02  0.30276470657E+03  0.31409428937E+03  0.00000000000E+00 0.  1.
         22    1    3    3    0    0 -0.71487275442E+01 -0.35349972424E+02  0.92379044576E+03  0.92449419281E+03  0.00000000000E+00 0.  1.
</event>
<event>
 7    1  0.5139898E-006  0.6696527E+02  0.7818608E-02  0.1457112E+00
          2   -1    0    0  502    0  0.00000000000E+00  0.00000000000E+00  0.23420505666E+04  0.23420505666E+04  0.00000000000E+00 0. -1.
          1   -1    0    0  501    0 -0.00000000000E+00 -0.00000000000E+00 -0.17869629948E+02  0.17869629948E+02  0.00000000000E+00 0. -1.
         25    2    1    2    0    0  0.77632287617E+01 -0.70896126366E+02  0.16352974837E+04  0.16416178704E+04  0.12499937440E+03 0.  0.
          2    1    1    2  501    0  0.25346661175E+02  0.62183791498E+02  0.64924766896E+02  0.93405045443E+02  0.00000000000E+00 0. -1.
          1    1    1    2  502    0 -0.33109889937E+02  0.87123348688E+01  0.62395868607E+03  0.62489728077E+03  0.00000000000E+00 0. -1.
         22    1    3    3    0    0 -0.12667539362E+02 -0.75654027908E+02  0.15882999051E+04  0.15901511208E+04  0.00000000000E+00 0.  1.
         22    1    3    3    0    0  0.20430768124E+02  0.47579015415E+01  0.46997578592E+02  0.51466749525E+02  0.00000000000E+00 0.  1.
</event>
<event>
 7    1  0.5139898E-006  0.1253384E+03  0.7818608E-02  0.1245333E+00
          2   -1    0    0  502    0  0.00000000000E+00  0.00000000000E+00  0.45649105742E+02  0.45649105742E+02  0.00000000000E+00 0. -1.
          1   -1    0    0  501    0 -0.00000000000E+00 -0.00000000000E+00 -0.12499171926E+04  0.12499171926E+04  0.00000000000E+00 0. -1.
         25    2    1    2    0    0  0.95470001559E+02 -0.11550308251E+03 -0.52468543668E+03  0.55980261342E+03  0.12501470017E+03 0.  0.
          2    1    1    2  501    0 -0.11164165639E+03 -0.12395414460E+02 -0.51283651079E+03  0.52499408810E+03  0.00000000000E+00 0. -1.
          1    1    1    2  502    0  0.16171654833E+02  0.12789849697E+03 -0.16674613942E+03  0.21076959685E+03  0.00000000000E+00 0. -1.
         22    1    3    3    0    0  0.11164507522E+03 -0.50389021005E+02 -0.27102762359E+03  0.29742166870E+03  0.00000000000E+00 0.  1.
         22    1    3    3    0    0 -0.16175073663E+02 -0.65114061503E+02 -0.25365781309E+03  0.26238094473E+03  0.00000000000E+00 0.  1.
</event>
<event>
 7    1  0.5139898E-006  0.8888039E+02  0.7818608E-02  0.1329749E+00
          2   -1    0    0  502    0  0.00000000000E+00  0.00000000000E+00  0.30113766893E+04  0.30113766893E+04  0.00000000000E+00 0. -1.
          1   -1    0    0  501    0 -0.00000000000E+00 -0.00000000000E+00 -0.13544154326E+03  0.13544154326E+03  0.00000000000E+00 0. -1.
         25    2    1    2    0    0  0.17259775061E+02 -0.75584619919E+02  0.14847284562E+03  0.20899835189E+03  0.12500076241E+03 0.  0.
          2    1    1    2  501    0 -0.71454641786E+02  0.39926950535E+01 -0.92207031762E+02  0.11672122409E+03  0.00000000000E+00 0. -1.
          1    1    1    2  502    0  0.54194866725E+02  0.71591924865E+02  0.28196693322E+04  0.28210986566E+04  0.00000000000E+00 0. -1.
         22    1    3    3    0    0 -0.21158122847E+01  0.34282857046E+02  0.46829137016E+02  0.58075459727E+02  0.00000000000E+00 0.  1.
         22    1    3    3    0    0  0.19375587346E+02 -0.10986747696E+03  0.10164370861E+03  0.15092289216E+03  0.00000000000E+00 0.  1.
</event>
<event>
 7    1  0.5139898E-006  0.1297290E+03  0.7818608E-02  0.1339354E+00
          2   -1    0    0  502    0  0.00000000000E+00  0.00000000000E+00  0.85311792795E+03  0.85311792795E+03  0.00000000000E+00 0. -1.
          1   -1    0    0  501    0 -0.00000000000E+00 -0.00000000000E+00 -0.17315490632E+03  0.17315490632E+03  0.00000000000E+00 0. -1.
         25    2    1    2    0    0  0.18173877211E+02  0.97056590420E+02  0.45370351114E+02  0.16563129860E+03  0.12499994704E+03 0.  0.
          2    1    1    2  501    0 -0.35168389071E+02 -0.13881670387E+03 -0.66648661834E+02  0.15795232505E+03  0.00000000000E+00 0. -1.
          1    1    1    2  502    0  0.16994511860E+02  0.41760113454E+02  0.70124133236E+03  0.70268921062E+03  0.00000000000E+00 0. -1.
         22    1    3    3    0    0 -0.19914635391E+02 -0.22975832440E+02 -0.33826802005E+01  0.30592876694E+02  0.00000000000E+00 0.  1.
         22    1    3    3    0    0  0.38088512602E+02  0.12003242286E+03  0.48753031314E+02  0.13503842191E+03  0.00000000000E+00 0.  1.
</event>
<event>
 7    1  0.5139898E-006  0.4033488E+02  0.7818608E-02  0.1594444E+00
          2   -1    0    0  502    0  0.00000000000E+00  0.00000000000E+00  0.95963344385E+03  0.95963344385E+03  0.00000000000E+00 0. -1.
          1   -1    0    0  501    0 -0.00000000000E+00 -0.00000000000E+00 -0.66353610363E+03  0.66353610363E+03  0.00000000000E+00 0. -1.
         25    2    1    2    0    0  0.14747951183E+02 -0.57955185064E+02  0.95181608286E+02  0.16811034938E+03  0.12500098189E+03 0.  0.
          2    1    1    2  501    0 -0.14186625476E+02  0.17861964092E+02 -0.62637856554E+03  0.62679375992E+03  0.00000000000E+00 0. -1.
          1    1    1    2  502    0 -0.56132570781E+00  0.40093220972E+02  0.82729429747E+03  0.82826543818E+03  0.00000000000E+00 0. -1.
         22    1    3    3    0    0 -0.47375797646E+02 -0.47852977140E+02  0.20384700843E+02  0.70355594320E+02  0.00000000000E+00 0.  1.
         22    1    3    3    0    0  0.62123748829E+02 -0.10102207924E+02  0.74796907443E+02  0.97754755059E+02  0.00000000000E+00 0.  1.
</event>
<event>
 7    1  0.5139898E-006  0.1293112E+03  0.7818608E-02  0.1404598E+00
          2   -1    0    0  502    0  0.00000000000E+00  0.00000000000E+00  0.11974761409E+04  0.11974761409E+04  0.00000000000E+00 0. -1.
          1   -1    0    0  501    0 -0.00000000000E+00 -0.00000000000E+00 -0.27471043772E+03  0.27471043772E+03  0.00000000000E+00 0. -1.
         25    2    1    2    0    0  0.60587097452E+02 -0.13592124771E+03 -0.49414110782E+02  0.20052922259E+03  0.12499933124E+03 0.  0.
          2    1    1    2  501    0 -0.53777345502E+02  0.11042492440E+03 -0.12436664179E+03  0.17479338777E+03  0.00000000000E+00 0. -1.
          1    1    1    2  502    0 -0.68097519497E+01  0.25496323313E+02  0.10965464557E+04  0.10968639682E+04  0.00000000000E+00 0. -1.
         22    1    3    3    0    0 -0.10499088829E+02 -0.45823493889E+01 -0.49887726455E+02  0.51186072745E+02  0.00000000000E+00 0.  1.
         22    1    3    3    0    0  0.71086186280E+02 -0.13133889833E+03  0.47361567278E+00  0.14934314984E+03  0.00000000000E+00 0.  1.
</event>
<event>
 7    1  0.5139898E-006  0.1825363E+03  0.7818608E-02  0.1327568E+00
          2   -1    0    0  502    0  0.00000000000E+00  0.00000000000E+00  0.16726240949E+04  0.16726240949E+04  0.00000000000E+00 0. -1.
          1   -1    0    0  501    0 -0.00000000000E+00 -0.00000000000E+00 -0.48654002124E+02  0.48654002124E+02  0.00000000000E+00 0. -1.
         25    2    1    2    0    0 -0.15608712404E+03  0.56909442553E+02  0.86833859738E+03  0.89288272271E+03  0.12500304746E+03 0.  0.
          2    1    1    2  501    0  0.18424756711E+03 -0.35255469022E+02  0.20990591311E+03  0.28151484231E+03  0.00000000000E+00 0. -1.
          1    1    1    2  502    0 -0.28160443070E+02 -0.21653973531E+02  0.54572558232E+03  0.54688053204E+03  0.00000000000E+00 0. -1.
         22    1    3    3    0    0 -0.32024505035E+02 -0.38829624548E+02  0.17786367204E+03  0.18484803081E+03  0.00000000000E+00 0. -1.
         22    1    3    3    0    0 -0.12406261900E+03  0.95739067101E+02  0.69047492534E+03  0.70803469190E+03  0.00000000000E+00 0. -1.
</event>
<event>
 7    1  0.5139898E-006  0.1073103E+03  0.7818608E-02  0.1275171E+00
          2   -1    0    0  502    0  0.00000000000E+00  0.00000000000E+00  0.43182750352E+04  0.43182750352E+04  0.00000000000E+00 0. -1.
          1   -1    0    0  501    0 -0.00000000000E+00 -0.00000000000E+00 -0.17870035460E+04  0.17870035460E+04  0.00000000000E+00 0. -1.
         25    2    1    2    0    0  0.15438062431E+03 -0.11184222128E+03 -0.15247340855E+04  0.15416805672E+04  0.12499152050E+03 0.  0.
          2    1    1    2  501    0 -0.50888265095E+02  0.83590080901E+02 -0.24366855069E+03  0.26258575694E+03  0.00000000000E+00 0. -1.
          1    1    1    2  502    0 -0.10349235922E+03  0.28252140379E+02  0.42996741253E+04  0.43010122571E+04  0.00000000000E+00 0. -1.
         22    1    3    3    0    0  0.15924619160E+03 -0.13191124865E+03 -0.14135615891E+04  0.14286064165E+04  0.00000000000E+00 0. -1.
         22    1    3    3    0    0 -0.48655672808E+01  0.20069027373E+02 -0.11117249632E+03  0.11307415063E+03  0.00000000000E+00 0. -1.
</event>
<event>
 7    1  0.5139898E-006  0.1280975E+03  0.7818608E-02  0.1363858E+00
          2   -1    0    0  502    0  0.00000000000E+00  0.00000000000E+00  0.23736355664E+04  0.23736355664E+04  0.00000000000E+00 0. -1.
          1   -1    0    0  501    0 -0.00000000000E+00 -0.00000000000E+00 -0.42200570341E+03  0.42200570341E+03  0.00000000000E+00 0. -1.
         25    2    1    2    0    0  0.25241273466E+02 -0.10673530787E+03 -0.25726212997E+02  0.16827004410E+03  0.12499368733E+03 0.  0.
          2    1    1    2  501    0 -0.30058944518E+02 -0.21684783287E+02 -0.32215090155E+03  0.32427607581E+03  0.00000000000E+00 0. -1.
          1    1    1    2  502    0  0.48176710521E+01  0.12842009116E+03  0.22995069776E+04  0.23030951499E+04  0.00000000000E+00 0. -1.
         22    1    3    3    0    0  0.32153960898E+02 -0.46205970521E+01  0.36205766092E+02  0.48642415821E+02  0.00000000000E+00 0. -1.
         22    1    3    3    0    0 -0.69126874324E+01 -0.10211471082E+03 -0.61931979089E+02  0.11962762828E+03  0.00000000000E+00 0. -1.
</event>
<event>
 7    1  0.5139898E-006  0.4286315E+02  0.7818608E-02  0.1516316E+00
          2   -1    0    0  502    0  0.00000000000E+00  0.00000000000E+00  0.17258738399E+04  0.17258738399E+04  0.00000000000E+00 0. -1.
          1   -1    0    0  501    0 -0.00000000000E+00 -0.00000000000E+00 -0.27951134422E+02  0.27951134422E+02  0.00000000000E+00 0. -1.
         25    2    1    2    0    0  0.12861748936E+02 -0.94236510146E+01  0.45764540322E+03  0.47468036100E+03  0.12501160044E+03 0.  0.
          2    1    1    2  501    0 -0.63862522084E+01  0.44164050377E+02  0.67733227442E+01  0.45134526296E+02  0.00000000000E+00 0. -1.
          1    1    1    2  502    0 -0.64754967275E+01 -0.34740399363E+02  0.12335039795E+04  0.12340100870E+04  0.00000000000E+00 0. -1.
         22    1    3    3    0    0  0.59415897162E+02 -0.38769616138E+02  0.25129421686E+03  0.26111705306E+03  0.00000000000E+00 0.  1.
         22    1    3    3    0    0 -0.46554148226E+02  0.29345965123E+02  0.20635118636E+03  0.21356330794E+03  0.00000000000E+00 0.  1.
</event>
<event>
 7    1  0.5139898E-006  0.6220698E+02  0.7818608E-02  0.1451942E+00
          2   -1    0    0  502    0  0.00000000000E+00  0.00000000000E+00  0.25279898514E+04  0.25279898514E+04  0.00000000000E+00 0. -1.
          1   -1    0    0  501    0 -0.00000000000E+00 -0.00000000000E+00 -0.50909397101E+03  0.50909397101E+03  0.00000000000E+00 0. -1.
         25    2    1    2    0    0 -0.23385748060E+02  0.85983914332E+01  0.15029891763E+03  0.19707171946E+03  0.12500668952E+03 0.  0.
          2    1    1    2  501    0 -0.37856658773E+02  0.56588834095E+01 -0.48453279241E+03  0.48604236080E+03  0.00000000000E+00 0. -1.
          1    1    1    2  502    0  0.61242406833E+02 -0.14257274843E+02  0.23531297552E+04  0.23539697422E+04  0.00000000000E+00 0. -1.
         22    1    3    3    0    0  0.46721961557E+02  0.28006724922E+02  0.58318033253E+02  0.79801700076E+02  0.00000000000E+00 0.  1.
         22    1    3    3    0    0 -0.70107709616E+02 -0.19408333489E+02  0.91980884377E+02  0.11727001939E+03  0.00000000000E+00 0.  1.
</event>
<event>
 7    1  0.5139898E-006  0.5600094E+02  0.7818608E-02  0.1418598E+00
          2   -1    0    0  502    0  0.00000000000E+00  0.00000000000E+00  0.61896655810E+02  0.61896655810E+02  0.00000000000E+00 0. -1.
          1   -1    0    0  501    0 -0.00000000000E+00 -0.00000000000E+00 -0.82373822758E+03  0.82373822758E+03  0.00000000000E+00 0. -1.
         25    2    1    2    0    0 -0.23817871801E+02  0.23993209584E+02 -0.24290108478E+03  0.27524047912E+03  0.12495366837E+03 0.  0.
          2    1    1    2  501    0 -0.19931605687E+02 -0.56734899569E+02 -0.54608026873E+03  0.54938126800E+03  0.00000000000E+00 0. -1.
          1    1    1    2  502    0  0.43749477487E+02  0.32741689985E+02  0.27139781741E+02  0.61013136261E+02  0.00000000000E+00 0. -1.
         22    1    3    3    0    0  0.11286564250E+02 -0.30499741639E+02 -0.10815165146E+02  0.34272271150E+02  0.00000000000E+00 0. -1.
         22    1    3    3    0    0 -0.35104436051E+02  0.54492951223E+02 -0.23208591963E+03  0.24096820797E+03  0.00000000000E+00 0. -1.
</event>
<event>
 7    1  0.5139898E-006  0.1442752E+03  0.7818608E-02  0.1287548E+00
          2   -1    0    0  502    0  0.00000000000E+00  0.00000000000E+00  0.14820174889E+03  0.14820174889E+03  0.00000000000E+00 0. -1.
          1   -1    0    0  501    0 -0.00000000000E+00 -0.00000000000E+00 -0.12872928289E+04  0.12872928289E+04  0.00000000000E+00 0. -1.
         25    2    1    2    0    0  0.95930904544E+02 -0.13179640663E+03 -0.51375883675E+03  0.55330510412E+03  0.12500145864E+03 0.  0.
          2    1    1    2  501    0 -0.12127399417E+03  0.72246494890E+02 -0.73847437507E+03  0.75184529015E+03  0.00000000000E+00 0. -1.
          1    1    1    2  502    0  0.25343089622E+02  0.59549911738E+02  0.11314213182E+03  0.13034418350E+03  0.00000000000E+00 0. -1.
         22    1    3    3    0    0  0.26858176204E+02 -0.11704043940E+03 -0.41406742691E+03  0.43112835689E+03  0.00000000000E+00 0. -1.
         22    1    3    3    0    0  0.69072728340E+02 -0.14755967231E+02 -0.99691409837E+02  0.12217674723E+03  0.00000000000E+00 0. -1.
</event>
<event>
 7    1  0.5139898E-006  0.5132099E+02  0.7818608E-02  0.1447445E+00
          2   -1    0    0  502    0  0.00000000000E+00  0.00000000000E+00  0.23987675235E+02  0.23987675235E+02  0.00000000000E+00 0. -1.
          1   -1    0    0  501    0 -0.00000000000E+00 -0.00000000000E+00 -0.20695142642E+04  0.20695142642E+04  0.00000000000E+00 0. -1.
         25    2    1    2    0    0  0.11299628182E+02  0.30617734927E+02 -0.86812028010E+03  0.87768037740E+03  0.12499958740E+03 0.  0.
          2    1    1    2  501    0 -0.54973586750E+02 -0.10799914548E+02 -0.11649151973E+04  0.11662616132E+04  0.00000000000E+00 0. -1.
          1    1    1    2  502    0  0.43673958568E+02 -0.19817820378E+02 -0.12491111497E+02  0.49559948830E+02  0.00000000000E+00 0. -1.
         22    1    3    3    0    0 -0.45036279099E+01 -0.41237818100E+02 -0.53136676382E+03  0.53298356260E+03  0.00000000000E+00 0.  1.
         22    1    3    3    0    0  0.15803256092E+02  0.71855553026E+02 -0.33675351628E+03  0.34469681480E+03  0.00000000000E+00 0.  1.
</event>
<event>
 7    1  0.5139898E-006  0.4613494E+02  0.7818608E-02  0.1503262E+00
          2   -1    0    0  502    0  0.00000000000E+00  0.00000000000E+00  0.21139644685E+04  0.21139644685E+04  0.00000000000E+00 0. -1.
          1   -1    0    0  501    0 -0.00000000000E+00 -0.00000000000E+00 -0.23095646313E+03  0.23095646313E+03  0.00000000000E+00 0. -1.
         25    2    1    2    0    0 -0.25763660837E+02  0.48878641376E+02  0.24216245293E+03  0.27806179021E+03  0.12499127075E+03 0.  0.
          2    1    1    2  501    0  0.35673401617E+02 -0.37597241059E+01 -0.21120655169E+03  0.21423103086E+03  0.00000000000E+00 0. -1.
          1    1    1    2  502    0 -0.99097407797E+01 -0.45118917270E+02  0.18520521042E+04  0.18526281106E+04  0.00000000000E+00 0. -1.
         22    1    3    3    0    0  0.20334832213E+02  0.29260201923E+02  0.53787741361E+01  0.36036037919E+02  0.00000000000E+00 0. -1.
         22    1    3    3    0    0 -0.46098493050E+02  0.19618439453E+02  0.23678367879E+03  0.24202575229E+03  0.00000000000E+00 0. -1.
</event>
<event>
 7    1  0.5139898E-006  0.5824028E+02  0.7818608E-02  0.1424190E+00
          2   -1    0    0  502    0  0.00000000000E+00  0.00000000000E+00  0.14740949040E+03  0.14740949040E+03  0.00000000000E+00 0. -1.
          1   -1    0    0  501    0 -0.00000000000E+00 -0.00000000000E+00 -0.15983480211E+03  0.15983480211E+03  0.00000000000E+00 0. -1.
         25    2    1    2    0    0  0.44794204818E+01 -0.13199699439E+02  0.20562033499E+02  0.12744728737E+03  0.12500286622E+03 0.  0.
          2    1    1    2  501    0  0.58030842924E+02  0.49347663101E+01 -0.81548624500E+02  0.10021032286E+03  0.00000000000E+00 0. -1.
          1    1    1    2  502    0 -0.62510263406E+02  0.82649331288E+01  0.48561279284E+02  0.79586682281E+02  0.00000000000E+00 0. -1.
         22    1    3    3    0    0 -0.38978898655E+02 -0.11480595431E+02  0.57484356907E+02  0.70396092937E+02  0.00000000000E+00 0.  1.
         22    1    3    3    0    0  0.43458319137E+02 -0.17191040076E+01 -0.36922323407E+02  0.57051194436E+02  0.00000000000E+00 0.  1.
</event>
<event>
 7    1  0.5139898E-006  0.6687139E+02  0.7818608E-02  0.1484831E+00
          2   -1    0    0  502    0  0.00000000000E+00  0.00000000000E+00  0.24211671884E+04  0.24211671884E+04  0.00000000000E+00 0. -1.
          1   -1    0    0  501    0 -0.00000000000E+00 -0.00000000000E+00 -0.27321484862E+02  0.27321484862E+02  0.00000000000E+00 0. -1.
         25    2    1    2    0    0 -0.39706474951E+02 -0.67697578460E+02  0.36814561755E+03  0.39663102799E+03  0.12500164141E+03 0.  0.
          2    1    1    2  501    0 -0.11831423124E+02  0.25507902549E+02  0.32435663278E+01  0.28304706112E+02  0.00000000000E+00 0. -1.
          1    1    1    2  502    0  0.51537898075E+02  0.42189675911E+02  0.20224565196E+04  0.20235529391E+04  0.00000000000E+00 0. -1.
         22    1    3    3    0    0  0.30483242625E+02 -0.62319184411E+02  0.11914756257E+03  0.13787331320E+03  0.00000000000E+00 0. -1.
         22    1    3    3    0    0 -0.70189717576E+02 -0.53783940490E+01  0.24899805498E+03  0.25875771479E+03  0.00000000000E+00 0. -1.
</event>
<event>
 7    1  0.5139898E-006  0.1450363E+03  0.7818608E-02  0.1311900E+00
          2   -1    0    0  502    0  0.00000000000E+00  0.00000000000E+00  0.20244435439E+04  0.20244435439E+04  0.00000000000E+00 0. -1.
          1   -1    0    0  501    0 -0.00000000000E+00 -0.00000000000E+00 -0.16105319369E+03  0.16105319369E+03  0.00000000000E+00 0. -1.
         25    2    1    2    0    0  0.13854493116E+03  0.32076183517E+02  0.54438821593E+03  0.57637422826E+03  0.12500056741E+03 0.  0.
          2    1    1    2  501    0  0.76432150863E+01 -0.50857344323E+02 -0.13666052803E+03  0.14601708164E+03  0.00000000000E+00 0. -1.
          1    1    1    2  502    0 -0.14618814625E+03  0.18781160805E+02  0.14556626623E+04  0.14631054277E+04  0.00000000000E+00 0. -1.
         22    1    3    3    0    0  0.56368663068E+02  0.76925003834E+02  0.25713095799E+03  0.27424662614E+03  0.00000000000E+00 0.  1.
         22    1    3    3    0    0  0.82176268093E+02 -0.44848820317E+02  0.28725725794E+03  0.30212760212E+03  0.00000000000E+00 0.  1.
</event>
<event>
 7    1  0.5139898E-006  0.1702796E+03  0.7818608E-02  0.1229515E+00
          2   -1    0    0  502    0  0.00000000000E+00  0.00000000000E+00  0.34373234369E+03  0.34373234369E+03  0.00000000000E+00 0. -1.
          1   -1    0    0  501    0 -0.00000000000E+00 -0.00000000000E+00 -0.60912691976E+03  0.60912691976E+03  0.00000000000E+00 0. -1.
         25    2    1    2    0    0  0.21919500608E+02  0.14137719739E+03  0.16454781076E+02  0.19068836333E+03  0.12499326239E+03 0.  0.
          2    1    1    2  501    0 -0.90991953787E+02  0.34053003145E+02 -0.47936748440E+03  0.48911381883E+03  0.00000000000E+00 0. -1.
          1    1    1    2  502    0  0.69072453179E+02 -0.17543020053E+03  0.19751812725E+03  0.27305708128E+03  0.00000000000E+00 0. -1.
         22    1    3    3    0    0  0.70163117509E+02  0.78312414938E+02  0.31732993121E+02  0.10983023374E+03  0.00000000000E+00 0. -1.
         22    1    3    3    0    0 -0.48243616901E+02  0.63064782449E+02 -0.15278212045E+02  0.80858129587E+02  0.00000000000E+00 0. -1.
</event>
<event>
 7    1  0.5139898E-006  0.2043503E+03  0.7818608E-02  0.1238923E+00
          2   -1    0    0  502    0  0.00000000000E+00  0.00000000000E+00  0.12175357143E+04  0.12175357143E+04  0.00000000000E+00 0. -1.
          1   -1    0    0  501    0 -0.00000000000E+00 -0.00000000000E+00 -0.15151783649E+04  0.15151783649E+04  0.00000000000E+00 0. -1.
         25    2    1    2    0    0  0.15438389418E+03  0.10486036280E+03  0.35944613160E+03  0.42385908332E+03  0.12499967410E+03 0.  0.
          2    1    1    2  501    0 -0.19947482795E+03 -0.46799868999E+02 -0.14742368829E+04  0.14884068065E+04  0.00000000000E+00 0. -1.
          1    1    1    2  502    0  0.45090933765E+02 -0.58060493798E+02  0.81714810060E+03  0.82044818944E+03  0.00000000000E+00 0. -1.
         22    1    3    3    0    0  0.67652161625E+02  0.97576847291E+02  0.28708795599E+03  0.31067273870E+03  0.00000000000E+00 0.  1.
         22    1    3    3    0    0  0.86731732559E+02  0.72835155069E+01  0.72358175610E+02  0.11318634462E+03  0.00000000000E+00 0.  1.
</event>
<event>
 7    1  0.5139898E-006  0.7042578E+02  0.7818608E-02  0.1370635E+00
          2   -1    0    0  502    0  0.00000000000E+00  0.00000000000E+00  0.22226366408E+04  0.22226366408E+04  0.00000000000E+00 0. -1.
          1   -1    0    0  501    0 -0.00000000000E+00 -0.00000000000E+00 -0.23459960335E+03  0.23459960335E+03  0.00000000000E+00 0. -1.
         25    2    1    2    0    0  0.37275397715E+02  0.45305788717E+01  0.50936287859E+03  0.52581851108E+03  0.12499833238E+03 0.  0.
          2    1    1    2  501    0 -0.46989931066E+01  0.63550023175E+02 -0.22103319747E+03  0.23003556326E+03  0.00000000000E+00 0. -1.
          1    1    1    2  502    0 -0.32576404609E+02 -0.68080602046E+02  0.16997073564E+04  0.17013821698E+04  0.00000000000E+00 0. -1.
         22    1    3    3    0    0 -0.23797892172E+02  0.48432722284E+02  0.17659432521E+03  0.18465541951E+03  0.00000000000E+00 0. -1.
         22    1    3    3    0    0  0.61073289887E+02 -0.43902143412E+02  0.33276855338E+03  0.34116309157E+03  0.00000000000E+00 0. -1.
</event>
<event>
 7    1  0.5139898E-006  0.1133723E+03  0.7818608E-02  0.1379148E+00
          2   -1    0    0  502    0  0.00000000000E+00  0.00000000000E+00  0.11942950945E+03  0.11942950945E+03  0.00000000000E+00 0. -1.
          1   -1    0    0  501    0 -0.00000000000E+00 -0.00000000000E+00 -0.14390902411E+04  0.14390902411E+04  0.00000000000E+00 0. -1.
         25    2    1    2    0    0  0.22432806984E+02  0.10288223813E+03 -0.15983984572E+03  0.22860705107E+03  0.12499768706E+03 0.  0.
          2    1    1    2  501    0 -0.59017603413E+02 -0.97992899243E+02 -0.12380972203E+04  0.12433705855E+04  0.00000000000E+00 0. -1.
          1    1    1    2  502    0  0.36584796429E+02 -0.48893388819E+01  0.78276334415E+02  0.86542113990E+02  0.00000000000E+00 0. -1.
         22    1    3    3    0    0  0.44823174427E+02  0.12207304479E+03 -0.14750087156E+03  0.19664041381E+03  0.00000000000E+00 0.  1.
         22    1    3    3    0    0 -0.22390367443E+02 -0.19190806668E+02 -0.12338974158E+02  0.31966637266E+02  0.00000000000E+00 0.  1.
</event>
<event>
 7    1  0.5139898E-006  0.1777361E+03  0.7818608E-02  0.1222658E+00
          2   -1    0    0  502    0  0.00000000000E+00  0.00000000000E+00  0.17623130745E+04  0.17623130745E+04  0.00000000000E+00 0. -1.
          1   -1    0    0  501    0 -0.00000000000E+00 -0.00000000000E+00 -0.65219762153E+03  0.65219762153E+03  0.00000000000E+00 0. -1.
         25    2    1    2    0    0 -0.14622682254E+03 -0.11462035976E+03  0.22878016337E+03  0.32013049156E+03  0.12499223167E+03 0.  0.
          2    1    1    2  501    0 -0.32385847885E+02  0.94562048431E+02 -0.59692380937E+03  0.60523454820E+03  0.00000000000E+00 0. -1.
          1    1    1    2  502    0  0.17861267042E+03  0.20058311333E+02  0.14782590990E+04  0.14891456563E+04  0.00000000000E+00 0. -1.
         22    1    3    3    0    0 -0.12235938257E+03 -0.17465831743E+02  0.11839718400E+03  0.17115714113E+03  0.00000000000E+00 0. -1.
         22    1    3    3    0    0 -0.23867439971E+02 -0.97154528021E+02  0.11038297937E+03  0.14897335044E+03  0.00000000000E+00 0. -1.
</event>
<event>
 7    1  0.5139898E-006  0.1452278E+03  0.7818608E-02  0.1339990E+00
          2   -1    0    0  502    0  0.00000000000E+00  0.00000000000E+00  0.34827122496E+04  0.34827122496E+04  0.00000000000E+00 0. -1.
          1   -1    0    0  501    0 -0.00000000000E+00 -0.00000000000E+00 -0.23309319798E+03  0.23309319798E+03  0.00000000000E+00 0. -1.
         25    2    1    2    0    0 -0.83018703944E+02  0.69544335418E+02 -0.18498617204E+03  0.24814107551E+03  0.12500235885E+03 0.  0.
          2    1    1    2  501    0 -0.16702715977E+02  0.36403493223E+02  0.11780896181E+02  0.41749066513E+02  0.00000000000E+00 0. -1.
          1    1    1    2  502    0  0.99721419921E+02 -0.10594782864E+03  0.34228243275E+04  0.34259153056E+04  0.00000000000E+00 0. -1.
         22    1    3    3    0    0 -0.65814855099E+02  0.77057658545E+02 -0.52121471449E+02  0.11395668334E+03  0.00000000000E+00 0. -1.
         22    1    3    3    0    0 -0.17203848846E+02 -0.75133231275E+01 -0.13286470059E+03  0.13418439217E+03  0.00000000000E+00 0. -1.
</event>
<event>
 7    1  0.5139898E-006  0.2146367E+03  0.7818608E-02  0.1208779E+00
          2   -1    0    0  502    0  0.00000000000E+00  0.00000000000E+00  0.14605776579E+04  0.14605776579E+04  0.00000000000E+00 0. -1.
          1   -1    0    0  501    0 -0.00000000000E+00 -0.00000000000E+00 -0.29152645649E+03  0.29152645649E+03  0.00000000000E+00 0. -1.
         25    2    1    2    0    0 -0.41831718715E+02  0.16698353931E+03  0.51076505873E+03  0.55329419729E+03  0.12498051225E+03 0.  0.
          2    1    1    2  501    0  0.44155588569E+02  0.85078369506E+02 -0.24390581705E+03  0.26206505405E+03  0.00000000000E+00 0. -1.
          1    1    1    2  502    0 -0.23238698537E+01 -0.25206190882E+03  0.90219195975E+03  0.93674486307E+03  0.00000000000E+00 0. -1.
         22    1    3    3    0    0 -0.25406039193E+02  0.70132554270E+01  0.11474943876E+02  0.28745902597E+02  0.00000000000E+00 0.  1.
         22    1    3    3    0    0 -0.16425679522E+02  0.15997028389E+03  0.49929011485E+03  0.52454829469E+03  0.00000000000E+00 0.  1.
</event>
<event>
 7    1  0.5139898E-006  0.7428423E+02  0.7818608E-02  0.1409309E+00
          2   -1    0    0  502    0  0.00000000000E+00  0.00000000000E+00  0.68539254141E+03  0.68539254141E+03  0.00000000000E+00 0. -1.
          1   -1    0    0  501    0 -0.00000000000E+00 -0.00000000000E+00 -0.11908539710E+04  0.11908539710E+04  0.00000000000E+00 0. -1.
         25    2    1    2    0    0 -0.76052787666E+02  0.27919643539E+02 -0.17138075684E+03  0.22706843734E+03  0.12500071366E+03 0.  0.
          2    1    1    2  501    0  0.44985430276E+02 -0.59462630842E+02 -0.98947987326E+03  0.99228519740E+03  0.00000000000E+00 0. -1.
          1    1    1    2  502    0  0.31067357390E+02  0.31542987303E+02  0.65539920049E+03  0.65689287768E+03  0.00000000000E+00 0. -1.
         22    1    3    3    0    0 -0.87709075555E+02  0.65589677328E+02 -0.12685802227E+03  0.16759428845E+03  0.00000000000E+00 0. -1.
         22    1    3    3    0    0  0.11656287889E+02 -0.37670033789E+02 -0.44522734567E+02  0.59474148892E+02  0.00000000000E+00 0. -1.
</event>
<event>
 7    1  0.5196401E-006  0.4721044E+02  0.7818608E-02  0.1511870E+00
          2   -1    0    0  502    0  0.00000000000E+00  0.00000000000E+00  0.10229265777E+04  0.10229265777E+04  0.00000000000E+00 0. -1.
          1   -1    0    0  501    0 -0.00000000000E+00 -0.00000000000E+00 -0.95231484548E+03  0.95231484548E+03  0.00000000000E+00 0. -1.
         25    2    1    2    0    0  0.17106548144E+02 -0.40574309690E+00 -0.32333476026E+03  0.34707863002E+03  0.12500163842E+03 0.  0.
          2    1    1    2  501    0 -0.48802090933E+02  0.98080389055E+01 -0.61583336464E+03  0.61784186869E+03  0.00000000000E+00 0. -1.
          1    1    1    2  502    0  0.31695542788E+02 -0.94022958086E+01  0.10097798571E+04  0.10103209245E+04  0.00000000000E+00 0. -1.
         22    1    3    3    0    0  0.40747532762E+02  0.53386464303E+02 -0.18329312982E+03  0.19520975241E+03  0.00000000000E+00 0. -1.
         22    1    3    3    0    0 -0.23640984618E+02 -0.53792207400E+02 -0.14004163044E+03  0.15186887761E+03  0.00000000000E+00 0. -1.
</event>
<event>
 7    1  0.5139898E-006  0.5504539E+03  0.7818608E-02  0.1190534E+00
          2   -1    0    0  502    0  0.00000000000E+00  0.00000000000E+00  0.18684499200E+04  0.18684499200E+04  0.00000000000E+00 0. -1.
          1   -1    0    0  501    0 -0.00000000000E+00 -0.00000000000E+00 -0.40885366343E+03  0.40885366343E+03  0.00000000000E+00 0. -1.
         25    2    1    2    0    0  0.13000640927E+03  0.50788305037E+03  0.48040989694E+03  0.72198825686E+03  0.12500605848E+03 0.  0.
          2    1    1    2  501    0 -0.16406148594E+03 -0.53816624552E+03 -0.12329093383E+02  0.56275313019E+03  0.00000000000E+00 0. -1.
          1    1    1    2  502    0  0.34055076675E+02  0.30283195156E+02  0.99151545299E+03  0.99256219638E+03  0.00000000000E+00 0. -1.
         22    1    3    3    0    0  0.72815315004E+01  0.12190719523E+03  0.18087093770E+03  0.21823996209E+03  0.00000000000E+00 0.  1.
         22    1    3    3    0    0  0.12272487776E+03  0.38597585514E+03  0.29953895925E+03  0.50374829477E+03  0.00000000000E+00 0.  1.
</event>
<event>
 7    1  0.5139898E-006  0.3833045E+02  0.7818608E-02  0.1580571E+00
          2   -1    0    0  502    0  0.00000000000E+00  0.00000000000E+00  0.55720754320E+03  0.55720754320E+03  0.00000000000E+00 0. -1.
          1   -1    0    0  501    0 -0.00000000000E+00 -0.00000000000E+00 -0.92306227786E+02  0.92306227786E+02  0.00000000000E+00 0. -1.
         25    2    1    2    0    0  0.11674383383E+02  0.59364252619E+02  0.16933205979E+03  0.21899326611E+03  0.12499719361E+03 0.  0.
          2    1    1    2  501    0  0.28866433119E+01 -0.37669761783E+02 -0.61672495313E+02  0.72324548672E+02  0.00000000000E+00 0. -1.
          1    1    1    2  502    0 -0.14561026695E+02 -0.21694490836E+02  0.35724175093E+03  0.35819595620E+03  0.00000000000E+00 0. -1.
         22    1    3    3    0    0 -0.87943614633E+01 -0.24523820313E+02 -0.30129321974E+01  0.26226633728E+02  0.00000000000E+00 0. -1.
         22    1    3    3    0    0  0.20468744847E+02  0.83888072931E+02  0.17234499199E+03  0.19276663238E+03  0.00000000000E+00 0. -1.
</event>
<event>
 7    1  0.5139898E-006  0.5588758E+02  0.7818608E-02  0.1546491E+00
          2   -1    0    0  502    0  0.00000000000E+00  0.00000000000E+00  0.15057882038E+04  0.15057882038E+04  0.00000000000E+00 0. -1.
          1   -1    0    0  501    0 -0.00000000000E+00 -0.00000000000E+00 -0.65365594913E+02  0.65365594913E+02  0.00000000000E+00 0. -1.
         25    2    1    2    0    0  0.26372203205E+02 -0.28706906445E+02  0.23744484263E+03  0.27115483172E+03  0.12500123956E+03 0.  0.
          2    1    1    2  501    0 -0.15776186977E+01 -0.22162918268E+02 -0.45291261802E+02  0.50447816826E+02  0.00000000000E+00 0. -1.
          1    1    1    2  502    0 -0.24794584508E+02  0.50869824713E+02  0.12482690281E+04  0.12495511502E+04  0.00000000000E+00 0. -1.
         22    1    3    3    0    0  0.11719663946E+02  0.37398223575E+02  0.21201404433E+02  0.44558693871E+02  0.00000000000E+00 0.  1.
         22    1    3    3    0    0  0.14652539259E+02 -0.66105130020E+02  0.21624343820E+03  0.22659613785E+03  0.00000000000E+00 0.  1.
</event>
<event>
 7    1  0.5139898E-006  0.2700799E+03  0.7818608E-02  0.1126243E+00
          2   -1    0    0  502    0  0.00000000000E+00  0.00000000000E+00  0.85132591137E+03  0.85132591137E+03  0.00000000000E+00 0. -1.
          1   -1    0    0  501    0 -0.00000000000E+00 -0.00000000000E+00 -0.26489742434E+04  0.26489742434E+04  0.00000000000E+00 0. -1.
         25    2    1    2    0    0 -0.12439542602E+03  0.13745606658E+03 -0.90710093447E+03  0.93425124173E+03  0.12499954041E+03 0.  0.
          2    1    1    2  501    0  0.25516241006E+03  0.98855498032E+02 -0.16952702149E+04  0.17172132560E+04  0.00000000000E+00 0. -1.
          1    1    1    2  502    0 -0.13076698404E+03 -0.23631156461E+03  0.80472281742E+03  0.84883565698E+03  0.00000000000E+00 0. -1.
         22    1    3    3    0    0 -0.12456305829E+03  0.10174320500E+03 -0.49209361328E+03  0.51771011144E+03  0.00000000000E+00 0.  1.
         22    1    3    3    0    0  0.16763227138E+00  0.35712861584E+02 -0.41500732119E+03  0.41654113029E+03  0.00000000000E+00 0.  1.
</event>
<event>
 7    1  0.5139898E-006  0.1251516E+03  0.7818608E-02  0.1264737E+00
          2   -1    0    0  502    0  0.00000000000E+00  0.00000000000E+00  0.13006781472E+04  0.13006781472E+04  0.00000000000E+00 0. -1.
          1   -1    0    0  501    0 -0.00000000000E+00 -0.00000000000E+00 -0.12959288471E+04  0.12959288471E+04  0.00000000000E+00 0. -1.
         25    2    1    2    0    0  0.15958676013E+03 -0.35696868745E+01  0.30787114598E+03  0.36863298393E+03  0.12499983056E+03 0.  0.
          2    1    1    2  501    0 -0.10020130720E+03  0.74905920871E+02 -0.12602054632E+04  0.12664000191E+04  0.00000000000E+00 0. -1.
          1    1    1    2  502    0 -0.59385452926E+02 -0.71336233996E+02  0.95708361727E+03  0.96157399130E+03  0.00000000000E+00 0. -1.
         22    1    3    3    0    0 -0.19564193202E+02  0.11092142384E+02  0.26622970549E+02  0.34850765260E+02  0.00000000000E+00 0. -1.
         22    1    3    3    0    0  0.17915095333E+03 -0.14661829258E+02  0.28124817543E+03  0.33378221867E+03  0.00000000000E+00 0. -1.
</event>
<event>
 7    1  0.5139898E-006  0.6657486E+02  0.7818608E-02  0.1432162E+00
          2   -1    0    0  502    0  0.00000000000E+00  0.00000000000E+00  0.18707558598E+04  0.18707558598E+04  0.00000000000E+00 0. -1.
          1   -1    0    0  501    0 -0.00000000000E+00 -0.00000000000E+00 -0.16197856178E+03  0.16197856178E+03  0.00000000000E+00 0. -1.
         25    2    1    2    0    0  0.94911343835E+02  0.49582321692E+02  0.57818712113E+03  0.60116187328E+03  0.12501472325E+03 0.  0.
          2    1    1    2  501    0 -0.60613032359E+02 -0.26314796777E+02 -0.14288417684E+03  0.15742393786E+03  0.00000000000E+00 0. -1.
          1    1    1    2  502    0 -0.34298311477E+02 -0.23267524915E+02  0.12734743537E+04  0.12741486105E+04  0.00000000000E+00 0. -1.
         22    1    3    3    0    0  0.16354764844E+02 -0.20432482815E+02  0.33704669805E+03  0.33806129822E+03  0.00000000000E+00 0.  1.
         22    1    3    3    0    0  0.78556578991E+02  0.70014804506E+02  0.24114042308E+03  0.26310057506E+03  0.00000000000E+00 0.  1.
</event>
<event>
 7    1  0.5139898E-006  0.2615394E+03  0.7818608E-02  0.1352137E+00
          2   -1    0    0  502    0  0.00000000000E+00  0.00000000000E+00  0.83547639942E+03  0.83547639942E+03  0.00000000000E+00 0. -1.
          1   -1    0    0  501    0 -0.00000000000E+00 -0.00000000000E+00 -0.17090137677E+04  0.17090137677E+04  0.00000000000E+00 0. -1.
         25    2    1    2    0    0  0.27090018289E+03 -0.20947872756E+02 -0.85939218413E+02  0.31118394033E+03  0.12499669194E+03 0.  0.
          2    1    1    2  501    0 -0.26054512463E+03  0.37923722084E+01 -0.14990720235E+04  0.15215502213E+04  0.00000000000E+00 0. -1.
          1    1    1    2  502    0 -0.10355058259E+02  0.17155500548E+02  0.71147387369E+03  0.71175600551E+03  0.00000000000E+00 0. -1.
         22    1    3    3    0    0  0.19781929462E+03  0.30618922949E+01 -0.11513496578E+03  0.22890589519E+03  0.00000000000E+00 0.  1.
         22    1    3    3    0    0  0.73080888269E+02 -0.24009765051E+02  0.29195747364E+02  0.82278045141E+02  0.00000000000E+00 0.  1.
</event>
<event>
 7    1  0.5139898E-006  0.1186529E+03  0.7818608E-02  0.1252955E+00
          2   -1    0    0  502    0  0.00000000000E+00  0.00000000000E+00  0.39797464333E+04  0.39797464333E+04  0.00000000000E+00 0. -1.
          1   -1    0    0  501    0 -0.00000000000E+00 -0.00000000000E+00 -0.19611450810E+03  0.19611450810E+03  0.00000000000E+00 0. -1.
         25    2    1    2    0    0 -0.43475787213E+01  0.52753752710E+02  0.36807144428E+03  0.39229161181E+03  0.12495703557E+03 0.  0.
          2    1    1    2  501    0  0.10793864921E+03  0.20912190575E+02 -0.16635218304E+03  0.19940190698E+03  0.00000000000E+00 0. -1.
          1    1    1    2  502    0 -0.10359107049E+03 -0.73665943285E+02  0.35819126640E+04  0.35841674226E+04  0.00000000000E+00 0. -1.
         22    1    3    3    0    0  0.48077418997E+02  0.40693504676E+02  0.95083173159E+02  0.11405353725E+03  0.00000000000E+00 0.  1.
         22    1    3    3    0    0 -0.52424997718E+02  0.12060248034E+02  0.27298827112E+03  0.27823807457E+03  0.00000000000E+00 0.  1.
</event>
<event>
 7    1  0.5139898E-006  0.1476046E+03  0.7818608E-02  0.1266588E+00
          2   -1    0    0  502    0  0.00000000000E+00  0.00000000000E+00  0.78450362673E+03  0.78450362673E+03  0.00000000000E+00 0. -1.
          1   -1    0    0  501    0 -0.00000000000E+00 -0.00000000000E+00 -0.38424201760E+04  0.38424201760E+04  0.00000000000E+00 0. -1.
         25    2    1    2    0    0  0.15605498602E+03  0.58615815298E+02  0.23470175780E+03  0.31384175954E+03  0.12499104948E+03 0.  0.
          2    1    1    2  501    0 -0.10710983587E+02 -0.76548629216E+02 -0.37919400137E+04  0.37927277104E+04  0.00000000000E+00 0. -1.
          1    1    1    2  502    0 -0.14534400244E+03  0.17932813918E+02  0.49932170667E+03  0.52035433275E+03  0.00000000000E+00 0. -1.
         22    1    3    3    0    0  0.51322669038E+01 -0.31907034985E+02  0.38911777644E+02  0.50581869128E+02  0.00000000000E+00 0. -1.
         22    1    3    3    0    0  0.15092271912E+03  0.90522850283E+02  0.19578998015E+03  0.26325989041E+03  0.00000000000E+00 0. -1.
</event>
<event>
 7    1  0.5139898E-006  0.9559206E+02  0.7818608E-02  0.1345688E+00
          2   -1    0    0  502    0  0.00000000000E+00  0.00000000000E+00  0.71152959776E+03  0.71152959776E+03  0.00000000000E+00 0. -1.
          1   -1    0    0  501    0 -0.00000000000E+00 -0.00000000000E+00 -0.36257060056E+03  0.36257060056E+03  0.00000000000E+00 0. -1.
         25    2    1    2    0    0  0.69108329988E+02 -0.90656053393E+01 -0.16629344273E+03  0.21939985135E+03  0.12499855681E+03 0.  0.
          2    1    1    2  501    0 -0.10454052520E+03  0.54898081873E+02 -0.14776988951E+03  0.18915195227E+03  0.00000000000E+00 0. -1.
          1    1    1    2  502    0  0.35432195215E+02 -0.45832476534E+02  0.66302232943E+03  0.66554839470E+03  0.00000000000E+00 0. -1.
         22    1    3    3    0    0  0.57472263690E+02 -0.17498154001E+02 -0.81760686793E+01  0.60630805588E+02  0.00000000000E+00 0.  1.
         22    1    3    3    0    0  0.11636066297E+02  0.84325486616E+01 -0.15811737405E+03  0.15876904576E+03  0.00000000000E+00 0.  1.
</event>
<event>
 7    1  0.5139898E-006  0.8854083E+02  0.7818608E-02  0.1322932E+00
          2   -1    0    0  502    0  0.00000000000E+00  0.00000000000E+00  0.22669920788E+04  0.22669920788E+04  0.00000000000E+00 0. -1.
          1   -1    0    0  501    0 -0.00000000000E+00 -0.00000000000E+00 -0.14870902371E+02  0.14870902371E+02  0.00000000000E+00 0. -1.
         25    2    1    2    0    0 -0.14914869514E+01 -0.79389013361E+01  0.96433447119E+03  0.97243583433E+03  0.12500091547E+03 0.  0.
          2    1    1    2  501    0  0.75306943751E+02  0.56834264946E+02  0.23957920892E+03  0.25748682840E+03  0.00000000000E+00 0. -1.
          1    1    1    2  502    0 -0.73815456800E+02 -0.48895363610E+02  0.10482074963E+04  0.10519403184E+04  0.00000000000E+00 0. -1.
         22    1    3    3    0    0 -0.45650716466E+02 -0.13382247633E+02  0.82047385214E+03  0.82185182029E+03  0.00000000000E+00 0. -1.
         22    1    3    3    0    0  0.44159229514E+02  0.54433462967E+01  0.14386061905E+03  0.15058401404E+03  0.00000000000E+00 0. -1.
</event>
<event>
 7    1  0.5139898E-006  0.1167763E+03  0.7818608E-02  0.1402409E+00
          2   -1    0    0  502    0  0.00000000000E+00  0.00000000000E+00  0.80806014553E+03  0.80806014553E+03  0.00000000000E+00 0. -1.
          1   -1    0    0  501    0 -0.00000000000E+00 -0.00000000000E+00 -0.17492270952E+04  0.17492270952E+04  0.00000000000E+00 0. -1.
         25    2    1    2    0    0 -0.87839709340E+01  0.14607578558E+03  0.37470579055E+03  0.42124188541E+03  0.12500001309E+03 0.  0.
          2    1    1    2  501    0  0.80045657028E+01 -0.11635488924E+03 -0.17234466670E+04  0.17273884760E+04  0.00000000000E+00 0. -1.
          1    1    1    2  502    0  0.77940523119E+00 -0.29720896342E+02  0.40757392678E+03  0.40865687923E+03  0.00000000000E+00 0. -1.
         22    1    3    3    0    0  0.58188096264E+02  0.63522282438E+02  0.16993497074E+03  0.19052251623E+03  0.00000000000E+00 0. -1.
         22    1    3    3    0    0 -0.66972067198E+02  0.82553503141E+02  0.20477081982E+03  0.23071936918E+03  0.00000000000E+00 0. -1.
</event>
<event>
 7    1  0.5139898E-006  0.1003616E+03  0.7818608E-02  0.1383133E+00
          2   -1    0    0  502    0  0.00000000000E+00  0.00000000000E+00  0.10027546307E+04  0.10027546307E+04  0.00000000000E+00 0. -1.
          1   -1    0    0  501    0 -0.00000000000E+00 -0.00000000000E+00 -0.33332603093E+03  0.33332603093E+03  0.00000000000E+00 0. -1.
         25    2    1    2    0    0  0.27588450106E+01  0.70386309757E+02 -0.80787566135E+02  0.16466073882E+03  0.12499873695E+03 0.  0.
          2    1    1    2  501    0 -0.25632122850E+01 -0.11074976473E+03 -0.19557371276E+03  0.22476912059E+03  0.00000000000E+00 0. -1.
          1    1    1    2  502    0 -0.19563272566E+00  0.40363454975E+02  0.94578987867E+03  0.94665080223E+03  0.00000000000E+00 0. -1.
         22    1    3    3    0    0  0.63298516797E+02  0.26149161634E+02 -0.37453355710E+02  0.78059174584E+02  0.00000000000E+00 0. -1.
         22    1    3    3    0    0 -0.60539671787E+02  0.44237148123E+02 -0.43334210425E+02  0.86601564231E+02  0.00000000000E+00 0. -1.
</event>
<event>
 7    1  0.5139898E-006  0.1394758E+03  0.7818608E-02  0.1346914E+00
          2   -1    0    0  502    0  0.00000000000E+00  0.00000000000E+00  0.98043935117E+03  0.98043935117E+03  0.00000000000E+00 0. -1.
          1   -1    0    0  501    0 -0.00000000000E+00 -0.00000000000E+00 -0.56347372200E+03  0.56347372200E+03  0.00000000000E+00 0. -1.
         25    2    1    2    0    0 -0.86759651552E+02 -0.10888561986E+03 -0.24664609918E+03  0.30958190096E+03  0.12499335907E+03 0.  0.
          2    1    1    2  501    0 -0.27226588060E+02  0.28325452321E+02 -0.27884250178E+03  0.28159680245E+03  0.00000000000E+00 0. -1.
          1    1    1    2  502    0  0.11398623961E+03  0.80560167540E+02  0.94245423014E+03  0.95273436976E+03  0.00000000000E+00 0. -1.
         22    1    3    3    0    0 -0.75814541773E+02 -0.13592252442E+03 -0.22347391822E+03  0.27232952376E+03  0.00000000000E+00 0. -1.
         22    1    3    3    0    0 -0.10945109778E+02  0.27036904562E+02 -0.23172180967E+02  0.37252377201E+02  0.00000000000E+00 0. -1.
</event>
<event>
 7    1  0.5139898E-006  0.1130058E+03  0.7818608E-02  0.1394239E+00
          2   -1    0    0  502    0  0.00000000000E+00  0.00000000000E+00  0.18066542979E+03  0.18066542979E+03  0.00000000000E+00 0. -1.
          1   -1    0    0  501    0 -0.00000000000E+00 -0.00000000000E+00 -0.19685456006E+03  0.19685456006E+03  0.00000000000E+00 0. -1.
         25    2    1    2    0    0  0.11196786524E+01 -0.10581485328E+03 -0.74570990576E+02  0.17994725723E+03  0.12498858305E+03 0.  0.
          2    1    1    2  501    0 -0.31329969584E+02  0.11854148886E+03 -0.86890567297E+01  0.12291928767E+03  0.00000000000E+00 0. -1.
          1    1    1    2  502    0  0.30210290932E+02 -0.12726635571E+02  0.67070917030E+02  0.74653444946E+02  0.00000000000E+00 0. -1.
         22    1    3    3    0    0 -0.20438185002E+02 -0.11197341405E+03 -0.13172192397E+02  0.11458303327E+03  0.00000000000E+00 0. -1.
         22    1    3    3    0    0  0.21557863655E+02  0.61585607693E+01 -0.61398798179E+02  0.65364223960E+02  0.00000000000E+00 0. -1.
</event>
<event>
 7    1  0.5139898E-006  0.1150834E+03  0.7818608E-02  0.1267476E+00
          2   -1    0    0  502    0  0.00000000000E+00  0.00000000000E+00  0.12438963799E+03  0.12438963799E+03  0.00000000000E+00 0. -1.
          1   -1    0    0  501    0 -0.00000000000E+00 -0.00000000000E+00 -0.28399641065E+04  0.28399641065E+04  0.00000000000E+00 0. -1.
         25    2    1    2    0    0  0.10007170107E+03 -0.16182474920E+03 -0.78648707569E+03  0.81877139191E+03  0.12499230852E+03 0.  0.
          2    1    1    2  501    0 -0.17949709560E+02  0.10782410366E+03 -0.20132322366E+04  0.20161974774E+04  0.00000000000E+00 0. -1.
          1    1    1    2  502    0 -0.82121991510E+02  0.54000645533E+02  0.84144843730E+02  0.12938487521E+03  0.00000000000E+00 0. -1.
         22    1    3    3    0    0  0.78042523355E+02 -0.35276001190E+02 -0.18703425475E+03  0.20571058349E+03  0.00000000000E+00 0. -1.
         22    1    3    3    0    0  0.22029177715E+02 -0.12654874800E+03 -0.59945282094E+03  0.61306080842E+03  0.00000000000E+00 0. -1.
</event>
<event>
 7    1  0.5139898E-006  0.2887553E+02  0.7818608E-02  0.1631279E+00
          2   -1    0    0  502    0  0.00000000000E+00  0.00000000000E+00  0.12060714809E+03  0.12060714809E+03  0.00000000000E+00 0. -1.
          1   -1    0    0  501    0 -0.00000000000E+00 -0.00000000000E+00 -0.76989465208E+03  0.76989465208E+03  0.00000000000E+00 0. -1.
         25    2    1    2    0    0 -0.14583727403E+02 -0.51205499704E+02 -0.15248971131E+02  0.13671449740E+03  0.12499453737E+03 0.  0.
          2    1    1    2  501    0  0.93187458327E+01  0.23866371759E+02 -0.69042585006E+03  0.69090107624E+03  0.00000000000E+00 0. -1.
          1    1    1    2  502    0  0.52649815702E+01  0.27339127946E+02  0.56387317190E+02  0.62886226534E+02  0.00000000000E+00 0. -1.
         22    1    3    3    0    0 -0.18255804583E+02  0.24165086123E+01  0.49353475446E+02  0.52677124575E+02  0.00000000000E+00 0. -1.
         22    1    3    3    0    0  0.36720771800E+01 -0.53622008317E+02 -0.64602446578E+02  0.84037372821E+02  0.00000000000E+00 0. -1.
</event>
<event>
 7    1  0.5139898E-006  0.8506652E+02  0.7818608E-02  0.1422673E+00
          2   -1    0    0  502    0  0.00000000000E+00  0.00000000000E+00  0.36983183008E+03  0.36983183008E+03  0.00000000000E+00 0. -1.
          1   -1    0    0  501    0 -0.00000000000E+00 -0.00000000000E+00 -0.42619977969E+03  0.42619977969E+03  0.00000000000E+00 0. -1.
         25    2    1    2    0    0  0.25260675067E+01  0.52687688710E+02  0.24953239963E+03  0.28403123255E+03  0.12499979617E+03 0.  0.
          2    1    1    2  501    0  0.10667808729E+02 -0.84959667874E+02 -0.40135001204E+03  0.41038247949E+03  0.00000000000E+00 0. -1.
          1    1    1    2  502    0 -0.13193876235E+02  0.32271979165E+02  0.95449662800E+02  0.10161789772E+03  0.00000000000E+00 0. -1.
         22    1    3    3    0    0  0.56994615297E+02  0.20055590591E+02  0.17999768374E+03  0.18986779358E+03  0.00000000000E+00 0. -1.
         22    1    3    3    0    0 -0.54468547790E+02  0.32632098118E+02  0.69534715890E+02  0.94163438976E+02  0.00000000000E+00 0. -1.
</event>
<event>
 7    1  0.5139898E-006  0.2584279E+03  0.7818608E-02  0.1222815E+00
          2   -1    0    0  502    0  0.00000000000E+00  0.00000000000E+00  0.14019506869E+04  0.14019506869E+04  0.00000000000E+00 0. -1.
          1   -1    0    0  501    0 -0.00000000000E+00 -0.00000000000E+00 -0.48541662494E+03  0.48541662494E+03  0.00000000000E+00 0. -1.
         25    2    1    2    0    0 -0.19135934564E+03  0.17356437497E+03  0.17460530825E+03  0.33593906036E+03  0.12500018874E+03 0.  0.
          2    1    1    2  501    0  0.23144113966E+03 -0.11785283382E+03 -0.36190977714E+03  0.44545816679E+03  0.00000000000E+00 0. -1.
          1    1    1    2  502    0 -0.40081794027E+02 -0.55711541155E+02  0.11038385308E+04  0.11059700846E+04  0.00000000000E+00 0. -1.
         22    1    3    3    0    0 -0.10445995107E+03  0.47417925241E+02  0.13608817588E+03  0.17798969809E+03  0.00000000000E+00 0. -1.
         22    1    3    3    0    0 -0.86899394568E+02  0.12614644973E+03  0.38517132373E+02  0.15794936227E+03  0.00000000000E+00 0. -1.
</event>
<event>
 7    1  0.5139898E-006  0.2603919E+03  0.7818608E-02  0.1200360E+00
          2   -1    0    0  502    0  0.00000000000E+00  0.00000000000E+00  0.79790271710E+03  0.79790271710E+03  0.00000000000E+00 0. -1.
          1   -1    0    0  501    0 -0.00000000000E+00 -0.00000000000E+00 -0.60799269761E+03  0.60799269761E+03  0.00000000000E+00 0. -1.
         25    2    1    2    0    0  0.27744450879E+02 -0.22583734463E+03  0.20704512582E+03  0.33206168740E+03  0.12500007732E+03 0.  0.
          2    1    1    2  501    0  0.78004018838E+02 -0.37418033350E+02 -0.50344308716E+03  0.51082255058E+03  0.00000000000E+00 0. -1.
          1    1    1    2  502    0 -0.10574846972E+03  0.26325537798E+03  0.48630798084E+03  0.56301117672E+03  0.00000000000E+00 0. -1.
         22    1    3    3    0    0  0.35356375682E+01 -0.12615085839E+02 -0.17239837451E+02  0.21653016396E+02  0.00000000000E+00 0.  1.
         22    1    3    3    0    0  0.24208813311E+02 -0.21322225880E+03  0.22428496327E+03  0.31040867101E+03  0.00000000000E+00 0.  1.
</event>
<event>
 7    1  0.5139898E-006  0.1091799E+03  0.7818608E-02  0.1324110E+00
          2   -1    0    0  502    0  0.00000000000E+00  0.00000000000E+00  0.79387776650E+03  0.79387776650E+03  0.00000000000E+00 0. -1.
          1   -1    0    0  501    0 -0.00000000000E+00 -0.00000000000E+00 -0.82232224321E+02  0.82232224321E+02  0.00000000000E+00 0. -1.
         25    2    1    2    0    0 -0.10788330669E+03 -0.44497997112E+02  0.17867117881E+03  0.24732523724E+03  0.12501001253E+03 0.  0.
          2    1    1    2  501    0  0.10955821129E+03 -0.16716417440E+02  0.20551284934E+02  0.11271555166E+03  0.00000000000E+00 0. -1.
          1    1    1    2  502    0 -0.16749046032E+01  0.61214414552E+02  0.51242307844E+03  0.51606920192E+03  0.00000000000E+00 0. -1.
         22    1    3    3    0    0 -0.10862996315E+03 -0.58614892633E+02  0.78766164699E+02  0.14642500890E+03  0.00000000000E+00 0.  1.
         22    1    3    3    0    0  0.74665645789E+00  0.14116895521E+02  0.99905014107E+02  0.10090022834E+03  0.00000000000E+00 0.  1.
</event>
<event>
 7    1  0.5139898E-006  0.7492091E+02  0.7818608E-02  0.1370135E+00
          2   -1    0    0  502    0  0.00000000000E+00  0.00000000000E+00  0.21252387979E+04  0.21252387979E+04  0.00000000000E+00 0. -1.
          1   -1    0    0  501    0 -0.00000000000E+00 -0.00000000000E+00 -0.13490135366E+04  0.13490135366E+04  0.00000000000E+00 0. -1.
         25    2    1    2    0    0 -0.39852696045E+00  0.34586100339E+02  0.61820480766E+03  0.63166355098E+03  0.12500120105E+03 0.  0.
          2    1    1    2  501    0 -0.52426760753E+02  0.29483897556E+02 -0.13404602318E+04  0.13418090395E+04  0.00000000000E+00 0. -1.
          1    1    1    2  502    0  0.52825287714E+02 -0.64069997894E+02  0.14984806854E+04  0.15007797440E+04  0.00000000000E+00 0. -1.
         22    1    3    3    0    0  0.43169119889E+02  0.59868906143E+02  0.45221463922E+03  0.45819858005E+03  0.00000000000E+00 0. -1.
         22    1    3    3    0    0 -0.43567646849E+02 -0.25282805804E+02  0.16599016845E+03  0.17346497094E+03  0.00000000000E+00 0. -1.
</event>
<event>
 7    1  0.5139898E-006  0.2905099E+03  0.7818608E-02  0.1237914E+00
          2   -1    0    0  502    0  0.00000000000E+00  0.00000000000E+00  0.19515070225E+04  0.19515070225E+04  0.00000000000E+00 0. -1.
          1   -1    0    0  501    0 -0.00000000000E+00 -0.00000000000E+00 -0.10053333820E+04  0.10053333820E+04  0.00000000000E+00 0. -1.
         25    2    1    2    0    0 -0.29489124543E+03  0.68172270490E+02  0.37723583361E+03  0.49954022738E+03  0.12500103805E+03 0.  0.
          2    1    1    2  501    0  0.28965352636E+03 -0.16190909369E+02 -0.92142845541E+03  0.96601848291E+03  0.00000000000E+00 0. -1.
          1    1    1    2  502    0  0.52377190659E+01 -0.51981361121E+02  0.14903662623E+04  0.14912816942E+04  0.00000000000E+00 0. -1.
         22    1    3    3    0    0 -0.22708701131E+03  0.51698885201E+02  0.19279841679E+03  0.30234502634E+03  0.00000000000E+00 0. -1.
         22    1    3    3    0    0 -0.67804234115E+02  0.16473385289E+02  0.18443741682E+03  0.19719520103E+03  0.00000000000E+00 0. -1.
</event>
<event>
 7    1  0.5139898E-006  0.1627144E+03  0.7818608E-02  0.1193555E+00
          2   -1    0    0  502    0  0.00000000000E+00  0.00000000000E+00  0.81382668017E+03  0.81382668017E+03  0.00000000000E+00 0. -1.
          1   -1    0    0  501    0 -0.00000000000E+00 -0.00000000000E+00 -0.81486135791E+03  0.81486135791E+03  0.00000000000E+00 0. -1.
         25    2    1    2    0    0 -0.20304920180E+03  0.20279319937E+03 -0.41077976586E+03  0.51644809181E+03  0.12499822174E+03 0.  0.
          2    1    1    2  501    0  0.13835534076E+03 -0.55641329915E+02 -0.32634515306E+03  0.35880261543E+03  0.00000000000E+00 0. -1.
          1    1    1    2  502    0  0.64693861046E+02 -0.14715186946E+03  0.73609024118E+03  0.75343733083E+03  0.00000000000E+00 0. -1.
         22    1    3    3    0    0 -0.95831195455E+02  0.14187866125E+03 -0.14855449471E+03  0.22667512091E+03  0.00000000000E+00 0. -1.
         22    1    3    3    0    0 -0.10721800635E+03  0.60914538122E+02 -0.26222527115E+03  0.28977297091E+03  0.00000000000E+00 0. -1.
</event>
<event>
 7    1  0.5139898E-006  0.2162223E+03  0.7818608E-02  0.1364642E+00
          2   -1    0    0  502    0  0.00000000000E+00  0.00000000000E+00  0.30320663111E+04  0.30320663111E+04  0.00000000000E+00 0. -1.
          1   -1    0    0  501    0 -0.00000000000E+00 -0.00000000000E+00 -0.11698542634E+03  0.11698542634E+03  0.00000000000E+00 0. -1.
         25    2    1    2    0    0  0.20632645188E+03  0.29263531006E+02  0.15975871167E+04  0.16159630282E+04  0.12499981580E+03 0.  0.
          2    1    1    2  501    0 -0.21082407115E+03 -0.50609744263E+02  0.14039842892E+01  0.21681814122E+03  0.00000000000E+00 0. -1.
          1    1    1    2  502    0  0.44976192755E+01  0.21346213258E+02  0.13160897837E+04  0.13162705680E+04  0.00000000000E+00 0. -1.
         22    1    3    3    0    0  0.11482592228E+03  0.72987141539E+02  0.74036076440E+03  0.75275904294E+03  0.00000000000E+00 0.  1.
         22    1    3    3    0    0  0.91500529595E+02 -0.43723610534E+02  0.85722635233E+03  0.86320398526E+03  0.00000000000E+00 0.  1.
</event>
<event>
 7    1  0.5139898E-006  0.1326416E+03  0.7818608E-02  0.1276090E+00
          2   -1    0    0  502    0  0.00000000000E+00  0.00000000000E+00  0.23336485265E+04  0.23336485265E+04  0.00000000000E+00 0. -1.
          1   -1    0    0  501    0 -0.00000000000E+00 -0.00000000000E+00 -0.11401823745E+03  0.11401823745E+03  0.00000000000E+00 0. -1.
         25    2    1    2    0    0 -0.17313689626E+03  0.10724499583E+03  0.10594884905E+04  0.10861027493E+04  0.12500178584E+03 0.  0.
          2    1    1    2  501    0  0.12022590807E+03 -0.49284951014E+02 -0.57004649536E+02  0.14189011747E+03  0.00000000000E+00 0. -1.
          1    1    1    2  502    0  0.52910988190E+02 -0.57960044815E+02  0.12171464481E+04  0.12196738972E+04  0.00000000000E+00 0. -1.
         22    1    3    3    0    0 -0.10877823252E+03  0.11210882212E+02  0.33359435331E+03  0.35106065047E+03  0.00000000000E+00 0.  1.
         22    1    3    3    0    0 -0.64358663739E+02  0.96034113617E+02  0.72589413722E+03  0.73504209882E+03  0.00000000000E+00 0.  1.
</event>
<event>
 7    1  0.5139898E-006  0.1407815E+03  0.7818608E-02  0.1291536E+00
          2   -1    0    0  502    0  0.00000000000E+00  0.00000000000E+00  0.31002128614E+03  0.31002128614E+03  0.00000000000E+00 0. -1.
          1   -1    0    0  501    0 -0.00000000000E+00 -0.00000000000E+00 -0.36909023908E+03  0.36909023908E+03  0.00000000000E+00 0. -1.
         25    2    1    2    0    0 -0.14402772079E+03 -0.58352548061E+02  0.14575511711E+03  0.24701190099E+03  0.12498528251E+03 0.  0.
          2    1    1    2  501    0  0.94787090193E+01  0.63183900847E+02 -0.27356762161E+03  0.28092934137E+03  0.00000000000E+00 0. -1.
          1    1    1    2  502    0  0.13454901177E+03 -0.48313527860E+01  0.68743551559E+02  0.15117028286E+03  0.00000000000E+00 0. -1.
         22    1    3    3    0    0 -0.93234087393E+02  0.26964141677E+02  0.93686412826E+02  0.13489552971E+03  0.00000000000E+00 0. -1.
         22    1    3    3    0    0 -0.50793633395E+02 -0.85316689738E+02  0.52068704285E+02  0.11211637127E+03  0.00000000000E+00 0. -1.
</event>
<event>
 7    1  0.5139898E-006  0.1059187E+03  0.7818608E-02  0.1287943E+00
          2   -1    0    0  502    0  0.00000000000E+00  0.00000000000E+00  0.43271107201E+03  0.43271107201E+03  0.00000000000E+00 0. -1.
          1   -1    0    0  501    0 -0.00000000000E+00 -0.00000000000E+00 -0.54680315627E+03  0.54680315627E+03  0.00000000000E+00 0. -1.
         25    2    1    2    0    0  0.15706589516E+03 -0.83670880969E+02 -0.65200445787E+02  0.22703943187E+03  0.12500117498E+03 0.  0.
          2    1    1    2  501    0 -0.69939104817E+02  0.72595092649E+02 -0.38866967212E+03  0.40152912707E+03  0.00000000000E+00 0. -1.
          1    1    1    2  502    0 -0.87126790345E+02  0.11075788320E+02  0.33977803365E+03  0.35094566935E+03  0.00000000000E+00 0. -1.
         22    1    3    3    0    0  0.22385362444E+02 -0.79423183721E+02 -0.19926094187E+02  0.84889314956E+02  0.00000000000E+00 0. -1.
         22    1    3    3    0    0  0.13468053272E+03 -0.42476972477E+01 -0.45274351600E+02  0.14215011691E+03  0.00000000000E+00 0. -1.
</event>
<event>
 7    1  0.5139898E-006  0.3838353E+02  0.7818608E-02  0.1588510E+00
          2   -1    0    0  502    0  0.00000000000E+00  0.00000000000E+00  0.26072231810E+03  0.26072231810E+03  0.00000000000E+00 0. -1.
          1   -1    0    0  501    0 -0.00000000000E+00 -0.00000000000E+00 -0.12703533227E+03  0.12703533227E+03  0.00000000000E+00 0. -1.
         25    2    1    2    0    0  0.49552899767E+02 -0.10944436536E+02  0.71567071073E+02  0.15271493678E+03  0.12499894274E+03 0.  0.
          2    1    1    2  501    0 -0.28941793711E+02  0.24827837283E+02 -0.81134644615E+02  0.89648644631E+02  0.00000000000E+00 0. -1.
          1    1    1    2  502    0 -0.20611106057E+02 -0.13883400747E+02  0.14325455937E+03  0.14539406896E+03  0.00000000000E+00 0. -1.
         22    1    3    3    0    0  0.43744524520E+02 -0.66017480526E+02  0.47367701447E+02  0.92279956116E+02  0.00000000000E+00 0.  1.
         22    1    3    3    0    0  0.58083752474E+01  0.55073043990E+02  0.24199369626E+02  0.60434980662E+02  0.00000000000E+00 0.  1.
</event>
<event>
 7    1  0.5139898E-006  0.8374976E+02  0.7818608E-02  0.1345506E+00
          2   -1    0    0  502    0  0.00000000000E+00  0.00000000000E+00  0.17174100612E+04  0.17174100612E+04  0.00000000000E+00 0. -1.
          1   -1    0    0  501    0 -0.00000000000E+00 -0.00000000000E+00 -0.16657022393E+03  0.16657022393E+03  0.00000000000E+00 0. -1.
         25    2    1    2    0    0 -0.45970427514E+02 -0.91320095275E+02  0.25043838067E+03  0.29798768757E+03  0.12499855768E+03 0.  0.
          2    1    1    2  501    0  0.65519483101E+02  0.96520700875E+01 -0.13382205003E+03  0.14931277976E+03  0.00000000000E+00 0. -1.
          1    1    1    2  502    0 -0.19549055588E+02  0.81668025188E+02  0.14342235067E+04  0.14366798178E+04  0.00000000000E+00 0. -1.
         22    1    3    3    0    0 -0.35588720370E+02 -0.92259530611E+02  0.79900982719E+02  0.12713199851E+03  0.00000000000E+00 0.  1.
         22    1    3    3    0    0 -0.10381707143E+02  0.93943533641E+00  0.17053739795E+03  0.17085568906E+03  0.00000000000E+00 0.  1.
</event>
<event>
 7    1  0.5139898E-006  0.8136962E+02  0.7818608E-02  0.1345388E+00
          2   -1    0    0  502    0  0.00000000000E+00  0.00000000000E+00  0.13243848932E+03  0.13243848932E+03  0.00000000000E+00 0. -1.
          1   -1    0    0  501    0 -0.00000000000E+00 -0.00000000000E+00 -0.30274816721E+03  0.30274816721E+03  0.00000000000E+00 0. -1.
         25    2    1    2    0    0  0.28151992191E+02 -0.18608068177E+02 -0.67558233227E+02  0.14604139596E+03  0.12500071837E+03 0.  0.
          2    1    1    2  501    0 -0.61001065734E+02 -0.55836230712E+02 -0.16641497358E+03  0.18582991716E+03  0.00000000000E+00 0. -1.
          1    1    1    2  502    0  0.32849073543E+02  0.74444298889E+02  0.63663528912E+02  0.10331534341E+03  0.00000000000E+00 0. -1.
         22    1    3    3    0    0  0.21680563854E+02 -0.39252742085E+02  0.24758660858E+02  0.51223196871E+02  0.00000000000E+00 0. -1.
         22    1    3    3    0    0  0.64714283365E+01  0.20644673908E+02 -0.92316894085E+02  0.94818199092E+02  0.00000000000E+00 0. -1.
</event>
<event>
 7    1  0.5139898E-006  0.7829325E+02  0.7818608E-02  0.1408125E+00
          2   -1    0    0  502    0  0.00000000000E+00  0.00000000000E+00  0.14392103607E+04  0.14392103607E+04  0.00000000000E+00 0. -1.
          1   -1    0    0  501    0 -0.00000000000E+00 -0.00000000000E+00 -0.22679107326E+03  0.22679107326E+03  0.00000000000E+00 0. -1.
         25    2    1    2    0    0 -0.80017858221E+02  0.38987987555E+02  0.19844755900E+03  0.25085775688E+03  0.12500103881E+03 0.  0.
          2    1    1    2  501    0  0.18212870703E+01 -0.42358007034E+02 -0.19706813124E+03  0.20157719662E+03  0.00000000000E+00 0. -1.
          1    1    1    2  502    0  0.78196571150E+02  0.33700194788E+01  0.12110398597E+04  0.12135664804E+04  0.00000000000E+00 0. -1.
         22    1    3    3    0    0 -0.13613346271E+02  0.74207260100E+02  0.12343042859E+03  0.14466205913E+03  0.00000000000E+00 0. -1.
         22    1    3    3    0    0 -0.66404511950E+02 -0.35219272545E+02  0.75017130408E+02  0.10619569775E+03  0.00000000000E+00 0. -1.
</event>
<event>
 7    1  0.5139898E-006  0.1308160E+03  0.7818608E-02  0.1269021E+00
          2   -1    0    0  502    0  0.00000000000E+00  0.00000000000E+00  0.17400679446E+04  0.17400679446E+04  0.00000000000E+00 0. -1.
          1   -1    0    0  501    0 -0.00000000000E+00 -0.00000000000E+00 -0.48643050389E+03  0.48643050389E+03  0.00000000000E+00 0. -1.
         25    2    1    2    0    0  0.15392348586E+03  0.77058452418E+02  0.80330348796E+03  0.83099447347E+03  0.12499950633E+03 0.  0.
          2    1    1    2  501    0 -0.82151316143E+02  0.22508896260E+02 -0.46461527771E+03  0.47235881006E+03  0.00000000000E+00 0. -1.
          1    1    1    2  502    0 -0.71772169719E+02 -0.99567348678E+02  0.91494923044E+03  0.92314516494E+03  0.00000000000E+00 0. -1.
         22    1    3    3    0    0  0.55515600450E+02  0.97301703995E+02  0.40376291709E+03  0.41901562824E+03  0.00000000000E+00 0. -1.
         22    1    3    3    0    0  0.98407885412E+02 -0.20243251578E+02  0.39954057088E+03  0.41197884523E+03  0.00000000000E+00 0. -1.
</event>
<event>
 7    1  0.5139898E-006  0.7724587E+02  0.7818608E-02  0.1423579E+00
          2   -1    0    0  502    0  0.00000000000E+00  0.00000000000E+00  0.10980216456E+04  0.10980216456E+04  0.00000000000E+00 0. -1.
          1   -1    0    0  501    0 -0.00000000000E+00 -0.00000000000E+00 -0.35805320372E+03  0.35805320372E+03  0.00000000000E+00 0. -1.
         25    2    1    2    0    0 -0.44057007081E+02  0.33799410272E+02 -0.19288708547E+03  0.23646280871E+03  0.12500324859E+03 0.  0.
          2    1    1    2  501    0 -0.32204803762E+02 -0.20412718259E+02 -0.13942245733E+03  0.14454220857E+03  0.00000000000E+00 0. -1.
          1    1    1    2  502    0  0.76261810842E+02 -0.13386692013E+02  0.10722779847E+04  0.10750698320E+04  0.00000000000E+00 0. -1.
         22    1    3    3    0    0 -0.92983294405E+01 -0.43660034527E+02 -0.33279788893E+02  0.55679456661E+02  0.00000000000E+00 0.  1.
         22    1    3    3    0    0 -0.34758677640E+02  0.77459444799E+02 -0.15960729657E+03  0.18078335205E+03  0.00000000000E+00 0.  1.
</event>
<event>
 7    1  0.5139898E-006  0.1032954E+03  0.7818608E-02  0.1366411E+00
          2   -1    0    0  502    0  0.00000000000E+00  0.00000000000E+00  0.59547285150E+02  0.59547285150E+02  0.00000000000E+00 0. -1.
          1   -1    0    0  501    0 -0.00000000000E+00 -0.00000000000E+00 -0.25376239813E+04  0.25376239813E+04  0.00000000000E+00 0. -1.
         25    2    1    2    0    0 -0.54105116769E+02 -0.52331134929E+02 -0.72124273009E+03  0.73585476664E+03  0.12500100217E+03 0.  0.
          2    1    1    2  501    0 -0.43470190515E+02  0.11616579975E+02 -0.17549948160E+04  0.17555715328E+04  0.00000000000E+00 0. -1.
          1    1    1    2  502    0  0.97575307284E+02  0.40714554954E+02 -0.18391500160E+01  0.10574496702E+03  0.00000000000E+00 0. -1.
         22    1    3    3    0    0  0.27646831473E+02 -0.31059229857E+02 -0.91916860579E+02  0.10088474765E+03  0.00000000000E+00 0. -1.
         22    1    3    3    0    0 -0.81751948242E+02 -0.21271905072E+02 -0.62932586951E+03  0.63497001899E+03  0.00000000000E+00 0. -1.
</event>
<event>
 7    1  0.5139898E-006  0.4981059E+02  0.7818608E-02  0.1500394E+00
          2   -1    0    0  502    0  0.00000000000E+00  0.00000000000E+00  0.30234694941E+03  0.30234694941E+03  0.00000000000E+00 0. -1.
          1   -1    0    0  501    0 -0.00000000000E+00 -0.00000000000E+00 -0.51865670475E+03  0.51865670475E+03  0.00000000000E+00 0. -1.
         25    2    1    2    0    0 -0.36726049942E+02 -0.70949760359E+02  0.13794504994E+03  0.20257417636E+03  0.12499915554E+03 0.  0.
          2    1    1    2  501    0  0.16824592556E+02  0.29411406370E+02 -0.48171352252E+03  0.48290373318E+03  0.00000000000E+00 0. -1.
          1    1    1    2  502    0  0.19901457386E+02  0.41538353989E+02  0.12745871723E+03  0.13552574463E+03  0.00000000000E+00 0. -1.
         22    1    3    3    0    0  0.37790862395E+02  0.74245175442E+01  0.23502029536E+02  0.45117825010E+02  0.00000000000E+00 0.  1.
         22    1    3    3    0    0 -0.74516912337E+02 -0.78374277903E+02  0.11444302041E+03  0.15745635135E+03  0.00000000000E+00 0.  1.
</event>
<event>
 7    1  0.5139898E-006  0.5256044E+02  0.7818608E-02  0.1433804E+00
          2   -1    0    0  502    0  0.00000000000E+00  0.00000000000E+00  0.16083526652E+03  0.16083526652E+03  0.00000000000E+00 0. -1.
          1   -1    0    0  501    0 -0.00000000000E+00 -0.00000000000E+00 -0.11335391104E+04  0.11335391104E+04  0.00000000000E+00 0. -1.
         25    2    1    2    0    0  0.69132214170E+02 -0.54342633690E+02 -0.58563649481E+01  0.15294338863E+03  0.12499999297E+03 0.  0.
          2    1    1    2  501    0 -0.17523557804E+02  0.49345623341E+02 -0.10457263461E+04  0.10470366071E+04  0.00000000000E+00 0. -1.
          1    1    1    2  502    0 -0.51608656365E+02  0.49970103496E+01  0.78878867153E+02  0.94394381229E+02  0.00000000000E+00 0. -1.
         22    1    3    3    0    0 -0.16360928123E+02 -0.49003128839E+02  0.30381933915E+02  0.59933700983E+02  0.00000000000E+00 0.  1.
         22    1    3    3    0    0  0.85493142293E+02 -0.53395048511E+01 -0.36238298863E+02  0.93009687644E+02  0.00000000000E+00 0.  1.
</event>
<event>
 7    1  0.5139898E-006  0.1595744E+03  0.7818608E-02  0.1288600E+00
          2   -1    0    0  502    0  0.00000000000E+00  0.00000000000E+00  0.20947446739E+04  0.20947446739E+04  0.00000000000E+00 0. -1.
          1   -1    0    0  501    0 -0.00000000000E+00 -0.00000000000E+00 -0.24469459488E+03  0.24469459488E+03  0.00000000000E+00 0. -1.
         25    2    1    2    0    0 -0.78606835017E+01  0.21410140477E+03  0.13510877121E+04  0.13736684265E+04  0.12500295385E+03 0.  0.
          2    1    1    2  501    0  0.19364151615E+02 -0.15731693330E+03 -0.20516658529E+03  0.25926225253E+03  0.00000000000E+00 0. -1.
          1    1    1    2  502    0 -0.11503468114E+02 -0.56784471473E+02  0.70412895221E+03  0.70650858970E+03  0.00000000000E+00 0. -1.
         22    1    3    3    0    0  0.28010479707E+02  0.15304688187E+03  0.62257765486E+03  0.64172491875E+03  0.00000000000E+00 0. -1.
         22    1    3    3    0    0 -0.35871163208E+02  0.61054522908E+02  0.72851005719E+03  0.73194350776E+03  0.00000000000E+00 0. -1.
</event>
<event>
 7    1  0.5139898E-006  0.8453808E+02  0.7818608E-02  0.1352189E+00
          2   -1    0    0  502    0  0.00000000000E+00  0.00000000000E+00  0.19112640400E+04  0.19112640400E+04  0.00000000000E+00 0. -1.
          1   -1    0    0  501    0 -0.00000000000E+00 -0.00000000000E+00 -0.18849900197E+03  0.18849900197E+03  0.00000000000E+00 0. -1.
         25    2    1    2    0    0 -0.52085028593E+02  0.50548641780E+02  0.72253649722E+03  0.73685236325E+03  0.12499760008E+03 0.  0.
          2    1    1    2  501    0  0.84973530281E+02  0.19699109992E+01 -0.17051681708E+03  0.19052655013E+03  0.00000000000E+00 0. -1.
          1    1    1    2  502    0 -0.32888501688E+02 -0.52518552779E+02  0.11707453579E+04  0.11723841286E+04  0.00000000000E+00 0. -1.
         22    1    3    3    0    0 -0.72734296188E+02  0.75898364995E+02  0.62998379649E+03  0.63869431146E+03  0.00000000000E+00 0. -1.
         22    1    3    3    0    0  0.20649267595E+02 -0.25349723215E+02  0.92552700728E+02  0.98158051791E+02  0.00000000000E+00 0. -1.
</event>
<event>
 7    1  0.5139898E-006  0.4534501E+02  0.7818608E-02  0.1498418E+00
          2   -1    0    0  502    0  0.00000000000E+00  0.00000000000E+00  0.19299634679E+04  0.19299634679E+04  0.00000000000E+00 0. -1.
          1   -1    0    0  501    0 -0.00000000000E+00 -0.00000000000E+00 -0.80685344151E+02  0.80685344151E+02  0.00000000000E+00 0. -1.
         25    2    1    2    0    0 -0.11292517533E+02  0.28373941857E+01  0.82445073319E+02  0.15019309560E+03  0.12500081637E+03 0.  0.
          2    1    1    2  501    0  0.49021887913E+02 -0.30211644051E+01 -0.33676121130E+02  0.59551272558E+02  0.00000000000E+00 0. -1.
          1    1    1    2  502    0 -0.37729370381E+02  0.18377021938E+00  0.18005091716E+04  0.18009044439E+04  0.00000000000E+00 0. -1.
         22    1    3    3    0    0 -0.55994730484E+01 -0.46716423481E+02 -0.72067405298E+01  0.47599531829E+02  0.00000000000E+00 0. -1.
         22    1    3    3    0    0 -0.56930444841E+01  0.49553817666E+02  0.89651813849E+02  0.10259356377E+03  0.00000000000E+00 0. -1.
</event>
<event>
 7    1  0.5139898E-006  0.6704644E+02  0.7818608E-02  0.1407731E+00
          2   -1    0    0  502    0  0.00000000000E+00  0.00000000000E+00  0.16080287865E+04  0.16080287865E+04  0.00000000000E+00 0. -1.
          1   -1    0    0  501    0 -0.00000000000E+00 -0.00000000000E+00 -0.81871511371E+03  0.81871511371E+03  0.00000000000E+00 0. -1.
         25    2    1    2    0    0  0.29259110420E+02  0.95734806535E+02  0.52273192767E+03  0.54671304942E+03  0.12500096588E+03 0.  0.
          2    1    1    2  501    0 -0.38500276492E+02 -0.31369220148E+02 -0.80497373738E+03  0.80650419536E+03  0.00000000000E+00 0. -1.
          1    1    1    2  502    0  0.92411660718E+01 -0.64365586387E+02  0.10715554825E+04  0.10735266554E+04  0.00000000000E+00 0. -1.
         22    1    3    3    0    0 -0.16187623212E+02  0.10217647750E+03  0.25689464230E+03  0.27694210396E+03  0.00000000000E+00 0.  1.
         22    1    3    3    0    0  0.45446733632E+02 -0.64416709682E+01  0.26583728537E+03  0.26977094546E+03  0.00000000000E+00 0.  1.
</event>
<event>
 7    1  0.5139898E-006  0.2879601E+02  0.7818608E-02  0.1632472E+00
          2   -1    0    0  502    0  0.00000000000E+00  0.00000000000E+00  0.10069034686E+04  0.10069034686E+04  0.00000000000E+00 0. -1.
          1   -1    0    0  501    0 -0.00000000000E+00 -0.00000000000E+00 -0.11894910535E+04  0.11894910535E+04  0.00000000000E+00 0. -1.
         25    2    1    2    0    0 -0.45295284204E+02 -0.25714506461E+02  0.41520145743E+03  0.43672494382E+03  0.12499411062E+03 0.  0.
          2    1    1    2  501    0  0.27914461560E+02  0.70344932408E+01 -0.11782732574E+04  0.11786248642E+04  0.00000000000E+00 0. -1.
          1    1    1    2  502    0  0.17380822644E+02  0.18680013220E+02  0.58048421507E+03  0.58104471415E+03  0.00000000000E+00 0. -1.
         22    1    3    3    0    0  0.23055801408E+02 -0.49843995297E+02  0.25561880820E+03  0.26145165700E+03  0.00000000000E+00 0.  1.
         22    1    3    3    0    0 -0.68351085612E+02  0.24129488837E+02  0.15958264923E+03  0.17527328682E+03  0.00000000000E+00 0.  1.
</event>
<event>
 7    1  0.5139898E-006  0.8200231E+02  0.7818608E-02  0.1334640E+00
          2   -1    0    0  502    0  0.00000000000E+00  0.00000000000E+00  0.21784535587E+04  0.21784535587E+04  0.00000000000E+00 0. -1.
          1   -1    0    0  501    0 -0.00000000000E+00 -0.00000000000E+00 -0.10302060876E+03  0.10302060876E+03  0.00000000000E+00 0. -1.
         25    2    1    2    0    0  0.12508636381E+02 -0.35094409039E+02  0.63724896347E+03  0.65046120540E+03  0.12500181899E+03 0.  0.
          2    1    1    2  501    0  0.56934638696E+02  0.61553351442E+02 -0.77100560400E+02  0.11390726303E+03  0.00000000000E+00 0. -1.
          1    1    1    2  502    0 -0.69443275077E+02 -0.26458942403E+02  0.15152845469E+04  0.15171056991E+04  0.00000000000E+00 0. -1.
         22    1    3    3    0    0 -0.52895811102E+02 -0.34893557948E+02  0.36547536220E+03  0.37092825127E+03  0.00000000000E+00 0. -1.
         22    1    3    3    0    0  0.65404447483E+02 -0.20085109071E+00  0.27177360128E+03  0.27953295412E+03  0.00000000000E+00 0. -1.
</event>
<event>
 7    1  0.5139898E-006  0.1342736E+03  0.7818608E-02  0.1348117E+00
          2   -1    0    0  502    0  0.00000000000E+00  0.00000000000E+00  0.10390141441E+03  0.10390141441E+03  0.00000000000E+00 0. -1.
          1   -1    0    0  501    0 -0.00000000000E+00 -0.00000000000E+00 -0.13563123123E+04  0.13563123123E+04  0.00000000000E+00 0. -1.
         25    2    1    2    0    0 -0.38425032638E+01  0.14561166042E+03 -0.56771978874E+03  0.59929015335E+03  0.12500163559E+03 0.  0.
          2    1    1    2  501    0  0.37054619760E+02 -0.16079182886E+02 -0.72118140508E+03  0.72231170834E+03  0.00000000000E+00 0. -1.
          1    1    1    2  502    0 -0.33212116496E+02 -0.12953247753E+03  0.36490295950E+02  0.13861186499E+03  0.00000000000E+00 0. -1.
         22    1    3    3    0    0  0.34325011498E+02 -0.58911961355E+01 -0.82917816676E+02  0.89934848244E+02  0.00000000000E+00 0. -1.
         22    1    3    3    0    0 -0.38167514762E+02  0.15150285655E+03 -0.48480197206E+03  0.50935530511E+03  0.00000000000E+00 0. -1.
</event>
<event>
 7    1  0.5139898E-006  0.1210902E+03  0.7818608E-02  0.1266605E+00
          2   -1    0    0  502    0  0.00000000000E+00  0.00000000000E+00  0.14835964777E+04  0.14835964777E+04  0.00000000000E+00 0. -1.
          1   -1    0    0  501    0 -0.00000000000E+00 -0.00000000000E+00 -0.15346873537E+03  0.15346873537E+03  0.00000000000E+00 0. -1.
         25    2    1    2    0    0  0.31024196637E+02  0.24748077910E+02  0.51158785466E+03  0.52813162412E+03  0.12500364483E+03 0.  0.
          2    1    1    2  501    0 -0.42832284662E+02 -0.11820871749E+03 -0.11515701909E+03  0.17049646490E+03  0.00000000000E+00 0. -1.
          1    1    1    2  502    0  0.11808088025E+02  0.93460639579E+02  0.93369690672E+03  0.93843712401E+03  0.00000000000E+00 0. -1.
         22    1    3    3    0    0  0.28506262692E+01 -0.24480233186E+02  0.41779977213E+03  0.41852605353E+03  0.00000000000E+00 0.  1.
         22    1    3    3    0    0  0.28173570368E+02  0.49228311096E+02  0.93788082527E+02  0.10960557059E+03  0.00000000000E+00 0.  1.
</event>
<event>
 7    1  0.5139898E-006  0.8569973E+02  0.7818608E-02  0.1402148E+00
          2   -1    0    0  502    0  0.00000000000E+00  0.00000000000E+00  0.33117619327E+04  0.33117619327E+04  0.00000000000E+00 0. -1.
          1   -1    0    0  501    0 -0.00000000000E+00 -0.00000000000E+00 -0.26685207017E+04  0.26685207017E+04  0.00000000000E+00 0. -1.
         25    2    1    2    0    0  0.26969175941E+02 -0.92152955605E+02  0.94751939988E+03  0.96054006242E+03  0.12499877868E+03 0.  0.
          2    1    1    2  501    0  0.29411285484E+02  0.27982101316E+02 -0.26610818081E+04  0.26613914427E+04  0.00000000000E+00 0. -1.
          1    1    1    2  502    0 -0.56380461425E+02  0.64170854289E+02  0.23568036393E+04  0.23583511293E+04  0.00000000000E+00 0. -1.
         22    1    3    3    0    0  0.13460479889E+02 -0.11238577849E+03  0.51293363192E+03  0.52527388901E+03  0.00000000000E+00 0.  1.
         22    1    3    3    0    0  0.13508696052E+02  0.20232822886E+02  0.43458576797E+03  0.43526617340E+03  0.00000000000E+00 0.  1.
</event>
<event>
 7    1  0.5139898E-006  0.6581302E+02  0.7818608E-02  0.1423578E+00
          2   -1    0    0  502    0  0.00000000000E+00  0.00000000000E+00  0.16276071546E+04  0.16276071546E+04  0.00000000000E+00 0. -1.
          1   -1    0    0  501    0 -0.00000000000E+00 -0.00000000000E+00 -0.23224317986E+03  0.23224317986E+03  0.00000000000E+00 0. -1.
         25    2    1    2    0    0  0.10845264915E+03 -0.19261433037E+02  0.51779466643E+03  0.54393846905E+03  0.12499904648E+03 0.  0.
          2    1    1    2  501    0 -0.64279545371E+02  0.12079462727E+02 -0.21382297155E+03  0.22360240727E+03  0.00000000000E+00 0. -1.
          1    1    1    2  502    0 -0.44173103778E+02  0.71819703094E+01  0.10913922798E+04  0.10923094581E+04  0.00000000000E+00 0. -1.
         22    1    3    3    0    0  0.96715980941E+02 -0.65274115369E+02  0.32267606871E+03  0.34312466601E+03  0.00000000000E+00 0. -1.
         22    1    3    3    0    0  0.11736668208E+02  0.46012682332E+02  0.19511859771E+03  0.20081380304E+03  0.00000000000E+00 0. -1.
</event>
<event>
 7    1  0.5139898E-006  0.1110083E+03  0.7818608E-02  0.1282432E+00
          2   -1    0    0  502    0  0.00000000000E+00  0.00000000000E+00  0.92768080108E+02  0.92768080108E+02  0.00000000000E+00 0. -1.
          1   -1    0    0  501    0 -0.00000000000E+00 -0.00000000000E+00 -0.30529384577E+04  0.30529384577E+04  0.00000000000E+00 0. -1.
         25    2    1    2    0    0  0.14177144212E+03 -0.12906646921E+03 -0.85698056788E+03  0.88701658231E+03  0.12500171315E+03 0.  0.
          2    1    1    2  501    0 -0.50041775004E+02  0.72719946924E+02 -0.21423256589E+04  0.21441435583E+04  0.00000000000E+00 0. -1.
          1    1    1    2  502    0 -0.91729667115E+02  0.56346522283E+02  0.39135849227E+02  0.11454639714E+03  0.00000000000E+00 0. -1.
         22    1    3    3    0    0  0.11059796457E+03 -0.13847261362E+03 -0.53929991089E+03  0.56767153212E+03  0.00000000000E+00 0.  1.
         22    1    3    3    0    0  0.31173477545E+02  0.94061444157E+01 -0.31768065698E+03  0.31934505018E+03  0.00000000000E+00 0.  1.
</event>
<event>
 7    1  0.5139898E-006  0.9798068E+02  0.7818608E-02  0.1340706E+00
          2   -1    0    0  502    0  0.00000000000E+00  0.00000000000E+00  0.15956635326E+04  0.15956635326E+04  0.00000000000E+00 0. -1.
          1   -1    0    0  501    0 -0.00000000000E+00 -0.00000000000E+00 -0.18487820585E+03  0.18487820585E+03  0.00000000000E+00 0. -1.
         25    2    1    2    0    0 -0.29523386939E+02  0.50391079997E+02  0.15588521488E+03  0.20817314934E+03  0.12499987427E+03 0.  0.
          2    1    1    2  501    0  0.13428613628E+01 -0.10222550757E+03 -0.14158525147E+03  0.17463745620E+03  0.00000000000E+00 0. -1.
          1    1    1    2  502    0  0.28180525577E+02  0.51834427568E+02  0.13964853633E+04  0.13977311329E+04  0.00000000000E+00 0. -1.
         22    1    3    3    0    0  0.14429155044E+01 -0.25763561526E+01  0.14599626690E+03  0.14602612631E+03  0.00000000000E+00 0.  1.
         22    1    3    3    0    0 -0.30966302444E+02  0.52967436150E+02  0.98889479796E+01  0.62147023030E+02  0.00000000000E+00 0.  1.
</event>
<event>
 7    1  0.5139898E-006  0.1402283E+03  0.7818608E-02  0.1259128E+00
          2   -1    0    0  502    0  0.00000000000E+00  0.00000000000E+00  0.25958755738E+03  0.25958755738E+03  0.00000000000E+00 0. -1.
          1   -1    0    0  501    0 -0.00000000000E+00 -0.00000000000E+00 -0.36986368298E+03  0.36986368298E+03  0.00000000000E+00 0. -1.
         25    2    1    2    0    0 -0.17172773321E+03 -0.46471822240E+02  0.32109993080E+02  0.21979017567E+03  0.12500650003E+03 0.  0.
          2    1    1    2  501    0  0.75842040229E+02 -0.43677426887E+02 -0.23365074321E+03  0.24950431357E+03  0.00000000000E+00 0. -1.
          1    1    1    2  502    0  0.95885692978E+02  0.90149249127E+02  0.91264624537E+02  0.16015675112E+03  0.00000000000E+00 0. -1.
         22    1    3    3    0    0 -0.17607905105E+02 -0.39051953722E+02  0.48399471272E+02  0.64634373449E+02  0.00000000000E+00 0.  1.
         22    1    3    3    0    0 -0.15411982810E+03 -0.74198685180E+01 -0.16289478192E+02  0.15515580222E+03  0.00000000000E+00 0.  1.
</event>
<event>
 7    1  0.5139898E-006  0.7346564E+02  0.7818608E-02  0.1493661E+00
          2   -1    0    0  502    0  0.00000000000E+00  0.00000000000E+00  0.76674748304E+03  0.76674748304E+03  0.00000000000E+00 0. -1.
          1   -1    0    0  501    0 -0.00000000000E+00 -0.00000000000E+00 -0.18751800542E+03  0.18751800542E+03  0.00000000000E+00 0. -1.
         25    2    1    2    0    0 -0.87534743427E+02 -0.16752310517E+02  0.40789343758E+03  0.43582676177E+03  0.12499975456E+03 0.  0.
          2    1    1    2  501    0  0.73173575453E+02 -0.25588407312E+01 -0.16538034266E+03  0.18086342237E+03  0.00000000000E+00 0. -1.
          1    1    1    2  502    0  0.14361167974E+02  0.19311151248E+02  0.33671638271E+03  0.33757530433E+03  0.00000000000E+00 0. -1.
         22    1    3    3    0    0 -0.51278518223E+02 -0.59296084583E+02  0.33454433421E+03  0.34360649533E+03  0.00000000000E+00 0.  1.
         22    1    3    3    0    0 -0.36256225204E+02  0.42543774066E+02  0.73349103368E+02  0.92220266442E+02  0.00000000000E+00 0.  1.
</event>
<event>
 7    1  0.5139898E-006  0.8044456E+02  0.7818608E-02  0.1382017E+00
          2   -1    0    0  502    0  0.00000000000E+00  0.00000000000E+00  0.36465857345E+03  0.36465857345E+03  0.00000000000E+00 0. -1.
          1   -1    0    0  501    0 -0.00000000000E+00 -0.00000000000E+00 -0.54236123542E+03  0.54236123542E+03  0.00000000000E+00 0. -1.
         25    2    1    2    0    0  0.92745142032E+02 -0.42801239483E+02 -0.55080644596E+02  0.17056410004E+03  0.12499850936E+03 0.  0.
          2    1    1    2  501    0 -0.46855100456E+02  0.64627728104E+02 -0.42368240428E+03  0.43113678035E+03  0.00000000000E+00 0. -1.
          1    1    1    2  502    0 -0.45890041576E+02 -0.21826488621E+02  0.30106038690E+03  0.30531892847E+03  0.00000000000E+00 0. -1.
         22    1    3    3    0    0  0.11482999571E+03 -0.24352167061E+01 -0.45648813155E+02  0.12359479090E+03  0.00000000000E+00 0.  1.
         22    1    3    3    0    0 -0.22084853677E+02 -0.40366022777E+02 -0.94318314405E+01  0.46969309140E+02  0.00000000000E+00 0.  1.
</event>
<event>
 7    1  0.5139898E-006  0.4129902E+03  0.7818608E-02  0.1169643E+00
          2   -1    0    0  502    0  0.00000000000E+00  0.00000000000E+00  0.11896746792E+04  0.11896746792E+04  0.00000000000E+00 0. -1.
          1   -1    0    0  501    0 -0.00000000000E+00 -0.00000000000E+00 -0.18145212274E+04  0.18145212274E+04  0.00000000000E+00 0. -1.
         25    2    1    2    0    0  0.45909099682E+02  0.45430705154E+03  0.10822100010E+03  0.48563336877E+03  0.12500176594E+03 0.  0.
          2    1    1    2  501    0  0.45761875212E+02 -0.61696063327E+02 -0.15793151749E+04  0.15811821448E+04  0.00000000000E+00 0. -1.
          1    1    1    2  502    0 -0.91670974893E+02 -0.39261098821E+03  0.84624762663E+03  0.93738039305E+03  0.00000000000E+00 0. -1.
         22    1    3    3    0    0  0.70462693110E+02  0.13390579868E+03  0.21810220228E+02  0.15287720480E+03  0.00000000000E+00 0.  1.
         22    1    3    3    0    0 -0.24553593428E+02  0.32040125286E+03  0.86410779868E+02  0.33275616397E+03  0.00000000000E+00 0.  1.
</event>
<event>
 7    1  0.5139898E-006  0.1265960E+03  0.7818608E-02  0.1238763E+00
          2   -1    0    0  502    0  0.00000000000E+00  0.00000000000E+00  0.33725000799E+04  0.33725000799E+04  0.00000000000E+00 0. -1.
          1   -1    0    0  501    0 -0.00000000000E+00 -0.00000000000E+00 -0.78775856770E+02  0.78775856770E+02  0.00000000000E+00 0. -1.
         25    2    1    2    0    0 -0.18993106182E+03  0.12004827849E+03  0.12078829795E+04  0.12349460626E+04  0.12500035209E+03 0.  0.
          2    1    1    2  501    0  0.73071234663E+02 -0.98349836182E+02 -0.45055718713E+01  0.12260667107E+03  0.00000000000E+00 0. -1.
          1    1    1    2  502    0  0.11685982715E+03 -0.21698442310E+02  0.20903468155E+04  0.20937232029E+04  0.00000000000E+00 0. -1.
         22    1    3    3    0    0  0.63446087045E+01  0.41693294793E+02  0.28980558508E+03  0.29285809197E+03  0.00000000000E+00 0.  1.
         22    1    3    3    0    0 -0.19627567052E+03  0.78354983698E+02  0.91807739442E+03  0.94208797065E+03  0.00000000000E+00 0.  1.
</event>
<event>
 7    1  0.5139898E-006  0.6842790E+02  0.7818608E-02  0.1366749E+00
          2   -1    0    0  502    0  0.00000000000E+00  0.00000000000E+00  0.13208019180E+03  0.13208019180E+03  0.00000000000E+00 0. -1.
          1   -1    0    0  501    0 -0.00000000000E+00 -0.00000000000E+00 -0.23414658382E+04  0.23414658382E+04  0.00000000000E+00 0. -1.
         25    2    1    2    0    0 -0.42118913652E+01 -0.64899116869E+02 -0.71792201248E+02  0.15814411492E+03  0.12500322205E+03 0.  0.
          2    1    1    2  501    0  0.63627699438E+02  0.23220291452E+02 -0.22110802811E+04  0.22121174642E+04  0.00000000000E+00 0. -1.
          1    1    1    2  502    0 -0.59415808073E+02  0.41678825417E+02  0.73486835935E+02  0.10328445088E+03  0.00000000000E+00 0. -1.
         22    1    3    3    0    0 -0.15000290157E+02 -0.72821079070E+02  0.10218039913E+02  0.75048828115E+02  0.00000000000E+00 0. -1.
         22    1    3    3    0    0  0.10788398792E+02  0.79219622008E+01 -0.82010241161E+02  0.83095286803E+02  0.00000000000E+00 0. -1.
</event>
<event>
 7    1  0.5139898E-006  0.1111302E+03  0.7818608E-02  0.1308364E+00
          2   -1    0    0  502    0  0.00000000000E+00  0.00000000000E+00  0.67923763417E+03  0.67923763417E+03  0.00000000000E+00 0. -1.
          1   -1    0    0  501    0 -0.00000000000E+00 -0.00000000000E+00 -0.20096694794E+04  0.20096694794E+04  0.00000000000E+00 0. -1.
         25    2    1    2    0    0 -0.14897473607E+02  0.80433180118E+02  0.90391957080E+02  0.17460796709E+03  0.12500322029E+03 0.  0.
          2    1    1    2  501    0  0.83881699103E+02 -0.73745384482E+02 -0.19637718213E+04  0.19669454205E+04  0.00000000000E+00 0. -1.
          1    1    1    2  502    0 -0.68984225496E+02 -0.66877956362E+01  0.54294801900E+03  0.54735372595E+03  0.00000000000E+00 0. -1.
         22    1    3    3    0    0  0.32149475339E+02  0.50731727009E+02  0.10143669832E+03  0.11788426806E+03  0.00000000000E+00 0. -1.
         22    1    3    3    0    0 -0.47046948947E+02  0.29701453109E+02 -0.11044741244E+02  0.56723699026E+02  0.00000000000E+00 0. -1.
</event>
<event>
 7    1  0.5139898E-006  0.1132605E+03  0.7818608E-02  0.1426964E+00
          2   -1    0    0  502    0  0.00000000000E+00  0.00000000000E+00  0.10508655828E+04  0.10508655828E+04  0.00000000000E+00 0. -1.
          1   -1    0    0  501    0 -0.00000000000E+00 -0.00000000000E+00 -0.48691566605E+02  0.48691566605E+02  0.00000000000E+00 0. -1.
         25    2    1    2    0    0 -0.17288111223E+02  0.10103468068E+03  0.56628325921E+03  0.58890422132E+03  0.12499826694E+03 0.  0.
          2    1    1    2  501    0 -0.37538552545E+01 -0.11515673742E+03  0.52825821321E+02  0.12675067259E+03  0.00000000000E+00 0. -1.
          1    1    1    2  502    0  0.21041966477E+02  0.14122056746E+02  0.38306493571E+03  0.38390225554E+03  0.00000000000E+00 0. -1.
         22    1    3    3    0    0 -0.61653013216E+02  0.95109409217E+02  0.45620132814E+03  0.47007078782E+03  0.00000000000E+00 0.  1.
         22    1    3    3    0    0  0.44364901993E+02  0.59252714595E+01  0.11008193106E+03  0.11883343350E+03  0.00000000000E+00 0.  1.
</event>
<event>
 7    1  0.5139898E-006  0.1085420E+03  0.7818608E-02  0.1374490E+00
          2   -1    0    0  502    0  0.00000000000E+00  0.00000000000E+00  0.40948162598E+03  0.40948162598E+03  0.00000000000E+00 0. -1.
          1   -1    0    0  501    0 -0.00000000000E+00 -0.00000000000E+00 -0.38670004342E+03  0.38670004342E+03  0.00000000000E+00 0. -1.
         25    2    1    2    0    0  0.88715432141E+02  0.73135298792E+02  0.25190392019E+03  0.30380095216E+03  0.12498093334E+03 0.  0.
          2    1    1    2  501    0 -0.10257058241E+03 -0.35555512557E+02 -0.34926002626E+03  0.36574237489E+03  0.00000000000E+00 0. -1.
          1    1    1    2  502    0  0.13855150273E+02 -0.37579786234E+02  0.12013768864E+03  0.12663834235E+03  0.00000000000E+00 0. -1.
         22    1    3    3    0    0  0.12392635168E+02  0.44459881426E+02  0.20417360177E+03  0.20932538815E+03  0.00000000000E+00 0.  1.
         22    1    3    3    0    0  0.76322796973E+02  0.28675417365E+02  0.47730318412E+02  0.94475564008E+02  0.00000000000E+00 0.  1.
</event>
<event>
 7    1  0.5139898E-006  0.1658201E+03  0.7818608E-02  0.1325856E+00
          2   -1    0    0  502    0  0.00000000000E+00  0.00000000000E+00  0.56684245302E+02  0.56684245302E+02  0.00000000000E+00 0. -1.
          1   -1    0    0  501    0 -0.00000000000E+00 -0.00000000000E+00 -0.18182802739E+04  0.18182802739E+04  0.00000000000E+00 0. -1.
         25    2    1    2    0    0  0.43125742457E+01 -0.15879813815E+03 -0.94400062328E+03  0.96540059815E+03  0.12500276467E+03 0.  0.
          2    1    1    2  501    0 -0.39375941904E+02 -0.50688990203E+01 -0.70848529997E+03  0.70959677198E+03  0.00000000000E+00 0. -1.
          1    1    1    2  502    0  0.35063367659E+02  0.16386703718E+03 -0.10911010538E+03  0.19996714911E+03  0.00000000000E+00 0. -1.
         22    1    3    3    0    0 -0.31192370471E+02 -0.91288659108E+02 -0.26287994978E+03  0.28002223350E+03  0.00000000000E+00 0. -1.
         22    1    3    3    0    0  0.35504944716E+02 -0.67509479046E+02 -0.68112067351E+03  0.68537836465E+03  0.00000000000E+00 0. -1.
</event>
<event>
 7    1  0.5139898E-006  0.9853055E+02  0.7818608E-02  0.1353333E+00
          2   -1    0    0  502    0  0.00000000000E+00  0.00000000000E+00  0.69538485870E+03  0.69538485870E+03  0.00000000000E+00 0. -1.
          1   -1    0    0  501    0 -0.00000000000E+00 -0.00000000000E+00 -0.32083153142E+03  0.32083153142E+03  0.00000000000E+00 0. -1.
         25    2    1    2    0    0 -0.46998780207E+02 -0.47796587747E+02  0.58315393260E+03  0.60015562329E+03  0.12499945570E+03 0.  0.
          2    1    1    2  501    0  0.95344463068E+02  0.26940437444E+02 -0.29704363660E+03  0.31313140349E+03  0.00000000000E+00 0. -1.
          1    1    1    2  502    0 -0.48345682861E+02  0.20856150302E+02  0.88443031279E+02  0.10292936334E+03  0.00000000000E+00 0. -1.
         22    1    3    3    0    0 -0.24106907274E+02 -0.72351169404E+02  0.17845924941E+03  0.19407096226E+03  0.00000000000E+00 0. -1.
         22    1    3    3    0    0 -0.22891872933E+02  0.24554581658E+02  0.40469468318E+03  0.40608466103E+03  0.00000000000E+00 0. -1.
</event>
<event>
 7    1  0.5139898E-006  0.1911619E+03  0.7818608E-02  0.1312334E+00
          2   -1    0    0  502    0  0.00000000000E+00  0.00000000000E+00  0.12240112628E+04  0.12240112628E+04  0.00000000000E+00 0. -1.
          1   -1    0    0  501    0 -0.00000000000E+00 -0.00000000000E+00 -0.27090776987E+03  0.27090776987E+03  0.00000000000E+00 0. -1.
         25    2    1    2    0    0 -0.15432360349E+03 -0.31461996782E+02  0.52813373658E+02  0.20789291698E+03  0.12499832261E+03 0.  0.
          2    1    1    2  501    0 -0.38677502010E+02  0.38266574269E+01 -0.18261719706E+03  0.18670734622E+03  0.00000000000E+00 0. -1.
          1    1    1    2  502    0  0.19300110550E+03  0.27635339355E+02  0.10829073163E+04  0.11003187695E+04  0.00000000000E+00 0. -1.
         22    1    3    3    0    0 -0.14787850512E+03 -0.27115395790E+02 -0.41503409177E+01  0.15040120443E+03  0.00000000000E+00 0. -1.
         22    1    3    3    0    0 -0.64450983772E+01 -0.43466009913E+01  0.56963714576E+02  0.57491712547E+02  0.00000000000E+00 0. -1.
</event>
<event>
 7    1  0.5139898E-006  0.5592440E+02  0.7818608E-02  0.1451256E+00
          2   -1    0    0  502    0  0.00000000000E+00  0.00000000000E+00  0.62824417761E+02  0.62824417761E+02  0.00000000000E+00 0. -1.
          1   -1    0    0  501    0 -0.00000000000E+00 -0.00000000000E+00 -0.69014116022E+03  0.69014116022E+03  0.00000000000E+00 0. -1.
         25    2    1    2    0    0  0.51016793353E+02 -0.74892533184E+02 -0.11587234272E+03  0.19302160871E+03  0.12497734551E+03 0.  0.
          2    1    1    2  501    0 -0.14313703150E+02  0.52890368705E+02 -0.51415421247E+03  0.51706559294E+03  0.00000000000E+00 0. -1.
          1    1    1    2  502    0 -0.36703090202E+02  0.22002164479E+02  0.27098127315E+01  0.42878376336E+02  0.00000000000E+00 0. -1.
         22    1    3    3    0    0  0.48138426456E+02  0.23854009400E+02 -0.55512393021E+02  0.77252492808E+02  0.00000000000E+00 0.  1.
         22    1    3    3    0    0  0.28783668963E+01 -0.98746542584E+02 -0.60359949700E+02  0.11576911590E+03  0.00000000000E+00 0.  1.
</event>
<event>
 7    1  0.5139898E-006  0.3766543E+02  0.7818608E-02  0.1560740E+00
          2   -1    0    0  502    0  0.00000000000E+00  0.00000000000E+00  0.12174010842E+03  0.12174010842E+03  0.00000000000E+00 0. -1.
          1   -1    0    0  501    0 -0.00000000000E+00 -0.00000000000E+00 -0.65803137026E+03  0.65803137026E+03  0.00000000000E+00 0. -1.
         25    2    1    2    0    0  0.65039951550E+02 -0.11290813060E+00 -0.13103433149E+03  0.19241946682E+03  0.12500018855E+03 0.  0.
          2    1    1    2  501    0 -0.36111761108E+02  0.84230611243E+01 -0.49310173365E+03  0.49449401107E+03  0.00000000000E+00 0. -1.
          1    1    1    2  502    0 -0.28928190442E+02 -0.83101529937E+01  0.87844803294E+02  0.92858000791E+02  0.00000000000E+00 0. -1.
         22    1    3    3    0    0  0.91621778827E+02  0.26172306820E+00 -0.13734073234E+03  0.16509723079E+03  0.00000000000E+00 0.  1.
         22    1    3    3    0    0 -0.26581827277E+02 -0.37463119880E+00  0.63064008539E+01  0.27322236030E+02  0.00000000000E+00 0.  1.
</event>
<event>
 7    1  0.5139898E-006  0.1187921E+03  0.7818608E-02  0.1357347E+00
          2   -1    0    0  502    0  0.00000000000E+00  0.00000000000E+00  0.11782206073E+04  0.11782206073E+04  0.00000000000E+00 0. -1.
          1   -1    0    0  501    0 -0.00000000000E+00 -0.00000000000E+00 -0.74338695344E+02  0.74338695344E+02  0.00000000000E+00 0. -1.
         25    2    1    2    0    0 -0.64920265117E+02  0.59930510671E+02  0.19837911942E+03  0.25057049593E+03  0.12499996590E+03 0.  0.
          2    1    1    2  501    0 -0.42152274502E+02  0.22670890248E+01 -0.34097605594E+02  0.54264174605E+02  0.00000000000E+00 0. -1.
          1    1    1    2  502    0  0.10707253962E+03 -0.62197599696E+02  0.93960039809E+03  0.94772463207E+03  0.00000000000E+00 0. -1.
         22    1    3    3    0    0 -0.42189954719E+02  0.99136846246E+02  0.13814301573E+03  0.17519018054E+03  0.00000000000E+00 0.  1.
         22    1    3    3    0    0 -0.22730310398E+02 -0.39206335574E+02  0.60236103694E+02  0.75380315389E+02  0.00000000000E+00 0.  1.
</event>
<event>
 7    1  0.5139898E-006  0.5268546E+02  0.7818608E-02  0.1468853E+00
          2   -1    0    0  502    0  0.00000000000E+00  0.00000000000E+00  0.26310829079E+04  0.26310829079E+04  0.00000000000E+00 0. -1.
          1   -1    0    0  501    0 -0.00000000000E+00 -0.00000000000E+00 -0.66025701123E+02  0.66025701123E+02  0.00000000000E+00 0. -1.
         25    2    1    2    0    0 -0.67391203075E+01  0.67612491086E+02  0.64220541937E+03  0.65777541664E+03  0.12499533344E+03 0.  0.
          2    1    1    2  501    0  0.34986049198E+02 -0.39328593420E+02 -0.46102688165E+02  0.69972993040E+02  0.00000000000E+00 0. -1.
          1    1    1    2  502    0 -0.28246928891E+02 -0.28283897666E+02  0.19689544756E+04  0.19693601993E+04  0.00000000000E+00 0. -1.
         22    1    3    3    0    0  0.84859515973E+01  0.84629377306E+02  0.62039781621E+03  0.62620092082E+03  0.00000000000E+00 0.  1.
         22    1    3    3    0    0 -0.15225071905E+02 -0.17016886220E+02  0.21807603160E+02  0.31574495826E+02  0.00000000000E+00 0.  1.
</event>
<event>
 7    1  0.5139898E-006  0.1045697E+03  0.7818608E-02  0.1366550E+00
          2   -1    0    0  502    0  0.00000000000E+00  0.00000000000E+00  0.28084261987E+04  0.28084261987E+04  0.00000000000E+00 0. -1.
          1   -1    0    0  501    0 -0.00000000000E+00 -0.00000000000E+00 -0.12043258239E+03  0.12043258239E+03  0.00000000000E+00 0. -1.
         25    2    1    2    0    0 -0.12413903701E+03  0.72659581142E+02  0.79475730054E+03  0.81728430727E+03  0.12499822762E+03 0.  0.
          2    1    1    2  501    0  0.96088829064E+02 -0.38247701921E+02 -0.84369921312E+02  0.13346997189E+03  0.00000000000E+00 0. -1.
          1    1    1    2  502    0  0.28050207941E+02 -0.34411879221E+02  0.19776062371E+04  0.19781045019E+04  0.00000000000E+00 0. -1.
         22    1    3    3    0    0  0.14956785311E+02  0.45083179379E+02  0.24281443050E+03  0.24741674590E+03  0.00000000000E+00 0.  1.
         22    1    3    3    0    0 -0.13909582232E+03  0.27576401763E+02  0.55194287004E+03  0.56986756137E+03  0.00000000000E+00 0.  1.
</event>
<event>
 7    1  0.5139898E-006  0.3869343E+02  0.7818608E-02  0.1519968E+00
          2   -1    0    0  502    0  0.00000000000E+00  0.00000000000E+00  0.18334853389E+03  0.18334853389E+03  0.00000000000E+00 0. -1.
          1   -1    0    0  501    0 -0.00000000000E+00 -0.00000000000E+00 -0.47357538758E+03  0.47357538758E+03  0.00000000000E+00 0. -1.
         25    2    1    2    0    0  0.12122090996E+02  0.45074820359E+02  0.75978982191E+02  0.15355841717E+03  0.12501478804E+03 0.  0.
          2    1    1    2  501    0 -0.36101590492E+02 -0.13923232212E+02 -0.42820704703E+03  0.42995169072E+03  0.00000000000E+00 0. -1.
          1    1    1    2  502    0  0.23979499496E+02 -0.31151588146E+02  0.62001211144E+02  0.73413813574E+02  0.00000000000E+00 0. -1.
         22    1    3    3    0    0  0.68471300404E+02  0.23630827611E+02  0.49350620575E+02  0.87648267203E+02  0.00000000000E+00 0. -1.
         22    1    3    3    0    0 -0.56349209408E+02  0.21443992748E+02  0.26628361616E+02  0.65910149964E+02  0.00000000000E+00 0. -1.
</event>
<event>
 7    1  0.5139898E-006  0.1438040E+03  0.7818608E-02  0.1257087E+00
          2   -1    0    0  502    0  0.00000000000E+00  0.00000000000E+00  0.85789715049E+03  0.85789715049E+03  0.00000000000E+00 0. -1.
          1   -1    0    0  501    0 -0.00000000000E+00 -0.00000000000E+00 -0.27249894700E+03  0.27249894700E+03  0.00000000000E+00 0. -1.
         25    2    1    2    0    0 -0.13471346369E+03 -0.95126838404E+02  0.13311763117E+03  0.24605246559E+03  0.12499871763E+03 0.  0.
          2    1    1    2  501    0 -0.89064794334E+01  0.86621216364E+02 -0.19907584092E+03  0.21728725443E+03  0.00000000000E+00 0. -1.
          1    1    1    2  502    0  0.14361994312E+03  0.85056220400E+01  0.65135641324E+03  0.66705637748E+03  0.00000000000E+00 0. -1.
         22    1    3    3    0    0 -0.81550750523E+02 -0.41112489685E+02 -0.17552295398E+01  0.91344636130E+02  0.00000000000E+00 0. -1.
         22    1    3    3    0    0 -0.53162713162E+02 -0.54014348718E+02  0.13487286071E+03  0.15470782946E+03  0.00000000000E+00 0. -1.
</event>
<event>
 7    1  0.5139898E-006  0.9113506E+02  0.7818608E-02  0.1318545E+00
          2   -1    0    0  502    0  0.00000000000E+00  0.00000000000E+00  0.37574781113E+02  0.37574781113E+02  0.00000000000E+00 0. -1.
          1   -1    0    0  501    0 -0.00000000000E+00 -0.00000000000E+00 -0.24405658477E+04  0.24405658477E+04  0.00000000000E+00 0. -1.
         25    2    1    2    0    0 -0.93899191885E+02  0.45622485839E+02 -0.71444018686E+03  0.73276555257E+03  0.12498841937E+03 0.  0.
          2    1    1    2  501    0  0.65375397357E+01 -0.76815950823E+02 -0.16378435294E+04  0.16396569326E+04  0.00000000000E+00 0. -1.
          1    1    1    2  502    0  0.87361652149E+02  0.31193464984E+02 -0.50707350314E+02  0.10571814366E+03  0.00000000000E+00 0. -1.
         22    1    3    3    0    0 -0.11009131894E+03 -0.43546711046E+01 -0.49771884506E+03  0.50976770238E+03  0.00000000000E+00 0.  1.
         22    1    3    3    0    0  0.16192127052E+02  0.49977156943E+02 -0.21672134180E+03  0.22299785019E+03  0.00000000000E+00 0.  1.
</event>
<event>
 7    1  0.5139898E-006  0.1247095E+03  0.7818608E-02  0.1352669E+00
          2   -1    0    0  502    0  0.00000000000E+00  0.00000000000E+00  0.15226326481E+03  0.15226326481E+03  0.00000000000E+00 0. -1.
          1   -1    0    0  501    0 -0.00000000000E+00 -0.00000000000E+00 -0.46292453330E+03  0.46292453330E+03  0.00000000000E+00 0. -1.
         25    2    1    2    0    0 -0.28714739419E+02 -0.97298671737E+02 -0.20043504577E+03  0.25708183353E+03  0.12500117510E+03 0.  0.
          2    1    1    2  501    0  0.35117687952E+02  0.13864068115E+03 -0.20761722095E+03  0.25210989848E+03  0.00000000000E+00 0. -1.
          1    1    1    2  502    0 -0.64029485328E+01 -0.41342009416E+02  0.97390998227E+02  0.10599606610E+03  0.00000000000E+00 0. -1.
         22    1    3    3    0    0  0.14815892342E+02 -0.11311358010E+03 -0.15224544432E+03  0.19024423246E+03  0.00000000000E+00 0. -1.
         22    1    3    3    0    0 -0.43530631761E+02  0.15814908366E+02 -0.48189601453E+02  0.66837601066E+02  0.00000000000E+00 0. -1.
</event>
<event>
 7    1  0.5139898E-006  0.5870203E+02  0.7818608E-02  0.1453145E+00
          2   -1    0    0  502    0  0.00000000000E+00  0.00000000000E+00  0.49647860160E+03  0.49647860160E+03  0.00000000000E+00 0. -1.
          1   -1    0    0  501    0 -0.00000000000E+00 -0.00000000000E+00 -0.22209692650E+03  0.22209692650E+03  0.00000000000E+00 0. -1.
         25    2    1    2    0    0  0.13386937676E+02  0.74528620336E+02  0.15883487408E+03  0.21583868225E+03  0.12499637668E+03 0.  0.
          2    1    1    2  501    0  0.21465234935E+02 -0.54482114360E+02 -0.18780993441E+03  0.19672729490E+03  0.00000000000E+00 0. -1.
          1    1    1    2  502    0 -0.34852172611E+02 -0.20046505977E+02  0.30335673543E+03  0.30600955094E+03  0.00000000000E+00 0. -1.
         22    1    3    3    0    0 -0.35119128085E+02  0.16024346617E+01  0.11016783700E+03  0.11564114001E+03  0.00000000000E+00 0. -1.
         22    1    3    3    0    0  0.48506065760E+02  0.72926185675E+02  0.48667037082E+02  0.10019754224E+03  0.00000000000E+00 0. -1.
</event>
<event>
 7    1  0.5139898E-006  0.4432884E+02  0.7818608E-02  0.1534653E+00
          2   -1    0    0  502    0  0.00000000000E+00  0.00000000000E+00  0.15562337901E+04  0.15562337901E+04  0.00000000000E+00 0. -1.
          1   -1    0    0  501    0 -0.00000000000E+00 -0.00000000000E+00 -0.32715396071E+03  0.32715396071E+03  0.00000000000E+00 0. -1.
         25    2    1    2    0    0 -0.45000413128E+02 -0.30220002637E+02  0.63730075935E+02  0.15042489996E+03  0.12501136831E+03 0.  0.
          2    1    1    2  501    0  0.67731936859E+00  0.30247173557E+02 -0.28266016938E+03  0.28427472913E+03  0.00000000000E+00 0. -1.
          1    1    1    2  502    0  0.44323093760E+02 -0.27170920256E-01  0.14480099228E+04  0.14486881217E+04  0.00000000000E+00 0. -1.
         22    1    3    3    0    0  0.37703857621E+02 -0.42706168581E+01 -0.69560342639E+01  0.38577266110E+02  0.00000000000E+00 0. -1.
         22    1    3    3    0    0 -0.82704270749E+02 -0.25949385779E+02  0.70686110199E+02  0.11184763385E+03  0.00000000000E+00 0. -1.
</event>
<event>
 7    1  0.5139898E-006  0.9547170E+02  0.7818608E-02  0.1410780E+00
          2   -1    0    0  502    0  0.00000000000E+00  0.00000000000E+00  0.24793719419E+04  0.24793719419E+04  0.00000000000E+00 0. -1.
          1   -1    0    0  501    0 -0.00000000000E+00 -0.00000000000E+00 -0.25142290580E+03  0.25142290580E+03  0.00000000000E+00 0. -1.
         25    2    1    2    0    0  0.13786226471E+02 -0.98658553569E+02  0.66876098550E+03  0.68759651098E+03  0.12499654377E+03 0.  0.
          2    1    1    2  501    0 -0.44705780401E+02  0.84385407002E+02 -0.23241624957E+03  0.25127040570E+03  0.00000000000E+00 0. -1.
          1    1    1    2  502    0  0.30919553930E+02  0.14273146567E+02  0.17916043002E+04  0.17919279310E+04  0.00000000000E+00 0. -1.
         22    1    3    3    0    0 -0.64384317373E+01  0.64675302498E+01  0.37207819075E+03  0.37219008905E+03  0.00000000000E+00 0.  1.
         22    1    3    3    0    0  0.20224658208E+02 -0.10512608382E+03  0.29668279475E+03  0.31540642194E+03  0.00000000000E+00 0.  1.
</event>
<event>
 7    1  0.5139898E-006  0.2054529E+03  0.7818608E-02  0.1379627E+00
          2   -1    0    0  502    0  0.00000000000E+00  0.00000000000E+00  0.19627432460E+03  0.19627432460E+03  0.00000000000E+00 0. -1.
          1   -1    0    0  501    0 -0.00000000000E+00 -0.00000000000E+00 -0.80177235055E+03  0.80177235055E+03  0.00000000000E+00 0. -1.
         25    2    1    2    0    0 -0.17490312554E+03 -0.13952134257E+03  0.30903175484E+02  0.25814198647E+03  0.12499988227E+03 0.  0.
          2    1    1    2  501    0  0.15794295830E+03  0.12838772241E+03 -0.67023182511E+03  0.70045705416E+03  0.00000000000E+00 0. -1.
          1    1    1    2  502    0  0.16960167249E+02  0.11133620161E+02  0.33830623666E+02  0.39447634512E+02  0.00000000000E+00 0. -1.
         22    1    3    3    0    0  0.11503628830E+02 -0.39396171274E+02 -0.10884076765E+02  0.42460039029E+02  0.00000000000E+00 0. -1.
         22    1    3    3    0    0 -0.18640675437E+03 -0.10012517129E+03  0.41787252249E+02  0.21568194744E+03  0.00000000000E+00 0. -1.
</event>
<event>
 7    1  0.5139898E-006  0.1350005E+03  0.7818608E-02  0.1282106E+00
          2   -1    0    0  502    0  0.00000000000E+00  0.00000000000E+00  0.17276346912E+04  0.17276346912E+04  0.00000000000E+00 0. -1.
          1   -1    0    0  501    0 -0.00000000000E+00 -0.00000000000E+00 -0.44626270809E+03  0.44626270809E+03  0.00000000000E+00 0. -1.
         25    2    1    2    0    0  0.19678824566E+03  0.25387483747E+02  0.50053017138E+03  0.55274364596E+03  0.12499979089E+03 0.  0.
          2    1    1    2  501    0 -0.72792065905E+02  0.16685385516E+01 -0.41361430790E+03  0.41997412370E+03  0.00000000000E+00 0. -1.
          1    1    1    2  502    0 -0.12399617976E+03 -0.27056022299E+02  0.11944561196E+04  0.12011796296E+04  0.00000000000E+00 0. -1.
         22    1    3    3    0    0 -0.13626057204E+02 -0.40641405618E+01  0.79394201038E+01  0.16285609139E+02  0.00000000000E+00 0.  1.
         22    1    3    3    0    0  0.21041430287E+03  0.29451624309E+02  0.49259075127E+03  0.53645803682E+03  0.00000000000E+00 0.  1.
</event>
<event>
 7    1  0.5139898E-006  0.6004304E+02  0.7818608E-02  0.1534893E+00
          2   -1    0    0  502    0  0.00000000000E+00  0.00000000000E+00  0.27618361855E+03  0.27618361855E+03  0.00000000000E+00 0. -1.
          1   -1    0    0  501    0 -0.00000000000E+00 -0.00000000000E+00 -0.33610296385E+03  0.33610296385E+03  0.00000000000E+00 0. -1.
         25    2    1    2    0    0 -0.71273188978E+02 -0.29744297491E+02 -0.56512315761E+02  0.15742508562E+03  0.12499770018E+03 0.  0.
          2    1    1    2  501    0  0.49129183095E+02  0.32389995939E+02 -0.22478664312E+03  0.23236140685E+03  0.00000000000E+00 0. -1.
          1    1    1    2  502    0  0.22144005883E+02 -0.26456984482E+01  0.22137961357E+03  0.22250008994E+03  0.00000000000E+00 0. -1.
         22    1    3    3    0    0 -0.70702794972E+02  0.33618619520E+02 -0.10223654121E+02  0.78953276682E+02  0.00000000000E+00 0.  1.
         22    1    3    3    0    0 -0.57039400592E+00 -0.63362917011E+02 -0.46288661640E+02  0.78471808937E+02  0.00000000000E+00 0.  1.
</event>
<event>
 7    1  0.5139898E-006  0.5316762E+02  0.7818608E-02  0.1458242E+00
          2   -1    0    0  502    0  0.00000000000E+00  0.00000000000E+00  0.77839752065E+03  0.77839752065E+03  0.00000000000E+00 0. -1.
          1   -1    0    0  501    0 -0.00000000000E+00 -0.00000000000E+00 -0.68771249409E+03  0.68771249409E+03  0.00000000000E+00 0. -1.
         25    2    1    2    0    0  0.66408410450E+02  0.67985223508E+02  0.47463546446E+02  0.16404202384E+03  0.12499971900E+03 0.  0.
          2    1    1    2  501    0 -0.27820304332E+02 -0.32483142351E+02 -0.62767258148E+03  0.62912796267E+03  0.00000000000E+00 0. -1.
          1    1    1    2  502    0 -0.38588106118E+02 -0.35502081157E+02  0.67089406160E+03  0.67294002823E+03  0.00000000000E+00 0. -1.
         22    1    3    3    0    0  0.83220773688E+02 -0.28618056539E+01  0.16356549753E+02  0.84861203294E+02  0.00000000000E+00 0.  1.
         22    1    3    3    0    0 -0.16812363237E+02  0.70847029162E+02  0.31106996693E+02  0.79180820544E+02  0.00000000000E+00 0.  1.
</event>
<event>
 7    1  0.5139898E-006  0.8600949E+02  0.7818608E-02  0.1408072E+00
          2   -1    0    0  502    0  0.00000000000E+00  0.00000000000E+00  0.56948188177E+03  0.56948188177E+03  0.00000000000E+00 0. -1.
          1   -1    0    0  501    0 -0.00000000000E+00 -0.00000000000E+00 -0.89712352352E+02  0.89712352352E+02  0.00000000000E+00 0. -1.
         25    2    1    2    0    0  0.15724626871E+02  0.11201365255E+03  0.13122704203E+03  0.21363582023E+03  0.12500161950E+03 0.  0.
          2    1    1    2  501    0 -0.25311626656E+02 -0.29155117255E+02 -0.35568082486E+02  0.52495597890E+02  0.00000000000E+00 0. -1.
          1    1    1    2  502    0  0.95869997850E+01 -0.82858535295E+02  0.38411056987E+03  0.39306281600E+03  0.00000000000E+00 0. -1.
         22    1    3    3    0    0  0.50663048491E+02  0.10024044599E+03  0.47114211427E+02  0.12179753861E+03  0.00000000000E+00 0. -1.
         22    1    3    3    0    0 -0.34938421620E+02  0.11773206565E+02  0.84112830608E+02  0.91838281621E+02  0.00000000000E+00 0. -1.
</event>
<event>
 7    1  0.5139898E-006  0.1969130E+03  0.7818608E-02  0.1339977E+00
          2   -1    0    0  502    0  0.00000000000E+00  0.00000000000E+00  0.10679131825E+03  0.10679131825E+03  0.00000000000E+00 0. -1.
          1   -1    0    0  501    0 -0.00000000000E+00 -0.00000000000E+00 -0.10241206648E+04  0.10241206648E+04  0.00000000000E+00 0. -1.
         25    2    1    2    0    0 -0.15456972543E+03 -0.85830845282E+02 -0.23807552662E+03  0.32180928026E+03  0.12499008947E+03 0.  0.
          2    1    1    2  501    0  0.18407404891E+03  0.87341407942E+02 -0.72586502276E+03  0.75391764025E+03  0.00000000000E+00 0. -1.
          1    1    1    2  502    0 -0.29504323478E+02 -0.15105626605E+01  0.46611202802E+02  0.55185062564E+02  0.00000000000E+00 0. -1.
         22    1    3    3    0    0 -0.15877081724E+03 -0.94502858797E+02 -0.24714478100E+03  0.30857657964E+03  0.00000000000E+00 0. -1.
         22    1    3    3    0    0  0.42010918064E+01  0.86720135157E+01  0.90692543787E+01  0.13232700623E+02  0.00000000000E+00 0. -1.
</event>
<event>
 7    1  0.5139898E-006  0.7838192E+02  0.7818608E-02  0.1375310E+00
          2   -1    0    0  502    0  0.00000000000E+00  0.00000000000E+00  0.59194371988E+03  0.59194371988E+03  0.00000000000E+00 0. -1.
          1   -1    0    0  501    0 -0.00000000000E+00 -0.00000000000E+00 -0.37780285128E+04  0.37780285128E+04  0.00000000000E+00 0. -1.
         25    2    1    2    0    0  0.16875327072E+02  0.26757882520E+02 -0.65541533068E+03  0.66797820095E+03  0.12499944125E+03 0.  0.
          2    1    1    2  501    0 -0.12755305891E+02 -0.81695126723E+02 -0.31144862651E+04  0.31155836511E+04  0.00000000000E+00 0. -1.
          1    1    1    2  502    0 -0.41200211803E+01  0.54937244203E+02  0.58381680278E+03  0.58641038069E+03  0.00000000000E+00 0. -1.
         22    1    3    3    0    0 -0.34853313148E+02  0.16541241063E+02 -0.67845812894E+02  0.78047552303E+02  0.00000000000E+00 0. -1.
         22    1    3    3    0    0  0.51728640220E+02  0.10216641457E+02 -0.58756951779E+03  0.58993064865E+03  0.00000000000E+00 0. -1.
</event>
<event>
 7    1  0.5139898E-006  0.8353595E+02  0.7818608E-02  0.1323811E+00
          2   -1    0    0  502    0  0.00000000000E+00  0.00000000000E+00  0.54313361345E+03  0.54313361345E+03  0.00000000000E+00 0. -1.
          1   -1    0    0  501    0 -0.00000000000E+00 -0.00000000000E+00 -0.13700801651E+04  0.13700801651E+04  0.00000000000E+00 0. -1.
         25    2    1    2    0    0 -0.62509380631E+02  0.13712820759E+03 -0.30283833261E+03  0.36062151373E+03  0.12500100992E+03 0.  0.
          2    1    1    2  501    0  0.56552527268E+02 -0.57101091644E+02 -0.10336502198E+04  0.10367697430E+04  0.00000000000E+00 0. -1.
          1    1    1    2  502    0  0.59568533629E+01 -0.80027115951E+02  0.50954200082E+03  0.51582252180E+03  0.00000000000E+00 0. -1.
         22    1    3    3    0    0 -0.39625764570E+02  0.15903096543E+03 -0.24713094738E+03  0.29653794755E+03  0.00000000000E+00 0. -1.
         22    1    3    3    0    0 -0.22883616061E+02 -0.21902757840E+02 -0.55707385231E+02  0.64083566180E+02  0.00000000000E+00 0. -1.
</event>
<event>
 7    1  0.5139898E-006  0.1353069E+03  0.7818608E-02  0.1220054E+00
          2   -1    0    0  502    0  0.00000000000E+00  0.00000000000E+00  0.24697973640E+04  0.24697973640E+04  0.00000000000E+00 0. -1.
          1   -1    0    0  501    0 -0.00000000000E+00 -0.00000000000E+00 -0.20187510616E+03  0.20187510616E+03  0.00000000000E+00 0. -1.
         25    2    1    2    0    0  0.13774362876E+02  0.75675652414E+02  0.55598770702E+01  0.14687442839E+03  0.12499859216E+03 0.  0.
          2    1    1    2  501    0  0.12296387247E+03 -0.56460955363E+02 -0.93769917897E+02  0.16462305706E+03  0.00000000000E+00 0. -1.
          1    1    1    2  502    0 -0.13673823535E+03 -0.19214697051E+02  0.23561322986E+04  0.23601749847E+04  0.00000000000E+00 0. -1.
         22    1    3    3    0    0  0.11340561719E+02 -0.33742911982E+02  0.11101632999E+02  0.37288586784E+02  0.00000000000E+00 0.  1.
         22    1    3    3    0    0  0.24338011575E+01  0.10941856440E+03 -0.55417559285E+01  0.10958584161E+03  0.00000000000E+00 0.  1.
</event>
<event>
 7    1  0.5139898E-006  0.9356829E+02  0.7818608E-02  0.1402325E+00
          2   -1    0    0  502    0  0.00000000000E+00  0.00000000000E+00  0.12056120138E+04  0.12056120138E+04  0.00000000000E+00 0. -1.
          1   -1    0    0  501    0 -0.00000000000E+00 -0.00000000000E+00 -0.17866761707E+02  0.17866761707E+02  0.00000000000E+00 0. -1.
         25    2    1    2    0    0 -0.84334062269E+02  0.72122138800E+01  0.55612398245E+03  0.57624954234E+03  0.12500160441E+03 0.  0.
          2    1    1    2  501    0 -0.11293466562E+02 -0.35370815178E+02  0.10803210359E+03  0.11423472484E+03  0.00000000000E+00 0. -1.
          1    1    1    2  502    0  0.95627528831E+02  0.28158601298E+02  0.52358916608E+03  0.53299450835E+03  0.00000000000E+00 0. -1.
         22    1    3    3    0    0 -0.31912253565E+02  0.50648693663E+02  0.41793877800E+03  0.42220433945E+03  0.00000000000E+00 0. -1.
         22    1    3    3    0    0 -0.52421808704E+02 -0.43436479783E+02  0.13818520445E+03  0.15404520289E+03  0.00000000000E+00 0. -1.
</event>
<event>
 7    1  0.5139898E-006  0.1353447E+03  0.7818608E-02  0.1347670E+00
          2   -1    0    0  502    0  0.00000000000E+00  0.00000000000E+00  0.10842060104E+04  0.10842060104E+04  0.00000000000E+00 0. -1.
          1   -1    0    0  501    0 -0.00000000000E+00 -0.00000000000E+00 -0.12324947554E+03  0.12324947554E+03  0.00000000000E+00 0. -1.
         25    2    1    2    0    0 -0.26468921408E+02  0.11325490584E+03  0.44547023499E+03  0.47707058390E+03  0.12500133705E+03 0.  0.
          2    1    1    2  501    0 -0.34883059160E+02  0.20034135169E+02 -0.94654917682E+02  0.10284817854E+03  0.00000000000E+00 0. -1.
          1    1    1    2  502    0  0.61351980567E+02 -0.13328904101E+03  0.61014121759E+03  0.62753672353E+03  0.00000000000E+00 0. -1.
         22    1    3    3    0    0 -0.67812313091E+02  0.25973310625E+02  0.16004052604E+03  0.17574439578E+03  0.00000000000E+00 0.  1.
         22    1    3    3    0    0  0.41343391683E+02  0.87281595212E+02  0.28542970894E+03  0.30132618812E+03  0.00000000000E+00 0.  1.
</event>
<event>
 7    1  0.5139898E-006  0.4524158E+02  0.7818608E-02  0.1506392E+00
          2   -1    0    0  502    0  0.00000000000E+00  0.00000000000E+00  0.38884250815E+03  0.38884250815E+03  0.00000000000E+00 0. -1.
          1   -1    0    0  501    0 -0.00000000000E+00 -0.00000000000E+00 -0.93370831772E+03  0.93370831772E+03  0.00000000000E+00 0. -1.
         25    2    1    2    0    0 -0.60294012364E+02  0.23865724021E+02 -0.50410117039E+03  0.52340010595E+03  0.12499896083E+03 0.  0.
          2    1    1    2  501    0  0.43224204339E+02  0.76097365642E+01 -0.41796083322E+03  0.42025884647E+03  0.00000000000E+00 0. -1.
          1    1    1    2  502    0  0.17069808025E+02 -0.31475460585E+02  0.37719619404E+03  0.37889187344E+03  0.00000000000E+00 0. -1.
         22    1    3    3    0    0  0.29327583746E+02  0.40103374158E+02 -0.17103275785E+03  0.17810275698E+03  0.00000000000E+00 0.  1.
         22    1    3    3    0    0 -0.89621596110E+02 -0.16237650137E+02 -0.33306841254E+03  0.34529734896E+03  0.00000000000E+00 0.  1.
</event>
<event>
 7    1  0.5139898E-006  0.6325487E+02  0.7818608E-02  0.1475131E+00
          2   -1    0    0  502    0  0.00000000000E+00  0.00000000000E+00  0.10069394932E+04  0.10069394932E+04  0.00000000000E+00 0. -1.
          1   -1    0    0  501    0 -0.00000000000E+00 -0.00000000000E+00 -0.19419492217E+02  0.19419492217E+02  0.00000000000E+00 0. -1.
         25    2    1    2    0    0  0.33799731582E+02  0.52517562438E+02  0.52645582951E+03  0.54468415525E+03  0.12499828933E+03 0.  0.
          2    1    1    2  501    0  0.23461825461E+02 -0.21516150382E+02  0.24208972281E+02  0.39993453466E+02  0.00000000000E+00 0. -1.
          1    1    1    2  502    0 -0.57261557043E+02 -0.31001412056E+02  0.43685519917E+03  0.44168137668E+03  0.00000000000E+00 0. -1.
         22    1    3    3    0    0 -0.39033431473E+02  0.24081234872E+02  0.87220248607E+02  0.98543829906E+02  0.00000000000E+00 0.  1.
         22    1    3    3    0    0  0.72833163054E+02  0.28436327566E+02  0.43923558091E+03  0.44614032535E+03  0.00000000000E+00 0.  1.
</event>
<event>
 7    1  0.5139898E-006  0.4641755E+02  0.7818608E-02  0.1592593E+00
          2   -1    0    0  502    0  0.00000000000E+00  0.00000000000E+00  0.12908855070E+04  0.12908855070E+04  0.00000000000E+00 0. -1.
          1   -1    0    0  501    0 -0.00000000000E+00 -0.00000000000E+00 -0.10011389546E+03  0.10011389546E+03  0.00000000000E+00 0. -1.
         25    2    1    2    0    0  0.16290184903E+02  0.45091014858E+02  0.44515362718E+03  0.46484896957E+03  0.12499697186E+03 0.  0.
          2    1    1    2  501    0  0.16240879802E+02 -0.11748978113E+02 -0.88495448740E+02  0.90737253160E+02  0.00000000000E+00 0. -1.
          1    1    1    2  502    0 -0.32531064705E+02 -0.33342036745E+02  0.83411343309E+03  0.83541317972E+03  0.00000000000E+00 0. -1.
         22    1    3    3    0    0  0.27011245904E+02  0.12684363292E+02  0.15102395617E+02  0.33445221344E+02  0.00000000000E+00 0. -1.
         22    1    3    3    0    0 -0.10721061001E+02  0.32406651566E+02  0.43005123157E+03  0.43140374823E+03  0.00000000000E+00 0. -1.
</event>
<event>
 7    1  0.5139898E-006  0.2104432E+03  0.7818608E-02  0.1152208E+00
          2   -1    0    0  502    0  0.00000000000E+00  0.00000000000E+00  0.17869137828E+04  0.17869137828E+04  0.00000000000E+00 0. -1.
          1   -1    0    0  501    0 -0.00000000000E+00 -0.00000000000E+00 -0.46289936904E+03  0.46289936904E+03  0.00000000000E+00 0. -1.
         25    2    1    2    0    0  0.21534601367E+02 -0.71854161529E+02  0.10217992649E+03  0.17802283885E+03  0.12499853676E+03 0.  0.
          2    1    1    2  501    0 -0.77258272999E+02 -0.16766069254E+03 -0.39518617848E+03  0.43617778970E+03  0.00000000000E+00 0. -1.
          1    1    1    2  502    0  0.55723671632E+02  0.23951485407E+03  0.16170206657E+04  0.16356125233E+04  0.00000000000E+00 0. -1.
         22    1    3    3    0    0  0.45351412171E+02 -0.24392959757E+02 -0.11311264685E+02  0.52722972037E+02  0.00000000000E+00 0. -1.
         22    1    3    3    0    0 -0.23816810804E+02 -0.47461201771E+02  0.11349119117E+03  0.12529986682E+03  0.00000000000E+00 0. -1.
</event>
<event>
 7    1  0.5139898E-006  0.2119190E+03  0.7818608E-02  0.1279296E+00
          2   -1    0    0  502    0  0.00000000000E+00  0.00000000000E+00  0.22248052725E+03  0.22248052725E+03  0.00000000000E+00 0. -1.
          1   -1    0    0  501    0 -0.00000000000E+00 -0.00000000000E+00 -0.40728421922E+03  0.40728421922E+03  0.00000000000E+00 0. -1.
         25    2    1    2    0    0 -0.12806429786E+03  0.12813104990E+03 -0.44104177870E+02  0.22447130032E+03  0.12499662327E+03 0.  0.
          2    1    1    2  501    0  0.15901592843E+03 -0.16434528295E+03 -0.21705802096E+03  0.31529291458E+03  0.00000000000E+00 0. -1.
          1    1    1    2  502    0 -0.30951630571E+02  0.36214233050E+02  0.76358506868E+02  0.90000531563E+02  0.00000000000E+00 0. -1.
         22    1    3    3    0    0  0.65350288676E+01  0.71347022940E+02 -0.30109889181E+02  0.77715569297E+02  0.00000000000E+00 0.  1.
         22    1    3    3    0    0 -0.13459932673E+03  0.56784026961E+02 -0.13994288690E+02  0.14675573103E+03  0.00000000000E+00 0.  1.
</event>
<event>
 7    1  0.5139898E-006  0.6924220E+02  0.7818608E-02  0.1363567E+00
          2   -1    0    0  502    0  0.00000000000E+00  0.00000000000E+00  0.13637418689E+03  0.13637418689E+03  0.00000000000E+00 0. -1.
          1   -1    0    0  501    0 -0.00000000000E+00 -0.00000000000E+00 -0.96364244843E+03  0.96364244843E+03  0.00000000000E+00 0. -1.
         25    2    1    2    0    0 -0.89868218866E+01  0.46094294556E+02 -0.31158062139E+02  0.13711960045E+03  0.12500205212E+03 0.  0.
          2    1    1    2  501    0 -0.59640170063E+02 -0.36884648076E+02 -0.86345988556E+03  0.86630271910E+03  0.00000000000E+00 0. -1.
          1    1    1    2  502    0  0.68626991950E+02 -0.92096464805E+01  0.67349686158E+02  0.96594315765E+02  0.00000000000E+00 0. -1.
         22    1    3    3    0    0 -0.18226031673E+01  0.84810611914E+02  0.31603290579E+01  0.84889042021E+02  0.00000000000E+00 0. -1.
         22    1    3    3    0    0 -0.71642187193E+01 -0.38716317358E+02 -0.34318391197E+02  0.52230558430E+02  0.00000000000E+00 0. -1.
</event>
<event>
 7    1  0.6166180E-006  0.1990527E+03  0.7818608E-02  0.1163150E+00
          2   -1    0    0  502    0  0.00000000000E+00  0.00000000000E+00  0.25877454301E+04  0.25877454301E+04  0.00000000000E+00 0. -1.
          1   -1    0    0  501    0 -0.00000000000E+00 -0.00000000000E+00 -0.15040812696E+04  0.15040812696E+04  0.00000000000E+00 0. -1.
         25    2    1    2    0    0  0.36056023962E+02 -0.36058839836E+01 -0.64003686067E+02  0.14502728573E+03  0.12499360989E+03 0.  0.
          2    1    1    2  501    0  0.15079017405E+03 -0.82201250800E+02 -0.13901238652E+04  0.14006923583E+04  0.00000000000E+00 0. -1.
          1    1    1    2  502    0 -0.18684619801E+03  0.85807134784E+02  0.25377917118E+04  0.25461070556E+04  0.00000000000E+00 0. -1.
         22    1    3    3    0    0  0.11123239442E+02  0.21656378547E+02  0.33415262959E+02  0.41343741800E+02  0.00000000000E+00 0. -1.
         22    1    3    3    0    0  0.24932784520E+02 -0.25262262531E+02 -0.97418949026E+02  0.10368354393E+03  0.00000000000E+00 0. -1.
</event>
<event>
 7    1  0.5139898E-006  0.9738088E+02  0.7818608E-02  0.1428926E+00
          2   -1    0    0  502    0  0.00000000000E+00  0.00000000000E+00  0.17715009916E+03  0.17715009916E+03  0.00000000000E+00 0. -1.
          1   -1    0    0  501    0 -0.00000000000E+00 -0.00000000000E+00 -0.87749518395E+03  0.87749518395E+03  0.00000000000E+00 0. -1.
         25    2    1    2    0    0  0.92193749642E+02  0.27961870510E+02  0.94197981972E+02  0.18378845601E+03  0.12499353215E+03 0.  0.
          2    1    1    2  501    0 -0.80736336655E+02 -0.54643638021E+02 -0.82385136819E+03  0.82959951790E+03  0.00000000000E+00 0. -1.
          1    1    1    2  502    0 -0.11457412987E+02  0.26681767511E+02  0.29308301423E+02  0.41257309197E+02  0.00000000000E+00 0. -1.
         22    1    3    3    0    0 -0.18755116643E+01 -0.23568158238E+02 -0.17131251635E+02  0.29196839029E+02  0.00000000000E+00 0. -1.
         22    1    3    3    0    0  0.94069261306E+02  0.51530028748E+02  0.11132923361E+03  0.15459161698E+03  0.00000000000E+00 0. -1.
</event>
<event>
 7    1  0.5139898E-006  0.8165498E+02  0.7818608E-02  0.1357796E+00
          2   -1    0    0  502    0  0.00000000000E+00  0.00000000000E+00  0.15644791140E+04  0.15644791140E+04  0.00000000000E+00 0. -1.
          1   -1    0    0  501    0 -0.00000000000E+00 -0.00000000000E+00 -0.43807063711E+02  0.43807063711E+02  0.00000000000E+00 0. -1.
         25    2    1    2    0    0  0.88603991886E+02  0.27944347232E+02  0.69852201680E+03  0.71567327536E+03  0.12499470063E+03 0.  0.
          2    1    1    2  501    0 -0.43850710740E+02 -0.69659423642E+02  0.15639158047E+02  0.83784863782E+02  0.00000000000E+00 0. -1.
          1    1    1    2  502    0 -0.44753281146E+02  0.41715076409E+02  0.80651087540E+03  0.80882803852E+03  0.00000000000E+00 0. -1.
         22    1    3    3    0    0 -0.38163639967E+01  0.48472114683E+02  0.12033811466E+03  0.12978972369E+03  0.00000000000E+00 0. -1.
         22    1    3    3    0    0  0.92420355883E+02 -0.20527767451E+02  0.57818390215E+03  0.58588355167E+03  0.00000000000E+00 0. -1.
</event>
<event>
 7    1  0.5139898E-006  0.2842942E+03  0.7818608E-02  0.1229822E+00
          2   -1    0    0  502    0  0.00000000000E+00  0.00000000000E+00  0.11567930596E+04  0.11567930596E+04  0.00000000000E+00 0. -1.
          1   -1    0    0  501    0 -0.00000000000E+00 -0.00000000000E+00 -0.19133851457E+04  0.19133851457E+04  0.00000000000E+00 0. -1.
         25    2    1    2    0    0  0.29908331109E+03 -0.11801084611E+03  0.67534425380E+03  0.75834838325E+03  0.12500008988E+03 0.  0.
          2    1    1    2  501    0 -0.24602156190E+03  0.14144818441E+03 -0.18591559818E+04  0.18806900761E+04  0.00000000000E+00 0. -1.
          1    1    1    2  502    0 -0.53061749186E+02 -0.23437338306E+02  0.42721964188E+03  0.43113974586E+03  0.00000000000E+00 0. -1.
         22    1    3    3    0    0  0.23851792294E+03 -0.12648589075E+03  0.44928153802E+03  0.52415968991E+03  0.00000000000E+00 0.  1.
         22    1    3    3    0    0  0.60565388156E+02  0.84750446426E+01  0.22606271578E+03  0.23418869335E+03  0.00000000000E+00 0.  1.
</event>
<event>
 7    1  0.5139898E-006  0.6573329E+02  0.7818608E-02  0.1379643E+00
          2   -1    0    0  502    0  0.00000000000E+00  0.00000000000E+00  0.14715168164E+04  0.14715168164E+04  0.00000000000E+00 0. -1.
          1   -1    0    0  501    0 -0.00000000000E+00 -0.00000000000E+00 -0.10591961357E+03  0.10591961357E+03  0.00000000000E+00 0. -1.
         25    2    1    2    0    0 -0.33996861764E+02  0.21230496087E+02  0.53143341071E+03  0.54740200377E+03  0.12498385155E+03 0.  0.
          2    1    1    2  501    0  0.43410252814E+02  0.49360055140E+02 -0.85371352395E+02  0.10774568624E+03  0.00000000000E+00 0. -1.
          1    1    1    2  502    0 -0.94133910503E+01 -0.70590551227E+02  0.91953514456E+03  0.92228874000E+03  0.00000000000E+00 0. -1.
         22    1    3    3    0    0  0.99399975539E+01  0.30814420078E+02  0.47080085719E+03  0.47191289362E+03  0.00000000000E+00 0. -1.
         22    1    3    3    0    0 -0.43936859318E+02 -0.95839239905E+01  0.60632553513E+02  0.75489110150E+02  0.00000000000E+00 0. -1.
</event>
<event>
 7    1  0.5139898E-006  0.6202458E+02  0.7818608E-02  0.1486686E+00
          2   -1    0    0  502    0  0.00000000000E+00  0.00000000000E+00  0.24578133763E+04  0.24578133763E+04  0.00000000000E+00 0. -1.
          1   -1    0    0  501    0 -0.00000000000E+00 -0.00000000000E+00 -0.40383734707E+03  0.40383734707E+03  0.00000000000E+00 0. -1.
         25    2    1    2    0    0  0.21390614509E+02 -0.46969697720E+02  0.73734499917E+03  0.74964503025E+03  0.12500525063E+03 0.  0.
          2    1    1    2  501    0  0.45349350753E+01  0.61913235533E+02 -0.39513312588E+03  0.39998000142E+03  0.00000000000E+00 0. -1.
          1    1    1    2  502    0 -0.25925549584E+02 -0.14943537813E+02  0.17117641560E+04  0.17120256917E+04  0.00000000000E+00 0. -1.
         22    1    3    3    0    0 -0.44346983907E+01 -0.87188093425E+02  0.45972770854E+03  0.46794336857E+03  0.00000000000E+00 0. -1.
         22    1    3    3    0    0  0.25825312899E+02  0.40218395705E+02  0.27761729063E+03  0.28170166168E+03  0.00000000000E+00 0. -1.
</event>
<event>
 7    1  0.5139898E-006  0.6435602E+02  0.7818608E-02  0.1537131E+00
          2   -1    0    0  502    0  0.00000000000E+00  0.00000000000E+00  0.83575670790E+03  0.83575670790E+03  0.00000000000E+00 0. -1.
          1   -1    0    0  501    0 -0.00000000000E+00 -0.00000000000E+00 -0.68534141052E+02  0.68534141052E+02  0.00000000000E+00 0. -1.
         25    2    1    2    0    0 -0.38159667024E+02 -0.43004785605E+02  0.47906416022E+03  0.49843002270E+03  0.12499778458E+03 0.  0.
          2    1    1    2  501    0  0.25780508908E+02  0.59350640614E+02 -0.40647862694E+02  0.76415848634E+02  0.00000000000E+00 0. -1.
          1    1    1    2  502    0  0.12379158116E+02 -0.16345855009E+02  0.32880626933E+03  0.32944497762E+03  0.00000000000E+00 0. -1.
         22    1    3    3    0    0 -0.69333056329E+02 -0.66581853745E+02  0.29516619853E+03  0.31042438806E+03  0.00000000000E+00 0. -1.
         22    1    3    3    0    0  0.31173389305E+02  0.23577068140E+02  0.18389796169E+03  0.18800563464E+03  0.00000000000E+00 0. -1.
</event>
<event>
 7    1  0.5139898E-006  0.6115018E+02  0.7818608E-02  0.1471209E+00
          2   -1    0    0  502    0  0.00000000000E+00  0.00000000000E+00  0.18105225941E+03  0.18105225941E+03  0.00000000000E+00 0. -1.
          1   -1    0    0  501    0 -0.00000000000E+00 -0.00000000000E+00 -0.31067457115E+03  0.31067457115E+03  0.00000000000E+00 0. -1.
         25    2    1    2    0    0 -0.15446631958E+02 -0.88907583175E+02 -0.12735509579E+03  0.19996996668E+03  0.12500204144E+03 0.  0.
          2    1    1    2  501    0  0.13497198090E+02  0.55099988440E+02 -0.13940200078E+03  0.15050282690E+03  0.00000000000E+00 0. -1.
          1    1    1    2  502    0  0.19494338675E+01  0.33807594735E+02  0.13713478483E+03  0.14125403698E+03  0.00000000000E+00 0. -1.
         22    1    3    3    0    0  0.27351689806E+02 -0.87845567922E+02 -0.12741198597E+03  0.15715843250E+03  0.00000000000E+00 0.  1.
         22    1    3    3    0    0 -0.42798321764E+02 -0.10620152527E+01  0.56890173898E-01  0.42811534178E+02  0.00000000000E+00 0.  1.
</event>
<event>
 7    1  0.5139898E-006  0.3251570E+02  0.7818608E-02  0.1586201E+00
          2   -1    0    0  502    0  0.00000000000E+00  0.00000000000E+00  0.71100755055E+03  0.71100755055E+03  0.00000000000E+00 0. -1.
          1   -1    0    0  501    0 -0.00000000000E+00 -0.00000000000E+00 -0.30433411118E+03  0.30433411118E+03  0.00000000000E+00 0. -1.
         25    2    1    2    0    0 -0.21971902338E+02  0.43644724018E+02 -0.53603670453E+02  0.14450323009E+03  0.12498081290E+03 0.  0.
          2    1    1    2  501    0  0.28784457457E+02 -0.14682481659E+02 -0.20367386841E+03  0.20622115539E+03  0.00000000000E+00 0. -1.
          1    1    1    2  502    0 -0.68125551191E+01 -0.28962242359E+02  0.66395097823E+03  0.66461727625E+03  0.00000000000E+00 0. -1.
         22    1    3    3    0    0  0.46264547815E+02  0.38499838188E+02 -0.46543593002E+01  0.60368112323E+02  0.00000000000E+00 0.  1.
         22    1    3    3    0    0 -0.68236450153E+02  0.51448858305E+01 -0.48949311153E+02  0.84135117769E+02  0.00000000000E+00 0.  1.
</event>
<event>
 7    1  0.5139898E-006  0.7713630E+02  0.7818608E-02  0.1472649E+00
          2   -1    0    0  502    0  0.00000000000E+00  0.00000000000E+00  0.74436971233E+03  0.74436971233E+03  0.00000000000E+00 0. -1.
          1   -1    0    0  501    0 -0.00000000000E+00 -0.00000000000E+00 -0.53128922043E+03  0.53128922043E+03  0.00000000000E+00 0. -1.
         25    2    1    2    0    0 -0.42705363979E+02  0.72270903506E+02 -0.91137544921E+02  0.17599670896E+03  0.12498783086E+03 0.  0.
          2    1    1    2  501    0 -0.15427720196E+02 -0.21633167919E+02 -0.39515772848E+03  0.39605004594E+03  0.00000000000E+00 0. -1.
          1    1    1    2  502    0  0.58133084175E+02 -0.50637735587E+02  0.69937576530E+03  0.70361217786E+03  0.00000000000E+00 0. -1.
         22    1    3    3    0    0 -0.86868604887E+02  0.48738603104E+02 -0.69614868532E+02  0.12152298494E+03  0.00000000000E+00 0. -1.
         22    1    3    3    0    0  0.44163240908E+02  0.23532300401E+02 -0.21522676390E+02  0.54473724020E+02  0.00000000000E+00 0. -1.
</event>
<event>
 7    1  0.5139898E-006  0.6695501E+02  0.7818608E-02  0.1379391E+00
          2   -1    0    0  502    0  0.00000000000E+00  0.00000000000E+00  0.86209052368E+03  0.86209052368E+03  0.00000000000E+00 0. -1.
          1   -1    0    0  501    0 -0.00000000000E+00 -0.00000000000E+00 -0.92620234718E+02  0.92620234718E+02  0.00000000000E+00 0. -1.
         25    2    1    2    0    0 -0.10961896386E+02 -0.49432764202E+02  0.39118297677E+03  0.41378055011E+03  0.12500584379E+03 0.  0.
          2    1    1    2  501    0 -0.59559666156E+02  0.18526682738E+02 -0.65538022196E+02  0.90475544537E+02  0.00000000000E+00 0. -1.
          1    1    1    2  502    0  0.70521562543E+02  0.30906081464E+02  0.44382533439E+03  0.45045466376E+03  0.00000000000E+00 0. -1.
         22    1    3    3    0    0  0.10156236855E+02 -0.41783825706E+02  0.38882606272E+03  0.39119655454E+03  0.00000000000E+00 0. -1.
         22    1    3    3    0    0 -0.21118133241E+02 -0.76489384962E+01  0.23569140527E+01  0.22583995562E+02  0.00000000000E+00 0. -1.
</event>
<event>
 7    1  0.5139898E-006  0.2968387E+02  0.7818608E-02  0.1663041E+00
          2   -1    0    0  502    0  0.00000000000E+00  0.00000000000E+00  0.11683618707E+04  0.11683618707E+04  0.00000000000E+00 0. -1.
          1   -1    0    0  501    0 -0.00000000000E+00 -0.00000000000E+00 -0.25888021110E+02  0.25888021110E+02  0.00000000000E+00 0. -1.
         25    2    1    2    0    0  0.20986430213E+01 -0.97126865377E+01  0.53202398477E+03  0.54660197898E+03  0.12500184988E+03 0.  0.
          2    1    1    2  501    0  0.20456130085E+01 -0.20716950802E+02 -0.12274382097E+02  0.24166858277E+02  0.00000000000E+00 0. -1.
          1    1    1    2  502    0 -0.41442560298E+01  0.30429637340E+02  0.62272424696E+03  0.62348105459E+03  0.00000000000E+00 0. -1.
         22    1    3    3    0    0 -0.15456536658E+02 -0.46202429239E+02  0.47007403179E+03  0.47259196391E+03  0.00000000000E+00 0.  1.
         22    1    3    3    0    0  0.17555179679E+02  0.36489742701E+02  0.61949952978E+02  0.74010015065E+02  0.00000000000E+00 0.  1.
</event>
<event>
 7    1  0.5139898E-006  0.5813977E+02  0.7818608E-02  0.1440012E+00
          2   -1    0    0  502    0  0.00000000000E+00  0.00000000000E+00  0.16917676676E+04  0.16917676676E+04  0.00000000000E+00 0. -1.
          1   -1    0    0  501    0 -0.00000000000E+00 -0.00000000000E+00 -0.97174860228E+02  0.97174860228E+02  0.00000000000E+00 0. -1.
         25    2    1    2    0    0  0.25586080678E+02 -0.62766469128E+02  0.94277004427E+02  0.17060786504E+03  0.12499845151E+03 0.  0.
          2    1    1    2  501    0  0.26249640158E+02  0.36230304229E+02 -0.49903114027E+02  0.67022379415E+02  0.00000000000E+00 0. -1.
          1    1    1    2  502    0 -0.51835720836E+02  0.26536164899E+02  0.15502189170E+04  0.15513122834E+04  0.00000000000E+00 0. -1.
         22    1    3    3    0    0 -0.63097626134E+01 -0.92747672733E+02  0.84778232509E+02  0.12581451669E+03  0.00000000000E+00 0. -1.
         22    1    3    3    0    0  0.31895843292E+02  0.29981203605E+02  0.94987719184E+01  0.44793348355E+02  0.00000000000E+00 0. -1.
</event>
<event>
 7    1  0.5139898E-006  0.1431711E+03  0.7818608E-02  0.1253066E+00
          2   -1    0    0  502    0  0.00000000000E+00  0.00000000000E+00  0.36142974026E+03  0.36142974026E+03  0.00000000000E+00 0. -1.
          1   -1    0    0  501    0 -0.00000000000E+00 -0.00000000000E+00 -0.54813235818E+03  0.54813235818E+03  0.00000000000E+00 0. -1.
         25    2    1    2    0    0 -0.13770661166E+02  0.18373256750E+03  0.66513743310E+02  0.23237150675E+03  0.12500060652E+03 0.  0.
          2    1    1    2  501    0  0.69252927396E+02 -0.59060922626E+02 -0.43806984902E+03  0.44742524868E+03  0.00000000000E+00 0. -1.
          1    1    1    2  502    0 -0.55482266230E+02 -0.12467164487E+03  0.18485348779E+03  0.22976534301E+03  0.00000000000E+00 0. -1.
         22    1    3    3    0    0  0.55189315212E+02  0.97605279566E+02  0.38295345630E+02  0.11848706516E+03  0.00000000000E+00 0.  1.
         22    1    3    3    0    0 -0.68959976378E+02  0.86127287933E+02  0.28218397680E+02  0.11388444159E+03  0.00000000000E+00 0.  1.
</event>
<event>
 7    1  0.5139898E-006  0.2548957E+02  0.7818608E-02  0.1675845E+00
          2   -1    0    0  502    0  0.00000000000E+00  0.00000000000E+00  0.14788088031E+04  0.14788088031E+04  0.00000000000E+00 0. -1.
          1   -1    0    0  501    0 -0.00000000000E+00 -0.00000000000E+00 -0.28934462440E+02  0.28934462440E+02  0.00000000000E+00 0. -1.
         25    2    1    2    0    0 -0.18892820685E+02  0.21379449386E+02  0.44549856817E+03  0.46358068156E+03  0.12499621813E+03 0.  0.
          2    1    1    2  501    0  0.25609183276E+02  0.19038567313E+00 -0.11473196407E+02  0.28062443774E+02  0.00000000000E+00 0. -1.
          1    1    1    2  502    0 -0.67163625908E+01 -0.21569835059E+02  0.10158489689E+04  0.10161001402E+04  0.00000000000E+00 0. -1.
         22    1    3    3    0    0  0.10856864809E+01 -0.19131852882E+02  0.39640814532E+03  0.39687104226E+03  0.00000000000E+00 0. -1.
         22    1    3    3    0    0 -0.19978507166E+02  0.40511302268E+02  0.49090422848E+02  0.66709639299E+02  0.00000000000E+00 0. -1.
</event>
<event>
 7    1  0.5139898E-006  0.7529358E+02  0.7818608E-02  0.1389340E+00
          2   -1    0    0  502    0  0.00000000000E+00  0.00000000000E+00  0.19424580055E+04  0.19424580055E+04  0.00000000000E+00 0. -1.
          1   -1    0    0  501    0 -0.00000000000E+00 -0.00000000000E+00 -0.16649450124E+04  0.16649450124E+04  0.00000000000E+00 0. -1.
         25    2    1    2    0    0 -0.26247514045E+02 -0.83657011451E+01  0.16088164990E+03  0.20558995371E+03  0.12500162735E+03 0.  0.
          2    1    1    2  501    0 -0.38142156991E+02 -0.34111756713E+02 -0.16413463454E+04  0.16421438005E+04  0.00000000000E+00 0. -1.
          1    1    1    2  502    0  0.64389671036E+02  0.42477457858E+02  0.17579776885E+04  0.17596692637E+04  0.00000000000E+00 0. -1.
         22    1    3    3    0    0 -0.59458120772E+02 -0.40646617771E+02  0.13376164911E+03  0.15191969732E+03  0.00000000000E+00 0. -1.
         22    1    3    3    0    0  0.33210606726E+02  0.32280916626E+02  0.27120000792E+02  0.53670256384E+02  0.00000000000E+00 0. -1.
</event>
<event>
 7    1  0.5139898E-006  0.5987518E+02  0.7818608E-02  0.1439059E+00
          2   -1    0    0  502    0  0.00000000000E+00  0.00000000000E+00  0.28473781990E+03  0.28473781990E+03  0.00000000000E+00 0. -1.
          1   -1    0    0  501    0 -0.00000000000E+00 -0.00000000000E+00 -0.24452557855E+03  0.24452557855E+03  0.00000000000E+00 0. -1.
         25    2    1    2    0    0 -0.10275848833E+02 -0.96212164880E+02  0.61541966589E+02  0.16963120915E+03  0.12499983891E+03 0.  0.
          2    1    1    2  501    0  0.22308972366E+02  0.54145284022E+02 -0.18300217101E+03  0.19214368745E+03  0.00000000000E+00 0. -1.
          1    1    1    2  502    0 -0.12033123534E+02  0.42066880858E+02  0.16167244578E+03  0.16748850185E+03  0.00000000000E+00 0. -1.
         22    1    3    3    0    0 -0.52029939685E+02 -0.86239976227E+00  0.33288752028E+02  0.61773775735E+02  0.00000000000E+00 0. -1.
         22    1    3    3    0    0  0.41754090852E+02 -0.95349765117E+02  0.28253214562E+02  0.10785743342E+03  0.00000000000E+00 0. -1.
</event>
<event>
 7    1  0.5139898E-006  0.1453773E+03  0.7818608E-02  0.1335250E+00
          2   -1    0    0  502    0  0.00000000000E+00  0.00000000000E+00  0.75947771627E+03  0.75947771627E+03  0.00000000000E+00 0. -1.
          1   -1    0    0  501    0 -0.00000000000E+00 -0.00000000000E+00 -0.53936298191E+03  0.53936298191E+03  0.00000000000E+00 0. -1.
         25    2    1    2    0    0  0.17039494313E+03 -0.75866838570E+01 -0.26640997635E+03  0.34013330846E+03  0.12499759039E+03 0.  0.
          2    1    1    2  501    0 -0.27496474685E+02  0.31342906188E+02 -0.22691294874E+03  0.23071176865E+03  0.00000000000E+00 0. -1.
          1    1    1    2  502    0 -0.14289846845E+03 -0.23756222331E+02  0.71343765945E+03  0.72799562108E+03  0.00000000000E+00 0. -1.
         22    1    3    3    0    0  0.10469050148E+03 -0.61212868864E+02 -0.11804570721E+03  0.16923919583E+03  0.00000000000E+00 0. -1.
         22    1    3    3    0    0  0.65704441651E+02  0.53626185007E+02 -0.14836426915E+03  0.17089411263E+03  0.00000000000E+00 0. -1.
</event>
<event>
 7    1  0.5139898E-006  0.8831294E+02  0.7818608E-02  0.1484849E+00
          2   -1    0    0  502    0  0.00000000000E+00  0.00000000000E+00  0.25727095827E+03  0.25727095827E+03  0.00000000000E+00 0. -1.
          1   -1    0    0  501    0 -0.00000000000E+00 -0.00000000000E+00 -0.46261145586E+03  0.46261145586E+03  0.00000000000E+00 0. -1.
         25    2    1    2    0    0 -0.36216352983E+02 -0.93438187305E+02  0.16669485592E+03  0.23120089620E+03  0.12499744135E+03 0.  0.
          2    1    1    2  501    0  0.46506867297E+02  0.74801801674E+02 -0.42372322312E+03  0.43278120112E+03  0.00000000000E+00 0. -1.
          1    1    1    2  502    0 -0.10290514314E+02  0.18636385631E+02  0.51687869612E+02  0.55900316808E+02  0.00000000000E+00 0. -1.
         22    1    3    3    0    0  0.14178153758E+02  0.26045064257E+02  0.22154679871E+02  0.37016148588E+02  0.00000000000E+00 0. -1.
         22    1    3    3    0    0 -0.50394506740E+02 -0.11948325156E+03  0.14454017605E+03  0.19418474761E+03  0.00000000000E+00 0. -1.
</event>
<event>
 7    1  0.5139898E-006  0.7848109E+02  0.7818608E-02  0.1413467E+00
          2   -1    0    0  502    0  0.00000000000E+00  0.00000000000E+00  0.80999185045E+03  0.80999185045E+03  0.00000000000E+00 0. -1.
          1   -1    0    0  501    0 -0.00000000000E+00 -0.00000000000E+00 -0.22084870605E+03  0.22084870605E+03  0.00000000000E+00 0. -1.
         25    2    1    2    0    0 -0.17617577662E+02 -0.90735498827E+02 -0.48163261742E+02  0.16275295137E+03  0.12500205441E+03 0.  0.
          2    1    1    2  501    0  0.45983847600E+02  0.61729357164E+02 -0.10193529237E+03  0.12773343966E+03  0.00000000000E+00 0. -1.
          1    1    1    2  502    0 -0.28366269938E+02  0.29006141663E+02  0.73924169851E+03  0.74035416548E+03  0.00000000000E+00 0. -1.
         22    1    3    3    0    0 -0.27191093095E+02 -0.11291098535E+03 -0.86738417085E+01  0.11646236167E+03  0.00000000000E+00 0. -1.
         22    1    3    3    0    0  0.95735154334E+01  0.22175486520E+02 -0.39489420033E+02  0.46290589699E+02  0.00000000000E+00 0. -1.
</event>
<event>
 7    1  0.5139898E-006  0.6742744E+02  0.7818608E-02  0.1398346E+00
          2   -1    0    0  502    0  0.00000000000E+00  0.00000000000E+00  0.17476242930E+04  0.17476242930E+04  0.00000000000E+00 0. -1.
          1   -1    0    0  501    0 -0.00000000000E+00 -0.00000000000E+00 -0.24914682822E+03  0.24914682822E+03  0.00000000000E+00 0. -1.
         25    2    1    2    0    0  0.30633286508E+02  0.38005705283E+02  0.93760659883E+03  0.94716117530E+03  0.12500130378E+03 0.  0.
          2    1    1    2  501    0  0.14558574250E+02 -0.66024964721E+02 -0.23879305462E+03  0.24818011803E+03  0.00000000000E+00 0. -1.
          1    1    1    2  502    0 -0.45191860759E+02  0.28019259437E+02  0.79966392059E+03  0.80142982792E+03  0.00000000000E+00 0. -1.
         22    1    3    3    0    0  0.13102841061E+02 -0.72652561693E+01  0.81718433888E+03  0.81732166991E+03  0.00000000000E+00 0.  1.
         22    1    3    3    0    0  0.17530445447E+02  0.45270961453E+02  0.12042225995E+03  0.12983950539E+03  0.00000000000E+00 0.  1.
</event>
<event>
 7    1  0.5139898E-006  0.1076104E+03  0.7818608E-02  0.1422828E+00
          2   -1    0    0  502    0  0.00000000000E+00  0.00000000000E+00  0.56445056462E+03  0.56445056462E+03  0.00000000000E+00 0. -1.
          1   -1    0    0  501    0 -0.00000000000E+00 -0.00000000000E+00 -0.38666465617E+03  0.38666465617E+03  0.00000000000E+00 0. -1.
         25    2    1    2    0    0  0.46473942608E+02 -0.12563935910E+03 -0.67728049611E+02  0.19533959324E+03  0.12500156833E+03 0.  0.
          2    1    1    2  501    0 -0.82397010958E+01  0.26265915722E+02 -0.24870163746E+03  0.25022049372E+03  0.00000000000E+00 0. -1.
          1    1    1    2  502    0 -0.38234241512E+02  0.99373443381E+02  0.49421559553E+03  0.50555513383E+03  0.00000000000E+00 0. -1.
         22    1    3    3    0    0  0.34054327627E+02 -0.11840152823E+03  0.29277970035E+01  0.12323632221E+03  0.00000000000E+00 0.  1.
         22    1    3    3    0    0  0.12419614981E+02 -0.72378308766E+01 -0.70655846614E+02  0.72103271028E+02  0.00000000000E+00 0.  1.
</event>
<event>
 7    1  0.5139898E-006  0.1223710E+03  0.7818608E-02  0.1369807E+00
          2   -1    0    0  502    0  0.00000000000E+00  0.00000000000E+00  0.12612773087E+04  0.12612773087E+04  0.00000000000E+00 0. -1.
          1   -1    0    0  501    0 -0.00000000000E+00 -0.00000000000E+00 -0.53332333401E+03  0.53332333401E+03  0.00000000000E+00 0. -1.
         25    2    1    2    0    0  0.80808293659E+02 -0.60271460452E+02  0.51218000108E+03  0.53676416551E+03  0.12499914643E+03 0.  0.
          2    1    1    2  501    0  0.12962731079E+02 -0.34575599379E+02 -0.51432807093E+03  0.51565188743E+03  0.00000000000E+00 0. -1.
          1    1    1    2  502    0 -0.93771024738E+02  0.94847059831E+02  0.73010204452E+03  0.74218458974E+03  0.00000000000E+00 0. -1.
         22    1    3    3    0    0 -0.12513548042E+02  0.25276205205E+02  0.48426322190E+02  0.56040914652E+02  0.00000000000E+00 0.  1.
         22    1    3    3    0    0  0.93321841702E+02 -0.85547665658E+02  0.46375367889E+03  0.48072325086E+03  0.00000000000E+00 0.  1.
</event>
<event>
 7    1  0.5139898E-006  0.5100858E+02  0.7818608E-02  0.1492479E+00
          2   -1    0    0  502    0  0.00000000000E+00  0.00000000000E+00  0.91420885914E+03  0.91420885914E+03  0.00000000000E+00 0. -1.
          1   -1    0    0  501    0 -0.00000000000E+00 -0.00000000000E+00 -0.26322998559E+03  0.26322998559E+03  0.00000000000E+00 0. -1.
         25    2    1    2    0    0  0.18048778511E+01 -0.38695962284E+02  0.13955486636E+03  0.19131406624E+03  0.12499950454E+03 0.  0.
          2    1    1    2  501    0 -0.34929226450E+02 -0.10998063990E+01 -0.23516250923E+03  0.23774496037E+03  0.00000000000E+00 0. -1.
          1    1    1    2  502    0  0.33124348599E+02  0.39795768683E+02  0.74658651641E+03  0.74837981812E+03  0.00000000000E+00 0. -1.
         22    1    3    3    0    0  0.82000463964E+01 -0.16247985634E+02 -0.21732352123E+02  0.28346656361E+02  0.00000000000E+00 0.  1.
         22    1    3    3    0    0 -0.63951685454E+01 -0.22447976650E+02  0.16128721848E+03  0.16296740988E+03  0.00000000000E+00 0.  1.
</event>
<event>
 7    1  0.5139898E-006  0.4708891E+02  0.7818608E-02  0.1525948E+00
          2   -1    0    0  502    0  0.00000000000E+00  0.00000000000E+00  0.11403514236E+04  0.11403514236E+04  0.00000000000E+00 0. -1.
          1   -1    0    0  501    0 -0.00000000000E+00 -0.00000000000E+00 -0.83043258731E+02  0.83043258731E+02  0.00000000000E+00 0. -1.
         25    2    1    2    0    0 -0.17024013468E+02 -0.29310173355E+02  0.77853722229E+03  0.78923586677E+03  0.12499657437E+03 0.  0.
          2    1    1    2  501    0 -0.76517705282E+01  0.46658836414E+02 -0.69788138786E+02  0.84296980509E+02  0.00000000000E+00 0. -1.
          1    1    1    2  502    0  0.24675783996E+02 -0.17348663060E+02  0.34855908139E+03  0.34986183508E+03  0.00000000000E+00 0. -1.
         22    1    3    3    0    0 -0.31668713347E+02 -0.72986426059E+02  0.57957717304E+03  0.58501250012E+03  0.00000000000E+00 0. -1.
         22    1    3    3    0    0  0.14644699879E+02  0.43676252705E+02  0.19896004925E+03  0.20422336664E+03  0.00000000000E+00 0. -1.
</event>
<event>
 7    1  0.5139898E-006  0.2257771E+03  0.7818608E-02  0.1321389E+00
          2   -1    0    0  502    0  0.00000000000E+00  0.00000000000E+00  0.15827266505E+04  0.15827266505E+04  0.00000000000E+00 0. -1.
          1   -1    0    0  501    0 -0.00000000000E+00 -0.00000000000E+00 -0.23642569258E+04  0.23642569258E+04  0.00000000000E+00 0. -1.
         25    2    1    2    0    0 -0.25261543475E+03 -0.36656254454E+02 -0.22389277284E+03  0.36181659610E+03  0.12500014648E+03 0.  0.
          2    1    1    2  501    0  0.30131472123E+02  0.35352049751E+01 -0.20629340836E+04  0.20631571527E+04  0.00000000000E+00 0. -1.
          1    1    1    2  502    0  0.22248396263E+03  0.33121049479E+02  0.15052965812E+04  0.15220098274E+04  0.00000000000E+00 0. -1.
         22    1    3    3    0    0 -0.21960998548E+03 -0.56877833314E+02 -0.22950845993E+03  0.32270383763E+03  0.00000000000E+00 0.  1.
         22    1    3    3    0    0 -0.33005449277E+02  0.20221578860E+02  0.56156870908E+01  0.39112758469E+02  0.00000000000E+00 0.  1.
</event>
<event>
 7    1  0.5139898E-006  0.8318386E+02  0.7818608E-02  0.1408201E+00
          2   -1    0    0  502    0  0.00000000000E+00  0.00000000000E+00  0.17070094394E+03  0.17070094394E+03  0.00000000000E+00 0. -1.
          1   -1    0    0  501    0 -0.00000000000E+00 -0.00000000000E+00 -0.24649167058E+03  0.24649167058E+03  0.00000000000E+00 0. -1.
         25    2    1    2    0    0  0.52358600837E+02  0.17305649582E+02 -0.19062539031E+02  0.13794016602E+03  0.12499280146E+03 0.  0.
          2    1    1    2  501    0  0.37820486146E+02 -0.12652232157E+02 -0.14655469610E+03  0.15188399225E+03  0.00000000000E+00 0. -1.
          1    1    1    2  502    0 -0.90179086984E+02 -0.46534174247E+01  0.89826508496E+02  0.12736845627E+03  0.00000000000E+00 0. -1.
         22    1    3    3    0    0  0.33811356362E+02  0.12718353569E+02 -0.72602597681E+02  0.81093165720E+02  0.00000000000E+00 0. -1.
         22    1    3    3    0    0  0.18547244475E+02  0.45872960134E+01  0.53540058650E+02  0.56847000295E+02  0.00000000000E+00 0. -1.
</event>
<event>
 7    1  0.5139898E-006  0.1664829E+03  0.7818608E-02  0.1188138E+00
          2   -1    0    0  502    0  0.00000000000E+00  0.00000000000E+00  0.42002342415E+03  0.42002342415E+03  0.00000000000E+00 0. -1.
          1   -1    0    0  501    0 -0.00000000000E+00 -0.00000000000E+00 -0.68325040007E+03  0.68325040007E+03  0.00000000000E+00 0. -1.
         25    2    1    2    0    0 -0.60009700062E+02 -0.98436064254E+02 -0.26374334006E+03  0.31380876390E+03  0.12499827211E+03 0.  0.
          2    1    1    2  501    0 -0.11383231502E+03  0.10479420533E+03 -0.35853301386E+03  0.39049397363E+03  0.00000000000E+00 0. -1.
          1    1    1    2  502    0  0.17384201509E+03 -0.63581410742E+01  0.35904937800E+03  0.39897108668E+03  0.00000000000E+00 0. -1.
         22    1    3    3    0    0  0.17225915460E+02 -0.70651951782E+02 -0.19009479536E+03  0.20353000191E+03  0.00000000000E+00 0.  1.
         22    1    3    3    0    0 -0.77235615522E+02 -0.27784112472E+02 -0.73648544703E+02  0.11027876200E+03  0.00000000000E+00 0.  1.
</event>
<event>
 7    1  0.5139898E-006  0.2479289E+03  0.7818608E-02  0.1298521E+00
          2   -1    0    0  502    0  0.00000000000E+00  0.00000000000E+00  0.68028757279E+03  0.68028757279E+03  0.00000000000E+00 0. -1.
          1   -1    0    0  501    0 -0.00000000000E+00 -0.00000000000E+00 -0.83470903926E+03  0.83470903926E+03  0.00000000000E+00 0. -1.
         25    2    1    2    0    0  0.21616738198E+03  0.14576400666E+03 -0.39387932667E+03  0.48861184592E+03  0.12500051731E+03 0.  0.
          2    1    1    2  501    0 -0.29641016603E+02  0.16655135312E+02 -0.36848834082E+03  0.37005356466E+03  0.00000000000E+00 0. -1.
          1    1    1    2  502    0 -0.18652636538E+03 -0.16241914197E+03  0.60794620103E+03  0.65633120146E+03  0.00000000000E+00 0. -1.
         22    1    3    3    0    0  0.36277447052E+02  0.60231074720E+02 -0.19433872866E+03  0.20666730991E+03  0.00000000000E+00 0.  1.
         22    1    3    3    0    0  0.17988993493E+03  0.85532931939E+02 -0.19954059801E+03  0.28194453602E+03  0.00000000000E+00 0.  1.
</event>
<event>
 7    1  0.5139898E-006  0.1481433E+03  0.7818608E-02  0.1345483E+00
          2   -1    0    0  502    0  0.00000000000E+00  0.00000000000E+00  0.52085814822E+02  0.52085814822E+02  0.00000000000E+00 0. -1.
          1   -1    0    0  501    0 -0.00000000000E+00 -0.00000000000E+00 -0.78734812622E+03  0.78734812622E+03  0.00000000000E+00 0. -1.
         25    2    1    2    0    0  0.10096178941E+02 -0.12949776282E+03 -0.36473536038E+03  0.40685064267E+03  0.12499583564E+03 0.  0.
          2    1    1    2  501    0  0.44273208351E+01  0.16401383277E+03 -0.35676950266E+03  0.39268895647E+03  0.00000000000E+00 0. -1.
          1    1    1    2  502    0 -0.14523499776E+02 -0.34516069949E+02 -0.13757448368E+02  0.39894341905E+02  0.00000000000E+00 0. -1.
         22    1    3    3    0    0 -0.52409081643E+02 -0.37204365294E+02 -0.92102800244E+02  0.11231118577E+03  0.00000000000E+00 0. -1.
         22    1    3    3    0    0  0.62505260584E+02 -0.92293397525E+02 -0.27263256013E+03  0.29453945690E+03  0.00000000000E+00 0. -1.
</event>
<event>
 7    1  0.5139898E-006  0.4425225E+03  0.7818608E-02  0.1170133E+00
          2   -1    0    0  502    0  0.00000000000E+00  0.00000000000E+00  0.78903438385E+03  0.78903438385E+03  0.00000000000E+00 0. -1.
          1   -1    0    0  501    0 -0.00000000000E+00 -0.00000000000E+00 -0.41635634759E+03  0.41635634759E+03  0.00000000000E+00 0. -1.
         25    2    1    2    0    0 -0.21909467396E+01  0.41172048789E+03  0.30586987914E+03  0.52792293094E+03  0.12501071012E+03 0.  0.
          2    1    1    2  501    0  0.60762485437E+02 -0.45235672347E+03 -0.12467837307E+03  0.47314203112E+03  0.00000000000E+00 0. -1.
          1    1    1    2  502    0 -0.58571538698E+02  0.40636235578E+02  0.19148653019E+03  0.20432576937E+03  0.00000000000E+00 0. -1.
         22    1    3    3    0    0  0.17593228608E+02  0.35502490628E+03  0.20446090325E+03  0.41006885608E+03  0.00000000000E+00 0.  1.
         22    1    3    3    0    0 -0.19784175347E+02  0.56695581618E+02  0.10140897589E+03  0.11785407486E+03  0.00000000000E+00 0.  1.
</event>
<event>
 7    1  0.5139898E-006  0.7053173E+02  0.7818608E-02  0.1385973E+00
          2   -1    0    0  502    0  0.00000000000E+00  0.00000000000E+00  0.47224330894E+03  0.47224330894E+03  0.00000000000E+00 0. -1.
          1   -1    0    0  501    0 -0.00000000000E+00 -0.00000000000E+00 -0.17129913586E+03  0.17129913586E+03  0.00000000000E+00 0. -1.
         25    2    1    2    0    0 -0.24987487309E+00  0.22338557531E+02  0.96906371277E+02  0.15973478982E+03  0.12500113877E+03 0.  0.
          2    1    1    2  501    0 -0.35710268026E+02 -0.65435064706E+02 -0.12742384131E+03  0.14762725450E+03  0.00000000000E+00 0. -1.
          1    1    1    2  502    0  0.35960142899E+02  0.43096507175E+02  0.33146164312E+03  0.33618040048E+03  0.00000000000E+00 0. -1.
         22    1    3    3    0    0 -0.30757486287E+01  0.58120392997E+02  0.19647710887E+01  0.58234874751E+02  0.00000000000E+00 0. -1.
         22    1    3    3    0    0  0.28258737556E+01 -0.35781835467E+02  0.94941600188E+02  0.10149991506E+03  0.00000000000E+00 0. -1.
</event>
<event>
 7    1  0.5139898E-006  0.1852972E+03  0.7818608E-02  0.1213746E+00
          2   -1    0    0  502    0  0.00000000000E+00  0.00000000000E+00  0.38921982792E+04  0.38921982792E+04  0.00000000000E+00 0. -1.
          1   -1    0    0  501    0 -0.00000000000E+00 -0.00000000000E+00 -0.13437741530E+04  0.13437741530E+04  0.00000000000E+00 0. -1.
         25    2    1    2    0    0  0.23630543761E+03  0.15508848516E+03  0.27978255692E+03  0.41688881704E+03  0.12500123419E+03 0.  0.
          2    1    1    2  501    0 -0.99224405240E+02 -0.35276292303E+02 -0.12707031955E+04  0.12750594144E+04  0.00000000000E+00 0. -1.
          1    1    1    2  502    0 -0.13708103237E+03 -0.11981219286E+03  0.35393447648E+04  0.35440242007E+04  0.00000000000E+00 0. -1.
         22    1    3    3    0    0  0.16680403942E+03  0.35296984057E+02  0.15000362859E+03  0.22709150852E+03  0.00000000000E+00 0.  1.
         22    1    3    3    0    0  0.69501398188E+02  0.11979150110E+03  0.12977892832E+03  0.18979730852E+03  0.00000000000E+00 0.  1.
</event>
<event>
 7    1  0.5139898E-006  0.7888990E+02  0.7818608E-02  0.1459006E+00
          2   -1    0    0  502    0  0.00000000000E+00  0.00000000000E+00  0.20081659629E+04  0.20081659629E+04  0.00000000000E+00 0. -1.
          1   -1    0    0  501    0 -0.00000000000E+00 -0.00000000000E+00 -0.75442461983E+02  0.75442461983E+02  0.00000000000E+00 0. -1.
         25    2    1    2    0    0  0.37450464338E+02  0.59186597480E+02  0.10884057021E+04  0.10977962106E+04  0.12499582806E+03 0.  0.
          2    1    1    2  501    0 -0.63512351760E+02 -0.47254123439E+02 -0.48299969847E+02  0.92734341510E+02  0.00000000000E+00 0. -1.
          1    1    1    2  502    0  0.26061887422E+02 -0.11932474041E+02  0.89261776870E+03  0.89307787281E+03  0.00000000000E+00 0. -1.
         22    1    3    3    0    0  0.51293282706E+02 -0.11241498227E+02  0.75136325976E+03  0.75319593749E+03  0.00000000000E+00 0. -1.
         22    1    3    3    0    0 -0.13842818368E+02  0.70428095707E+02  0.33704244230E+03  0.34460027306E+03  0.00000000000E+00 0. -1.
</event>
<event>
 7    1  0.5139898E-006  0.1052014E+03  0.7818608E-02  0.1290426E+00
          2   -1    0    0  502    0  0.00000000000E+00  0.00000000000E+00  0.16593195127E+04  0.16593195127E+04  0.00000000000E+00 0. -1.
          1   -1    0    0  501    0 -0.00000000000E+00 -0.00000000000E+00 -0.37297383002E+03  0.37297383002E+03  0.00000000000E+00 0. -1.
         25    2    1    2    0    0  0.13759883870E+02 -0.25240260713E+02  0.19729984268E+03  0.23532679170E+03  0.12500026321E+03 0.  0.
          2    1    1    2  501    0  0.12137469125E+02  0.10765878598E+03 -0.34433895093E+03  0.36098067190E+03  0.00000000000E+00 0. -1.
          1    1    1    2  502    0 -0.25897352996E+02 -0.82418525263E+02  0.14333847909E+04  0.14359858791E+04  0.00000000000E+00 0. -1.
         22    1    3    3    0    0 -0.26122133310E+02 -0.33974359521E+01 -0.59890490122E+01  0.27014387422E+02  0.00000000000E+00 0.  1.
         22    1    3    3    0    0  0.39882017180E+02 -0.21842824760E+02  0.20328889170E+03  0.20831240427E+03  0.00000000000E+00 0.  1.
</event>
<event>
 7    1  0.5139898E-006  0.7416518E+02  0.7818608E-02  0.1387424E+00
          2   -1    0    0  502    0  0.00000000000E+00  0.00000000000E+00  0.65194331410E+03  0.65194331410E+03  0.00000000000E+00 0. -1.
          1   -1    0    0  501    0 -0.00000000000E+00 -0.00000000000E+00 -0.14350146071E+04  0.14350146071E+04  0.00000000000E+00 0. -1.
         25    2    1    2    0    0 -0.86273499807E+00  0.97917773728E+02 -0.16620127208E+03  0.22985485457E+03  0.12498702574E+03 0.  0.
          2    1    1    2  501    0 -0.38624036368E+02 -0.62930212244E+02 -0.12347595640E+04  0.12369653223E+04  0.00000000000E+00 0. -1.
          1    1    1    2  502    0  0.39486771366E+02 -0.34987561483E+02  0.61788954303E+03  0.62013774434E+03  0.00000000000E+00 0. -1.
         22    1    3    3    0    0 -0.37748126052E+02  0.83498644370E+02 -0.16672517876E+03  0.19024781172E+03  0.00000000000E+00 0.  1.
         22    1    3    3    0    0  0.36885391054E+02  0.14419129357E+02  0.52390668251E+00  0.39607042844E+02  0.00000000000E+00 0.  1.
</event>
<event>
 7    1  0.5139898E-006  0.1124199E+03  0.7818608E-02  0.1393169E+00
          2   -1    0    0  502    0  0.00000000000E+00  0.00000000000E+00  0.95642425582E+03  0.95642425582E+03  0.00000000000E+00 0. -1.
          1   -1    0    0  501    0 -0.00000000000E+00 -0.00000000000E+00 -0.80631009202E+02  0.80631009202E+02  0.00000000000E+00 0. -1.
         25    2    1    2    0    0 -0.41454786714E+02 -0.93217827718E+02  0.14842719514E+03  0.21923505358E+03  0.12500125484E+03 0.  0.
          2    1    1    2  501    0 -0.32614213996E+02  0.63947289099E+01 -0.34236189516E+02  0.47714737608E+02  0.00000000000E+00 0. -1.
          1    1    1    2  502    0  0.74069000710E+02  0.86823098808E+02  0.76160224100E+03  0.77010547384E+03  0.00000000000E+00 0. -1.
         22    1    3    3    0    0 -0.38076070961E+02  0.13427599802E+02  0.87501040937E+02  0.96366590586E+02  0.00000000000E+00 0.  1.
         22    1    3    3    0    0 -0.33787157538E+01 -0.10664542752E+03  0.60926154204E+02  0.12286846299E+03  0.00000000000E+00 0.  1.
</event>
<event>
 7    1  0.5139898E-006  0.3954844E+02  0.7818608E-02  0.1540032E+00
          2   -1    0    0  502    0  0.00000000000E+00  0.00000000000E+00  0.15300249590E+04  0.15300249590E+04  0.00000000000E+00 0. -1.
          1   -1    0    0  501    0 -0.00000000000E+00 -0.00000000000E+00 -0.19963932845E+04  0.19963932845E+04  0.00000000000E+00 0. -1.
         25    2    1    2    0    0  0.85726852285E+01 -0.43808886569E+01  0.22142661289E+03  0.25446063682E+03  0.12501115021E+03 0.  0.
          2    1    1    2  501    0 -0.38628452180E+02 -0.86043465352E+01 -0.19794710456E+04  0.19798666148E+04  0.00000000000E+00 0. -1.
          1    1    1    2  502    0  0.30055766952E+02  0.12985235192E+02  0.12916761072E+04  0.12920909919E+04  0.00000000000E+00 0. -1.
         22    1    3    3    0    0  0.54126079410E+02 -0.40038703925E+02  0.11179713430E+03  0.13050413604E+03  0.00000000000E+00 0. -1.
         22    1    3    3    0    0 -0.45553394182E+02  0.35657815268E+02  0.10962947859E+03  0.12395650078E+03  0.00000000000E+00 0. -1.
</event>
<event>
 7    1  0.5139898E-006  0.7612883E+02  0.7818608E-02  0.1390661E+00
          2   -1    0    0  502    0  0.00000000000E+00  0.00000000000E+00  0.17166144731E+03  0.17166144731E+03  0.00000000000E+00 0. -1.
          1   -1    0    0  501    0 -0.00000000000E+00 -0.00000000000E+00 -0.28049299536E+03  0.28049299536E+03  0.00000000000E+00 0. -1.
         25    2    1    2    0    0 -0.27854071691E+02  0.31507830572E+02 -0.33397710795E+02  0.13604727202E+03  0.12499944177E+03 0.  0.
          2    1    1    2  501    0  0.77847573991E+02 -0.28653801869E+02 -0.18108988399E+03  0.19918541919E+03  0.00000000000E+00 0. -1.
          1    1    1    2  502    0 -0.49993502300E+02 -0.28540287033E+01  0.10565604673E+03  0.11692175145E+03  0.00000000000E+00 0. -1.
         22    1    3    3    0    0 -0.39986840889E+02  0.37261353107E+02  0.35944539830E+02  0.65416861918E+02  0.00000000000E+00 0. -1.
         22    1    3    3    0    0  0.12132769198E+02 -0.57535225349E+01 -0.69342250625E+02  0.70630410106E+02  0.00000000000E+00 0. -1.
</event>
<event>
 7    1  0.5139898E-006  0.4553846E+02  0.7818608E-02  0.1471484E+00
          2   -1    0    0  502    0  0.00000000000E+00  0.00000000000E+00  0.16584654636E+03  0.16584654636E+03  0.00000000000E+00 0. -1.
          1   -1    0    0  501    0 -0.00000000000E+00 -0.00000000000E+00 -0.21972171417E+03  0.21972171417E+03  0.00000000000E+00 0. -1.
         25    2    1    2    0    0  0.62525150616E+01 -0.30000910579E+02  0.22803980231E+02  0.13070759679E+03  0.12500122305E+03 0.  0.
          2    1    1    2  501    0  0.38983731371E+02  0.26347388713E+02 -0.15629184941E+03  0.16322088836E+03  0.00000000000E+00 0. -1.
          1    1    1    2  502    0 -0.45236246433E+02  0.36535218667E+01  0.79612701374E+02  0.91639775389E+02  0.00000000000E+00 0. -1.
         22    1    3    3    0    0  0.21438386692E+02 -0.74588383585E+02  0.29711594037E+02  0.83101204625E+02  0.00000000000E+00 0. -1.
         22    1    3    3    0    0 -0.15185871631E+02  0.44587473006E+02 -0.69076138061E+01  0.47606392163E+02  0.00000000000E+00 0. -1.
</event>
<event>
 7    1  0.5139898E-006  0.4317658E+02  0.7818608E-02  0.1515166E+00
          2   -1    0    0  502    0  0.00000000000E+00  0.00000000000E+00  0.62255197497E+03  0.62255197497E+03  0.00000000000E+00 0. -1.
          1   -1    0    0  501    0 -0.00000000000E+00 -0.00000000000E+00 -0.18825131270E+03  0.18825131270E+03  0.00000000000E+00 0. -1.
         25    2    1    2    0    0  0.10922204741E+02 -0.57241110190E+01  0.59123330658E+02  0.13882816841E+03  0.12500252842E+03 0.  0.
          2    1    1    2  501    0 -0.43616839753E+02 -0.77304056742E+01 -0.14447921603E+03  0.15111727812E+03  0.00000000000E+00 0. -1.
          1    1    1    2  502    0  0.32694635012E+02  0.13454516693E+02  0.51965654763E+03  0.52085784114E+03  0.00000000000E+00 0. -1.
         22    1    3    3    0    0 -0.10655314097E+01 -0.58973429162E+02  0.60139999534E+02  0.84236691816E+02  0.00000000000E+00 0.  1.
         22    1    3    3    0    0  0.11987736151E+02  0.53249318143E+02 -0.10166688759E+01  0.54591476590E+02  0.00000000000E+00 0.  1.
</event>
<event>
 7    1  0.5139898E-006  0.1589383E+03  0.7818608E-02  0.1230246E+00
          2   -1    0    0  502    0  0.00000000000E+00  0.00000000000E+00  0.15319040617E+04  0.15319040617E+04  0.00000000000E+00 0. -1.
          1   -1    0    0  501    0 -0.00000000000E+00 -0.00000000000E+00 -0.29559505621E+03  0.29559505621E+03  0.00000000000E+00 0. -1.
         25    2    1    2    0    0 -0.11189352987E+03  0.70623502957E+02  0.80097418671E+03  0.82139695034E+03  0.12500184422E+03 0.  0.
          2    1    1    2  501    0 -0.94012573130E+02 -0.42821089533E+02 -0.26032677865E+03  0.28007506368E+03  0.00000000000E+00 0. -1.
          1    1    1    2  502    0  0.20590610300E+03 -0.27802413423E+02  0.69566159740E+03  0.72602710386E+03  0.00000000000E+00 0. -1.
         22    1    3    3    0    0 -0.10061236191E+03  0.97746815712E+02  0.74592462559E+03  0.75899989091E+03  0.00000000000E+00 0.  1.
         22    1    3    3    0    0 -0.11281167957E+02 -0.27123312755E+02  0.55049561120E+02  0.62397059424E+02  0.00000000000E+00 0.  1.
</event>
<event>
 7    1  0.5139898E-006  0.9610708E+02  0.7818608E-02  0.1340221E+00
          2   -1    0    0  502    0  0.00000000000E+00  0.00000000000E+00  0.18044951551E+04  0.18044951551E+04  0.00000000000E+00 0. -1.
          1   -1    0    0  501    0 -0.00000000000E+00 -0.00000000000E+00 -0.11833868904E+04  0.11833868904E+04  0.00000000000E+00 0. -1.
         25    2    1    2    0    0  0.83421842245E+01 -0.79937927591E+02  0.40072196226E+03  0.42738001532E+03  0.12496368335E+03 0.  0.
          2    1    1    2  501    0 -0.60113568854E+02 -0.59029983700E+01 -0.11674693038E+04  0.11690308216E+04  0.00000000000E+00 0. -1.
          1    1    1    2  502    0  0.51771384630E+02  0.85840925961E+02  0.13878556061E+04  0.13914712086E+04  0.00000000000E+00 0. -1.
         22    1    3    3    0    0  0.48005681107E+02 -0.74558087462E+02  0.35807402243E+03  0.36889085021E+03  0.00000000000E+00 0. -1.
         22    1    3    3    0    0 -0.39663496883E+02 -0.53798401295E+01  0.42647939828E+02  0.58489165119E+02  0.00000000000E+00 0. -1.
</event>
<event>
 7    1  0.5139898E-006  0.6305731E+02  0.7818608E-02  0.1466722E+00
          2   -1    0    0  502    0  0.00000000000E+00  0.00000000000E+00  0.13441646485E+03  0.13441646485E+03  0.00000000000E+00 0. -1.
          1   -1    0    0  501    0 -0.00000000000E+00 -0.00000000000E+00 -0.64564014653E+03  0.64564014653E+03  0.00000000000E+00 0. -1.
         25    2    1    2    0    0  0.16995783733E+02  0.26130157737E+02  0.51115801556E+02  0.13859974942E+03  0.12500169424E+03 0.  0.
          2    1    1    2  501    0 -0.22217538215E+02 -0.59639497248E+02 -0.59259853904E+03  0.59600630626E+03  0.00000000000E+00 0. -1.
          1    1    1    2  502    0  0.52217544819E+01  0.33509339510E+02  0.30259055806E+02  0.45450555690E+02  0.00000000000E+00 0. -1.
         22    1    3    3    0    0 -0.30552515909E+02  0.57240043430E+02  0.49750850359E+02  0.81762007752E+02  0.00000000000E+00 0.  1.
         22    1    3    3    0    0  0.47548299642E+02 -0.31109885693E+02  0.13649511973E+01  0.56837741672E+02  0.00000000000E+00 0.  1.
</event>
<event>
 7    1  0.5139898E-006  0.8481532E+02  0.7818608E-02  0.1359293E+00
          2   -1    0    0  502    0  0.00000000000E+00  0.00000000000E+00  0.38400540212E+03  0.38400540212E+03  0.00000000000E+00 0. -1.
          1   -1    0    0  501    0 -0.00000000000E+00 -0.00000000000E+00 -0.14028392909E+04  0.14028392909E+04  0.00000000000E+00 0. -1.
         25    2    1    2    0    0  0.40205138636E+02  0.34203723008E+02 -0.60691372144E+02  0.14864603593E+03  0.12500341398E+03 0.  0.
          2    1    1    2  501    0 -0.12541174638E+02 -0.85365759147E+02 -0.12942364178E+04  0.12971092857E+04  0.00000000000E+00 0. -1.
          1    1    1    2  502    0 -0.27663963998E+02  0.51162036139E+02  0.33609390118E+03  0.34108937136E+03  0.00000000000E+00 0. -1.
         22    1    3    3    0    0 -0.33053779111E+02  0.28855398069E+02 -0.61061710262E+02  0.75191214721E+02  0.00000000000E+00 0.  1.
         22    1    3    3    0    0  0.73258917747E+02  0.53483249398E+01  0.37033811759E+00  0.73454821213E+02  0.00000000000E+00 0.  1.
</event>
<event>
 7    1  0.5139898E-006  0.9371265E+02  0.7818608E-02  0.1338519E+00
          2   -1    0    0  502    0  0.00000000000E+00  0.00000000000E+00  0.15251093739E+03  0.15251093739E+03  0.00000000000E+00 0. -1.
          1   -1    0    0  501    0 -0.00000000000E+00 -0.00000000000E+00 -0.13023360726E+04  0.13023360726E+04  0.00000000000E+00 0. -1.
         25    2    1    2    0    0  0.47197908996E+02 -0.13709637486E+03 -0.19384111880E+03  0.27243510735E+03  0.12499379892E+03 0.  0.
          2    1    1    2  501    0 -0.41552775842E+02  0.47176796259E+02 -0.10501829604E+04  0.10520629894E+04  0.00000000000E+00 0. -1.
          1    1    1    2  502    0 -0.56451331534E+01  0.89919578600E+02  0.94198943987E+02  0.13034891328E+03  0.00000000000E+00 0. -1.
         22    1    3    3    0    0  0.87742244285E+02 -0.77718758471E+02 -0.14012699208E+03  0.18268683795E+03  0.00000000000E+00 0.  1.
         22    1    3    3    0    0 -0.40544335289E+02 -0.59377616388E+02 -0.53714126717E+02  0.89748269403E+02  0.00000000000E+00 0.  1.
</event>
<event>
 7    1  0.5139898E-006  0.5548827E+02  0.7818608E-02  0.1439253E+00
          2   -1    0    0  502    0  0.00000000000E+00  0.00000000000E+00  0.77103457977E+02  0.77103457977E+02  0.00000000000E+00 0. -1.
          1   -1    0    0  501    0 -0.00000000000E+00 -0.00000000000E+00 -0.13296288495E+04  0.13296288495E+04  0.00000000000E+00 0. -1.
         25    2    1    2    0    0  0.32727495028E+02  0.65880249337E+02 -0.49981920605E+03  0.52042854554E+03  0.12496133842E+03 0.  0.
          2    1    1    2  501    0 -0.50569333862E+02 -0.22241873958E+02 -0.81012701969E+03  0.81200846456E+03  0.00000000000E+00 0. -1.
          1    1    1    2  502    0  0.17841838834E+02 -0.43638375379E+02  0.57420834180E+02  0.74295297406E+02  0.00000000000E+00 0. -1.
         22    1    3    3    0    0 -0.18315052443E+02  0.35048517007E+02 -0.38229834825E+02  0.55003272277E+02  0.00000000000E+00 0. -1.
         22    1    3    3    0    0  0.51042547471E+02  0.30831732330E+02 -0.46158937122E+03  0.46542527327E+03  0.00000000000E+00 0. -1.
</event>
<event>
 7    1  0.5139898E-006  0.1057168E+03  0.7818608E-02  0.1444061E+00
          2   -1    0    0  502    0  0.00000000000E+00  0.00000000000E+00  0.89921311327E+03  0.89921311327E+03  0.00000000000E+00 0. -1.
          1   -1    0    0  501    0 -0.00000000000E+00 -0.00000000000E+00 -0.31962622492E+03  0.31962622492E+03  0.00000000000E+00 0. -1.
         25    2    1    2    0    0 -0.42368413974E+02  0.11663565737E+03  0.49209181525E+02  0.18289019859E+03  0.12501328777E+03 0.  0.
          2    1    1    2  501    0 -0.52630152174E+01 -0.23286511897E+02 -0.24870562761E+03  0.24984885465E+03  0.00000000000E+00 0. -1.
          1    1    1    2  502    0  0.47631429192E+02 -0.93349145475E+02  0.77908333444E+03  0.78610028496E+03  0.00000000000E+00 0. -1.
         22    1    3    3    0    0 -0.63722021599E+02  0.12154949323E+03  0.95391624970E+01  0.13757096701E+03  0.00000000000E+00 0. -1.
         22    1    3    3    0    0  0.21353607625E+02 -0.49138358601E+01  0.39670019028E+02  0.45319231582E+02  0.00000000000E+00 0. -1.
</event>
<event>
 7    1  0.5139898E-006  0.2680257E+03  0.7818608E-02  0.1198828E+00
          2   -1    0    0  502    0  0.00000000000E+00  0.00000000000E+00  0.34664758015E+04  0.34664758015E+04  0.00000000000E+00 0. -1.
          1   -1    0    0  501    0 -0.00000000000E+00 -0.00000000000E+00 -0.28863299876E+03  0.28863299876E+03  0.00000000000E+00 0. -1.
         25    2    1    2    0    0 -0.21347869355E+03  0.14465994978E+03  0.53940973714E+03  0.61081255118E+03  0.12501781669E+03 0.  0.
          2    1    1    2  501    0  0.16478361500E+03 -0.21489054380E+03 -0.17961606797E+03  0.32495156171E+03  0.00000000000E+00 0. -1.
          1    1    1    2  502    0  0.48695078557E+02  0.70230594013E+02  0.28180491335E+04  0.28193446873E+04  0.00000000000E+00 0. -1.
         22    1    3    3    0    0 -0.15219852211E+03  0.95540732846E+02  0.47940074697E+03  0.51197411844E+03  0.00000000000E+00 0.  1.
         22    1    3    3    0    0 -0.61280171444E+02  0.49119216938E+02  0.60008990171E+02  0.98838432739E+02  0.00000000000E+00 0.  1.
</event>
<event>
 7    1  0.5139898E-006  0.7860027E+02  0.7818608E-02  0.1386516E+00
          2   -1    0    0  502    0  0.00000000000E+00  0.00000000000E+00  0.13250105124E+04  0.13250105124E+04  0.00000000000E+00 0. -1.
          1   -1    0    0  501    0 -0.00000000000E+00 -0.00000000000E+00 -0.69415880292E+02  0.69415880292E+02  0.00000000000E+00 0. -1.
         25    2    1    2    0    0 -0.10444238724E+03  0.73715792504E+01  0.35844404758E+03  0.39378767840E+03  0.12499619184E+03 0.  0.
          2    1    1    2  501    0  0.38295901695E+02  0.32374438906E+02 -0.37619334864E+02  0.62688872511E+02  0.00000000000E+00 0. -1.
          1    1    1    2  502    0  0.66146485546E+02 -0.39746018156E+02  0.93476991944E+03  0.93794984183E+03  0.00000000000E+00 0. -1.
         22    1    3    3    0    0 -0.12938497343E+03 -0.14080630258E+02  0.28750035415E+03  0.31558705477E+03  0.00000000000E+00 0. -1.
         22    1    3    3    0    0  0.24942586189E+02  0.21452209508E+02  0.70943693429E+02  0.78200623628E+02  0.00000000000E+00 0. -1.
</event>
<event>
 7    1  0.5139898E-006  0.2064410E+03  0.7818608E-02  0.1290420E+00
          2   -1    0    0  502    0  0.00000000000E+00  0.00000000000E+00  0.39347047211E+03  0.39347047211E+03  0.00000000000E+00 0. -1.
          1   -1    0    0  501    0 -0.00000000000E+00 -0.00000000000E+00 -0.59534260115E+03  0.59534260115E+03  0.00000000000E+00 0. -1.
         25    2    1    2    0    0 -0.61773142762E+02 -0.20638091069E+03 -0.30852521379E+03  0.39650961936E+03  0.12499227672E+03 0.  0.
          2    1    1    2  501    0  0.18348021984E+02  0.19912447698E+03 -0.19981484689E+03  0.28268919378E+03  0.00000000000E+00 0. -1.
          1    1    1    2  502    0  0.43425120778E+02  0.72564337170E+01  0.30646793164E+03  0.30961426012E+03  0.00000000000E+00 0. -1.
         22    1    3    3    0    0 -0.42857117473E+02 -0.11477042474E+03 -0.71866580421E+02  0.14203446164E+03  0.00000000000E+00 0.  1.
         22    1    3    3    0    0 -0.18916025289E+02 -0.91610485957E+02 -0.23665863337E+03  0.25447515772E+03  0.00000000000E+00 0.  1.
</event>
<event>
 7    1  0.5139898E-006  0.8766363E+02  0.7818608E-02  0.1367042E+00
          2   -1    0    0  502    0  0.00000000000E+00  0.00000000000E+00  0.40535982735E+03  0.40535982735E+03  0.00000000000E+00 0. -1.
          1   -1    0    0  501    0 -0.00000000000E+00 -0.00000000000E+00 -0.25097949632E+04  0.25097949632E+04  0.00000000000E+00 0. -1.
         25    2    1    2    0    0 -0.54959987493E+02 -0.57114413091E+02  0.18614419977E+03  0.23781940680E+03  0.12500300291E+03 0.  0.
          2    1    1    2  501    0  0.11498942169E+02  0.86994066806E+02 -0.24795706099E+04  0.24811228512E+04  0.00000000000E+00 0. -1.
          1    1    1    2  502    0  0.43461045323E+02 -0.29879653715E+02  0.18899127428E+03  0.19621253253E+03  0.00000000000E+00 0. -1.
         22    1    3    3    0    0  0.49553299032E+01 -0.51686354453E+02  0.11607043863E+02  0.53204868182E+02  0.00000000000E+00 0. -1.
         22    1    3    3    0    0 -0.59915317396E+02 -0.54280586384E+01  0.17453715590E+03  0.18461453862E+03  0.00000000000E+00 0. -1.
</event>
<event>
 7    1  0.5139898E-006  0.4792711E+02  0.7818608E-02  0.1491549E+00
          2   -1    0    0  502    0  0.00000000000E+00  0.00000000000E+00  0.29967171380E+03  0.29967171380E+03  0.00000000000E+00 0. -1.
          1   -1    0    0  501    0 -0.00000000000E+00 -0.00000000000E+00 -0.69102450690E+03  0.69102450690E+03  0.00000000000E+00 0. -1.
         25    2    1    2    0    0  0.42308477220E+02  0.42005688011E+01  0.57219903741E+02  0.14390265522E+03  0.12500481900E+03 0.  0.
          2    1    1    2  501    0 -0.28282519439E+02 -0.38908018762E+02 -0.64502016261E+03  0.64681121280E+03  0.00000000000E+00 0. -1.
          1    1    1    2  502    0 -0.14025957781E+02  0.34707449961E+02  0.19644746577E+03  0.19998235268E+03  0.00000000000E+00 0. -1.
         22    1    3    3    0    0  0.72280412403E+01 -0.32885848336E+02  0.80900897800E+02  0.87628071221E+02  0.00000000000E+00 0. -1.
         22    1    3    3    0    0  0.35080435980E+02  0.37086417137E+02 -0.23680994059E+02  0.56274583999E+02  0.00000000000E+00 0. -1.
</event>
<event>
 7    1  0.5139898E-006  0.1442730E+03  0.7818608E-02  0.1322266E+00
          2   -1    0    0  502    0  0.00000000000E+00  0.00000000000E+00  0.36974361840E+03  0.36974361840E+03  0.00000000000E+00 0. -1.
          1   -1    0    0  501    0 -0.00000000000E+00 -0.00000000000E+00 -0.33135153939E+04  0.33135153939E+04  0.00000000000E+00 0. -1.
         25    2    1    2    0    0 -0.11278856025E+03 -0.25426970203E+02  0.10478387234E+03  0.19993359950E+03  0.12500397662E+03 0.  0.
          2    1    1    2  501    0 -0.46639227426E+02 -0.66271335020E+01 -0.32353327691E+04  0.32356757043E+04  0.00000000000E+00 0. -1.
          1    1    1    2  502    0  0.15942778767E+03  0.32054103705E+02  0.18677712133E+03  0.24764970845E+03  0.00000000000E+00 0. -1.
         22    1    3    3    0    0 -0.64179441542E+02 -0.61874478939E+02  0.13332310446E+02  0.90139904384E+02  0.00000000000E+00 0. -1.
         22    1    3    3    0    0 -0.48609118704E+02  0.36447508736E+02  0.91451561896E+02  0.10979369512E+03  0.00000000000E+00 0. -1.
</event>
<event>
 7    1  0.5139898E-006  0.8524966E+02  0.7818608E-02  0.1431349E+00
          2   -1    0    0  502    0  0.00000000000E+00  0.00000000000E+00  0.50200709800E+03  0.50200709800E+03  0.00000000000E+00 0. -1.
          1   -1    0    0  501    0 -0.00000000000E+00 -0.00000000000E+00 -0.29739013153E+03  0.29739013153E+03  0.00000000000E+00 0. -1.
         25    2    1    2    0    0 -0.97239611208E+02  0.52681776015E+01 -0.79053992490E+02  0.17708096428E+03  0.12499935399E+03 0.  0.
          2    1    1    2  501    0  0.80449625690E+02  0.22636222171E+02 -0.15837457974E+03  0.17907274593E+03  0.00000000000E+00 0. -1.
          1    1    1    2  502    0  0.16789985518E+02 -0.27904399773E+02  0.44204553870E+03  0.44324351932E+03  0.00000000000E+00 0. -1.
         22    1    3    3    0    0 -0.84486067541E+02 -0.37968723741E+02 -0.91620354739E+02  0.13028357146E+03  0.00000000000E+00 0.  1.
         22    1    3    3    0    0 -0.12753543667E+02  0.43236901343E+02  0.12566362249E+02  0.46797392811E+02  0.00000000000E+00 0.  1.
</event>
<event>
 7    1  0.5139898E-006  0.1305040E+03  0.7818608E-02  0.1415202E+00
          2   -1    0    0  502    0  0.00000000000E+00  0.00000000000E+00  0.41039368597E+04  0.41039368597E+04  0.00000000000E+00 0. -1.
          1   -1    0    0  501    0 -0.00000000000E+00 -0.00000000000E+00 -0.11979036213E+03  0.11979036213E+03  0.00000000000E+00 0. -1.
         25    2    1    2    0    0  0.55978251042E+02 -0.98091927828E+02  0.28190708341E+04  0.28240997028E+04  0.12499269247E+03 0.  0.
          2    1    1    2  501    0 -0.49119533774E+02  0.12116617109E+03 -0.80683848284E+02  0.15363545486E+03  0.00000000000E+00 0. -1.
          1    1    1    2  502    0 -0.68587172681E+01 -0.23074243265E+02  0.12457595118E+04  0.12459920642E+04  0.00000000000E+00 0. -1.
         22    1    3    3    0    0 -0.11323748942E+01  0.17001960543E+02  0.70594386786E+02  0.72621734907E+02  0.00000000000E+00 0.  1.
         22    1    3    3    0    0  0.57110625937E+02 -0.11509388837E+03  0.27484764473E+04  0.27514779679E+04  0.00000000000E+00 0.  1.
</event>
<event>
 7    1  0.5139898E-006  0.4401998E+02  0.7818608E-02  0.1507592E+00
          2   -1    0    0  502    0  0.00000000000E+00  0.00000000000E+00  0.45981762325E+03  0.45981762325E+03  0.00000000000E+00 0. -1.
          1   -1    0    0  501    0 -0.00000000000E+00 -0.00000000000E+00 -0.40880508499E+03  0.40880508499E+03  0.00000000000E+00 0. -1.
         25    2    1    2    0    0  0.77051735683E+02 -0.16146821511E+02 -0.12327103952E+03  0.19238141772E+03  0.12496867961E+03 0.  0.
          2    1    1    2  501    0 -0.33287013336E+02  0.14975269802E+02 -0.24851543277E+03  0.25118161614E+03  0.00000000000E+00 0. -1.
          1    1    1    2  502    0 -0.43764722348E+02  0.11715517090E+01  0.42279901055E+03  0.42505967437E+03  0.00000000000E+00 0. -1.
         22    1    3    3    0    0  0.74648306236E+02 -0.29693478183E+02 -0.14551943780E+03  0.16622267910E+03  0.00000000000E+00 0. -1.
         22    1    3    3    0    0  0.24034294471E+01  0.13546656672E+02  0.22248398282E+02  0.26158738620E+02  0.00000000000E+00 0. -1.
</event>
<event>
 7    1  0.5139898E-006  0.1151907E+03  0.7818608E-02  0.1317623E+00
          2   -1    0    0  502    0  0.00000000000E+00  0.00000000000E+00  0.11644836150E+04  0.11644836150E+04  0.00000000000E+00 0. -1.
          1   -1    0    0  501    0 -0.00000000000E+00 -0.00000000000E+00 -0.51761938747E+02  0.51761938747E+02  0.00000000000E+00 0. -1.
         25    2    1    2    0    0 -0.81879040385E+02 -0.15407080601E+02  0.13091173252E+03  0.19925866545E+03  0.12499831462E+03 0.  0.
          2    1    1    2  501    0 -0.32119008139E+02  0.52446224923E+02  0.55147615710E+02  0.82604459390E+02  0.00000000000E+00 0. -1.
          1    1    1    2  502    0  0.11399804852E+03 -0.37039144323E+02  0.92666232805E+03  0.93438242893E+03  0.00000000000E+00 0. -1.
         22    1    3    3    0    0  0.15197368841E+02 -0.29087566433E+02 -0.33778699206E+01  0.32991764819E+02  0.00000000000E+00 0.  1.
         22    1    3    3    0    0 -0.97076409226E+02  0.13680485832E+02  0.13428960244E+03  0.16626690063E+03  0.00000000000E+00 0.  1.
</event>
<event>
 7    1  0.5139898E-006  0.9262643E+02  0.7818608E-02  0.1385146E+00
          2   -1    0    0  502    0  0.00000000000E+00  0.00000000000E+00  0.69713654730E+03  0.69713654730E+03  0.00000000000E+00 0. -1.
          1   -1    0    0  501    0 -0.00000000000E+00 -0.00000000000E+00 -0.54801825589E+03  0.54801825589E+03  0.00000000000E+00 0. -1.
         25    2    1    2    0    0 -0.11531751781E+03  0.38812681927E+02  0.11327437797E+03  0.20799268927E+03  0.12500127957E+03 0.  0.
          2    1    1    2  501    0  0.40996912133E+02  0.13059989515E+02 -0.49589315444E+03  0.49775629654E+03  0.00000000000E+00 0. -1.
          1    1    1    2  502    0  0.74320605674E+02 -0.51872671442E+02  0.53173706788E+03  0.53940581738E+03  0.00000000000E+00 0. -1.
         22    1    3    3    0    0 -0.11760046061E+03 -0.24780241384E+01  0.40710449022E+02  0.12447228446E+03  0.00000000000E+00 0. -1.
         22    1    3    3    0    0  0.22829428018E+01  0.41290706065E+02  0.72563928950E+02  0.83520404811E+02  0.00000000000E+00 0. -1.
</event>
<event>
 7    1  0.5139898E-006  0.1178286E+03  0.7818608E-02  0.1258459E+00
          2   -1    0    0  502    0  0.00000000000E+00  0.00000000000E+00  0.15759557982E+04  0.15759557982E+04  0.00000000000E+00 0. -1.
          1   -1    0    0  501    0 -0.00000000000E+00 -0.00000000000E+00 -0.23867359434E+04  0.23867359434E+04  0.00000000000E+00 0. -1.
         25    2    1    2    0    0 -0.15884398745E+03  0.14441370764E+03  0.38950878555E+02  0.25145171235E+03  0.12499624554E+03 0.  0.
          2    1    1    2  501    0  0.10266281990E+03 -0.55890685434E+02 -0.22770636061E+04  0.22800618609E+04  0.00000000000E+00 0. -1.
          1    1    1    2  502    0  0.56181167552E+02 -0.88523022207E+02  0.14273325823E+04  0.14311781684E+04  0.00000000000E+00 0. -1.
         22    1    3    3    0    0 -0.82131226610E+02  0.27808915392E+02  0.66384241259E+02  0.10920504406E+03  0.00000000000E+00 0.  1.
         22    1    3    3    0    0 -0.76712760843E+02  0.11660479225E+03 -0.27433362705E+02  0.14224666829E+03  0.00000000000E+00 0.  1.
</event>
<event>
 7    1  0.5139898E-006  0.9446393E+02  0.7818608E-02  0.1368748E+00
          2   -1    0    0  502    0  0.00000000000E+00  0.00000000000E+00  0.13245717568E+03  0.13245717568E+03  0.00000000000E+00 0. -1.
          1   -1    0    0  501    0 -0.00000000000E+00 -0.00000000000E+00 -0.11044478696E+04  0.11044478696E+04  0.00000000000E+00 0. -1.
         25    2    1    2    0    0  0.80726936400E+02  0.91812000446E+02 -0.28197671901E+03  0.33178641891E+03  0.12500030409E+03 0.  0.
          2    1    1    2  501    0 -0.81262744976E+02 -0.43558815503E+02 -0.78933160509E+03  0.79469829930E+03  0.00000000000E+00 0. -1.
          1    1    1    2  502    0  0.53580857593E+00 -0.48253184943E+02  0.99317630220E+02  0.11042032703E+03  0.00000000000E+00 0. -1.
         22    1    3    3    0    0  0.97291902612E+02  0.25545407817E+02 -0.20831047329E+03  0.23132560484E+03  0.00000000000E+00 0. -1.
         22    1    3    3    0    0 -0.16564966211E+02  0.66266592629E+02 -0.73666245723E+02  0.10046081407E+03  0.00000000000E+00 0. -1.
</event>
<event>
 7    1  0.5139898E-006  0.3406739E+02  0.7818608E-02  0.1618838E+00
          2   -1    0    0  502    0  0.00000000000E+00  0.00000000000E+00  0.13501022860E+04  0.13501022860E+04  0.00000000000E+00 0. -1.
          1   -1    0    0  501    0 -0.00000000000E+00 -0.00000000000E+00 -0.23609057508E+02  0.23609057508E+02  0.00000000000E+00 0. -1.
         25    2    1    2    0    0  0.11673055479E+02  0.32667299062E+01  0.21573943390E+03  0.24962937304E+03  0.12499755516E+03 0.  0.
          2    1    1    2  501    0  0.16503102403E+02  0.16517745451E+02  0.14923536159E+02  0.27711012886E+02  0.00000000000E+00 0. -1.
          1    1    1    2  502    0 -0.28176157882E+02 -0.19784475357E+02  0.10958302585E+04  0.10963709576E+04  0.00000000000E+00 0. -1.
         22    1    3    3    0    0  0.80590574313E+01 -0.36312659446E+02  0.79023847440E+01  0.38026376732E+02  0.00000000000E+00 0. -1.
         22    1    3    3    0    0  0.36139980479E+01  0.39579389352E+02  0.20783704916E+03  0.21160299631E+03  0.00000000000E+00 0. -1.
</event>
<event>
 7    1  0.5139898E-006  0.1387030E+03  0.7818608E-02  0.1358059E+00
          2   -1    0    0  502    0  0.00000000000E+00  0.00000000000E+00  0.73464988924E+02  0.73464988924E+02  0.00000000000E+00 0. -1.
          1   -1    0    0  501    0 -0.00000000000E+00 -0.00000000000E+00 -0.65607854976E+03  0.65607854976E+03  0.00000000000E+00 0. -1.
         25    2    1    2    0    0 -0.10975289865E+03 -0.59888346539E+02 -0.23393765848E+03  0.29322489112E+03  0.12498678293E+03 0.  0.
          2    1    1    2  501    0 -0.30567535633E+02  0.18896965420E+02 -0.26591444695E+03  0.26833181443E+03  0.00000000000E+00 0. -1.
          1    1    1    2  502    0  0.14032043429E+03  0.40991381119E+02 -0.82761455407E+02  0.16798683313E+03  0.00000000000E+00 0. -1.
         22    1    3    3    0    0 -0.52210742243E+02 -0.86252815863E+02 -0.19328026116E+03  0.21799717706E+03  0.00000000000E+00 0.  1.
         22    1    3    3    0    0 -0.57542156412E+02  0.26364469324E+02 -0.40657397316E+02  0.75227714067E+02  0.00000000000E+00 0.  1.
</event>
<event>
 7    1  0.5139898E-006  0.9607660E+02  0.7818608E-02  0.1306858E+00
          2   -1    0    0  502    0  0.00000000000E+00  0.00000000000E+00  0.32975806572E+04  0.32975806572E+04  0.00000000000E+00 0. -1.
          1   -1    0    0  501    0 -0.00000000000E+00 -0.00000000000E+00 -0.89184172207E+02  0.89184172207E+02  0.00000000000E+00 0. -1.
         25    2    1    2    0    0  0.36565981267E+02  0.15826905732E+03  0.14918478316E+04  0.15058622958E+04  0.12500054210E+03 0.  0.
          2    1    1    2  501    0 -0.53246578735E+02 -0.78725109682E+02 -0.53449197813E+02  0.10903970739E+03  0.00000000000E+00 0. -1.
          1    1    1    2  502    0  0.16680597468E+02 -0.79543947634E+02  0.17699978512E+04  0.17718628263E+04  0.00000000000E+00 0. -1.
         22    1    3    3    0    0  0.56597167386E+01  0.60282583383E+02  0.17825608051E+03  0.18825847256E+03  0.00000000000E+00 0. -1.
         22    1    3    3    0    0  0.30906264529E+02  0.97986473933E+02  0.13135917511E+04  0.13176038232E+04  0.00000000000E+00 0. -1.
</event>
<event>
 7    1  0.5139898E-006  0.1449635E+03  0.7818608E-02  0.1314547E+00
          2   -1    0    0  502    0  0.00000000000E+00  0.00000000000E+00  0.77847310412E+03  0.77847310412E+03  0.00000000000E+00 0. -1.
          1   -1    0    0  501    0 -0.00000000000E+00 -0.00000000000E+00 -0.33657173764E+03  0.33657173764E+03  0.00000000000E+00 0. -1.
         25    2    1    2    0    0 -0.31577558459E+02 -0.17173361201E+03  0.17307912947E+03  0.27580691535E+03  0.12499397508E+03 0.  0.
          2    1    1    2  501    0 -0.93993445563E+01  0.14266673124E+03 -0.26603779170E+03  0.30202359261E+03  0.00000000000E+00 0. -1.
          1    1    1    2  502    0  0.40976903015E+02  0.29066880766E+02  0.53486002871E+03  0.53721433380E+03  0.00000000000E+00 0. -1.
         22    1    3    3    0    0 -0.54872698489E+02 -0.11594766854E+03  0.48143541573E+02  0.13701341349E+03  0.00000000000E+00 0. -1.
         22    1    3    3    0    0  0.23295140031E+02 -0.55785943465E+02  0.12493558790E+03  0.13879350187E+03  0.00000000000E+00 0. -1.
</event>
<event>
 7    1  0.5139898E-006  0.7437750E+02  0.7818608E-02  0.1445944E+00
          2   -1    0    0  502    0  0.00000000000E+00  0.00000000000E+00  0.53184363892E+03  0.53184363892E+03  0.00000000000E+00 0. -1.
          1   -1    0    0  501    0 -0.00000000000E+00 -0.00000000000E+00 -0.13597221585E+04  0.13597221585E+04  0.00000000000E+00 0. -1.
         25    2    1    2    0    0  0.30006144059E+02 -0.90612444880E+02 -0.25325276124E+03  0.29811791313E+03  0.12500538071E+03 0.  0.
          2    1    1    2  501    0  0.13611945061E+02  0.30568768180E+02 -0.10810735546E+04  0.10815913115E+04  0.00000000000E+00 0. -1.
          1    1    1    2  502    0 -0.43618089120E+02  0.60043676700E+02  0.50644779624E+03  0.51185657281E+03  0.00000000000E+00 0. -1.
         22    1    3    3    0    0  0.93638444823E+01  0.22779016036E+02 -0.60402936179E+01  0.25358436507E+02  0.00000000000E+00 0.  1.
         22    1    3    3    0    0  0.20642299577E+02 -0.11339146092E+03 -0.24721246762E+03  0.27275947662E+03  0.00000000000E+00 0.  1.
</event>
<event>
 7    1  0.5139898E-006  0.3849730E+02  0.7818608E-02  0.1542540E+00
          2   -1    0    0  502    0  0.00000000000E+00  0.00000000000E+00  0.12537341224E+04  0.12537341224E+04  0.00000000000E+00 0. -1.
          1   -1    0    0  501    0 -0.00000000000E+00 -0.00000000000E+00 -0.33111971640E+03  0.33111971640E+03  0.00000000000E+00 0. -1.
         25    2    1    2    0    0  0.40592553479E+02 -0.27583895541E+02  0.49157679431E+02  0.14303078279E+03  0.12503079896E+03 0.  0.
          2    1    1    2  501    0 -0.90084794949E+01  0.37456370573E+02 -0.28263971968E+03  0.28525312188E+03  0.00000000000E+00 0. -1.
          1    1    1    2  502    0 -0.31584073984E+02 -0.98724750320E+01  0.11560964463E+04  0.11565699342E+04  0.00000000000E+00 0. -1.
         22    1    3    3    0    0 -0.15259124113E+02  0.38849112279E+02 -0.28747115635E+01  0.41837284331E+02  0.00000000000E+00 0.  1.
         22    1    3    3    0    0  0.55851677592E+02 -0.66433007820E+02  0.52032390994E+02  0.10119349846E+03  0.00000000000E+00 0.  1.
</event>
<event>
 7    1  0.5139898E-006  0.4758447E+02  0.7818608E-02  0.1473683E+00
          2   -1    0    0  502    0  0.00000000000E+00  0.00000000000E+00  0.11301198456E+03  0.11301198456E+03  0.00000000000E+00 0. -1.
          1   -1    0    0  501    0 -0.00000000000E+00 -0.00000000000E+00 -0.14265173301E+04  0.14265173301E+04  0.00000000000E+00 0. -1.
         25    2    1    2    0    0  0.38293145821E+02  0.14548498440E+01 -0.73355317370E+02  0.14991520472E+03  0.12500033766E+03 0.  0.
          2    1    1    2  501    0 -0.94901438250E+01 -0.41689645197E+02 -0.13063030187E+04  0.13070025501E+04  0.00000000000E+00 0. -1.
          1    1    1    2  502    0 -0.28803001996E+02  0.40234795353E+02  0.66152990463E+02  0.82611559895E+02  0.00000000000E+00 0. -1.
         22    1    3    3    0    0 -0.29466496080E+02 -0.30186135495E+02 -0.60928773371E+02  0.74106629878E+02  0.00000000000E+00 0. -1.
         22    1    3    3    0    0  0.67759641901E+02  0.31640985339E+02 -0.12426543999E+02  0.75808574842E+02  0.00000000000E+00 0. -1.
</event>
<event>
 7    1  0.5139898E-006  0.5967467E+02  0.7818608E-02  0.1458623E+00
          2   -1    0    0  502    0  0.00000000000E+00  0.00000000000E+00  0.19822626165E+04  0.19822626165E+04  0.00000000000E+00 0. -1.
          1   -1    0    0  501    0 -0.00000000000E+00 -0.00000000000E+00 -0.43027562186E+03  0.43027562186E+03  0.00000000000E+00 0. -1.
         25    2    1    2    0    0  0.27517283801E+02 -0.53298021731E+02  0.24349507669E+03  0.28020185540E+03  0.12500138945E+03 0.  0.
          2    1    1    2  501    0  0.10063994740E+02  0.58918097037E+02 -0.40954277208E+03  0.41388151482E+03  0.00000000000E+00 0. -1.
          1    1    1    2  502    0 -0.37581278541E+02 -0.56200753067E+01  0.17180346900E+04  0.17184548681E+04  0.00000000000E+00 0. -1.
         22    1    3    3    0    0 -0.34450944825E+02  0.16458484476E+02  0.11662160583E+03  0.12271246170E+03  0.00000000000E+00 0. -1.
         22    1    3    3    0    0  0.61968228626E+02 -0.69756506206E+02  0.12687347086E+03  0.15748939369E+03  0.00000000000E+00 0. -1.
</event>
<event>
 7    1  0.5139898E-006  0.1847291E+03  0.7818608E-02  0.1277664E+00
          2   -1    0    0  502    0  0.00000000000E+00  0.00000000000E+00  0.64300968194E+03  0.64300968194E+03  0.00000000000E+00 0. -1.
          1   -1    0    0  501    0 -0.00000000000E+00 -0.00000000000E+00 -0.20386776720E+03  0.20386776720E+03  0.00000000000E+00 0. -1.
         25    2    1    2    0    0 -0.24934776647E+02  0.15132468478E+03  0.61955850287E+02  0.20732734818E+03  0.12500079443E+03 0.  0.
          2    1    1    2  501    0 -0.47898981702E+02  0.28051573350E+02 -0.10565134304E+03  0.11934575611E+03  0.00000000000E+00 0. -1.
          1    1    1    2  502    0  0.72833758348E+02 -0.17937625813E+03  0.48283740749E+03  0.52020434486E+03  0.00000000000E+00 0. -1.
         22    1    3    3    0    0 -0.83971956673E+00  0.41883744158E+02 -0.38451022560E+02  0.56863294748E+02  0.00000000000E+00 0.  1.
         22    1    3    3    0    0 -0.24095057080E+02  0.10944094062E+03  0.10040687285E+03  0.15046405343E+03  0.00000000000E+00 0.  1.
</event>
<event>
 7    1  0.5139898E-006  0.1483707E+03  0.7818608E-02  0.1239233E+00
          2   -1    0    0  502    0  0.00000000000E+00  0.00000000000E+00  0.21449427170E+03  0.21449427170E+03  0.00000000000E+00 0. -1.
          1   -1    0    0  501    0 -0.00000000000E+00 -0.00000000000E+00 -0.35931774504E+03  0.35931774504E+03  0.00000000000E+00 0. -1.
         25    2    1    2    0    0 -0.21779552556E+02 -0.95809296705E+02 -0.72910964184E+02  0.17491093815E+03  0.12499622930E+03 0.  0.
          2    1    1    2  501    0  0.88705957735E+02  0.17135930594E+03 -0.17073295325E+03  0.25764801571E+03  0.00000000000E+00 0. -1.
          1    1    1    2  502    0 -0.66926405179E+02 -0.75550009236E+02  0.98820444098E+02  0.14125306290E+03  0.00000000000E+00 0. -1.
         22    1    3    3    0    0 -0.31239102067E+02 -0.11335308831E+03 -0.21177723378E+02  0.11947091736E+03  0.00000000000E+00 0. -1.
         22    1    3    3    0    0  0.94595495113E+01  0.17543791602E+02 -0.51733240806E+02  0.55440020788E+02  0.00000000000E+00 0. -1.
</event>
<event>
 7    1  0.5139898E-006  0.8298842E+02  0.7818608E-02  0.1354058E+00
          2   -1    0    0  502    0  0.00000000000E+00  0.00000000000E+00  0.27991519333E+02  0.27991519333E+02  0.00000000000E+00 0. -1.
          1   -1    0    0  501    0 -0.00000000000E+00 -0.00000000000E+00 -0.13286484246E+04  0.13286484246E+04  0.00000000000E+00 0. -1.
         25    2    1    2    0    0 -0.50356789824E+02  0.15516361136E+01 -0.97134310094E+03  0.98064810011E+03  0.12500025061E+03 0.  0.
          2    1    1    2  501    0 -0.14562076366E+02 -0.60399072204E+02 -0.25066550199E+03  0.25825045185E+03  0.00000000000E+00 0. -1.
          1    1    1    2  502    0  0.64918866190E+02  0.58847436091E+02 -0.78648302314E+02  0.11774139195E+03  0.00000000000E+00 0. -1.
         22    1    3    3    0    0 -0.18841452152E+02  0.27682479966E+02 -0.62687357790E+02  0.71070562422E+02  0.00000000000E+00 0.  1.
         22    1    3    3    0    0 -0.31515337672E+02 -0.26130843853E+02 -0.90865574315E+03  0.90957753769E+03  0.00000000000E+00 0.  1.
</event>
<event>
 7    1  0.5139898E-006  0.1099488E+03  0.7818608E-02  0.1360344E+00
          2   -1    0    0  502    0  0.00000000000E+00  0.00000000000E+00  0.16439267056E+04  0.16439267056E+04  0.00000000000E+00 0. -1.
          1   -1    0    0  501    0 -0.00000000000E+00 -0.00000000000E+00 -0.12811548420E+03  0.12811548420E+03  0.00000000000E+00 0. -1.
         25    2    1    2    0    0  0.39836000724E+02  0.57608247918E+02  0.24535870017E+03  0.28413253760E+03  0.12499915997E+03 0.  0.
          2    1    1    2  501    0 -0.64553338205E+02 -0.94579140740E+02 -0.78110763385E+02  0.13861327026E+03  0.00000000000E+00 0. -1.
          1    1    1    2  502    0  0.24717337480E+02  0.36970892822E+02  0.13485632847E+04  0.13492963820E+04  0.00000000000E+00 0. -1.
         22    1    3    3    0    0  0.27749465448E+02  0.48957929039E+02  0.25834020416E+03  0.26439851122E+03  0.00000000000E+00 0.  1.
         22    1    3    3    0    0  0.12086535277E+02  0.86503188789E+01 -0.12981503988E+02  0.19734026389E+02  0.00000000000E+00 0.  1.
</event>
<event>
 7    1  0.5139898E-006  0.9537143E+02  0.7818608E-02  0.1383014E+00
          2   -1    0    0  502    0  0.00000000000E+00  0.00000000000E+00  0.22567165567E+02  0.22567165567E+02  0.00000000000E+00 0. -1.
          1   -1    0    0  501    0 -0.00000000000E+00 -0.00000000000E+00 -0.21693596828E+04  0.21693596828E+04  0.00000000000E+00 0. -1.
         25    2    1    2    0    0 -0.43983266691E+02  0.41863365846E+02 -0.15042877130E+04  0.15106930483E+04  0.12499957366E+03 0.  0.
          2    1    1    2  501    0 -0.82254618235E+01  0.41713659352E+02 -0.52988192127E+03  0.53158493027E+03  0.00000000000E+00 0. -1.
          1    1    1    2  502    0  0.52208728515E+02 -0.83577025198E+02 -0.11262288290E+03  0.14964886978E+03  0.00000000000E+00 0. -1.
         22    1    3    3    0    0  0.17907304179E+02  0.68874131190E+02 -0.72426031741E+03  0.72774811911E+03  0.00000000000E+00 0. -1.
         22    1    3    3    0    0 -0.61890570870E+02 -0.27010765344E+02 -0.78002739563E+03  0.78294492919E+03  0.00000000000E+00 0. -1.
</event>
<event>
 7    1  0.5139898E-006  0.6719567E+02  0.7818608E-02  0.1374529E+00
          2   -1    0    0  502    0  0.00000000000E+00  0.00000000000E+00  0.37232641071E+03  0.37232641071E+03  0.00000000000E+00 0. -1.
          1   -1    0    0  501    0 -0.00000000000E+00 -0.00000000000E+00 -0.99889669361E+03  0.99889669361E+03  0.00000000000E+00 0. -1.
         25    2    1    2    0    0  0.33939144460E+02  0.12664646907E+02 -0.14163797776E+03  0.19235011092E+03  0.12499995847E+03 0.  0.
          2    1    1    2  501    0 -0.40403117556E+02  0.54219398264E+02 -0.82725689598E+03  0.83001573901E+03  0.00000000000E+00 0. -1.
          1    1    1    2  502    0  0.64639730957E+01 -0.66884045171E+02  0.34232459084E+03  0.34885725439E+03  0.00000000000E+00 0. -1.
         22    1    3    3    0    0  0.93994297541E+01  0.60682764667E+02 -0.29940443641E+02  0.68316742990E+02  0.00000000000E+00 0.  1.
         22    1    3    3    0    0  0.24539714706E+02 -0.48018117760E+02 -0.11169753412E+03  0.12403336793E+03  0.00000000000E+00 0.  1.
</event>
<event>
 7    1  0.5139898E-006  0.2033095E+03  0.7818608E-02  0.1223221E+00
          2   -1    0    0  502    0  0.00000000000E+00  0.00000000000E+00  0.21891006127E+04  0.21891006127E+04  0.00000000000E+00 0. -1.
          1   -1    0    0  501    0 -0.00000000000E+00 -0.00000000000E+00 -0.33142824573E+03  0.33142824573E+03  0.00000000000E+00 0. -1.
         25    2    1    2    0    0  0.88756478219E+01 -0.13860748880E+03  0.73672455561E+02  0.20085651155E+03  0.12499957779E+03 0.  0.
          2    1    1    2  501    0 -0.18191761455E+02  0.22497573698E+03 -0.21917475092E+03  0.31461499306E+03  0.00000000000E+00 0. -1.
          1    1    1    2  502    0  0.93161136336E+01 -0.86368248179E+02  0.20031746623E+04  0.20050573538E+04  0.00000000000E+00 0. -1.
         22    1    3    3    0    0  0.20369469958E+02 -0.84110640399E+02 -0.22769702308E+02  0.89487286683E+02  0.00000000000E+00 0. -1.
         22    1    3    3    0    0 -0.11493822136E+02 -0.54496848403E+02  0.96442157869E+02  0.11136922487E+03  0.00000000000E+00 0. -1.
</event>
<event>
 7    1  0.5139898E-006  0.8994179E+02  0.7818608E-02  0.1403732E+00
          2   -1    0    0  502    0  0.00000000000E+00  0.00000000000E+00  0.25039863369E+03  0.25039863369E+03  0.00000000000E+00 0. -1.
          1   -1    0    0  501    0 -0.00000000000E+00 -0.00000000000E+00 -0.44804318831E+03  0.44804318831E+03  0.00000000000E+00 0. -1.
         25    2    1    2    0    0 -0.61902190764E+02  0.10433905838E+03 -0.73779904560E+02  0.18917584215E+03  0.12500201843E+03 0.  0.
          2    1    1    2  501    0  0.46770030540E+01 -0.37913605395E+02 -0.30534034579E+03  0.30772072176E+03  0.00000000000E+00 0. -1.
          1    1    1    2  502    0  0.57225187710E+02 -0.66425452990E+02  0.18147569574E+03  0.20154525809E+03  0.00000000000E+00 0. -1.
         22    1    3    3    0    0 -0.78345354093E+02  0.70414342830E+02 -0.98400595651E+02  0.14414871282E+03  0.00000000000E+00 0.  1.
         22    1    3    3    0    0  0.16443163328E+02  0.33924715555E+02  0.24620691091E+02  0.45027129328E+02  0.00000000000E+00 0.  1.
</event>
<event>
 7    1  0.5139898E-006  0.5016225E+02  0.7818608E-02  0.1475060E+00
          2   -1    0    0  502    0  0.00000000000E+00  0.00000000000E+00  0.27157150924E+04  0.27157150924E+04  0.00000000000E+00 0. -1.
          1   -1    0    0  501    0 -0.00000000000E+00 -0.00000000000E+00 -0.17714258888E+04  0.17714258888E+04  0.00000000000E+00 0. -1.
         25    2    1    2    0    0 -0.71823018231E+02  0.39560525938E+01  0.13608818426E+02  0.14485839051E+03  0.12499822824E+03 0.  0.
          2    1    1    2  501    0  0.43631721811E+02  0.24650266476E+02 -0.17052800295E+04  0.17060162197E+04  0.00000000000E+00 0. -1.
          1    1    1    2  502    0  0.28191296420E+02 -0.28606319070E+02  0.26359604148E+04  0.26362663710E+04  0.00000000000E+00 0. -1.
         22    1    3    3    0    0 -0.93649307983E+02 -0.84429565015E+01  0.45347416480E+02  0.10439283779E+03  0.00000000000E+00 0.  1.
         22    1    3    3    0    0  0.21826289752E+02  0.12399009095E+02 -0.31738598054E+02  0.40465552725E+02  0.00000000000E+00 0.  1.
</event>
<event>
 7    1  0.5139898E-006  0.8177703E+02  0.7818608E-02  0.1391987E+00
          2   -1    0    0  502    0  0.00000000000E+00  0.00000000000E+00  0.17453560761E+04  0.17453560761E+04  0.00000000000E+00 0. -1.
          1   -1    0    0  501    0 -0.00000000000E+00 -0.00000000000E+00 -0.27124456007E+03  0.27124456007E+03  0.00000000000E+00 0. -1.
         25    2    1    2    0    0  0.21013011864E+02  0.65049753868E+02 -0.15351747270E+03  0.20946736252E+03  0.12504376990E+03 0.  0.
          2    1    1    2  501    0  0.11544354257E+02 -0.97720212944E+02 -0.62372484257E+02  0.11650252755E+03  0.00000000000E+00 0. -1.
          1    1    1    2  502    0 -0.32557366120E+02  0.32670459076E+02  0.16900014729E+04  0.16906307461E+04  0.00000000000E+00 0. -1.
         22    1    3    3    0    0 -0.26615543785E+02  0.72305409094E+02 -0.13937909599E+03  0.15925762699E+03  0.00000000000E+00 0. -1.
         22    1    3    3    0    0  0.47628555648E+02 -0.72556552260E+01 -0.14138376704E+02  0.50209735527E+02  0.00000000000E+00 0. -1.
</event>
<event>
 7    1  0.5139898E-006  0.5657519E+02  0.7818608E-02  0.1553017E+00
          2   -1    0    0  502    0  0.00000000000E+00  0.00000000000E+00  0.59491118966E+03  0.59491118966E+03  0.00000000000E+00 0. -1.
          1   -1    0    0  501    0 -0.00000000000E+00 -0.00000000000E+00 -0.52334865392E+03  0.52334865392E+03  0.00000000000E+00 0. -1.
         25    2    1    2    0    0  0.33088546065E+02 -0.54159321923E+02  0.60323061500E+02  0.15262262773E+03  0.12500684267E+03 0.  0.
          2    1    1    2  501    0  0.10473325725E+02  0.18256806236E+02 -0.47533418368E+03  0.47579994504E+03  0.00000000000E+00 0. -1.
          1    1    1    2  502    0 -0.43561871790E+02  0.35902515686E+02  0.48657365791E+03  0.48983727082E+03  0.00000000000E+00 0. -1.
         22    1    3    3    0    0  0.42937103708E+02 -0.51480893550E+02  0.95114931536E+02  0.11636463155E+03  0.00000000000E+00 0.  1.
         22    1    3    3    0    0 -0.98485576427E+01 -0.26784283727E+01 -0.34791870036E+02  0.36257996177E+02  0.00000000000E+00 0.  1.
</event>
<event>
 7    1  0.5139898E-006  0.3703642E+03  0.7818608E-02  0.1122818E+00
          2   -1    0    0  502    0  0.00000000000E+00  0.00000000000E+00  0.19395993950E+04  0.19395993950E+04  0.00000000000E+00 0. -1.
          1   -1    0    0  501    0 -0.00000000000E+00 -0.00000000000E+00 -0.61246453880E+03  0.61246453880E+03  0.00000000000E+00 0. -1.
         25    2    1    2    0    0 -0.21763905036E+03 -0.20467648917E+03  0.45719674646E+03  0.56027489414E+03  0.12497948060E+03 0.  0.
          2    1    1    2  501    0 -0.14960524621E+03  0.68557139457E+01 -0.51972401188E+03  0.54087131467E+03  0.00000000000E+00 0. -1.
          1    1    1    2  502    0  0.36724429656E+03  0.19782077522E+03  0.13896621216E+04  0.14509177250E+04  0.00000000000E+00 0. -1.
         22    1    3    3    0    0 -0.11269532030E+03 -0.14219529310E+03  0.17191919106E+03  0.24995188507E+03  0.00000000000E+00 0.  1.
         22    1    3    3    0    0 -0.10494373005E+03 -0.62481196071E+02  0.28527755541E+03  0.31032300907E+03  0.00000000000E+00 0.  1.
</event>
<event>
 7    1  0.5139898E-006  0.4107587E+02  0.7818608E-02  0.1503400E+00
          2   -1    0    0  502    0  0.00000000000E+00  0.00000000000E+00  0.53193825953E+03  0.53193825953E+03  0.00000000000E+00 0. -1.
          1   -1    0    0  501    0 -0.00000000000E+00 -0.00000000000E+00 -0.89034765179E+03  0.89034765179E+03  0.00000000000E+00 0. -1.
         25    2    1    2    0    0  0.17916931076E+02  0.78590248026E+02 -0.27526816766E+03  0.31287946297E+03  0.12499420275E+03 0.  0.
          2    1    1    2  501    0 -0.40280224499E+01 -0.40048961113E+02 -0.59477484896E+03  0.59613527426E+03  0.00000000000E+00 0. -1.
          1    1    1    2  502    0 -0.13888908626E+02 -0.38541286913E+02  0.51163362436E+03  0.51327117409E+03  0.00000000000E+00 0. -1.
         22    1    3    3    0    0  0.21371754430E+02 -0.23306998203E+02 -0.13979660950E+03  0.14332850407E+03  0.00000000000E+00 0. -1.
         22    1    3    3    0    0 -0.34548233542E+01  0.10189724623E+03 -0.13547155816E+03  0.16955095890E+03  0.00000000000E+00 0. -1.
</event>
<event>
 7    1  0.5139898E-006  0.1828147E+03  0.7818608E-02  0.1277540E+00
          2   -1    0    0  502    0  0.00000000000E+00  0.00000000000E+00  0.25476068444E+04  0.25476068444E+04  0.00000000000E+00 0. -1.
          1   -1    0    0  501    0 -0.00000000000E+00 -0.00000000000E+00 -0.12754772756E+04  0.12754772756E+04  0.00000000000E+00 0. -1.
         25    2    1    2    0    0 -0.14711808426E+03  0.11981376887E+03  0.17364153507E+03  0.28596480520E+03  0.12500166873E+03 0.  0.
          2    1    1    2  501    0  0.45826871609E+02  0.32455893231E+02 -0.12150586370E+04  0.12163556135E+04  0.00000000000E+00 0. -1.
          1    1    1    2  502    0  0.10129121265E+03 -0.15226966210E+03  0.23135466707E+04  0.23207637013E+04  0.00000000000E+00 0. -1.
         22    1    3    3    0    0 -0.11028096322E+03  0.18245477536E+02  0.12436285325E+03  0.16721515352E+03  0.00000000000E+00 0.  1.
         22    1    3    3    0    0 -0.36837121041E+02  0.10156829133E+03  0.49278681813E+02  0.11874965167E+03  0.00000000000E+00 0.  1.
</event>
<event>
 7    1  0.5139898E-006  0.7306049E+02  0.7818608E-02  0.1422400E+00
          2   -1    0    0  502    0  0.00000000000E+00  0.00000000000E+00  0.23768633791E+03  0.23768633791E+03  0.00000000000E+00 0. -1.
          1   -1    0    0  501    0 -0.00000000000E+00 -0.00000000000E+00 -0.75081514061E+03  0.75081514061E+03  0.00000000000E+00 0. -1.
         25    2    1    2    0    0 -0.78459938395E+02 -0.29786731265E+02  0.75684677811E+02  0.16851330972E+03  0.12500141521E+03 0.  0.
          2    1    1    2  501    0  0.67756945306E+01  0.40110724936E+02 -0.69240026291E+03  0.69359419286E+03  0.00000000000E+00 0. -1.
          1    1    1    2  502    0  0.71684243865E+02 -0.10323993671E+02  0.10358678240E+03  0.12639397594E+03  0.00000000000E+00 0. -1.
         22    1    3    3    0    0  0.20379418520E+02  0.16668407607E+02 -0.11538184112E+02  0.28745194450E+02  0.00000000000E+00 0. -1.
         22    1    3    3    0    0 -0.98839356916E+02 -0.46455138872E+02  0.87222861924E+02  0.13976811527E+03  0.00000000000E+00 0. -1.
</event>
<event>
 7    1  0.5139898E-006  0.1289987E+03  0.7818608E-02  0.1306202E+00
          2   -1    0    0  502    0  0.00000000000E+00  0.00000000000E+00  0.12705709774E+04  0.12705709774E+04  0.00000000000E+00 0. -1.
          1   -1    0    0  501    0 -0.00000000000E+00 -0.00000000000E+00 -0.99228494241E+03  0.99228494241E+03  0.00000000000E+00 0. -1.
         25    2    1    2    0    0 -0.51372656118E+02 -0.12016478561E+03  0.14664374601E+03  0.23282644132E+03  0.12500015216E+03 0.  0.
          2    1    1    2  501    0 -0.48474701733E+02  0.36856969495E+02 -0.94429806564E+03  0.94625951498E+03  0.00000000000E+00 0. -1.
          1    1    1    2  502    0  0.99847357851E+02  0.83307816114E+02  0.10759403546E+04  0.10837699635E+04  0.00000000000E+00 0. -1.
         22    1    3    3    0    0 -0.79660351292E+02 -0.11393368614E+03  0.80565060305E+02  0.16067789315E+03  0.00000000000E+00 0.  1.
         22    1    3    3    0    0  0.28287695174E+02 -0.62310994644E+01  0.66078685702E+02  0.72148548170E+02  0.00000000000E+00 0.  1.
</event>
<event>
 7    1  0.5139898E-006  0.8632677E+02  0.7818608E-02  0.1316664E+00
          2   -1    0    0  502    0  0.00000000000E+00  0.00000000000E+00  0.81145542674E+02  0.81145542674E+02  0.00000000000E+00 0. -1.
          1   -1    0    0  501    0 -0.00000000000E+00 -0.00000000000E+00 -0.70066620902E+03  0.70066620902E+03  0.00000000000E+00 0. -1.
         25    2    1    2    0    0 -0.63113059488E+01 -0.24581511715E+02 -0.46935605733E+03  0.48638125245E+03  0.12501012311E+03 0.  0.
          2    1    1    2  501    0  0.85225476460E+02 -0.13745158787E+02 -0.18253565386E+03  0.20191972702E+03  0.00000000000E+00 0. -1.
          1    1    1    2  502    0 -0.78914170511E+02  0.38326670502E+02  0.32371044842E+02  0.93510772232E+02  0.00000000000E+00 0. -1.
         22    1    3    3    0    0  0.32114262184E+02 -0.22093858491E+02 -0.42028800407E+02  0.57322634991E+02  0.00000000000E+00 0.  1.
         22    1    3    3    0    0 -0.38425568133E+02 -0.24876532240E+01 -0.42732725693E+03  0.42905861746E+03  0.00000000000E+00 0.  1.
</event>
<event>
 7    1  0.5139898E-006  0.6861065E+02  0.7818608E-02  0.1419521E+00
          2   -1    0    0  502    0  0.00000000000E+00  0.00000000000E+00  0.70226875871E+03  0.70226875871E+03  0.00000000000E+00 0. -1.
          1   -1    0    0  501    0 -0.00000000000E+00 -0.00000000000E+00 -0.11501362141E+03  0.11501362141E+03  0.00000000000E+00 0. -1.
         25    2    1    2    0    0  0.49293090321E+02 -0.43713483018E+02  0.25073542886E+03  0.28780888313E+03  0.12500008229E+03 0.  0.
          2    1    1    2  501    0 -0.69245834225E+02  0.41772835340E+01 -0.82687496019E+02  0.10793357797E+03  0.00000000000E+00 0. -1.
          1    1    1    2  502    0  0.19952743904E+02  0.39536199484E+02  0.41920720445E+03  0.42153991902E+03  0.00000000000E+00 0. -1.
         22    1    3    3    0    0  0.33196833528E+02 -0.78482456696E+02  0.95839943532E+02  0.12824515797E+03  0.00000000000E+00 0. -1.
         22    1    3    3    0    0  0.16096256793E+02  0.34768973679E+02  0.15489548533E+03  0.15956372517E+03  0.00000000000E+00 0. -1.
</event>
<event>
 7    1  0.5139898E-006  0.6381292E+02  0.7818608E-02  0.1427816E+00
          2   -1    0    0  502    0  0.00000000000E+00  0.00000000000E+00  0.18202316210E+03  0.18202316210E+03  0.00000000000E+00 0. -1.
          1   -1    0    0  501    0 -0.00000000000E+00 -0.00000000000E+00 -0.20919860040E+03  0.20919860040E+03  0.00000000000E+00 0. -1.
         25    2    1    2    0    0 -0.11770718725E+02  0.73286273853E+02  0.44586427147E+02  0.15206096872E+03  0.12500064386E+03 0.  0.
          2    1    1    2  501    0 -0.29735557757E+02 -0.56726725873E+02 -0.14207746074E+03  0.15584649394E+03  0.00000000000E+00 0. -1.
          1    1    1    2  502    0  0.41506276482E+02 -0.16559547979E+02  0.70315595299E+02  0.83314299846E+02  0.00000000000E+00 0. -1.
         22    1    3    3    0    0  0.69000194764E+01  0.51158998221E+02  0.86730239408E+02  0.10093060881E+03  0.00000000000E+00 0. -1.
         22    1    3    3    0    0 -0.18670738202E+02  0.22127275631E+02 -0.42143812261E+02  0.51130359902E+02  0.00000000000E+00 0. -1.
</event>
<event>
 7    1  0.5139898E-006  0.6801238E+02  0.7818608E-02  0.1382319E+00
          2   -1    0    0  502    0  0.00000000000E+00  0.00000000000E+00  0.28687285179E+04  0.28687285179E+04  0.00000000000E+00 0. -1.
          1   -1    0    0  501    0 -0.00000000000E+00 -0.00000000000E+00 -0.26692372544E+03  0.26692372544E+03  0.00000000000E+00 0. -1.
         25    2    1    2    0    0 -0.43820581147E+02  0.11710943021E+03  0.15013957741E+02  0.17744146888E+03  0.12500077590E+03 0.  0.
          2    1    1    2  501    0  0.32616885173E+02 -0.50309468667E+02 -0.18044533153E+03  0.19014579014E+03  0.00000000000E+00 0. -1.
          1    1    1    2  502    0  0.11203695973E+02 -0.66799961546E+02  0.27672361663E+04  0.27680649844E+04  0.00000000000E+00 0. -1.
         22    1    3    3    0    0  0.17283423974E+02 -0.19916610914E+02  0.65425795287E+01  0.27169716256E+02  0.00000000000E+00 0. -1.
         22    1    3    3    0    0 -0.61104005120E+02  0.13702604113E+03  0.84713782123E+01  0.15027175263E+03  0.00000000000E+00 0. -1.
</event>
<event>
 7    1  0.5139898E-006  0.3851032E+02  0.7818608E-02  0.1614636E+00
          2   -1    0    0  502    0  0.00000000000E+00  0.00000000000E+00  0.51031180658E+03  0.51031180658E+03  0.00000000000E+00 0. -1.
          1   -1    0    0  501    0 -0.00000000000E+00 -0.00000000000E+00 -0.31718476611E+03  0.31718476611E+03  0.00000000000E+00 0. -1.
         25    2    1    2    0    0 -0.13878227194E+01  0.53602154744E+02  0.17870423641E+03  0.22458326418E+03  0.12500928523E+03 0.  0.
          2    1    1    2  501    0 -0.11283709519E+02 -0.17915558191E+02 -0.29269989588E+03  0.29346467994E+03  0.00000000000E+00 0. -1.
          1    1    1    2  502    0  0.12671532239E+02 -0.35686596553E+02  0.30712269995E+03  0.30944862857E+03  0.00000000000E+00 0. -1.
         22    1    3    3    0    0 -0.39050489836E+02  0.66805244063E+02  0.55910269531E+02  0.95466431952E+02  0.00000000000E+00 0.  1.
         22    1    3    3    0    0  0.37662667117E+02 -0.13203089318E+02  0.12279396688E+03  0.12911683222E+03  0.00000000000E+00 0.  1.
</event>
<event>
 7    1  0.5139898E-006  0.4493446E+02  0.7818608E-02  0.1538722E+00
          2   -1    0    0  502    0  0.00000000000E+00  0.00000000000E+00  0.19216966696E+03  0.19216966696E+03  0.00000000000E+00 0. -1.
          1   -1    0    0  501    0 -0.00000000000E+00 -0.00000000000E+00 -0.23259532079E+03  0.23259532079E+03  0.00000000000E+00 0. -1.
         25    2    1    2    0    0 -0.31856595841E+02  0.62169906133E+02  0.98882875309E+02  0.17401978381E+03  0.12500048880E+03 0.  0.
          2    1    1    2  501    0  0.29645977092E+02 -0.33190818265E+02 -0.18846046914E+03  0.19364364902E+03  0.00000000000E+00 0. -1.
          1    1    1    2  502    0  0.22106187490E+01 -0.28979087867E+02  0.49151940003E+02  0.57101554925E+02  0.00000000000E+00 0. -1.
         22    1    3    3    0    0 -0.38463409928E+01  0.52149729453E+02 -0.16524275972E+02  0.54840134185E+02  0.00000000000E+00 0.  1.
         22    1    3    3    0    0 -0.28010254848E+02  0.10020176680E+02  0.11540715128E+03  0.11917964962E+03  0.00000000000E+00 0.  1.
</event>
<event>
 7    1  0.5139898E-006  0.3398031E+02  0.7818608E-02  0.1565534E+00
          2   -1    0    0  502    0  0.00000000000E+00  0.00000000000E+00  0.15036690096E+04  0.15036690096E+04  0.00000000000E+00 0. -1.
          1   -1    0    0  501    0 -0.00000000000E+00 -0.00000000000E+00 -0.28030494244E+03  0.28030494244E+03  0.00000000000E+00 0. -1.
         25    2    1    2    0    0 -0.16413451820E+02  0.35781942607E+02  0.10171904117E+03  0.16589480838E+03  0.12499830116E+03 0.  0.
          2    1    1    2  501    0 -0.16667547050E+02 -0.27746472738E+02 -0.24694929248E+03  0.24906149227E+03  0.00000000000E+00 0. -1.
          1    1    1    2  502    0  0.33080998870E+02 -0.80354698691E+01  0.13685943185E+04  0.13690176514E+04  0.00000000000E+00 0. -1.
         22    1    3    3    0    0  0.28086906862E+02 -0.21425611453E+02  0.84228732048E+02  0.91336796887E+02  0.00000000000E+00 0.  1.
         22    1    3    3    0    0 -0.44500358682E+02  0.57207554060E+02  0.17490309126E+02  0.74558011492E+02  0.00000000000E+00 0.  1.
</event>
<event>
 7    1  0.5139898E-006  0.1674431E+03  0.7818608E-02  0.1242399E+00
          2   -1    0    0  502    0  0.00000000000E+00  0.00000000000E+00  0.20932641296E+04  0.20932641296E+04  0.00000000000E+00 0. -1.
          1   -1    0    0  501    0 -0.00000000000E+00 -0.00000000000E+00 -0.34955735582E+03  0.34955735582E+03  0.00000000000E+00 0. -1.
         25    2    1    2    0    0  0.15475283106E+03 -0.14055564317E+03 -0.11312978509E+03  0.26856509213E+03  0.12499813153E+03 0.  0.
          2    1    1    2  501    0 -0.68282631537E+02  0.13566555795E+03 -0.12120788871E+03  0.19431678690E+03  0.00000000000E+00 0. -1.
          1    1    1    2  502    0 -0.86470199527E+02  0.48900852136E+01  0.19780444476E+04  0.19799396064E+04  0.00000000000E+00 0. -1.
         22    1    3    3    0    0 -0.14955876538E+02 -0.46465965865E+02 -0.31193308674E+02  0.57929152702E+02  0.00000000000E+00 0. -1.
         22    1    3    3    0    0  0.16970870760E+03 -0.94089677301E+02 -0.81936476420E+02  0.21063593943E+03  0.00000000000E+00 0. -1.
</event>
<event>
 7    1  0.5139898E-006  0.1765041E+03  0.7818608E-02  0.1354965E+00
          2   -1    0    0  502    0  0.00000000000E+00  0.00000000000E+00  0.46776641261E+03  0.46776641261E+03  0.00000000000E+00 0. -1.
          1   -1    0    0  501    0 -0.00000000000E+00 -0.00000000000E+00 -0.13105005200E+04  0.13105005200E+04  0.00000000000E+00 0. -1.
         25    2    1    2    0    0  0.15801436744E+03  0.83635303576E+02 -0.73177386728E+02  0.23009692766E+03  0.12500504738E+03 0.  0.
          2    1    1    2  501    0  0.92855752206E+01 -0.27461151222E+02 -0.11386692350E+04  0.11390381747E+04  0.00000000000E+00 0. -1.
          1    1    1    2  502    0 -0.16729994266E+03 -0.56174152354E+02  0.36911251437E+03  0.40913183019E+03  0.00000000000E+00 0. -1.
         22    1    3    3    0    0  0.14793297165E+03  0.17238965541E+02 -0.64795265076E+02  0.16241851006E+03  0.00000000000E+00 0.  1.
         22    1    3    3    0    0  0.10081395791E+02  0.66396338035E+02 -0.83821216524E+01  0.67678417601E+02  0.00000000000E+00 0.  1.
</event>
<event>
 7    1  0.5139898E-006  0.7047597E+02  0.7818608E-02  0.1418783E+00
          2   -1    0    0  502    0  0.00000000000E+00  0.00000000000E+00  0.65930587300E+03  0.65930587300E+03  0.00000000000E+00 0. -1.
          1   -1    0    0  501    0 -0.00000000000E+00 -0.00000000000E+00 -0.55243377443E+03  0.55243377443E+03  0.00000000000E+00 0. -1.
         25    2    1    2    0    0  0.35643126589E+02  0.16280388306E+02 -0.88119806290E+02  0.15787992369E+03  0.12500194609E+03 0.  0.
          2    1    1    2  501    0  0.32330445772E+01  0.43238795964E+02 -0.42630724324E+03  0.42850660636E+03  0.00000000000E+00 0. -1.
          1    1    1    2  502    0 -0.38876171166E+02 -0.59519184270E+02  0.62129914810E+03  0.62535311737E+03  0.00000000000E+00 0. -1.
         22    1    3    3    0    0 -0.39737451908E+02  0.47862795604E+01 -0.68186620157E+02  0.79065724082E+02  0.00000000000E+00 0. -1.
         22    1    3    3    0    0  0.75380578497E+02  0.11494108745E+02 -0.19933186133E+02  0.78814199608E+02  0.00000000000E+00 0. -1.
</event>
<event>
 7    1  0.5139898E-006  0.9706899E+02  0.7818608E-02  0.1446179E+00
          2   -1    0    0  502    0  0.00000000000E+00  0.00000000000E+00  0.26063889729E+03  0.26063889729E+03  0.00000000000E+00 0. -1.
          1   -1    0    0  501    0 -0.00000000000E+00 -0.00000000000E+00 -0.30378831038E+04  0.30378831038E+04  0.00000000000E+00 0. -1.
         25    2    1    2    0    0 -0.10478315100E+03 -0.48648517528E+01  0.10975503655E+03  0.19665763159E+03  0.12499952200E+03 0.  0.
          2    1    1    2  501    0  0.95192891980E+02 -0.18866156496E+02 -0.29921093731E+04  0.29936827018E+04  0.00000000000E+00 0. -1.
          1    1    1    2  502    0  0.95902590236E+01  0.23731008248E+02  0.10511012996E+03  0.10818166777E+03  0.00000000000E+00 0. -1.
         22    1    3    3    0    0 -0.62189326213E+02 -0.82876903435E+01  0.13369023412E+03  0.14767964248E+03  0.00000000000E+00 0.  1.
         22    1    3    3    0    0 -0.42593824791E+02  0.34228385907E+01 -0.23935197570E+02  0.48977989108E+02  0.00000000000E+00 0.  1.
</event>
<event>
 7    1  0.5139898E-006  0.8349700E+02  0.7818608E-02  0.1423501E+00
          2   -1    0    0  502    0  0.00000000000E+00  0.00000000000E+00  0.79533841840E+03  0.79533841840E+03  0.00000000000E+00 0. -1.
          1   -1    0    0  501    0 -0.00000000000E+00 -0.00000000000E+00 -0.21980081270E+03  0.21980081270E+03  0.00000000000E+00 0. -1.
         25    2    1    2    0    0  0.89375250134E+01  0.80977984950E+02  0.79155530982E+02  0.16890349646E+03  0.12500191851E+03 0.  0.
          2    1    1    2  501    0 -0.43156390784E+02 -0.72326017115E+02 -0.16429053396E+03  0.18462098030E+03  0.00000000000E+00 0. -1.
          1    1    1    2  502    0  0.34218865771E+02 -0.86519678347E+01  0.66067260868E+03  0.66161475435E+03  0.00000000000E+00 0. -1.
         22    1    3    3    0    0  0.37746762004E+02  0.41360874499E+02 -0.19059492167E+02  0.59150690805E+02  0.00000000000E+00 0. -1.
         22    1    3    3    0    0 -0.28809236990E+02  0.39617110451E+02  0.98215023149E+02  0.10975280565E+03  0.00000000000E+00 0. -1.
</event>
<event>
 7    1  0.5139898E-006  0.9335373E+02  0.7818608E-02  0.1433430E+00
          2   -1    0    0  502    0  0.00000000000E+00  0.00000000000E+00  0.12820458499E+04  0.12820458499E+04  0.00000000000E+00 0. -1.
          1   -1    0    0  501    0 -0.00000000000E+00 -0.00000000000E+00 -0.12489246768E+03  0.12489246768E+03  0.00000000000E+00 0. -1.
         25    2    1    2    0    0 -0.48849850611E+02 -0.10892531812E+03  0.27886321223E+03  0.32808534618E+03  0.12499708160E+03 0.  0.
          2    1    1    2  501    0  0.55341732773E+01  0.28747324839E+02 -0.95972140968E+02  0.10033786723E+03  0.00000000000E+00 0. -1.
          1    1    1    2  502    0  0.43315677334E+02  0.80177993283E+02  0.97426231094E+03  0.97851510414E+03  0.00000000000E+00 0. -1.
         22    1    3    3    0    0  0.11753351264E+02 -0.76853311031E+02  0.58489723289E+02  0.97291420037E+02  0.00000000000E+00 0. -1.
         22    1    3    3    0    0 -0.60603201875E+02 -0.32072007090E+02  0.22037348894E+03  0.23079392614E+03  0.00000000000E+00 0. -1.
</event>
<event>
 7    1  0.5139898E-006  0.6221039E+02  0.7818608E-02  0.1427989E+00
          2   -1    0    0  502    0  0.00000000000E+00  0.00000000000E+00  0.16375505682E+03  0.16375505682E+03  0.00000000000E+00 0. -1.
          1   -1    0    0  501    0 -0.00000000000E+00 -0.00000000000E+00 -0.87847998462E+03  0.87847998462E+03  0.00000000000E+00 0. -1.
         25    2    1    2    0    0  0.88052595834E+02 -0.21786924055E+02 -0.54356991040E+01  0.15454036398E+03  0.12500099032E+03 0.  0.
          2    1    1    2  501    0 -0.46462340511E+02  0.40916444894E+02 -0.79132880517E+03  0.79374692595E+03  0.00000000000E+00 0. -1.
          1    1    1    2  502    0 -0.41590255323E+02 -0.19129520840E+02  0.82039576483E+02  0.93947751516E+02  0.00000000000E+00 0. -1.
         22    1    3    3    0    0  0.35417104621E+02  0.14364531381E+02 -0.59603935292E+02  0.70804944487E+02  0.00000000000E+00 0. -1.
         22    1    3    3    0    0  0.52635491213E+02 -0.36151455435E+02  0.54168236188E+02  0.83735419489E+02  0.00000000000E+00 0. -1.
</event>
<event>
 7    1  0.5139898E-006  0.5999622E+02  0.7818608E-02  0.1426041E+00
          2   -1    0    0  502    0  0.00000000000E+00  0.00000000000E+00  0.20683152659E+03  0.20683152659E+03  0.00000000000E+00 0. -1.
          1   -1    0    0  501    0 -0.00000000000E+00 -0.00000000000E+00 -0.23019791609E+04  0.23019791609E+04  0.00000000000E+00 0. -1.
         25    2    1    2    0    0  0.16151004298E+02  0.79185910824E+02 -0.17111747035E+04  0.17176366113E+04  0.12500159751E+03 0.  0.
          2    1    1    2  501    0 -0.41336116834E+02 -0.24746406597E+02 -0.58213882345E+03  0.58412898316E+03  0.00000000000E+00 0. -1.
          1    1    1    2  502    0  0.25185112536E+02 -0.54439504227E+02  0.19816589265E+03  0.20704509297E+03  0.00000000000E+00 0. -1.
         22    1    3    3    0    0  0.22961298205E+01 -0.32145102524E+02 -0.58515043706E+03  0.58603721197E+03  0.00000000000E+00 0.  1.
         22    1    3    3    0    0  0.13854874477E+02  0.11133101335E+03 -0.11260242664E+04  0.11315993994E+04  0.00000000000E+00 0.  1.
</event>
<event>
 7    1  0.5139898E-006  0.3854334E+02  0.7818608E-02  0.1529284E+00
          2   -1    0    0  502    0  0.00000000000E+00  0.00000000000E+00  0.41069390481E+03  0.41069390481E+03  0.00000000000E+00 0. -1.
          1   -1    0    0  501    0 -0.00000000000E+00 -0.00000000000E+00 -0.10385795633E+03  0.10385795633E+03  0.00000000000E+00 0. -1.
         25    2    1    2    0    0  0.38654384229E+01 -0.18059815802E+01  0.24582747468E+03  0.27583013698E+03  0.12503165190E+03 0.  0.
          2    1    1    2  501    0  0.37765664264E+02 -0.77034832958E+01 -0.81391555442E+02  0.90056506425E+02  0.00000000000E+00 0. -1.
          1    1    1    2  502    0 -0.41631102687E+02  0.95094648759E+01  0.14240002924E+03  0.14866521773E+03  0.00000000000E+00 0. -1.
         22    1    3    3    0    0 -0.42024569817E+02  0.37719888942E+02  0.16785140219E+03  0.17709587151E+03  0.00000000000E+00 0. -1.
         22    1    3    3    0    0  0.45890008240E+02 -0.39525870522E+02  0.77976072494E+02  0.98734265472E+02  0.00000000000E+00 0. -1.
</event>
<event>
 7    1  0.5139898E-006  0.1477303E+03  0.7818608E-02  0.1313873E+00
          2   -1    0    0  502    0  0.00000000000E+00  0.00000000000E+00  0.64757526962E+03  0.64757526962E+03  0.00000000000E+00 0. -1.
          1   -1    0    0  501    0 -0.00000000000E+00 -0.00000000000E+00 -0.37253804881E+03  0.37253804881E+03  0.00000000000E+00 0. -1.
         25    2    1    2    0    0  0.86541428085E+02 -0.53074493070E+02 -0.85200460797E+02  0.18218295560E+03  0.12500076080E+03 0.  0.
          2    1    1    2  501    0  0.40365121819E+02 -0.28821860405E+02 -0.22660156322E+03  0.23196618536E+03  0.00000000000E+00 0. -1.
          1    1    1    2  502    0 -0.12690654990E+03  0.81896353474E+02  0.58683924483E+03  0.60596417748E+03  0.00000000000E+00 0. -1.
         22    1    3    3    0    0 -0.28694578126E+02  0.32349393570E+01 -0.12703538244E+01  0.28904280744E+02  0.00000000000E+00 0.  1.
         22    1    3    3    0    0  0.11523600621E+03 -0.56309432427E+02 -0.83930106973E+02  0.15327867485E+03  0.00000000000E+00 0.  1.
</event>
<event>
 7    1  0.5139898E-006  0.9814389E+02  0.7818608E-02  0.1391534E+00
          2   -1    0    0  502    0  0.00000000000E+00  0.00000000000E+00  0.14602010629E+04  0.14602010629E+04  0.00000000000E+00 0. -1.
          1   -1    0    0  501    0 -0.00000000000E+00 -0.00000000000E+00 -0.13307506590E+03  0.13307506590E+03  0.00000000000E+00 0. -1.
         25    2    1    2    0    0 -0.78126428730E+02  0.15777190875E+02  0.57659008639E+03  0.59534357599E+03  0.12500074852E+03 0.  0.
          2    1    1    2  501    0 -0.26662457575E+02 -0.27872269800E+02 -0.11741863219E+03  0.12359160673E+03  0.00000000000E+00 0. -1.
          1    1    1    2  502    0  0.10478888631E+03  0.12095078925E+02  0.86795454280E+03  0.87434094608E+03  0.00000000000E+00 0. -1.
         22    1    3    3    0    0 -0.16951862797E+01 -0.35566760115E+01  0.42007745035E+03  0.42009592701E+03  0.00000000000E+00 0.  1.
         22    1    3    3    0    0 -0.76431242450E+02  0.19333866887E+02  0.15651263604E+03  0.17524764898E+03  0.00000000000E+00 0.  1.
</event>
<event>
 7    1  0.5139898E-006  0.1209120E+03  0.7818608E-02  0.1289001E+00
          2   -1    0    0  502    0  0.00000000000E+00  0.00000000000E+00  0.72499585782E+03  0.72499585782E+03  0.00000000000E+00 0. -1.
          1   -1    0    0  501    0 -0.00000000000E+00 -0.00000000000E+00 -0.52121353051E+03  0.52121353051E+03  0.00000000000E+00 0. -1.
         25    2    1    2    0    0 -0.11316446438E+03  0.14297335334E+02 -0.29523691894E+02  0.17178255728E+03  0.12500795498E+03 0.  0.
          2    1    1    2  501    0  0.89371843174E+02 -0.86663059870E+02 -0.40904768325E+03  0.42757200501E+03  0.00000000000E+00 0. -1.
          1    1    1    2  502    0  0.23792621201E+02  0.72365724536E+02  0.64235370246E+03  0.64685482604E+03  0.00000000000E+00 0. -1.
         22    1    3    3    0    0 -0.23853875439E+02 -0.47836718315E+02 -0.33194727075E+02  0.62922562711E+02  0.00000000000E+00 0. -1.
         22    1    3    3    0    0 -0.89310588937E+02  0.62134053648E+02  0.36710351804E+01  0.10885999457E+03  0.00000000000E+00 0. -1.
</event>
<event>
 7    1  0.5139898E-006  0.1256474E+03  0.7818608E-02  0.1273147E+00
          2   -1    0    0  502    0  0.00000000000E+00  0.00000000000E+00  0.22406811234E+03  0.22406811234E+03  0.00000000000E+00 0. -1.
          1   -1    0    0  501    0 -0.00000000000E+00 -0.00000000000E+00 -0.10393876511E+04  0.10393876511E+04  0.00000000000E+00 0. -1.
         25    2    1    2    0    0  0.51448683259E+02 -0.64554584200E+02 -0.38826469493E+03  0.41616198052E+03  0.12500823712E+03 0.  0.
          2    1    1    2  501    0  0.75023899717E+02  0.40423207047E+02 -0.61422826773E+03  0.62011207541E+03  0.00000000000E+00 0. -1.
          1    1    1    2  502    0 -0.12647258298E+03  0.24131377154E+02  0.18717342390E+03  0.22718170750E+03  0.00000000000E+00 0. -1.
         22    1    3    3    0    0  0.51251918513E+02 -0.70996065114E+02 -0.39630193603E+03  0.40586010510E+03  0.00000000000E+00 0. -1.
         22    1    3    3    0    0  0.19676474620E+00  0.64414809134E+01  0.80372410956E+01  0.10301875419E+02  0.00000000000E+00 0. -1.
</event>
<event>
 7    1  0.5139898E-006  0.1017795E+03  0.7818608E-02  0.1287686E+00
          2   -1    0    0  502    0  0.00000000000E+00  0.00000000000E+00  0.11252172561E+03  0.11252172561E+03  0.00000000000E+00 0. -1.
          1   -1    0    0  501    0 -0.00000000000E+00 -0.00000000000E+00 -0.89141938537E+03  0.89141938537E+03  0.00000000000E+00 0. -1.
         25    2    1    2    0    0  0.12149752463E+03 -0.98855545057E+02 -0.19957954211E+03  0.28282734646E+03  0.12500098799E+03 0.  0.
          2    1    1    2  501    0 -0.30003197958E+02  0.94040685160E+02 -0.61493955871E+03  0.62281177190E+03  0.00000000000E+00 0. -1.
          1    1    1    2  502    0 -0.91494326671E+02  0.48148598970E+01  0.35621441056E+02  0.98301992613E+02  0.00000000000E+00 0. -1.
         22    1    3    3    0    0  0.86275674267E+02 -0.89784387155E+02 -0.59314952293E+02  0.13792386201E+03  0.00000000000E+00 0. -1.
         22    1    3    3    0    0  0.35221850361E+02 -0.90711579017E+01 -0.14026458982E+03  0.14490348445E+03  0.00000000000E+00 0. -1.
</event>
<event>
 7    1  0.5139898E-006  0.9115917E+02  0.7818608E-02  0.1364861E+00
          2   -1    0    0  502    0  0.00000000000E+00  0.00000000000E+00  0.77410412569E+03  0.77410412569E+03  0.00000000000E+00 0. -1.
          1   -1    0    0  501    0 -0.00000000000E+00 -0.00000000000E+00 -0.17190966593E+04  0.17190966593E+04  0.00000000000E+00 0. -1.
         25    2    1    2    0    0  0.54091716060E+02  0.56500757318E+02  0.34651591299E+03  0.37658524481E+03  0.12499967732E+03 0.  0.
          2    1    1    2  501    0 -0.31749057018E+02  0.40737997912E+02 -0.16976312069E+04  0.16984167043E+04  0.00000000000E+00 0. -1.
          1    1    1    2  502    0 -0.22342659041E+02 -0.97238755230E+02  0.40612276023E+03  0.41819883586E+03  0.00000000000E+00 0. -1.
         22    1    3    3    0    0  0.24695591129E+02 -0.39745331761E+02  0.11340248875E+03  0.12267717013E+03  0.00000000000E+00 0.  1.
         22    1    3    3    0    0  0.29396124930E+02  0.96246089079E+02  0.23311342424E+03  0.25390807468E+03  0.00000000000E+00 0.  1.
</event>
<event>
 7    1  0.5139898E-006  0.7144318E+02  0.7818608E-02  0.1397146E+00
          2   -1    0    0  502    0  0.00000000000E+00  0.00000000000E+00  0.81070294885E+03  0.81070294885E+03  0.00000000000E+00 0. -1.
          1   -1    0    0  501    0 -0.00000000000E+00 -0.00000000000E+00 -0.54258478493E+02  0.54258478493E+02  0.00000000000E+00 0. -1.
         25    2    1    2    0    0  0.79914917619E+02 -0.79438890034E+01  0.24146957722E+03  0.28351762932E+03  0.12500075992E+03 0.  0.
          2    1    1    2  501    0 -0.60962152504E+02 -0.39042884519E+02  0.90133259138E+01  0.72951839685E+02  0.00000000000E+00 0. -1.
          1    1    1    2  502    0 -0.18952765115E+02  0.46986773522E+02  0.50596156722E+03  0.50849195834E+03  0.00000000000E+00 0. -1.
         22    1    3    3    0    0  0.36697803384E+02  0.38127755836E+02  0.25965600421E+02  0.58946305597E+02  0.00000000000E+00 0. -1.
         22    1    3    3    0    0  0.43217114235E+02 -0.46071644840E+02  0.21550397680E+03  0.22457132372E+03  0.00000000000E+00 0. -1.
</event>
<event>
 7    1  0.5139898E-006  0.1074421E+03  0.7818608E-02  0.1331528E+00
          2   -1    0    0  502    0  0.00000000000E+00  0.00000000000E+00  0.23422794697E+04  0.23422794697E+04  0.00000000000E+00 0. -1.
          1   -1    0    0  501    0 -0.00000000000E+00 -0.00000000000E+00 -0.43622581840E+03  0.43622581840E+03  0.00000000000E+00 0. -1.
         25    2    1    2    0    0  0.84318964288E+02  0.25563416548E+02  0.93033797491E+03  0.94282389358E+03  0.12499988297E+03 0.  0.
          2    1    1    2  501    0  0.31810020104E+02 -0.48837863106E+02 -0.42549791726E+03  0.42947117697E+03  0.00000000000E+00 0. -1.
          1    1    1    2  502    0 -0.11612898439E+03  0.23274446558E+02  0.14012135936E+04  0.14062102175E+04  0.00000000000E+00 0. -1.
         22    1    3    3    0    0  0.82557984566E+01  0.29937096063E+02  0.69000644166E+03  0.69070491344E+03  0.00000000000E+00 0.  1.
         22    1    3    3    0    0  0.76063165831E+02 -0.43736795143E+01  0.24033153325E+03  0.25211898013E+03  0.00000000000E+00 0.  1.
</event>
<event>
 7    1  0.5139898E-006  0.1055215E+03  0.7818608E-02  0.1294108E+00
          2   -1    0    0  502    0  0.00000000000E+00  0.00000000000E+00  0.86164592260E+03  0.86164592260E+03  0.00000000000E+00 0. -1.
          1   -1    0    0  501    0 -0.00000000000E+00 -0.00000000000E+00 -0.54664737266E+03  0.54664737266E+03  0.00000000000E+00 0. -1.
         25    2    1    2    0    0  0.51494236268E+02 -0.63796569914E+02 -0.27126735110E+03  0.30972935049E+03  0.12499854430E+03 0.  0.
          2    1    1    2  501    0 -0.72887875212E+02 -0.40163679374E+02 -0.24592878440E+03  0.25962806183E+03  0.00000000000E+00 0. -1.
          1    1    1    2  502    0  0.21393638944E+02  0.10396024929E+03  0.83219468544E+03  0.83893588295E+03  0.00000000000E+00 0. -1.
         22    1    3    3    0    0 -0.76496613128E+00 -0.21611987002E+02 -0.22976391764E+03  0.23077937734E+03  0.00000000000E+00 0. -1.
         22    1    3    3    0    0  0.52259202399E+02 -0.42184582912E+02 -0.41503433457E+02  0.78949973145E+02  0.00000000000E+00 0. -1.
</event>
<event>
 7    1  0.5139898E-006  0.5426981E+02  0.7818608E-02  0.1560390E+00
          2   -1    0    0  502    0  0.00000000000E+00  0.00000000000E+00  0.14857756769E+04  0.14857756769E+04  0.00000000000E+00 0. -1.
          1   -1    0    0  501    0 -0.00000000000E+00 -0.00000000000E+00 -0.82702843166E+02  0.82702843166E+02  0.00000000000E+00 0. -1.
         25    2    1    2    0    0  0.56691954569E+01 -0.37508489099E+02  0.35795203233E+03  0.38104280145E+03  0.12499973020E+03 0.  0.
          2    1    1    2  501    0  0.16156476817E+02 -0.13314213195E+02 -0.68916457741E+02  0.72026232469E+02  0.00000000000E+00 0. -1.
          1    1    1    2  502    0 -0.21825672274E+02  0.50822702294E+02  0.11140372592E+04  0.11154094862E+04  0.00000000000E+00 0. -1.
         22    1    3    3    0    0  0.42998088134E+02 -0.67324265081E+02  0.18280717566E+03  0.19949901184E+03  0.00000000000E+00 0.  1.
         22    1    3    3    0    0 -0.37328892677E+02  0.29815775983E+02  0.17514485667E+03  0.18154378961E+03  0.00000000000E+00 0.  1.
</event>
<event>
 7    1  0.5139898E-006  0.6138254E+02  0.7818608E-02  0.1490879E+00
          2   -1    0    0  502    0  0.00000000000E+00  0.00000000000E+00  0.10740010732E+03  0.10740010732E+03  0.00000000000E+00 0. -1.
          1   -1    0    0  501    0 -0.00000000000E+00 -0.00000000000E+00 -0.82270953805E+03  0.82270953805E+03  0.00000000000E+00 0. -1.
         25    2    1    2    0    0  0.19506304436E+02  0.30401461497E+02 -0.46655573422E+02  0.13822415851E+03  0.12499772275E+03 0.  0.
          2    1    1    2  501    0 -0.47026062663E+02 -0.40647267505E+02 -0.72536459293E+03  0.72802296915E+03  0.00000000000E+00 0. -1.
          1    1    1    2  502    0  0.27519758227E+02  0.10245806007E+02  0.56710735626E+02  0.63862517715E+02  0.00000000000E+00 0. -1.
         22    1    3    3    0    0 -0.81006847346E+01 -0.21539951147E+02 -0.70945166965E+02  0.74584229595E+02  0.00000000000E+00 0.  1.
         22    1    3    3    0    0  0.27606989171E+02  0.51941412644E+02  0.24289593542E+02  0.63639928920E+02  0.00000000000E+00 0.  1.
</event>
<event>
 7    1  0.5139898E-006  0.4839885E+02  0.7818608E-02  0.1527343E+00
          2   -1    0    0  502    0  0.00000000000E+00  0.00000000000E+00  0.62462477644E+03  0.62462477644E+03  0.00000000000E+00 0. -1.
          1   -1    0    0  501    0 -0.00000000000E+00 -0.00000000000E+00 -0.21756233609E+03  0.21756233609E+03  0.00000000000E+00 0. -1.
         25    2    1    2    0    0  0.14521652753E+02  0.44633468698E+02  0.68371644391E+02  0.15000656620E+03  0.12499705284E+03 0.  0.
          2    1    1    2  501    0  0.14496273958E+02 -0.46495852146E+02 -0.17296910628E+03  0.17969506936E+03  0.00000000000E+00 0. -1.
          1    1    1    2  502    0 -0.29017926711E+02  0.18623834474E+01  0.51165990224E+03  0.51248547697E+03  0.00000000000E+00 0. -1.
         22    1    3    3    0    0 -0.24983915273E+02 -0.14636403164E+02 -0.20965875924E+02  0.35748961848E+02  0.00000000000E+00 0.  1.
         22    1    3    3    0    0  0.39505568026E+02  0.59269871862E+02  0.89337520316E+02  0.11425760435E+03  0.00000000000E+00 0.  1.
</event>
<event>
 7    1  0.5139898E-006  0.1593892E+03  0.7818608E-02  0.1349809E+00
          2   -1    0    0  502    0  0.00000000000E+00  0.00000000000E+00  0.16295902333E+04  0.16295902333E+04  0.00000000000E+00 0. -1.
          1   -1    0    0  501    0 -0.00000000000E+00 -0.00000000000E+00 -0.17760876019E+03  0.17760876019E+03  0.00000000000E+00 0. -1.
         25    2    1    2    0    0  0.13240503547E+03 -0.47052729952E+02  0.20396294680E+03  0.27743852387E+03  0.12500479210E+03 0.  0.
          2    1    1    2  501    0  0.27292317643E+02  0.19494361273E+02 -0.13407088800E+03  0.13820240133E+03  0.00000000000E+00 0. -1.
          1    1    1    2  502    0 -0.15969735311E+03  0.27558368679E+02  0.13820894143E+04  0.13915580683E+04  0.00000000000E+00 0. -1.
         22    1    3    3    0    0  0.31903803132E+02  0.39242765917E+02  0.87453840764E+02  0.10102485633E+03  0.00000000000E+00 0.  1.
         22    1    3    3    0    0  0.10050123233E+03 -0.86295495869E+02  0.11650910604E+03  0.17641366755E+03  0.00000000000E+00 0.  1.
</event>
<event>
 7    1  0.5139898E-006  0.1007324E+03  0.7818608E-02  0.1364455E+00
          2   -1    0    0  502    0  0.00000000000E+00  0.00000000000E+00  0.11065983112E+04  0.11065983112E+04  0.00000000000E+00 0. -1.
          1   -1    0    0  501    0 -0.00000000000E+00 -0.00000000000E+00 -0.46467103409E+03  0.46467103409E+03  0.00000000000E+00 0. -1.
         25    2    1    2    0    0 -0.91192415947E+02  0.36482036439E+02  0.28154529876E+03  0.32332643429E+03  0.12500092860E+03 0.  0.
          2    1    1    2  501    0 -0.10987039535E+02 -0.45593558889E+02 -0.43925547862E+03  0.44175203808E+03  0.00000000000E+00 0. -1.
          1    1    1    2  502    0  0.10217945548E+03  0.91115224506E+01  0.79963745695E+03  0.80619087288E+03  0.00000000000E+00 0. -1.
         22    1    3    3    0    0  0.65699431264E+00  0.61702429130E+02  0.13654194776E+03  0.14983766182E+03  0.00000000000E+00 0.  1.
         22    1    3    3    0    0 -0.91849410260E+02 -0.25220392691E+02  0.14500335100E+03  0.17348877247E+03  0.00000000000E+00 0.  1.
</event>
<event>
 7    1  0.5139898E-006  0.6043962E+02  0.7818608E-02  0.1412053E+00
          2   -1    0    0  502    0  0.00000000000E+00  0.00000000000E+00  0.13188978019E+04  0.13188978019E+04  0.00000000000E+00 0. -1.
          1   -1    0    0  501    0 -0.00000000000E+00 -0.00000000000E+00 -0.50758125255E+02  0.50758125255E+02  0.00000000000E+00 0. -1.
         25    2    1    2    0    0 -0.10654762504E+03  0.12785300613E+02  0.49130057271E+03  0.51818625908E+03  0.12499954415E+03 0.  0.
          2    1    1    2  501    0  0.57784542513E+02  0.86433271514E+01 -0.12983936219E+02  0.59852677947E+02  0.00000000000E+00 0. -1.
          1    1    1    2  502    0  0.48763082524E+02 -0.21428627765E+02  0.78982304016E+03  0.79161699014E+03  0.00000000000E+00 0. -1.
         22    1    3    3    0    0  0.17639822864E+02 -0.18466682437E+02  0.17645938614E+03  0.17829777528E+03  0.00000000000E+00 0. -1.
         22    1    3    3    0    0 -0.12418744790E+03  0.31251983051E+02  0.31484118657E+03  0.33988848380E+03  0.00000000000E+00 0. -1.
</event>
<event>
 7    1  0.5139898E-006  0.1122714E+03  0.7818608E-02  0.1301582E+00
          2   -1    0    0  502    0  0.00000000000E+00  0.00000000000E+00  0.11201128708E+04  0.11201128708E+04  0.00000000000E+00 0. -1.
          1   -1    0    0  501    0 -0.00000000000E+00 -0.00000000000E+00 -0.24294690267E+03  0.24294690267E+03  0.00000000000E+00 0. -1.
         25    2    1    2    0    0  0.78280405279E+02  0.37714207795E+02 -0.15555530308E+03  0.21765256035E+03  0.12500000555E+03 0.  0.
          2    1    1    2  501    0  0.31122134263E+02 -0.66025752964E+02 -0.28372082242E+02  0.78313232256E+02  0.00000000000E+00 0. -1.
          1    1    1    2  502    0 -0.10940253954E+03  0.28311545169E+02  0.10610933535E+04  0.10670939809E+04  0.00000000000E+00 0. -1.
         22    1    3    3    0    0 -0.50577253551E+01  0.31740042535E+02 -0.12439350393E+03  0.12847861575E+03  0.00000000000E+00 0. -1.
         22    1    3    3    0    0  0.83338130634E+02  0.59741652602E+01 -0.31161799154E+02  0.89173944595E+02  0.00000000000E+00 0. -1.
</event>
<event>
 7    1  0.5139898E-006  0.7145541E+02  0.7818608E-02  0.1356808E+00
          2   -1    0    0  502    0  0.00000000000E+00  0.00000000000E+00  0.21564921287E+03  0.21564921287E+03  0.00000000000E+00 0. -1.
          1   -1    0    0  501    0 -0.00000000000E+00 -0.00000000000E+00 -0.23128880853E+04  0.23128880853E+04  0.00000000000E+00 0. -1.
         25    2    1    2    0    0 -0.84550297703E+02 -0.84363262325E+02 -0.94910024812E+02  0.19722628127E+03  0.12499752134E+03 0.  0.
          2    1    1    2  501    0  0.15665697246E+02  0.69367570592E+02 -0.21586538706E+04  0.21598249482E+04  0.00000000000E+00 0. -1.
          1    1    1    2  502    0  0.68884600457E+02  0.14995691732E+02  0.15632502297E+03  0.17148606870E+03  0.00000000000E+00 0. -1.
         22    1    3    3    0    0 -0.42727301356E+02 -0.77976591887E+02  0.46631233847E+01  0.89037721687E+02  0.00000000000E+00 0.  1.
         22    1    3    3    0    0 -0.41822996348E+02 -0.63866704377E+01 -0.99573148197E+02  0.10818855958E+03  0.00000000000E+00 0.  1.
</event>
<event>
 7    1  0.5139898E-006  0.8962963E+02  0.7818608E-02  0.1432625E+00
          2   -1    0    0  502    0  0.00000000000E+00  0.00000000000E+00  0.21466903448E+04  0.21466903448E+04  0.00000000000E+00 0. -1.
          1   -1    0    0  501    0 -0.00000000000E+00 -0.00000000000E+00 -0.17422360383E+03  0.17422360383E+03  0.00000000000E+00 0. -1.
         25    2    1    2    0    0 -0.59384348303E+02  0.61042065847E+02  0.31215263982E+03  0.34686937318E+03  0.12500582738E+03 0.  0.
          2    1    1    2  501    0  0.22203589780E+02  0.21168469065E+02 -0.15423364815E+03  0.15725495765E+03  0.00000000000E+00 0. -1.
          1    1    1    2  502    0  0.37180758524E+02 -0.82210534912E+02  0.18145477493E+04  0.18167896178E+04  0.00000000000E+00 0. -1.
         22    1    3    3    0    0 -0.46667183086E+02  0.93622222573E+02  0.16306733914E+03  0.19373668633E+03  0.00000000000E+00 0. -1.
         22    1    3    3    0    0 -0.12717165217E+02 -0.32580156725E+02  0.14908530068E+03  0.15313268685E+03  0.00000000000E+00 0. -1.
</event>
<event>
 7    1  0.5139898E-006  0.8036173E+02  0.7818608E-02  0.1343227E+00
          2   -1    0    0  502    0  0.00000000000E+00  0.00000000000E+00  0.39052748532E+03  0.39052748532E+03  0.00000000000E+00 0. -1.
          1   -1    0    0  501    0 -0.00000000000E+00 -0.00000000000E+00 -0.99096215677E+02  0.99096215677E+02  0.00000000000E+00 0. -1.
         25    2    1    2    0    0 -0.50020588723E+02 -0.10029007245E+03  0.31967770259E+02  0.17090194771E+03  0.12500151786E+03 0.  0.
          2    1    1    2  501    0 -0.13343960961E+02  0.69645866478E+02  0.27071142053E+02  0.75904247205E+02  0.00000000000E+00 0. -1.
          1    1    1    2  502    0  0.63364549684E+02  0.30644205969E+02  0.23239235733E+03  0.24281750609E+03  0.00000000000E+00 0. -1.
         22    1    3    3    0    0 -0.75849408622E+02 -0.81222192515E+02 -0.16922988163E+02  0.11241247650E+03  0.00000000000E+00 0.  1.
         22    1    3    3    0    0  0.25828819900E+02 -0.19067879932E+02  0.48890758422E+02  0.58489471203E+02  0.00000000000E+00 0.  1.
</event>
<event>
 7    1  0.5139898E-006  0.6461861E+02  0.7818608E-02  0.1388828E+00
          2   -1    0    0  502    0  0.00000000000E+00  0.00000000000E+00  0.86615059319E+02  0.86615059319E+02  0.00000000000E+00 0. -1.
          1   -1    0    0  501    0 -0.00000000000E+00 -0.00000000000E+00 -0.35000108391E+03  0.35000108391E+03  0.00000000000E+00 0. -1.
         25    2    1    2    0    0  0.45436242610E+02 -0.73409169943E+01 -0.35675565623E+02  0.13789944676E+03  0.12500068091E+03 0.  0.
          2    1    1    2  501    0 -0.44055504047E+02 -0.52513559793E+02 -0.22878888222E+03  0.23883658436E+03  0.00000000000E+00 0. -1.
          1    1    1    2  502    0 -0.13807385638E+01  0.59854476787E+02  0.10784232534E+01  0.59880112117E+02  0.00000000000E+00 0. -1.
         22    1    3    3    0    0  0.66226907392E+02 -0.17109839995E+02 -0.69173569890E+02  0.97281718009E+02  0.00000000000E+00 0.  1.
         22    1    3    3    0    0 -0.20790664782E+02  0.97689230009E+01  0.33498004267E+02  0.40617728747E+02  0.00000000000E+00 0.  1.
</event>
<event>
 7    1  0.5139898E-006  0.5481566E+02  0.7818608E-02  0.1500565E+00
          2   -1    0    0  502    0  0.00000000000E+00  0.00000000000E+00  0.21630635288E+03  0.21630635288E+03  0.00000000000E+00 0. -1.
          1   -1    0    0  501    0 -0.00000000000E+00 -0.00000000000E+00 -0.31056427747E+03  0.31056427747E+03  0.00000000000E+00 0. -1.
         25    2    1    2    0    0 -0.38115839146E+02  0.74815842760E+02  0.39378745852E+01  0.15063285114E+03  0.12499808584E+03 0.  0.
          2    1    1    2  501    0  0.20516742408E+02 -0.49595711494E+02 -0.23241941308E+03  0.23853606624E+03  0.00000000000E+00 0. -1.
          1    1    1    2  502    0  0.17599096738E+02 -0.25220131265E+02  0.13422361391E+03  0.13770171298E+03  0.00000000000E+00 0. -1.
         22    1    3    3    0    0  0.39675569579E+01  0.66353050184E+01  0.55053637649E+02  0.55593810800E+02  0.00000000000E+00 0.  1.
         22    1    3    3    0    0 -0.42083396103E+02  0.68180537741E+02 -0.51115763063E+02  0.95039040335E+02  0.00000000000E+00 0.  1.
</event>
<event>
 7    1  0.5139898E-006  0.5245654E+02  0.7818608E-02  0.1503288E+00
          2   -1    0    0  502    0  0.00000000000E+00  0.00000000000E+00  0.17534461183E+03  0.17534461183E+03  0.00000000000E+00 0. -1.
          1   -1    0    0  501    0 -0.00000000000E+00 -0.00000000000E+00 -0.49547955512E+03  0.49547955512E+03  0.00000000000E+00 0. -1.
         25    2    1    2    0    0 -0.50890334777E+02  0.17940026811E+01 -0.59862128405E+01  0.13510369104E+03  0.12499651183E+03 0.  0.
          2    1    1    2  501    0  0.41890593272E+02 -0.32025368668E+02 -0.42101097625E+03  0.42430023352E+03  0.00000000000E+00 0. -1.
          1    1    1    2  502    0  0.89997415052E+01  0.30231365987E+02  0.10686224580E+03  0.11142024239E+03  0.00000000000E+00 0. -1.
         22    1    3    3    0    0 -0.48942002645E+01 -0.25445391098E+02 -0.56121996830E+02  0.61815043902E+02  0.00000000000E+00 0.  1.
         22    1    3    3    0    0 -0.45996134513E+02  0.27239393779E+02  0.50135783990E+02  0.73288647141E+02  0.00000000000E+00 0.  1.
</event>
<event>
 7    1  0.5139898E-006  0.6113231E+02  0.7818608E-02  0.1444769E+00
          2   -1    0    0  502    0  0.00000000000E+00  0.00000000000E+00  0.11054754950E+04  0.11054754950E+04  0.00000000000E+00 0. -1.
          1   -1    0    0  501    0 -0.00000000000E+00 -0.00000000000E+00 -0.20817235937E+02  0.20817235937E+02  0.00000000000E+00 0. -1.
         25    2    1    2    0    0 -0.22974829521E+02 -0.20817561839E+02  0.47318045462E+03  0.49039862966E+03  0.12501943714E+03 0.  0.
          2    1    1    2  501    0  0.28910445841E+02  0.61455199331E+02  0.89740610924E+02  0.11254302578E+03  0.00000000000E+00 0. -1.
          1    1    1    2  502    0 -0.59356163202E+01 -0.40637637492E+02  0.52173719352E+03  0.52335107550E+03  0.00000000000E+00 0. -1.
         22    1    3    3    0    0 -0.53906767332E+01 -0.66373119482E+02  0.15802890316E+03  0.17148639777E+03  0.00000000000E+00 0. -1.
         22    1    3    3    0    0 -0.17584152788E+02  0.45555557643E+02  0.31515155145E+03  0.31891223188E+03  0.00000000000E+00 0. -1.
</event>
<event>
 7    1  0.5139898E-006  0.7338709E+02  0.7818608E-02  0.1365596E+00
          2   -1    0    0  502    0  0.00000000000E+00  0.00000000000E+00  0.11702512268E+04  0.11702512268E+04  0.00000000000E+00 0. -1.
          1   -1    0    0  501    0 -0.00000000000E+00 -0.00000000000E+00 -0.39634899952E+03  0.39634899952E+03  0.00000000000E+00 0. -1.
         25    2    1    2    0    0  0.13006395435E+03 -0.10178334899E+02  0.56447716677E+01  0.18077378918E+03  0.12500827447E+03 0.  0.
          2    1    1    2  501    0 -0.70095104542E+02 -0.11493377862E+02 -0.30373963853E+03  0.31193459159E+03  0.00000000000E+00 0. -1.
          1    1    1    2  502    0 -0.59968849805E+02  0.21671712761E+02  0.10719970942E+04  0.10738918456E+04  0.00000000000E+00 0. -1.
         22    1    3    3    0    0 -0.44038588263E+01  0.37675488633E+02  0.24003952400E+01  0.38007871732E+02  0.00000000000E+00 0. -1.
         22    1    3    3    0    0  0.13446781317E+03 -0.47853823532E+02  0.32443764277E+01  0.14276591745E+03  0.00000000000E+00 0. -1.
</event>
<event>
 7    1  0.5139898E-006  0.6737366E+02  0.7818608E-02  0.1438347E+00
          2   -1    0    0  502    0  0.00000000000E+00  0.00000000000E+00  0.11487063569E+03  0.11487063569E+03  0.00000000000E+00 0. -1.
          1   -1    0    0  501    0 -0.00000000000E+00 -0.00000000000E+00 -0.56642451701E+03  0.56642451701E+03  0.00000000000E+00 0. -1.
         25    2    1    2    0    0 -0.48202787932E+02 -0.16101033102E+02 -0.85306082147E+02  0.15964018237E+03  0.12500043257E+03 0.  0.
          2    1    1    2  501    0  0.42309042955E+02  0.54746457511E+02 -0.43612866089E+03  0.44158287849E+03  0.00000000000E+00 0. -1.
          1    1    1    2  502    0  0.58937449769E+01 -0.38645424409E+02  0.69880861715E+02  0.80072091840E+02  0.00000000000E+00 0. -1.
         22    1    3    3    0    0  0.15660830850E+02  0.36124833003E+02 -0.62806939956E+02  0.74128111328E+02  0.00000000000E+00 0.  1.
         22    1    3    3    0    0 -0.63863618781E+02 -0.52225866105E+02 -0.22499142191E+02  0.85512071040E+02  0.00000000000E+00 0.  1.
</event>
<event>
 7    1  0.5139898E-006  0.1341597E+03  0.7818608E-02  0.1403248E+00
          2   -1    0    0  502    0  0.00000000000E+00  0.00000000000E+00  0.12126211514E+04  0.12126211514E+04  0.00000000000E+00 0. -1.
          1   -1    0    0  501    0 -0.00000000000E+00 -0.00000000000E+00 -0.62729485982E+03  0.62729485982E+03  0.00000000000E+00 0. -1.
         25    2    1    2    0    0  0.22951325573E+02 -0.11247211714E+03  0.35863502071E+03  0.39676204104E+03  0.12499719455E+03 0.  0.
          2    1    1    2  501    0  0.95988343258E+01 -0.23848890892E+02 -0.60207345014E+03  0.60262205948E+03  0.00000000000E+00 0. -1.
          1    1    1    2  502    0 -0.32550159899E+02  0.13632100804E+03  0.82876472101E+03  0.84053191071E+03  0.00000000000E+00 0. -1.
         22    1    3    3    0    0 -0.27115937705E+02 -0.11630398706E+03  0.24714461420E+03  0.27448561312E+03  0.00000000000E+00 0. -1.
         22    1    3    3    0    0  0.50067263278E+02  0.38318699121E+01  0.11149040652E+03  0.12227642792E+03  0.00000000000E+00 0. -1.
</event>
<event>
 7    1  0.5139898E-006  0.7486825E+02  0.7818608E-02  0.1450085E+00
          2   -1    0    0  502    0  0.00000000000E+00  0.00000000000E+00  0.47320319689E+03  0.47320319689E+03  0.00000000000E+00 0. -1.
          1   -1    0    0  501    0 -0.00000000000E+00 -0.00000000000E+00 -0.37882914953E+03  0.37882914953E+03  0.00000000000E+00 0. -1.
         25    2    1    2    0    0 -0.36654682680E+02 -0.42363793269E+02 -0.19093403679E+03  0.23498590653E+03  0.12499725245E+03 0.  0.
          2    1    1    2  501    0  0.13606689032E+02 -0.29229608848E+02 -0.16112651066E+03  0.16432061483E+03  0.00000000000E+00 0. -1.
          1    1    1    2  502    0  0.23047993648E+02  0.71593402117E+02  0.44643459480E+03  0.45272582506E+03  0.00000000000E+00 0. -1.
         22    1    3    3    0    0 -0.34895106437E+02 -0.19224685896E+02 -0.20433890390E+03  0.20818656212E+03  0.00000000000E+00 0.  1.
         22    1    3    3    0    0 -0.17595762424E+01 -0.23139107373E+02  0.13404867108E+02  0.26799344409E+02  0.00000000000E+00 0.  1.
</event>
<event>
 7    1  0.5139898E-006  0.1376730E+03  0.7818608E-02  0.1367008E+00
          2   -1    0    0  502    0  0.00000000000E+00  0.00000000000E+00  0.39837354062E+03  0.39837354062E+03  0.00000000000E+00 0. -1.
          1   -1    0    0  501    0 -0.00000000000E+00 -0.00000000000E+00 -0.84338528003E+03  0.84338528003E+03  0.00000000000E+00 0. -1.
         25    2    1    2    0    0 -0.94704318757E+02  0.13904926139E+03 -0.26309864876E+03  0.33639054430E+03  0.12503637165E+03 0.  0.
          2    1    1    2  501    0  0.10203125289E+02 -0.32005718988E+02 -0.53023611207E+03  0.53129916653E+03  0.00000000000E+00 0. -1.
          1    1    1    2  502    0  0.84501193468E+02 -0.10704354240E+03  0.34832302141E+03  0.37406910981E+03  0.00000000000E+00 0. -1.
         22    1    3    3    0    0 -0.86192006863E+02  0.16197271637E+03 -0.21669520847E+03  0.28393843746E+03  0.00000000000E+00 0.  1.
         22    1    3    3    0    0 -0.85123118939E+01 -0.22923454976E+02 -0.46403440290E+02  0.52452106846E+02  0.00000000000E+00 0.  1.
</event>
<event>
 7    1  0.5139898E-006  0.5085791E+02  0.7818608E-02  0.1546386E+00
          2   -1    0    0  502    0  0.00000000000E+00  0.00000000000E+00  0.22714026417E+04  0.22714026417E+04  0.00000000000E+00 0. -1.
          1   -1    0    0  501    0 -0.00000000000E+00 -0.00000000000E+00 -0.11853072785E+03  0.11853072785E+03  0.00000000000E+00 0. -1.
         25    2    1    2    0    0  0.18705036837E+02  0.47096220097E+02 -0.16067657669E+02  0.13583692248E+03  0.12500227012E+03 0.  0.
          2    1    1    2  501    0  0.19986809326E+02 -0.14053295128E+02 -0.38755906365E+02  0.45814713020E+02  0.00000000000E+00 0. -1.
          1    1    1    2  502    0 -0.38691846163E+02 -0.33042924970E+02  0.22076954779E+04  0.22082817341E+04  0.00000000000E+00 0. -1.
         22    1    3    3    0    0  0.54266799772E+02  0.44402058192E+02 -0.50385729035E+02  0.86343210616E+02  0.00000000000E+00 0.  1.
         22    1    3    3    0    0 -0.35561762935E+02  0.26941619055E+01  0.34318071366E+02  0.49493711860E+02  0.00000000000E+00 0.  1.
</event>
<event>
 7    1  0.5139898E-006  0.1185668E+03  0.7818608E-02  0.1354795E+00
          2   -1    0    0  502    0  0.00000000000E+00  0.00000000000E+00  0.55828972170E+03  0.55828972170E+03  0.00000000000E+00 0. -1.
          1   -1    0    0  501    0 -0.00000000000E+00 -0.00000000000E+00 -0.14030258579E+04  0.14030258579E+04  0.00000000000E+00 0. -1.
         25    2    1    2    0    0  0.62797431604E+02  0.82529591296E+02  0.14401145234E+03  0.21708035276E+03  0.12501971963E+03 0.  0.
          2    1    1    2  501    0 -0.24642576347E+02  0.35501457742E+02 -0.13559543017E+04  0.13566427969E+04  0.00000000000E+00 0. -1.
          1    1    1    2  502    0 -0.38154855257E+02 -0.11803104904E+03  0.36720671319E+03  0.38759242992E+03  0.00000000000E+00 0. -1.
         22    1    3    3    0    0  0.99428129770E+02  0.68317457196E+02  0.91072361633E+02  0.15115357422E+03  0.00000000000E+00 0. -1.
         22    1    3    3    0    0 -0.36630698166E+02  0.14212134099E+02  0.52939090705E+02  0.65926778539E+02  0.00000000000E+00 0. -1.
</event>
<event>
 7    1  0.5139898E-006  0.1071530E+03  0.7818608E-02  0.1322794E+00
          2   -1    0    0  502    0  0.00000000000E+00  0.00000000000E+00  0.86638264560E+03  0.86638264560E+03  0.00000000000E+00 0. -1.
          1   -1    0    0  501    0 -0.00000000000E+00 -0.00000000000E+00 -0.12181851275E+04  0.12181851275E+04  0.00000000000E+00 0. -1.
         25    2    1    2    0    0  0.63944690922E+02  0.91539883186E+02  0.67872851569E+03  0.69911709870E+03  0.12499538385E+03 0.  0.
          2    1    1    2  501    0 -0.60093350921E+02  0.19341818282E+02 -0.11897304522E+04  0.11914041571E+04  0.00000000000E+00 0. -1.
          1    1    1    2  502    0 -0.38513400007E+01 -0.11088170147E+03  0.15919945457E+03  0.19404651730E+03  0.00000000000E+00 0. -1.
         22    1    3    3    0    0 -0.21071466544E+02  0.78080011470E+02  0.29791510974E+03  0.30869711288E+03  0.00000000000E+00 0.  1.
         22    1    3    3    0    0  0.85016157466E+02  0.13459871715E+02  0.38081340595E+03  0.39041998582E+03  0.00000000000E+00 0.  1.
</event>
<event>
 7    1  0.5139898E-006  0.9726770E+02  0.7818608E-02  0.1449273E+00
          2   -1    0    0  502    0  0.00000000000E+00  0.00000000000E+00  0.16834211058E+04  0.16834211058E+04  0.00000000000E+00 0. -1.
          1   -1    0    0  501    0 -0.00000000000E+00 -0.00000000000E+00 -0.39808294605E+03  0.39808294605E+03  0.00000000000E+00 0. -1.
         25    2    1    2    0    0 -0.98307022031E+02 -0.38637821367E+02  0.21613763294E+03  0.27110200296E+03  0.12499467115E+03 0.  0.
          2    1    1    2  501    0  0.96140804303E+02  0.13766183056E+02 -0.36412716712E+03  0.37685694353E+03  0.00000000000E+00 0. -1.
          1    1    1    2  502    0  0.21662177286E+01  0.24871638311E+02  0.14333276940E+04  0.14335451054E+04  0.00000000000E+00 0. -1.
         22    1    3    3    0    0 -0.12408022685E+03 -0.28235660488E+02  0.13585415868E+03  0.18614378219E+03  0.00000000000E+00 0.  1.
         22    1    3    3    0    0  0.25773204816E+02 -0.10402160879E+02  0.80283474254E+02  0.84958220766E+02  0.00000000000E+00 0.  1.
</event>
<event>
 7    1  0.5139898E-006  0.8187695E+02  0.7818608E-02  0.1351415E+00
          2   -1    0    0  502    0  0.00000000000E+00  0.00000000000E+00  0.69993984075E+03  0.69993984075E+03  0.00000000000E+00 0. -1.
          1   -1    0    0  501    0 -0.00000000000E+00 -0.00000000000E+00 -0.28062289916E+03  0.28062289916E+03  0.00000000000E+00 0. -1.
         25    2    1    2    0    0  0.85364540370E+01  0.83124643397E+02  0.22883530756E+03  0.27381687997E+03  0.12501003314E+03 0.  0.
          2    1    1    2  501    0  0.52770100773E+02 -0.63393135365E+02 -0.24913638672E+03  0.26243534887E+03  0.00000000000E+00 0. -1.
          1    1    1    2  502    0 -0.61306554810E+02 -0.19731508032E+02  0.43961802075E+03  0.44431051107E+03  0.00000000000E+00 0. -1.
         22    1    3    3    0    0 -0.49950798347E+02  0.21690944459E+02  0.42482378096E+02  0.69067588460E+02  0.00000000000E+00 0.  1.
         22    1    3    3    0    0  0.58487252384E+02  0.61433698938E+02  0.18635292946E+03  0.20474929151E+03  0.00000000000E+00 0.  1.
</event>
<event>
 7    1  0.5139898E-006  0.1329182E+03  0.7818608E-02  0.1261542E+00
          2   -1    0    0  502    0  0.00000000000E+00  0.00000000000E+00  0.20018990029E+04  0.20018990029E+04  0.00000000000E+00 0. -1.
          1   -1    0    0  501    0 -0.00000000000E+00 -0.00000000000E+00 -0.11911722963E+04  0.11911722963E+04  0.00000000000E+00 0. -1.
         25    2    1    2    0    0 -0.54787507360E+01 -0.98325762241E+02  0.28721742722E+02  0.16167023623E+03  0.12495741093E+03 0.  0.
          2    1    1    2  501    0 -0.84368123346E+02  0.10594884662E+03 -0.11195484876E+04  0.11277109356E+04  0.00000000000E+00 0. -1.
          1    1    1    2  502    0  0.89846874082E+02 -0.76230843785E+01  0.19015534514E+04  0.19036901273E+04  0.00000000000E+00 0. -1.
         22    1    3    3    0    0 -0.57846724374E+02 -0.20812819980E+02 -0.62678450760E+01  0.61795654201E+02  0.00000000000E+00 0. -1.
         22    1    3    3    0    0  0.52367973638E+02 -0.77512942261E+02  0.34989587798E+02  0.99874582027E+02  0.00000000000E+00 0. -1.
</event>
<event>
 7    1  0.5139898E-006  0.7178789E+02  0.7818608E-02  0.1401409E+00
          2   -1    0    0  502    0  0.00000000000E+00  0.00000000000E+00  0.13034299667E+04  0.13034299667E+04  0.00000000000E+00 0. -1.
          1   -1    0    0  501    0 -0.00000000000E+00 -0.00000000000E+00 -0.95696081774E+03  0.95696081774E+03  0.00000000000E+00 0. -1.
         25    2    1    2    0    0 -0.21447713334E+02 -0.27073829865E+02  0.81047672912E+02  0.15292543064E+03  0.12499786151E+03 0.  0.
          2    1    1    2  501    0 -0.48437266250E+02  0.54821247693E+01 -0.91924819543E+03  0.92053976952E+03  0.00000000000E+00 0. -1.
          1    1    1    2  502    0  0.69884979584E+02  0.21591705095E+02  0.11846696714E+04  0.11869255842E+04  0.00000000000E+00 0. -1.
         22    1    3    3    0    0 -0.45604543056E+02 -0.46356894787E+02  0.98045508677E+02  0.11765057507E+03  0.00000000000E+00 0. -1.
         22    1    3    3    0    0  0.24156829722E+02  0.19283064923E+02 -0.16997835765E+02  0.35274855573E+02  0.00000000000E+00 0. -1.
</event>
<event>
 7    1  0.5139898E-006  0.7678329E+02  0.7818608E-02  0.1371246E+00
          2   -1    0    0  502    0  0.00000000000E+00  0.00000000000E+00  0.59323658337E+03  0.59323658337E+03  0.00000000000E+00 0. -1.
          1   -1    0    0  501    0 -0.00000000000E+00 -0.00000000000E+00 -0.20272256158E+04  0.20272256158E+04  0.00000000000E+00 0. -1.
         25    2    1    2    0    0 -0.42990531139E+01 -0.21063929442E+02 -0.15818989974E+04  0.15869757727E+04  0.12500197556E+03 0.  0.
          2    1    1    2  501    0  0.22497728541E+02 -0.53624987461E+02 -0.43835870202E+03  0.44219920703E+03  0.00000000000E+00 0. -1.
          1    1    1    2  502    0 -0.18198675427E+02  0.74688916903E+02  0.58626866698E+03  0.59128721953E+03  0.00000000000E+00 0. -1.
         22    1    3    3    0    0 -0.64567674519E+01  0.22819678284E+02 -0.13863003396E+04  0.13865031767E+04  0.00000000000E+00 0.  1.
         22    1    3    3    0    0  0.21577143380E+01 -0.43883607725E+02 -0.19559865786E+03  0.20047259592E+03  0.00000000000E+00 0.  1.
</event>
<event>
 7    1  0.5139898E-006  0.3357213E+02  0.7818608E-02  0.1622224E+00
          2   -1    0    0  502    0  0.00000000000E+00  0.00000000000E+00  0.32750930192E+03  0.32750930192E+03  0.00000000000E+00 0. -1.
          1   -1    0    0  501    0 -0.00000000000E+00 -0.00000000000E+00 -0.26518718483E+03  0.26518718483E+03  0.00000000000E+00 0. -1.
         25    2    1    2    0    0 -0.13852767403E+02  0.17146899920E+01 -0.37199212655E+02  0.13116176445E+03  0.12499915082E+03 0.  0.
          2    1    1    2  501    0  0.27523786423E+02 -0.20493602722E+02 -0.17889231293E+03  0.18215379819E+03  0.00000000000E+00 0. -1.
          1    1    1    2  502    0 -0.13671019019E+02  0.18778912730E+02  0.27841364267E+03  0.27938092410E+03  0.00000000000E+00 0. -1.
         22    1    3    3    0    0 -0.79747480537E+01  0.21674960533E+02 -0.80163428083E+02  0.83424071602E+02  0.00000000000E+00 0.  1.
         22    1    3    3    0    0 -0.58780193497E+01 -0.19960270541E+02  0.42964215428E+02  0.47737692853E+02  0.00000000000E+00 0.  1.
</event>
<event>
 7    1  0.5139898E-006  0.6021080E+02  0.7818608E-02  0.1486835E+00
          2   -1    0    0  502    0  0.00000000000E+00  0.00000000000E+00  0.10193728347E+04  0.10193728347E+04  0.00000000000E+00 0. -1.
          1   -1    0    0  501    0 -0.00000000000E+00 -0.00000000000E+00 -0.15704956859E+04  0.15704956859E+04  0.00000000000E+00 0. -1.
         25    2    1    2    0    0 -0.53584047829E+02 -0.35008578158E+02 -0.30678412328E+03  0.33740032130E+03  0.12500251113E+03 0.  0.
          2    1    1    2  501    0  0.28688757292E+02  0.53131696726E+02 -0.12474369206E+04  0.12488974709E+04  0.00000000000E+00 0. -1.
          1    1    1    2  502    0  0.24895290537E+02 -0.18123118568E+02  0.10030981926E+04  0.10035707284E+04  0.00000000000E+00 0. -1.
         22    1    3    3    0    0 -0.94490764848E+02 -0.30396259535E+02 -0.21488453436E+03  0.23670192298E+03  0.00000000000E+00 0.  1.
         22    1    3    3    0    0  0.40906717018E+02 -0.46123186226E+01 -0.91899588926E+02  0.10069839832E+03  0.00000000000E+00 0.  1.
</event>
<event>
 7    1  0.5139898E-006  0.7400081E+02  0.7818608E-02  0.1359164E+00
          2   -1    0    0  502    0  0.00000000000E+00  0.00000000000E+00  0.38416647957E+04  0.38416647957E+04  0.00000000000E+00 0. -1.
          1   -1    0    0  501    0 -0.00000000000E+00 -0.00000000000E+00 -0.23247491290E+04  0.23247491290E+04  0.00000000000E+00 0. -1.
         25    2    1    2    0    0  0.31030930697E+02 -0.17723916146E+02  0.26864706118E+01  0.13003906878E+03  0.12500354563E+03 0.  0.
          2    1    1    2  501    0 -0.61984176203E+02 -0.41398164050E+02 -0.22601634969E+04  0.22613922434E+04  0.00000000000E+00 0. -1.
          1    1    1    2  502    0  0.30953245506E+02  0.59122080196E+02  0.37743926929E+04  0.37749826125E+04  0.00000000000E+00 0. -1.
         22    1    3    3    0    0 -0.15917638988E+02  0.15979176199E+02  0.50321395110E+02  0.55144792218E+02  0.00000000000E+00 0.  1.
         22    1    3    3    0    0  0.46948569686E+02 -0.33703092346E+02 -0.47634924498E+02  0.74894276558E+02  0.00000000000E+00 0.  1.
</event>
<event>
 7    1  0.5139898E-006  0.1072096E+03  0.7818608E-02  0.1269499E+00
          2   -1    0    0  502    0  0.00000000000E+00  0.00000000000E+00  0.32755303209E+03  0.32755303209E+03  0.00000000000E+00 0. -1.
          1   -1    0    0  501    0 -0.00000000000E+00 -0.00000000000E+00 -0.98678685522E+03  0.98678685522E+03  0.00000000000E+00 0. -1.
         25    2    1    2    0    0  0.12237407982E+03  0.43735203205E+02  0.11939497447E+03  0.21625640582E+03  0.12499395871E+03 0.  0.
          2    1    1    2  501    0 -0.92380618053E+02  0.55276802457E+02 -0.91812266355E+03  0.92441274807E+03  0.00000000000E+00 0. -1.
          1    1    1    2  502    0 -0.29993461771E+02 -0.99012005662E+02  0.13949386594E+03  0.17367073342E+03  0.00000000000E+00 0. -1.
         22    1    3    3    0    0  0.34285953193E+02 -0.35486868529E+02  0.18695231304E+01  0.49379545776E+02  0.00000000000E+00 0.  1.
         22    1    3    3    0    0  0.88088126632E+02  0.79222071734E+02  0.11752545134E+03  0.16687686004E+03  0.00000000000E+00 0.  1.
</event>
<event>
 7    1  0.5139898E-006  0.1473560E+03  0.7818608E-02  0.1406598E+00
          2   -1    0    0  502    0  0.00000000000E+00  0.00000000000E+00  0.30438419089E+04  0.30438419089E+04  0.00000000000E+00 0. -1.
          1   -1    0    0  501    0 -0.00000000000E+00 -0.00000000000E+00 -0.64913241919E+02  0.64913241919E+02  0.00000000000E+00 0. -1.
         25    2    1    2    0    0  0.13403959864E+03 -0.44270669566E+02  0.91857904912E+03  0.93773045127E+03  0.12499769422E+03 0.  0.
          2    1    1    2  501    0 -0.54178556681E+00 -0.22791046948E+02 -0.50231524301E+02  0.55162771741E+02  0.00000000000E+00 0. -1.
          1    1    1    2  502    0 -0.13349781308E+03  0.67061716514E+02  0.21105811422E+04  0.21158619278E+04  0.00000000000E+00 0. -1.
         22    1    3    3    0    0  0.42369786660E+02 -0.52584913999E+02  0.65636762861E+03  0.65983243016E+03  0.00000000000E+00 0.  1.
         22    1    3    3    0    0  0.91669811982E+02  0.83142444327E+01  0.26221142051E+03  0.27789802111E+03  0.00000000000E+00 0.  1.
</event>
<event>
 7    1  0.5139898E-006  0.6315299E+02  0.7818608E-02  0.1529791E+00
          2   -1    0    0  502    0  0.00000000000E+00  0.00000000000E+00  0.14607063701E+04  0.14607063701E+04  0.00000000000E+00 0. -1.
          1   -1    0    0  501    0 -0.00000000000E+00 -0.00000000000E+00 -0.37186077410E+02  0.37186077410E+02  0.00000000000E+00 0. -1.
         25    2    1    2    0    0  0.40847870196E+02  0.22833805583E+02  0.81633592159E+03  0.82717534224E+03  0.12499911506E+03 0.  0.
          2    1    1    2  501    0 -0.61755862156E+02 -0.16228107688E+02  0.72004557455E+00  0.63856530249E+02  0.00000000000E+00 0. -1.
          1    1    1    2  502    0  0.20907991960E+02 -0.66056978949E+01  0.60646432557E+03  0.60686057506E+03  0.00000000000E+00 0. -1.
         22    1    3    3    0    0  0.16888271914E+02  0.54100361392E+02  0.16150172026E+03  0.17115743769E+03  0.00000000000E+00 0.  1.
         22    1    3    3    0    0  0.23959598281E+02 -0.31266555808E+02  0.65483420133E+03  0.65601790455E+03  0.00000000000E+00 0.  1.
</event>
<event>
 7    1  0.5139898E-006  0.4645620E+02  0.7818608E-02  0.1530398E+00
          2   -1    0    0  502    0  0.00000000000E+00  0.00000000000E+00  0.22564938674E+03  0.22564938674E+03  0.00000000000E+00 0. -1.
          1   -1    0    0  501    0 -0.00000000000E+00 -0.00000000000E+00 -0.16096216416E+03  0.16096216416E+03  0.00000000000E+00 0. -1.
         25    2    1    2    0    0 -0.13641304103E+02 -0.41639547431E+02  0.44551064922E+02  0.13974470480E+03  0.12499539210E+03 0.  0.
          2    1    1    2  501    0 -0.15927712863E+02  0.44298440716E+02 -0.10668910792E+03  0.11661307661E+03  0.00000000000E+00 0. -1.
          1    1    1    2  502    0  0.29569016966E+02 -0.26588932853E+01  0.12682526558E+03  0.13025376949E+03  0.00000000000E+00 0. -1.
         22    1    3    3    0    0  0.39518015291E+02 -0.63527336189E+02  0.21910469848E+02  0.77958095569E+02  0.00000000000E+00 0. -1.
         22    1    3    3    0    0 -0.53159319394E+02  0.21887788759E+02  0.22640595074E+02  0.61786609233E+02  0.00000000000E+00 0. -1.
</event>
<event>
 7    1  0.5139898E-006  0.1192182E+03  0.7818608E-02  0.1350599E+00
          2   -1    0    0  502    0  0.00000000000E+00  0.00000000000E+00  0.21901173789E+03  0.21901173789E+03  0.00000000000E+00 0. -1.
          1   -1    0    0  501    0 -0.00000000000E+00 -0.00000000000E+00 -0.58849687130E+03  0.58849687130E+03  0.00000000000E+00 0. -1.
         25    2    1    2    0    0 -0.14963023572E+03  0.21749135667E+02 -0.26831618989E+03  0.33238826356E+03  0.12500459052E+03 0.  0.
          2    1    1    2  501    0  0.10547744788E+03 -0.27607811361E+02 -0.27492017349E+03  0.29575122155E+03  0.00000000000E+00 0. -1.
          1    1    1    2  502    0  0.44152787847E+02  0.58586756939E+01  0.17375122997E+03  0.17936912407E+03  0.00000000000E+00 0. -1.
         22    1    3    3    0    0 -0.38320760596E+02  0.49064258085E+02 -0.17118437885E+03  0.18215343443E+03  0.00000000000E+00 0.  1.
         22    1    3    3    0    0 -0.11130947513E+03 -0.27315122418E+02 -0.97131811036E+02  0.15023482912E+03  0.00000000000E+00 0.  1.
</event>
<event>
 7    1  0.5139898E-006  0.7250686E+02  0.7818608E-02  0.1356379E+00
          2   -1    0    0  502    0  0.00000000000E+00  0.00000000000E+00  0.16750628192E+04  0.16750628192E+04  0.00000000000E+00 0. -1.
          1   -1    0    0  501    0 -0.00000000000E+00 -0.00000000000E+00 -0.85109542808E+03  0.85109542808E+03  0.00000000000E+00 0. -1.
         25    2    1    2    0    0  0.90845302239E+02 -0.46560770667E+01  0.41558257623E+03  0.44340596801E+03  0.12500170721E+03 0.  0.
          2    1    1    2  501    0 -0.44830457845E+02  0.57045327653E+02 -0.83463288262E+03  0.83778039372E+03  0.00000000000E+00 0. -1.
          1    1    1    2  502    0 -0.46014844394E+02 -0.52389250587E+02  0.12430176975E+04  0.12449718856E+04  0.00000000000E+00 0. -1.
         22    1    3    3    0    0  0.28741842336E+02  0.24299471442E+02  0.33720431365E+03  0.33929825664E+03  0.00000000000E+00 0.  1.
         22    1    3    3    0    0  0.62103459903E+02 -0.28955548508E+02  0.78378262578E+02  0.10410771137E+03  0.00000000000E+00 0.  1.
</event>
<event>
 7    1  0.5139898E-006  0.5008749E+02  0.7818608E-02  0.1519435E+00
          2   -1    0    0  502    0  0.00000000000E+00  0.00000000000E+00  0.38904390156E+03  0.38904390156E+03  0.00000000000E+00 0. -1.
          1   -1    0    0  501    0 -0.00000000000E+00 -0.00000000000E+00 -0.59911758168E+03  0.59911758168E+03  0.00000000000E+00 0. -1.
         25    2    1    2    0    0  0.77660952600E+02  0.14735543950E+02 -0.76433129576E+02  0.16647661511E+03  0.12499632102E+03 0.  0.
          2    1    1    2  501    0 -0.28409569240E+02 -0.83658819038E+01 -0.47540728760E+03  0.47632885773E+03  0.00000000000E+00 0. -1.
          1    1    1    2  502    0 -0.49251383360E+02 -0.63696620464E+01  0.34176673706E+03  0.34535601040E+03  0.00000000000E+00 0. -1.
         22    1    3    3    0    0  0.10687557463E+03 -0.44840201161E+01 -0.35650159951E+02  0.11275384159E+03  0.00000000000E+00 0.  1.
         22    1    3    3    0    0 -0.29214622030E+02  0.19219564066E+02 -0.40782969625E+02  0.53722773520E+02  0.00000000000E+00 0.  1.
</event>
<event>
 7    1  0.5139898E-006  0.4997399E+02  0.7818608E-02  0.1445754E+00
          2   -1    0    0  502    0  0.00000000000E+00  0.00000000000E+00  0.62292921091E+03  0.62292921091E+03  0.00000000000E+00 0. -1.
          1   -1    0    0  501    0 -0.00000000000E+00 -0.00000000000E+00 -0.47827877605E+03  0.47827877605E+03  0.00000000000E+00 0. -1.
         25    2    1    2    0    0  0.74198440587E+01  0.38366343861E+02 -0.68262767162E+02  0.14768728567E+03  0.12499879416E+03 0.  0.
          2    1    1    2  501    0 -0.49921373690E+02 -0.12079096850E+02 -0.36744375085E+03  0.37101611579E+03  0.00000000000E+00 0. -1.
          1    1    1    2  502    0  0.42501529631E+02 -0.26287247011E+02  0.58035695288E+03  0.58250458550E+03  0.00000000000E+00 0. -1.
         22    1    3    3    0    0 -0.24948307571E+01  0.68381105290E+02  0.42763614649E+01  0.68560097787E+02  0.00000000000E+00 0.  1.
         22    1    3    3    0    0  0.99146748158E+01 -0.30014761429E+02 -0.72539128627E+02  0.79127187884E+02  0.00000000000E+00 0.  1.
</event>
<event>
 7    1  0.5139898E-006  0.4733584E+02  0.7818608E-02  0.1484036E+00
          2   -1    0    0  502    0  0.00000000000E+00  0.00000000000E+00  0.23140386228E+03  0.23140386228E+03  0.00000000000E+00 0. -1.
          1   -1    0    0  501    0 -0.00000000000E+00 -0.00000000000E+00 -0.23101800096E+04  0.23101800096E+04  0.00000000000E+00 0. -1.
         25    2    1    2    0    0  0.77122922078E+01 -0.40068335392E+02 -0.57235900997E+03  0.58726585705E+03  0.12498559763E+03 0.  0.
          2    1    1    2  501    0 -0.39633269250E+02  0.49810217903E+01 -0.17276223258E+04  0.17280840568E+04  0.00000000000E+00 0. -1.
          1    1    1    2  502    0  0.31920977042E+02  0.35087313602E+02  0.22120518849E+03  0.22623395803E+03  0.00000000000E+00 0. -1.
         22    1    3    3    0    0  0.33495781070E+02  0.11034054441E+02 -0.45825679315E+03  0.45961179943E+03  0.00000000000E+00 0. -1.
         22    1    3    3    0    0 -0.25783488862E+02 -0.51102389833E+02 -0.11410221682E+03  0.12765405763E+03  0.00000000000E+00 0. -1.
</event>
<event>
 7    1  0.5139898E-006  0.6322980E+02  0.7818608E-02  0.1471530E+00
          2   -1    0    0  502    0  0.00000000000E+00  0.00000000000E+00  0.54176887441E+03  0.54176887441E+03  0.00000000000E+00 0. -1.
          1   -1    0    0  501    0 -0.00000000000E+00 -0.00000000000E+00 -0.47197948225E+03  0.47197948225E+03  0.00000000000E+00 0. -1.
         25    2    1    2    0    0 -0.43499844625E+01  0.86723559579E+02 -0.89161122063E+02  0.17638964189E+03  0.12499480760E+03 0.  0.
          2    1    1    2  501    0  0.20610500229E+02 -0.58382072852E+02 -0.33583555817E+03  0.34149492131E+03  0.00000000000E+00 0. -1.
          1    1    1    2  502    0 -0.16260515767E+02 -0.28341486727E+02  0.49478607239E+03  0.49586379347E+03  0.00000000000E+00 0. -1.
         22    1    3    3    0    0 -0.10296313881E+02 -0.11936851410E+02  0.22368933647E+02  0.27365520160E+02  0.00000000000E+00 0.  1.
         22    1    3    3    0    0  0.59463294182E+01  0.98660410989E+02 -0.11153005571E+03  0.14902412173E+03  0.00000000000E+00 0.  1.
</event>
<event>
 7    1  0.5139898E-006  0.1399442E+03  0.7818608E-02  0.1369013E+00
          2   -1    0    0  502    0  0.00000000000E+00  0.00000000000E+00  0.12465219808E+04  0.12465219808E+04  0.00000000000E+00 0. -1.
          1   -1    0    0  501    0 -0.00000000000E+00 -0.00000000000E+00 -0.73484125744E+03  0.73484125744E+03  0.00000000000E+00 0. -1.
         25    2    1    2    0    0 -0.12869280716E+03  0.78845814371E+02  0.45466875846E+03  0.49510490456E+03  0.12500674201E+03 0.  0.
          2    1    1    2  501    0 -0.59540051866E+00 -0.32496662448E+02 -0.70813588574E+03  0.70888138659E+03  0.00000000000E+00 0. -1.
          1    1    1    2  502    0  0.12928820768E+03 -0.46349151923E+02  0.76514785067E+03  0.77737694712E+03  0.00000000000E+00 0. -1.
         22    1    3    3    0    0 -0.73661814831E+02  0.89945134100E+02  0.17664707457E+03  0.21147193447E+03  0.00000000000E+00 0. -1.
         22    1    3    3    0    0 -0.55030992332E+02 -0.11099319729E+02  0.27802168389E+03  0.28363297010E+03  0.00000000000E+00 0. -1.
</event>
<event>
 7    1  0.5139898E-006  0.1817577E+03  0.7818608E-02  0.1289596E+00
          2   -1    0    0  502    0  0.00000000000E+00  0.00000000000E+00  0.27026082051E+04  0.27026082051E+04  0.00000000000E+00 0. -1.
          1   -1    0    0  501    0 -0.00000000000E+00 -0.00000000000E+00 -0.52718437217E+03  0.52718437217E+03  0.00000000000E+00 0. -1.
         25    2    1    2    0    0 -0.79530803780E+02  0.15839163672E+03 -0.88490918180E+02  0.23424253646E+03  0.12500345578E+03 0.  0.
          2    1    1    2  501    0 -0.43927150651E+02 -0.24696746115E+02 -0.36091671271E+03  0.36441788834E+03  0.00000000000E+00 0. -1.
          1    1    1    2  502    0  0.12345795443E+03 -0.13369489060E+03  0.26248314638E+04  0.26311321524E+04  0.00000000000E+00 0. -1.
         22    1    3    3    0    0  0.19615107645E+02  0.11240729297E+01  0.11887375964E+02  0.22963573223E+02  0.00000000000E+00 0.  1.
         22    1    3    3    0    0 -0.99145911424E+02  0.15726756379E+03 -0.10037829414E+03  0.21127896324E+03  0.00000000000E+00 0.  1.
</event>
<event>
 7    1  0.5139898E-006  0.6179445E+02  0.7818608E-02  0.1401580E+00
          2   -1    0    0  502    0  0.00000000000E+00  0.00000000000E+00  0.77676400581E+03  0.77676400581E+03  0.00000000000E+00 0. -1.
          1   -1    0    0  501    0 -0.00000000000E+00 -0.00000000000E+00 -0.15056302293E+03  0.15056302293E+03  0.00000000000E+00 0. -1.
         25    2    1    2    0    0 -0.63802827459E+02 -0.84632721463E+02  0.32552858592E+03  0.36445455783E+03  0.12499906454E+03 0.  0.
          2    1    1    2  501    0  0.48763010122E+02  0.28643957104E+02 -0.12293347410E+03  0.13531794592E+03  0.00000000000E+00 0. -1.
          1    1    1    2  502    0  0.15039817337E+02  0.55988764359E+02  0.42360587106E+03  0.42755452499E+03  0.00000000000E+00 0. -1.
         22    1    3    3    0    0 -0.96913389815E+01  0.32336324636E+02  0.87294439358E+02  0.93594225704E+02  0.00000000000E+00 0. -1.
         22    1    3    3    0    0 -0.54111488477E+02 -0.11696904610E+03  0.23823414657E+03  0.27086033213E+03  0.00000000000E+00 0. -1.
</event>
<event>
 7    1  0.5139898E-006  0.7958743E+02  0.7818608E-02  0.1441971E+00
          2   -1    0    0  502    0  0.00000000000E+00  0.00000000000E+00  0.24862737940E+03  0.24862737940E+03  0.00000000000E+00 0. -1.
          1   -1    0    0  501    0 -0.00000000000E+00 -0.00000000000E+00 -0.10729305251E+03  0.10729305251E+03  0.00000000000E+00 0. -1.
         25    2    1    2    0    0 -0.74428375765E+02  0.63801052790E+02  0.17101819212E+02  0.15976806299E+03  0.12499281690E+03 0.  0.
          2    1    1    2  501    0  0.37844535788E+01 -0.31985833387E+02 -0.15981928406E+02  0.35956051813E+02  0.00000000000E+00 0. -1.
          1    1    1    2  502    0  0.70643922186E+02 -0.31815219403E+02  0.14021443609E+03  0.16019631711E+03  0.00000000000E+00 0. -1.
         22    1    3    3    0    0 -0.81832482924E+02  0.19473205367E+02  0.55399351580E+02  0.10072164189E+03  0.00000000000E+00 0. -1.
         22    1    3    3    0    0  0.74041071592E+01  0.44327847423E+02 -0.38297532368E+02  0.59046421106E+02  0.00000000000E+00 0. -1.
</event>
<event>
 7    1  0.5139898E-006  0.7924689E+02  0.7818608E-02  0.1361950E+00
          2   -1    0    0  502    0  0.00000000000E+00  0.00000000000E+00  0.92472170952E+03  0.92472170952E+03  0.00000000000E+00 0. -1.
          1   -1    0    0  501    0 -0.00000000000E+00 -0.00000000000E+00 -0.54354909058E+02  0.54354909058E+02  0.00000000000E+00 0. -1.
         25    2    1    2    0    0  0.23110571919E+02 -0.10941886866E+03  0.49162002523E+03  0.51944520216E+03  0.12500592579E+03 0.  0.
          2    1    1    2  501    0  0.25959106163E+02  0.73389705880E+02  0.18682457671E+01  0.77867929625E+02  0.00000000000E+00 0. -1.
          1    1    1    2  502    0 -0.49069678082E+02  0.36029162784E+02  0.37687852946E+03  0.38176348679E+03  0.00000000000E+00 0. -1.
         22    1    3    3    0    0 -0.24761115961E+02 -0.54424994485E+02  0.38895505099E+03  0.39352410928E+03  0.00000000000E+00 0. -1.
         22    1    3    3    0    0  0.47871687880E+02 -0.54993874178E+02  0.10266497424E+03  0.12592109288E+03  0.00000000000E+00 0. -1.
</event>
<event>
 7    1  0.5139898E-006  0.5122988E+02  0.7818608E-02  0.1498663E+00
          2   -1    0    0  502    0  0.00000000000E+00  0.00000000000E+00  0.15225335256E+04  0.15225335256E+04  0.00000000000E+00 0. -1.
          1   -1    0    0  501    0 -0.00000000000E+00 -0.00000000000E+00 -0.94274460405E+02  0.94274460405E+02  0.00000000000E+00 0. -1.
         25    2    1    2    0    0 -0.67051883950E+01 -0.83703561885E+02  0.64047917612E+02  0.16364087397E+03  0.12499981624E+03 0.  0.
          2    1    1    2  501    0 -0.78725163355E+00  0.33330089629E+02 -0.37702436946E+02  0.50328802803E+02  0.00000000000E+00 0. -1.
          1    1    1    2  502    0  0.74924400285E+01  0.50373472255E+02  0.14019135846E+04  0.14028383093E+04  0.00000000000E+00 0. -1.
         22    1    3    3    0    0  0.32166897912E+02  0.20426523536E+02  0.71297782422E+01  0.38765782887E+02  0.00000000000E+00 0. -1.
         22    1    3    3    0    0 -0.38872086307E+02 -0.10413008542E+03  0.56918139370E+02  0.12487509108E+03  0.00000000000E+00 0. -1.
</event>
<event>
 7    1  0.5139898E-006  0.1314667E+03  0.7818608E-02  0.1286272E+00
          2   -1    0    0  502    0  0.00000000000E+00  0.00000000000E+00  0.36850567026E+03  0.36850567026E+03  0.00000000000E+00 0. -1.
          1   -1    0    0  501    0 -0.00000000000E+00 -0.00000000000E+00 -0.10131364278E+04  0.10131364278E+04  0.00000000000E+00 0. -1.
         25    2    1    2    0    0 -0.10302032541E+03 -0.17007914457E+03 -0.24852349036E+03  0.34195387631E+03  0.12501370082E+03 0.  0.
          2    1    1    2  501    0  0.47042151799E+02  0.54351005942E+02 -0.70315237513E+03  0.70681699085E+03  0.00000000000E+00 0. -1.
          1    1    1    2  502    0  0.55978173609E+02  0.11572813863E+03  0.30704510800E+03  0.33287123087E+03  0.00000000000E+00 0. -1.
         22    1    3    3    0    0 -0.17653690472E+02 -0.55631667260E+02 -0.36302402073E+01  0.58478319345E+02  0.00000000000E+00 0.  1.
         22    1    3    3    0    0 -0.85366634935E+02 -0.11444747731E+03 -0.24489325015E+03  0.28347555696E+03  0.00000000000E+00 0.  1.
</event>
<event>
 7    1  0.5139898E-006  0.1032034E+03  0.7818608E-02  0.1377132E+00
          2   -1    0    0  502    0  0.00000000000E+00  0.00000000000E+00  0.21456225569E+04  0.21456225569E+04  0.00000000000E+00 0. -1.
          1   -1    0    0  501    0 -0.00000000000E+00 -0.00000000000E+00 -0.85967831335E+02  0.85967831335E+02  0.00000000000E+00 0. -1.
         25    2    1    2    0    0 -0.30929424628E+02  0.13212084501E+03  0.38329133938E+03  0.42538292807E+03  0.12500335058E+03 0.  0.
          2    1    1    2  501    0  0.40052392716E+02 -0.91922282921E+02 -0.25807861734E+02  0.10353717201E+03  0.00000000000E+00 0. -1.
          1    1    1    2  502    0 -0.91229680880E+01 -0.40198562086E+02  0.17021712479E+04  0.17026702882E+04  0.00000000000E+00 0. -1.
         22    1    3    3    0    0 -0.49695124999E+02  0.12837098882E+03  0.38217935985E+03  0.40621395756E+03  0.00000000000E+00 0. -1.
         22    1    3    3    0    0  0.18765700371E+02  0.37498561835E+01  0.11119795264E+01  0.19168970507E+02  0.00000000000E+00 0. -1.
</event>
<event>
 7    1  0.5139898E-006  0.7405409E+02  0.7818608E-02  0.1430186E+00
          2   -1    0    0  502    0  0.00000000000E+00  0.00000000000E+00  0.47479999954E+03  0.47479999954E+03  0.00000000000E+00 0. -1.
          1   -1    0    0  501    0 -0.00000000000E+00 -0.00000000000E+00 -0.20754182613E+03  0.20754182613E+03  0.00000000000E+00 0. -1.
         25    2    1    2    0    0  0.52127281999E+02 -0.42868640094E+02  0.16968638032E+03  0.22130067147E+03  0.12500218276E+03 0.  0.
          2    1    1    2  501    0  0.23655082119E+02  0.29510736654E+02 -0.17436851211E+03  0.17842316134E+03  0.00000000000E+00 0. -1.
          1    1    1    2  502    0 -0.75782364119E+02  0.13357903441E+02  0.27194030520E+03  0.28261799286E+03  0.00000000000E+00 0. -1.
         22    1    3    3    0    0  0.45931618527E+02 -0.12662371705E+01 -0.54262637994E+00  0.45952272854E+02  0.00000000000E+00 0. -1.
         22    1    3    3    0    0  0.61956634724E+01 -0.41602402924E+02  0.17022900670E+03  0.17534839862E+03  0.00000000000E+00 0. -1.
</event>
<event>
 7    1  0.5139898E-006  0.1263693E+03  0.7818608E-02  0.1333442E+00
          2   -1    0    0  502    0  0.00000000000E+00  0.00000000000E+00  0.63768071113E+03  0.63768071113E+03  0.00000000000E+00 0. -1.
          1   -1    0    0  501    0 -0.00000000000E+00 -0.00000000000E+00 -0.40903714866E+03  0.40903714866E+03  0.00000000000E+00 0. -1.
         25    2    1    2    0    0  0.64965894074E+02  0.52224124366E+02 -0.10813961530E+03  0.18511398840E+03  0.12500034298E+03 0.  0.
          2    1    1    2  501    0  0.19271250514E+02  0.44757579203E+02 -0.25317521347E+03  0.25782224634E+03  0.00000000000E+00 0. -1.
          1    1    1    2  502    0 -0.84237144588E+02 -0.96981703569E+02  0.58995839123E+03  0.60378162505E+03  0.00000000000E+00 0. -1.
         22    1    3    3    0    0  0.26781769723E+02  0.76993836484E+02 -0.11300598804E+03  0.13934011403E+03  0.00000000000E+00 0.  1.
         22    1    3    3    0    0  0.38184124352E+02 -0.24769712118E+02  0.48663727393E+01  0.45773874367E+02  0.00000000000E+00 0.  1.
</event>
<event>
 7    1  0.5139898E-006  0.1595344E+03  0.7818608E-02  0.1250281E+00
          2   -1    0    0  502    0  0.00000000000E+00  0.00000000000E+00  0.10114220732E+03  0.10114220732E+03  0.00000000000E+00 0. -1.
          1   -1    0    0  501    0 -0.00000000000E+00 -0.00000000000E+00 -0.10035738434E+04  0.10035738434E+04  0.00000000000E+00 0. -1.
         25    2    1    2    0    0 -0.91828944906E+02 -0.91765471918E+01 -0.37887721769E+03  0.40950082812E+03  0.12500487192E+03 0.  0.
          2    1    1    2  501    0 -0.80722953261E+02 -0.23157980634E+02 -0.51247541344E+03  0.51931063597E+03  0.00000000000E+00 0. -1.
          1    1    1    2  502    0  0.17255189817E+03  0.32334527826E+02 -0.11079004949E+02  0.17590458664E+03  0.00000000000E+00 0. -1.
         22    1    3    3    0    0 -0.96885651357E+02  0.27700475702E+02 -0.34413277755E+03  0.35858264651E+03  0.00000000000E+00 0. -1.
         22    1    3    3    0    0  0.50567064510E+01 -0.36877022894E+02 -0.34744440139E+02  0.50918181608E+02  0.00000000000E+00 0. -1.
</event>
<event>
 7    1  0.5139898E-006  0.9637834E+02  0.7818608E-02  0.1423808E+00
          2   -1    0    0  502    0  0.00000000000E+00  0.00000000000E+00  0.70075863488E+03  0.70075863488E+03  0.00000000000E+00 0. -1.
          1   -1    0    0  501    0 -0.00000000000E+00 -0.00000000000E+00 -0.14183716917E+04  0.14183716917E+04  0.00000000000E+00 0. -1.
         25    2    1    2    0    0 -0.86661341539E+02  0.86621122358E+02  0.17423581077E+01  0.17505546645E+03  0.12501189370E+03 0.  0.
          2    1    1    2  501    0  0.57907603054E+02 -0.76429772100E+02 -0.13296075087E+04  0.13330607367E+04  0.00000000000E+00 0. -1.
          1    1    1    2  502    0  0.28753738485E+02 -0.10191350257E+02  0.61025209376E+03  0.61101412343E+03  0.00000000000E+00 0. -1.
         22    1    3    3    0    0 -0.11372767469E+03  0.61324371423E+02  0.24593350340E+02  0.13152754617E+03  0.00000000000E+00 0.  1.
         22    1    3    3    0    0  0.27066333147E+02  0.25296750934E+02 -0.22850992232E+02  0.43527920279E+02  0.00000000000E+00 0.  1.
</event>
<event>
 7    1  0.5139898E-006  0.9616923E+02  0.7818608E-02  0.1408954E+00
          2   -1    0    0  502    0  0.00000000000E+00  0.00000000000E+00  0.24620333141E+03  0.24620333141E+03  0.00000000000E+00 0. -1.
          1   -1    0    0  501    0 -0.00000000000E+00 -0.00000000000E+00 -0.93327866741E+03  0.93327866741E+03  0.00000000000E+00 0. -1.
         25    2    1    2    0    0 -0.66245823210E+02 -0.10865748383E+03 -0.57405412934E+03  0.60113002276E+03  0.12499681181E+03 0.  0.
          2    1    1    2  501    0  0.69626139985E+01  0.33579082961E+02 -0.33494087209E+03  0.33669187784E+03  0.00000000000E+00 0. -1.
          1    1    1    2  502    0  0.59283209212E+02  0.75078400871E+02  0.22191966543E+03  0.24166009823E+03  0.00000000000E+00 0. -1.
         22    1    3    3    0    0 -0.15032178232E+02 -0.11467251171E+03 -0.28604165338E+03  0.30853780772E+03  0.00000000000E+00 0.  1.
         22    1    3    3    0    0 -0.51213644978E+02  0.60150278780E+01 -0.28801247596E+03  0.29259221504E+03  0.00000000000E+00 0.  1.
</event>
<event>
 7    1  0.5139898E-006  0.6678925E+02  0.7818608E-02  0.1458461E+00
          2   -1    0    0  502    0  0.00000000000E+00  0.00000000000E+00  0.39455628844E+03  0.39455628844E+03  0.00000000000E+00 0. -1.
          1   -1    0    0  501    0 -0.00000000000E+00 -0.00000000000E+00 -0.65452242855E+03  0.65452242855E+03  0.00000000000E+00 0. -1.
         25    2    1    2    0    0  0.50918270651E+02  0.85352241557E+02  0.46302683367E+02  0.16627183328E+03  0.12499883452E+03 0.  0.
          2    1    1    2  501    0 -0.39029580804E+02 -0.53507720745E+02 -0.59168177678E+03  0.59537694726E+03  0.00000000000E+00 0. -1.
          1    1    1    2  502    0 -0.11888689847E+02 -0.31844520812E+02  0.28541295331E+03  0.28742993645E+03  0.00000000000E+00 0. -1.
         22    1    3    3    0    0 -0.12652684742E+02 -0.26953832006E+02  0.20542451522E+01  0.29846598033E+02  0.00000000000E+00 0.  1.
         22    1    3    3    0    0  0.63570955392E+02  0.11230607356E+03  0.44248438215E+02  0.13642523525E+03  0.00000000000E+00 0.  1.
</event>
<event>
 7    1  0.5139898E-006  0.4912862E+02  0.7818608E-02  0.1462371E+00
          2   -1    0    0  502    0  0.00000000000E+00  0.00000000000E+00  0.66590578964E+03  0.66590578964E+03  0.00000000000E+00 0. -1.
          1   -1    0    0  501    0 -0.00000000000E+00 -0.00000000000E+00 -0.40237170864E+03  0.40237170864E+03  0.00000000000E+00 0. -1.
         25    2    1    2    0    0  0.65224245072E+01  0.92718713572E+01  0.16012973053E+03  0.20345912926E+03  0.12500230822E+03 0.  0.
          2    1    1    2  501    0  0.20767155639E+02 -0.44948834979E+02 -0.37804725131E+03  0.38127601123E+03  0.00000000000E+00 0. -1.
          1    1    1    2  502    0 -0.27289580146E+02  0.35676963621E+02  0.48145160178E+03  0.48354235779E+03  0.00000000000E+00 0. -1.
         22    1    3    3    0    0  0.20138256089E+02  0.65035025313E+02  0.84576814778E+02  0.10857412893E+03  0.00000000000E+00 0. -1.
         22    1    3    3    0    0 -0.13615831581E+02 -0.55763153956E+02  0.75552915751E+02  0.94885000328E+02  0.00000000000E+00 0. -1.
</event>
<event>
 7    1  0.5139898E-006  0.8554826E+02  0.7818608E-02  0.1372708E+00
          2   -1    0    0  502    0  0.00000000000E+00  0.00000000000E+00  0.60237367108E+03  0.60237367108E+03  0.00000000000E+00 0. -1.
          1   -1    0    0  501    0 -0.00000000000E+00 -0.00000000000E+00 -0.82856223139E+03  0.82856223139E+03  0.00000000000E+00 0. -1.
         25    2    1    2    0    0  0.10541059896E+02  0.12375359350E+03  0.51001635906E+02  0.18342778916E+03  0.12497408181E+03 0.  0.
          2    1    1    2  501    0 -0.33958819198E+02 -0.77808623879E+02 -0.75860427243E+03  0.76333991478E+03  0.00000000000E+00 0. -1.
          1    1    1    2  502    0  0.23417759302E+02 -0.45944969618E+02  0.48141407622E+03  0.48416819853E+03  0.00000000000E+00 0. -1.
         22    1    3    3    0    0 -0.16384907281E+02  0.14188073028E+03  0.34127302755E+02  0.14684440611E+03  0.00000000000E+00 0.  1.
         22    1    3    3    0    0  0.26925967177E+02 -0.18127136782E+02  0.16874333151E+02  0.36583383053E+02  0.00000000000E+00 0.  1.
</event>
<event>
 7    1  0.5139898E-006  0.1324463E+03  0.7818608E-02  0.1319747E+00
          2   -1    0    0  502    0  0.00000000000E+00  0.00000000000E+00  0.48502164010E+03  0.48502164010E+03  0.00000000000E+00 0. -1.
          1   -1    0    0  501    0 -0.00000000000E+00 -0.00000000000E+00 -0.13446559379E+03  0.13446559379E+03  0.00000000000E+00 0. -1.
         25    2    1    2    0    0  0.39511685103E+02 -0.92767483886E+02  0.42990820000E+02  0.16625848212E+03  0.12500677161E+03 0.  0.
          2    1    1    2  501    0 -0.24349435578E+02 -0.46489362116E+02 -0.47965405752E+02  0.71097369514E+02  0.00000000000E+00 0. -1.
          1    1    1    2  502    0 -0.15162249525E+02  0.13925684600E+03  0.35553063206E+03  0.38213138225E+03  0.00000000000E+00 0. -1.
         22    1    3    3    0    0  0.65488782737E+02 -0.23159766390E+02 -0.16127586944E+02  0.71310970434E+02  0.00000000000E+00 0. -1.
         22    1    3    3    0    0 -0.25977097634E+02 -0.69607717497E+02  0.59118406944E+02  0.94947511690E+02  0.00000000000E+00 0. -1.
</event>
<event>
 7    1  0.5139898E-006  0.7990927E+02  0.7818608E-02  0.1343754E+00
          2   -1    0    0  502    0  0.00000000000E+00  0.00000000000E+00  0.11949724494E+04  0.11949724494E+04  0.00000000000E+00 0. -1.
          1   -1    0    0  501    0 -0.00000000000E+00 -0.00000000000E+00 -0.11913541485E+03  0.11913541485E+03  0.00000000000E+00 0. -1.
         25    2    1    2    0    0  0.60869558417E+02  0.63267249182E+02  0.97219161344E+03  0.98411862051E+03  0.12500031216E+03 0.  0.
          2    1    1    2  501    0  0.24974902717E+02 -0.65888497391E+02 -0.92256857889E+02  0.11608775853E+03  0.00000000000E+00 0. -1.
          1    1    1    2  502    0 -0.85844461134E+02  0.26212482090E+01  0.19590227899E+03  0.21390148518E+03  0.00000000000E+00 0. -1.
         22    1    3    3    0    0 -0.20626266289E+02  0.64127954675E+02  0.55208251008E+03  0.55617707196E+03  0.00000000000E+00 0.  1.
         22    1    3    3    0    0  0.81495824706E+02 -0.86070549288E+00  0.42010910335E+03  0.42794154855E+03  0.00000000000E+00 0.  1.
</event>
<event>
 7    1  0.5139898E-006  0.5401399E+02  0.7818608E-02  0.1563381E+00
          2   -1    0    0  502    0  0.00000000000E+00  0.00000000000E+00  0.98514508001E+03  0.98514508001E+03  0.00000000000E+00 0. -1.
          1   -1    0    0  501    0 -0.00000000000E+00 -0.00000000000E+00 -0.12392105018E+04  0.12392105018E+04  0.00000000000E+00 0. -1.
         25    2    1    2    0    0 -0.69427458518E+02 -0.26625941670E+02  0.19469007262E+03  0.24303408105E+03  0.12502890629E+03 0.  0.
          2    1    1    2  501    0  0.51278059156E+02  0.16795402765E+02 -0.12143002643E+04  0.12154985219E+04  0.00000000000E+00 0. -1.
          1    1    1    2  502    0  0.18149399362E+02  0.98305389048E+01  0.76554476989E+03  0.76582297883E+03  0.00000000000E+00 0. -1.
         22    1    3    3    0    0 -0.24210231829E+02  0.50470454078E+02  0.79701536710E+02  0.97394748390E+02  0.00000000000E+00 0. -1.
         22    1    3    3    0    0 -0.45217226689E+02 -0.77096395747E+02  0.11498853591E+03  0.14563933266E+03  0.00000000000E+00 0. -1.
</event>
<event>
 7    1  0.5139898E-006  0.1501750E+03  0.7818608E-02  0.1302151E+00
          2   -1    0    0  502    0  0.00000000000E+00  0.00000000000E+00  0.26355843633E+03  0.26355843633E+03  0.00000000000E+00 0. -1.
          1   -1    0    0  501    0 -0.00000000000E+00 -0.00000000000E+00 -0.69126131227E+03  0.69126131227E+03  0.00000000000E+00 0. -1.
         25    2    1    2    0    0 -0.76301785122E+02 -0.18378666899E+03 -0.36823058517E+02  0.23786709785E+03  0.12500126595E+03 0.  0.
          2    1    1    2  501    0  0.63075641539E+02  0.13113718939E+03 -0.53947269337E+03  0.55875422673E+03  0.00000000000E+00 0. -1.
          1    1    1    2  502    0  0.13226143583E+02  0.52649479605E+02  0.14859287595E+03  0.15819842401E+03  0.00000000000E+00 0. -1.
         22    1    3    3    0    0 -0.69482920968E+02 -0.46100393813E+02  0.24612853414E+02  0.86942021883E+02  0.00000000000E+00 0.  1.
         22    1    3    3    0    0 -0.68188641543E+01 -0.13768627518E+03 -0.61435911931E+02  0.15092507597E+03  0.00000000000E+00 0.  1.
</event>
<event>
 7    1  0.5139898E-006  0.1374995E+03  0.7818608E-02  0.1249082E+00
          2   -1    0    0  502    0  0.00000000000E+00  0.00000000000E+00  0.40828840943E+03  0.40828840943E+03  0.00000000000E+00 0. -1.
          1   -1    0    0  501    0 -0.00000000000E+00 -0.00000000000E+00 -0.33492365938E+03  0.33492365938E+03  0.00000000000E+00 0. -1.
         25    2    1    2    0    0 -0.14452966097E+02  0.93415337388E+02 -0.33167083544E+02  0.16018900297E+03  0.12500059101E+03 0.  0.
          2    1    1    2  501    0 -0.67851568948E+02 -0.14773261161E+03 -0.20189743381E+03  0.25921291195E+03  0.00000000000E+00 0. -1.
          1    1    1    2  502    0  0.82304535045E+02  0.54317274217E+02  0.30842926741E+03  0.32381015389E+03  0.00000000000E+00 0. -1.
         22    1    3    3    0    0  0.12647987504E+02  0.11716977518E+03 -0.38006879432E+02  0.12382750376E+03  0.00000000000E+00 0.  1.
         22    1    3    3    0    0 -0.27100953601E+02 -0.23754437787E+02  0.48397958878E+01  0.36361499212E+02  0.00000000000E+00 0.  1.
</event>
<event>
 7    1  0.5139898E-006  0.2354844E+03  0.7818608E-02  0.1233438E+00
          2   -1    0    0  502    0  0.00000000000E+00  0.00000000000E+00  0.13551224406E+03  0.13551224406E+03  0.00000000000E+00 0. -1.
          1   -1    0    0  501    0 -0.00000000000E+00 -0.00000000000E+00 -0.12085190325E+04  0.12085190325E+04  0.00000000000E+00 0. -1.
         25    2    1    2    0    0  0.70534105549E+02 -0.22980006059E+03 -0.75891066154E+03  0.80582494817E+03  0.12500130804E+03 0.  0.
          2    1    1    2  501    0 -0.67184816140E+02 -0.62114118248E+01 -0.29363368780E+03  0.30128578421E+03  0.00000000000E+00 0. -1.
          1    1    1    2  502    0 -0.33492894087E+01  0.23601147242E+03 -0.20462439128E+02  0.23692054420E+03  0.00000000000E+00 0. -1.
         22    1    3    3    0    0 -0.71456681098E+01 -0.84653180306E+01  0.42239703218E+00  0.11086054363E+02  0.00000000000E+00 0. -1.
         22    1    3    3    0    0  0.77679773658E+02 -0.22133474256E+03 -0.75933305857E+03  0.79473889381E+03  0.00000000000E+00 0. -1.
</event>
<event>
 7    1  0.5139898E-006  0.7439773E+02  0.7818608E-02  0.1468479E+00
          2   -1    0    0  502    0  0.00000000000E+00  0.00000000000E+00  0.74307680735E+03  0.74307680735E+03  0.00000000000E+00 0. -1.
          1   -1    0    0  501    0 -0.00000000000E+00 -0.00000000000E+00 -0.90772780033E+02  0.90772780033E+02  0.00000000000E+00 0. -1.
         25    2    1    2    0    0 -0.67563206833E+02 -0.67304687927E+02  0.40907347008E+03  0.43824731379E+03  0.12499958475E+03 0.  0.
          2    1    1    2  501    0  0.39682380957E+02  0.61986844539E+02 -0.57584756464E+02  0.93450866402E+02  0.00000000000E+00 0. -1.
          1    1    1    2  502    0  0.27880825876E+02  0.53178433880E+01  0.30081531371E+03  0.30215140720E+03  0.00000000000E+00 0. -1.
         22    1    3    3    0    0 -0.65423887800E+01 -0.78008723589E+02  0.32202657244E+03  0.33140500473E+03  0.00000000000E+00 0.  1.
         22    1    3    3    0    0 -0.61020818053E+02  0.10704035662E+02  0.87046897639E+02  0.10684230905E+03  0.00000000000E+00 0.  1.
</event>
<event>
 7    1  0.5139898E-006  0.9397372E+02  0.7818608E-02  0.1295745E+00
          2   -1    0    0  502    0  0.00000000000E+00  0.00000000000E+00  0.93738341207E+03  0.93738341207E+03  0.00000000000E+00 0. -1.
          1   -1    0    0  501    0 -0.00000000000E+00 -0.00000000000E+00 -0.16286325485E+04  0.16286325485E+04  0.00000000000E+00 0. -1.
         25    2    1    2    0    0 -0.40639734485E+02 -0.64365699690E+02 -0.11756218427E+03  0.18772493265E+03  0.12500100740E+03 0.  0.
          2    1    1    2  501    0 -0.53755962479E+02  0.74706045027E+02 -0.14720493559E+04  0.14749237279E+04  0.00000000000E+00 0. -1.
          1    1    1    2  502    0  0.94395696964E+02 -0.10340345337E+02  0.89836240377E+03  0.90336730008E+03  0.00000000000E+00 0. -1.
         22    1    3    3    0    0 -0.56012547158E+02 -0.19959427733E+02  0.17541444780E+01  0.59488328413E+02  0.00000000000E+00 0. -1.
         22    1    3    3    0    0  0.15372812672E+02 -0.44406271956E+02 -0.11931632875E+03  0.12823660423E+03  0.00000000000E+00 0. -1.
</event>
<event>
 7    1  0.5139898E-006  0.1133463E+03  0.7818608E-02  0.1351028E+00
          2   -1    0    0  502    0  0.00000000000E+00  0.00000000000E+00  0.15286579080E+04  0.15286579080E+04  0.00000000000E+00 0. -1.
          1   -1    0    0  501    0 -0.00000000000E+00 -0.00000000000E+00 -0.52068437090E+03  0.52068437090E+03  0.00000000000E+00 0. -1.
         25    2    1    2    0    0  0.10143852820E+03  0.35835238294E+02  0.12465806455E+03  0.20673526656E+03  0.12500359226E+03 0.  0.
          2    1    1    2  501    0  0.12393699861E+02 -0.45000692209E+02 -0.47611033091E+03  0.47839284411E+03  0.00000000000E+00 0. -1.
          1    1    1    2  502    0 -0.11383222806E+03  0.91654539149E+01  0.13594258034E+04  0.13642141682E+04  0.00000000000E+00 0. -1.
         22    1    3    3    0    0  0.88444606276E+02 -0.24039012640E+02  0.34927525547E+02  0.98082896312E+02  0.00000000000E+00 0. -1.
         22    1    3    3    0    0  0.12993921924E+02  0.59874250934E+02  0.89730539001E+02  0.10865237025E+03  0.00000000000E+00 0. -1.
</event>
<event>
 7    1  0.5139898E-006  0.5444248E+02  0.7818608E-02  0.1459688E+00
          2   -1    0    0  502    0  0.00000000000E+00  0.00000000000E+00  0.13826038066E+04  0.13826038066E+04  0.00000000000E+00 0. -1.
          1   -1    0    0  501    0 -0.00000000000E+00 -0.00000000000E+00 -0.26927486018E+03  0.26927486018E+03  0.00000000000E+00 0. -1.
         25    2    1    2    0    0  0.92404127171E+02 -0.12134659818E+01  0.39233360087E+03  0.42200773998E+03  0.12499953205E+03 0.  0.
          2    1    1    2  501    0 -0.52690228561E+02  0.12656311386E+02 -0.25110848741E+03  0.25688891539E+03  0.00000000000E+00 0. -1.
          1    1    1    2  502    0 -0.39713898609E+02 -0.11442845404E+02  0.97210383300E+03  0.97298201144E+03  0.00000000000E+00 0. -1.
         22    1    3    3    0    0  0.42983690101E+02  0.50850765822E+02  0.28643359290E+03  0.29407074173E+03  0.00000000000E+00 0.  1.
         22    1    3    3    0    0  0.49420437070E+02 -0.52064231803E+02  0.10590000797E+03  0.12793699825E+03  0.00000000000E+00 0.  1.
</event>
<event>
 7    1  0.5139898E-006  0.2046498E+03  0.7818608E-02  0.1308325E+00
          2   -1    0    0  502    0  0.00000000000E+00  0.00000000000E+00  0.87536704746E+03  0.87536704746E+03  0.00000000000E+00 0. -1.
          1   -1    0    0  501    0 -0.00000000000E+00 -0.00000000000E+00 -0.13994261250E+04  0.13994261250E+04  0.00000000000E+00 0. -1.
         25    2    1    2    0    0 -0.46386721112E+02 -0.19188716391E+03 -0.82234226087E+02  0.24770887020E+03  0.12499921946E+03 0.  0.
          2    1    1    2  501    0 -0.37406394251E+02  0.42676860082E+01 -0.12208423326E+04  0.12214227166E+04  0.00000000000E+00 0. -1.
          1    1    1    2  502    0  0.83793115363E+02  0.18761947790E+03  0.77901748117E+03  0.80566158568E+03  0.00000000000E+00 0. -1.
         22    1    3    3    0    0 -0.41018460515E+02 -0.11018377554E+03  0.17285610086E+02  0.11883505717E+03  0.00000000000E+00 0.  1.
         22    1    3    3    0    0 -0.53682605976E+01 -0.81703388370E+02 -0.99519836174E+02  0.12887381303E+03  0.00000000000E+00 0.  1.
</event>
<event>
 7    1  0.5139898E-006  0.9586464E+02  0.7818608E-02  0.1312879E+00
          2   -1    0    0  502    0  0.00000000000E+00  0.00000000000E+00  0.33977326703E+04  0.33977326703E+04  0.00000000000E+00 0. -1.
          1   -1    0    0  501    0 -0.00000000000E+00 -0.00000000000E+00 -0.13133793252E+03  0.13133793252E+03  0.00000000000E+00 0. -1.
         25    2    1    2    0    0  0.24347205349E+02  0.18024740473E+02  0.67550487858E+03  0.68763962412E+03  0.12499493589E+03 0.  0.
          2    1    1    2  501    0  0.64096786081E+02  0.42887383993E+02 -0.11223272738E+03  0.13617602868E+03  0.00000000000E+00 0. -1.
          1    1    1    2  502    0 -0.88443991430E+02 -0.60912124466E+02  0.27031225866E+04  0.27052549501E+04  0.00000000000E+00 0. -1.
         22    1    3    3    0    0 -0.41058174355E+02  0.41821491813E+02  0.28177014781E+03  0.28780067244E+03  0.00000000000E+00 0.  1.
         22    1    3    3    0    0  0.65405379704E+02 -0.23796751340E+02  0.39373473077E+03  0.39983895169E+03  0.00000000000E+00 0.  1.
</event>
<event>
 7    1  0.5139898E-006  0.2377932E+03  0.7818608E-02  0.1304816E+00
          2   -1    0    0  502    0  0.00000000000E+00  0.00000000000E+00  0.55943598464E+03  0.55943598464E+03  0.00000000000E+00 0. -1.
          1   -1    0    0  501    0 -0.00000000000E+00 -0.00000000000E+00 -0.12913836775E+04  0.12913836775E+04  0.00000000000E+00 0. -1.
         25    2    1    2    0    0 -0.10836786596E+03  0.18041335991E+03 -0.98909724056E+03  0.10189417663E+04  0.12504557947E+03 0.  0.
          2    1    1    2  501    0  0.25592530686E+01  0.33357529329E+02 -0.26012014165E+03  0.26226277401E+03  0.00000000000E+00 0. -1.
          1    1    1    2  502    0  0.10580861289E+03 -0.21377088924E+03  0.51726968930E+03  0.56961512191E+03  0.00000000000E+00 0. -1.
         22    1    3    3    0    0 -0.17502131957E+02  0.13923345005E+03 -0.67304010170E+03  0.68751382294E+03  0.00000000000E+00 0.  1.
         22    1    3    3    0    0 -0.90865734003E+02  0.41179909860E+02 -0.31605713886E+03  0.33142794332E+03  0.00000000000E+00 0.  1.
</event>
<event>
 7    1  0.5139898E-006  0.4166336E+02  0.7818608E-02  0.1502329E+00
          2   -1    0    0  502    0  0.00000000000E+00  0.00000000000E+00  0.24659764475E+03  0.24659764475E+03  0.00000000000E+00 0. -1.
          1   -1    0    0  501    0 -0.00000000000E+00 -0.00000000000E+00 -0.62506025846E+03  0.62506025846E+03  0.00000000000E+00 0. -1.
         25    2    1    2    0    0 -0.29082592141E+02  0.40983730192E+01 -0.52381577359E+02  0.13867998934E+03  0.12500286384E+03 0.  0.
          2    1    1    2  501    0  0.23011578158E+02  0.35413429374E+02 -0.52671235501E+03  0.52840282799E+03  0.00000000000E+00 0. -1.
          1    1    1    2  502    0  0.60710139827E+01 -0.39511802394E+02  0.20063131866E+03  0.20457508589E+03  0.00000000000E+00 0. -1.
         22    1    3    3    0    0  0.47563703242E+01 -0.47211836001E+02 -0.60274762091E+02  0.76711325516E+02  0.00000000000E+00 0. -1.
         22    1    3    3    0    0 -0.33838962465E+02  0.51310209021E+02  0.78931847316E+01  0.61968663820E+02  0.00000000000E+00 0. -1.
</event>
<event>
 7    1  0.5139898E-006  0.6785158E+02  0.7818608E-02  0.1463939E+00
          2   -1    0    0  502    0  0.00000000000E+00  0.00000000000E+00  0.26078479166E+03  0.26078479166E+03  0.00000000000E+00 0. -1.
          1   -1    0    0  501    0 -0.00000000000E+00 -0.00000000000E+00 -0.95788072942E+02  0.95788072942E+02  0.00000000000E+00 0. -1.
         25    2    1    2    0    0 -0.11974824515E+02 -0.69012228804E+02  0.34036126950E+02  0.14727435710E+03  0.12500077670E+03 0.  0.
          2    1    1    2  501    0 -0.20046174025E+02  0.66067572849E+02 -0.53477191851E+01  0.69248620027E+02  0.00000000000E+00 0. -1.
          1    1    1    2  502    0  0.32020998540E+02  0.29446559548E+01  0.13630831096E+03  0.14004988748E+03  0.00000000000E+00 0. -1.
         22    1    3    3    0    0  0.23601310074E+02 -0.71578052542E+02  0.65392305313E+02  0.99782729152E+02  0.00000000000E+00 0. -1.
         22    1    3    3    0    0 -0.35576134589E+02  0.25658237383E+01 -0.31356178363E+02  0.47491627950E+02  0.00000000000E+00 0. -1.
</event>
<event>
 7    1  0.5139898E-006  0.2058752E+03  0.7818608E-02  0.1364701E+00
          2   -1    0    0  502    0  0.00000000000E+00  0.00000000000E+00  0.10261592403E+04  0.10261592403E+04  0.00000000000E+00 0. -1.
          1   -1    0    0  501    0 -0.00000000000E+00 -0.00000000000E+00 -0.75524550772E+03  0.75524550772E+03  0.00000000000E+00 0. -1.
         25    2    1    2    0    0 -0.67143635017E+02  0.21360648086E+03 -0.15028164422E+03  0.29722989782E+03  0.12500017273E+03 0.  0.
          2    1    1    2  501    0  0.57642598550E+02 -0.19277038115E+03 -0.51230201020E+03  0.55039661942E+03  0.00000000000E+00 0. -1.
          1    1    1    2  502    0  0.95010364666E+01 -0.20836099711E+02  0.93349738704E+03  0.93377823082E+03  0.00000000000E+00 0. -1.
         22    1    3    3    0    0  0.22772908489E+02  0.10509615823E+03 -0.10213549406E+03  0.14830868816E+03  0.00000000000E+00 0.  1.
         22    1    3    3    0    0 -0.89916543506E+02  0.10851032263E+03 -0.48146150160E+02  0.14892120967E+03  0.00000000000E+00 0.  1.
</event>
<event>
 7    1  0.5139898E-006  0.4970604E+02  0.7818608E-02  0.1467035E+00
          2   -1    0    0  502    0  0.00000000000E+00  0.00000000000E+00  0.39475841300E+03  0.39475841300E+03  0.00000000000E+00 0. -1.
          1   -1    0    0  501    0 -0.00000000000E+00 -0.00000000000E+00 -0.10178364709E+03  0.10178364709E+03  0.00000000000E+00 0. -1.
         25    2    1    2    0    0  0.14169212466E+02  0.21425407162E+02  0.37997120205E+02  0.13314746846E+03  0.12499861023E+03 0.  0.
          2    1    1    2  501    0  0.14745236889E+02 -0.53152779880E+02 -0.38196775947E+02  0.67094215195E+02  0.00000000000E+00 0. -1.
          1    1    1    2  502    0 -0.28914449355E+02  0.31727372717E+02  0.29317442165E+03  0.29630037643E+03  0.00000000000E+00 0. -1.
         22    1    3    3    0    0  0.67965492042E+02  0.10055276461E+02  0.37258873751E+02  0.78157791463E+02  0.00000000000E+00 0. -1.
         22    1    3    3    0    0 -0.53796279576E+02  0.11370130701E+02  0.73824645413E+00  0.54989676997E+02  0.00000000000E+00 0. -1.
</event>
<event>
 7    1  0.5139898E-006  0.5569781E+02  0.7818608E-02  0.1528182E+00
          2   -1    0    0  502    0  0.00000000000E+00  0.00000000000E+00  0.64411795257E+03  0.64411795257E+03  0.00000000000E+00 0. -1.
          1   -1    0    0  501    0 -0.00000000000E+00 -0.00000000000E+00 -0.83524605460E+03  0.83524605460E+03  0.00000000000E+00 0. -1.
         25    2    1    2    0    0  0.72207264764E+02 -0.10779414093E+01 -0.72261223496E+01  0.14454138989E+03  0.12499978202E+03 0.  0.
          2    1    1    2  501    0 -0.19422183718E+02 -0.15942399742E+02 -0.75781727981E+03  0.75823374424E+03  0.00000000000E+00 0. -1.
          1    1    1    2  502    0 -0.52785081046E+02  0.17020341151E+02  0.57391530012E+03  0.57658887304E+03  0.00000000000E+00 0. -1.
         22    1    3    3    0    0  0.99912692364E+02 -0.21957208153E+02  0.14925974708E+02  0.10338012288E+03  0.00000000000E+00 0.  1.
         22    1    3    3    0    0 -0.27705427600E+02  0.20879266744E+02 -0.22152097057E+02  0.41161267015E+02  0.00000000000E+00 0.  1.
</event>
<event>
 7    1  0.5139898E-006  0.5954227E+02  0.7818608E-02  0.1413076E+00
          2   -1    0    0  502    0  0.00000000000E+00  0.00000000000E+00  0.61805773479E+03  0.61805773479E+03  0.00000000000E+00 0. -1.
          1   -1    0    0  501    0 -0.00000000000E+00 -0.00000000000E+00 -0.48634144822E+02  0.48634144822E+02  0.00000000000E+00 0. -1.
         25    2    1    2    0    0 -0.19605932722E+02  0.12580082595E+02  0.40539802196E+03  0.42486965316E+03  0.12499605950E+03 0.  0.
          2    1    1    2  501    0  0.53492005690E+00 -0.62713047725E+02 -0.65081183169E+01  0.63052106218E+02  0.00000000000E+00 0. -1.
          1    1    1    2  502    0  0.19071012665E+02  0.50132965131E+02  0.17053368633E+03  0.17877012024E+03  0.00000000000E+00 0. -1.
         22    1    3    3    0    0 -0.85747937538E+01  0.65008088354E+02  0.14678093188E+03  0.16076137784E+03  0.00000000000E+00 0. -1.
         22    1    3    3    0    0 -0.11031138968E+02 -0.52428005760E+02  0.25861709007E+03  0.26410827532E+03  0.00000000000E+00 0. -1.
</event>
<event>
 7    1  0.5139898E-006  0.8529020E+02  0.7818608E-02  0.1326311E+00
          2   -1    0    0  502    0  0.00000000000E+00  0.00000000000E+00  0.18323196518E+04  0.18323196518E+04  0.00000000000E+00 0. -1.
          1   -1    0    0  501    0 -0.00000000000E+00 -0.00000000000E+00 -0.39923124740E+03  0.39923124740E+03  0.00000000000E+00 0. -1.
         25    2    1    2    0    0 -0.70417612667E+02 -0.11749933169E+02  0.29599308266E+03  0.32914062038E+03  0.12499976758E+03 0.  0.
          2    1    1    2  501    0  0.95101403550E+01  0.76284912605E+02 -0.37748461886E+03  0.38523300500E+03  0.00000000000E+00 0. -1.
          1    1    1    2  502    0  0.60907472312E+02 -0.64534979435E+02  0.15145799406E+04  0.15171772739E+04  0.00000000000E+00 0. -1.
         22    1    3    3    0    0  0.31710278089E+02 -0.19076993508E+02  0.11948485138E+03  0.12508438403E+03  0.00000000000E+00 0. -1.
         22    1    3    3    0    0 -0.10212789076E+03  0.73270603384E+01  0.17650823128E+03  0.20405623635E+03  0.00000000000E+00 0. -1.
</event>
<event>
 7    1  0.5139898E-006  0.7151784E+02  0.7818608E-02  0.1477899E+00
          2   -1    0    0  502    0  0.00000000000E+00  0.00000000000E+00  0.14290990210E+04  0.14290990210E+04  0.00000000000E+00 0. -1.
          1   -1    0    0  501    0 -0.00000000000E+00 -0.00000000000E+00 -0.21797659937E+03  0.21797659937E+03  0.00000000000E+00 0. -1.
         25    2    1    2    0    0  0.33806947909E+01 -0.90019796753E+02  0.17322745758E+03  0.23183278645E+03  0.12499478352E+03 0.  0.
          2    1    1    2  501    0  0.16723800708E+02  0.21966473150E+02 -0.18663126992E+03  0.18866224414E+03  0.00000000000E+00 0. -1.
          1    1    1    2  502    0 -0.20104495499E+02  0.68053323602E+02  0.12245262340E+04  0.12265805898E+04  0.00000000000E+00 0. -1.
         22    1    3    3    0    0 -0.22237423499E+02  0.17549180156E+02  0.87337846641E+02  0.91817080023E+02  0.00000000000E+00 0. -1.
         22    1    3    3    0    0  0.25618118290E+02 -0.10756897691E+03  0.85889610938E+02  0.14001570642E+03  0.00000000000E+00 0. -1.
</event>
<event>
 7    1  0.5139898E-006  0.1161500E+03  0.7818608E-02  0.1353460E+00
          2   -1    0    0  502    0  0.00000000000E+00  0.00000000000E+00  0.45172626466E+04  0.45172626466E+04  0.00000000000E+00 0. -1.
          1   -1    0    0  501    0 -0.00000000000E+00 -0.00000000000E+00 -0.96594923301E+02  0.96594923301E+02  0.00000000000E+00 0. -1.
         25    2    1    2    0    0 -0.11700886149E+03  0.90021700480E+01  0.23123827895E+04  0.23187304083E+04  0.12499771342E+03 0.  0.
          2    1    1    2  501    0  0.10797862981E+02  0.43290961547E+02 -0.86405989457E+02  0.97245545968E+02  0.00000000000E+00 0. -1.
          1    1    1    2  502    0  0.10621099851E+03 -0.52293131595E+02  0.21946909232E+04  0.21978816156E+04  0.00000000000E+00 0. -1.
         22    1    3    3    0    0  0.25348778375E+02  0.14025315996E+02  0.37289113896E+03  0.37401480127E+03  0.00000000000E+00 0. -1.
         22    1    3    3    0    0 -0.14235763987E+03 -0.50231459479E+01  0.19394916506E+04  0.19447156070E+04  0.00000000000E+00 0. -1.
</event>
<event>
 7    1  0.5139898E-006  0.4381955E+02  0.7818608E-02  0.1511544E+00
          2   -1    0    0  502    0  0.00000000000E+00  0.00000000000E+00  0.30288611128E+02  0.30288611128E+02  0.00000000000E+00 0. -1.
          1   -1    0    0  501    0 -0.00000000000E+00 -0.00000000000E+00 -0.49867597291E+03  0.49867597291E+03  0.00000000000E+00 0. -1.
         25    2    1    2    0    0 -0.53114735649E+02  0.12587341669E+02 -0.41574566349E+03  0.43754774172E+03  0.12499581297E+03 0.  0.
          2    1    1    2  501    0  0.34565148597E+02  0.17912505924E+02 -0.24977895536E+02  0.46254757933E+02  0.00000000000E+00 0. -1.
          1    1    1    2  502    0  0.18549587052E+02 -0.30499847593E+02 -0.27663802754E+02  0.45162084383E+02  0.00000000000E+00 0. -1.
         22    1    3    3    0    0  0.38198694603E+02 -0.94642990082E+01 -0.84054214163E+02  0.92810689814E+02  0.00000000000E+00 0. -1.
         22    1    3    3    0    0 -0.91313430252E+02  0.22051640677E+02 -0.33169144933E+03  0.34473705191E+03  0.00000000000E+00 0. -1.
</event>
<event>
 7    1  0.5798950E-006  0.1229334E+03  0.7818608E-02  0.1257678E+00
          2   -1    0    0  502    0  0.00000000000E+00  0.00000000000E+00  0.14489643860E+04  0.14489643860E+04  0.00000000000E+00 0. -1.
          1   -1    0    0  501    0 -0.00000000000E+00 -0.00000000000E+00 -0.87632283510E+03  0.87632283510E+03  0.00000000000E+00 0. -1.
         25    2    1    2    0    0 -0.53326676281E+01  0.51008992207E+02 -0.72509372543E+02  0.15333854295E+03  0.12499898006E+03 0.  0.
          2    1    1    2  501    0 -0.75176735747E+02 -0.11243946005E+03 -0.75556545877E+03  0.76757627390E+03  0.00000000000E+00 0. -1.
          1    1    1    2  502    0  0.80509403375E+02  0.61430467840E+02  0.14007163822E+04  0.14043724043E+04  0.00000000000E+00 0. -1.
         22    1    3    3    0    0 -0.60973497955E+02  0.50910674248E+02 -0.44406247033E+02  0.91003181158E+02  0.00000000000E+00 0. -1.
         22    1    3    3    0    0  0.55640830327E+02  0.98317958680E-01 -0.28103125509E+02  0.62335361788E+02  0.00000000000E+00 0. -1.
</event>
<event>
 7    1  0.5139898E-006  0.2753524E+02  0.7818608E-02  0.1682525E+00
          2   -1    0    0  502    0  0.00000000000E+00  0.00000000000E+00  0.10050561346E+04  0.10050561346E+04  0.00000000000E+00 0. -1.
          1   -1    0    0  501    0 -0.00000000000E+00 -0.00000000000E+00 -0.15577924002E+03  0.15577924002E+03  0.00000000000E+00 0. -1.
         25    2    1    2    0    0 -0.17183017257E+02 -0.29652384252E+02 -0.10577359619E+03  0.16729487005E+03  0.12499999968E+03 0.  0.
          2    1    1    2  501    0  0.20038092475E+02  0.22658316158E+01 -0.13712486266E+02  0.24386295794E+02  0.00000000000E+00 0. -1.
          1    1    1    2  502    0 -0.28550752181E+01  0.27386552636E+02  0.96876297707E+03  0.96915420882E+03  0.00000000000E+00 0. -1.
         22    1    3    3    0    0 -0.51165429862E+02 -0.47751906536E+02 -0.19241327769E+02  0.72583568975E+02  0.00000000000E+00 0.  1.
         22    1    3    3    0    0  0.33982412604E+02  0.18099522284E+02 -0.86532268417E+02  0.94711301072E+02  0.00000000000E+00 0.  1.
</event>
<event>
 7    1  0.5139898E-006  0.5288517E+02  0.7818608E-02  0.1430912E+00
          2   -1    0    0  502    0  0.00000000000E+00  0.00000000000E+00  0.17005251412E+04  0.17005251412E+04  0.00000000000E+00 0. -1.
          1   -1    0    0  501    0 -0.00000000000E+00 -0.00000000000E+00 -0.15752504184E+03  0.15752504184E+03  0.00000000000E+00 0. -1.
         25    2    1    2    0    0 -0.19583980256E+02 -0.18449430458E+02  0.19847616281E+03  0.23609531385E+03  0.12499718497E+03 0.  0.
          2    1    1    2  501    0  0.43150349886E+02 -0.30201978669E+02 -0.13320371340E+03  0.14323875689E+03  0.00000000000E+00 0. -1.
          1    1    1    2  502    0 -0.23566369629E+02  0.48651409126E+02  0.14777276499E+04  0.14787161123E+04  0.00000000000E+00 0. -1.
         22    1    3    3    0    0 -0.53763365396E+02 -0.17991975880E+02  0.19339938921E+03  0.20153792298E+03  0.00000000000E+00 0. -1.
         22    1    3    3    0    0  0.34179385139E+02 -0.45745457797E+00  0.50767736023E+01  0.34557390865E+02  0.00000000000E+00 0. -1.
</event>
<event>
 7    1  0.5139898E-006  0.4666516E+02  0.7818608E-02  0.1478775E+00
          2   -1    0    0  502    0  0.00000000000E+00  0.00000000000E+00  0.93913310940E+02  0.93913310940E+02  0.00000000000E+00 0. -1.
          1   -1    0    0  501    0 -0.00000000000E+00 -0.00000000000E+00 -0.40702390292E+03  0.40702390292E+03  0.00000000000E+00 0. -1.
         25    2    1    2    0    0  0.14023205399E+02  0.36862901183E+02 -0.13603255975E+02  0.13177743721E+03  0.12499888244E+03 0.  0.
          2    1    1    2  501    0  0.28004233355E+02 -0.38245172068E+02 -0.31921868442E+03  0.32271891601E+03  0.00000000000E+00 0. -1.
          1    1    1    2  502    0 -0.42027438754E+02  0.13822708850E+01  0.19711348408E+02  0.46440860641E+02  0.00000000000E+00 0. -1.
         22    1    3    3    0    0  0.49968811102E+02  0.53919932257E+02 -0.40327317149E+02  0.83848277776E+02  0.00000000000E+00 0. -1.
         22    1    3    3    0    0 -0.35945605703E+02 -0.17057031073E+02  0.26724061174E+02  0.47929159434E+02  0.00000000000E+00 0. -1.
</event>
<event>
 7    1  0.5139898E-006  0.1074907E+03  0.7818608E-02  0.1332547E+00
          2   -1    0    0  502    0  0.00000000000E+00  0.00000000000E+00  0.18548353182E+03  0.18548353182E+03  0.00000000000E+00 0. -1.
          1   -1    0    0  501    0 -0.00000000000E+00 -0.00000000000E+00 -0.11432200469E+04  0.11432200469E+04  0.00000000000E+00 0. -1.
         25    2    1    2    0    0 -0.23598232721E+02 -0.16082951501E+03 -0.11889930245E+03  0.23703426547E+03  0.12500075757E+03 0.  0.
          2    1    1    2  501    0  0.14500844552E+02  0.10381166051E+03 -0.95564174585E+03  0.96137312307E+03  0.00000000000E+00 0. -1.
          1    1    1    2  502    0  0.90973881698E+01  0.57017854506E+02  0.11680453320E+03  0.13029619020E+03  0.00000000000E+00 0. -1.
         22    1    3    3    0    0  0.34645594007E+01 -0.16977019889E+03 -0.77213682300E+02  0.18653652816E+03  0.00000000000E+00 0. -1.
         22    1    3    3    0    0 -0.27062792122E+02  0.89406838756E+01 -0.41685620154E+02  0.50497737308E+02  0.00000000000E+00 0. -1.
</event>
<event>
 7    1  0.5139898E-006  0.5451078E+02  0.7818608E-02  0.1471120E+00
          2   -1    0    0  502    0  0.00000000000E+00  0.00000000000E+00  0.15221046639E+04  0.15221046639E+04  0.00000000000E+00 0. -1.
          1   -1    0    0  501    0 -0.00000000000E+00 -0.00000000000E+00 -0.46834896717E+03  0.46834896717E+03  0.00000000000E+00 0. -1.
         25    2    1    2    0    0  0.50252573838E+01 -0.80905356916E+02  0.44631873338E+03  0.47052724945E+03  0.12499820286E+03 0.  0.
          2    1    1    2  501    0 -0.22644751521E+02  0.30531273333E+02 -0.45478191459E+03  0.45636776098E+03  0.00000000000E+00 0. -1.
          1    1    1    2  502    0  0.17619494137E+02  0.50374083583E+02  0.10622188780E+04  0.10635586207E+04  0.00000000000E+00 0. -1.
         22    1    3    3    0    0  0.35473177645E+02 -0.10398363821E+03  0.35258323615E+03  0.36930459212E+03  0.00000000000E+00 0.  1.
         22    1    3    3    0    0 -0.30447920262E+02  0.23078281293E+02  0.93735497228E+02  0.10122265733E+03  0.00000000000E+00 0.  1.
</event>
<event>
 7    1  0.5139898E-006  0.1793163E+03  0.7818608E-02  0.1249648E+00
          2   -1    0    0  502    0  0.00000000000E+00  0.00000000000E+00  0.97796570360E+02  0.97796570360E+02  0.00000000000E+00 0. -1.
          1   -1    0    0  501    0 -0.00000000000E+00 -0.00000000000E+00 -0.21490937539E+04  0.21490937539E+04  0.00000000000E+00 0. -1.
         25    2    1    2    0    0 -0.11551262812E+03 -0.11130003012E+03 -0.17571037116E+03  0.26875444917E+03  0.12499582175E+03 0.  0.
          2    1    1    2  501    0  0.27316095439E+02 -0.70051301576E+02 -0.17245426823E+04  0.17261809920E+04  0.00000000000E+00 0. -1.
          1    1    1    2  502    0  0.88196532682E+02  0.18135133170E+03 -0.15104412999E+03  0.25195488305E+03  0.00000000000E+00 0. -1.
         22    1    3    3    0    0  0.79242734999E+01  0.17897213927E+02 -0.22154051172E+01  0.19698030274E+02  0.00000000000E+00 0. -1.
         22    1    3    3    0    0 -0.12343690162E+03 -0.12919724405E+03 -0.17349496605E+03  0.24905641890E+03  0.00000000000E+00 0. -1.
</event>
<event>
 7    1  0.5139898E-006  0.8111790E+02  0.7818608E-02  0.1417846E+00
          2   -1    0    0  502    0  0.00000000000E+00  0.00000000000E+00  0.63476478461E+03  0.63476478461E+03  0.00000000000E+00 0. -1.
          1   -1    0    0  501    0 -0.00000000000E+00 -0.00000000000E+00 -0.17322756503E+03  0.17322756503E+03  0.00000000000E+00 0. -1.
         25    2    1    2    0    0 -0.74981213691E+02  0.42352293564E+01 -0.31772758328E+02  0.14924575800E+03  0.12499867413E+03 0.  0.
          2    1    1    2  501    0  0.78810883963E+02  0.33515113251E+02 -0.59725788552E+02  0.10441067027E+03  0.00000000000E+00 0. -1.
          1    1    1    2  502    0 -0.38296702716E+01 -0.37750342607E+02  0.55303576646E+03  0.55433592138E+03  0.00000000000E+00 0. -1.
         22    1    3    3    0    0 -0.98427728320E+02 -0.29971925474E+02 -0.32074351284E+02  0.10777336419E+03  0.00000000000E+00 0. -1.
         22    1    3    3    0    0  0.23446514629E+02  0.34207154830E+02  0.30159295612E+00  0.41472393808E+02  0.00000000000E+00 0. -1.
</event>
<event>
 7    1  0.5139898E-006  0.1178920E+03  0.7818608E-02  0.1316602E+00
          2   -1    0    0  502    0  0.00000000000E+00  0.00000000000E+00  0.43695193665E+03  0.43695193665E+03  0.00000000000E+00 0. -1.
          1   -1    0    0  501    0 -0.00000000000E+00 -0.00000000000E+00 -0.39349974491E+03  0.39349974491E+03  0.00000000000E+00 0. -1.
         25    2    1    2    0    0  0.61163992665E+02 -0.51186114280E+02  0.11722415893E+03  0.18901639510E+03  0.12499856754E+03 0.  0.
          2    1    1    2  501    0  0.59515862156E+02 -0.11644353936E+02 -0.33844734368E+03  0.34383765540E+03  0.00000000000E+00 0. -1.
          1    1    1    2  502    0 -0.12067985482E+03  0.62830468216E+02  0.26467537649E+03  0.29759763107E+03  0.00000000000E+00 0. -1.
         22    1    3    3    0    0  0.81339202902E+02 -0.37877383228E+02  0.13279446364E+03  0.16026581564E+03  0.00000000000E+00 0.  1.
         22    1    3    3    0    0 -0.20175210237E+02 -0.13308731052E+02 -0.15570304714E+02  0.28750579459E+02  0.00000000000E+00 0.  1.
</event>
<event>
 7    1  0.5139898E-006  0.5912560E+02  0.7818608E-02  0.1415227E+00
          2   -1    0    0  502    0  0.00000000000E+00  0.00000000000E+00  0.43618361835E+03  0.43618361835E+03  0.00000000000E+00 0. -1.
          1   -1    0    0  501    0 -0.00000000000E+00 -0.00000000000E+00 -0.11920040448E+04  0.11920040448E+04  0.00000000000E+00 0. -1.
         25    2    1    2    0    0  0.10144906317E+03 -0.40750522927E+02 -0.66110319201E+01  0.16619744693E+03  0.12500147233E+03 0.  0.
          2    1    1    2  501    0 -0.49016605337E+02  0.32216539398E+02 -0.11028365248E+04  0.11043952795E+04  0.00000000000E+00 0. -1.
          1    1    1    2  502    0 -0.52432457831E+02  0.85339835287E+01  0.35362713026E+03  0.35759493672E+03  0.00000000000E+00 0. -1.
         22    1    3    3    0    0  0.12763010283E+03 -0.32995533245E+02 -0.23764458176E+02  0.13395110240E+03  0.00000000000E+00 0. -1.
         22    1    3    3    0    0 -0.26181039662E+02 -0.77549896816E+01  0.17153426256E+02  0.32246344523E+02  0.00000000000E+00 0. -1.
</event>
<event>
 7    1  0.5139898E-006  0.4645088E+02  0.7818608E-02  0.1495587E+00
          2   -1    0    0  502    0  0.00000000000E+00  0.00000000000E+00  0.52792827921E+03  0.52792827921E+03  0.00000000000E+00 0. -1.
          1   -1    0    0  501    0 -0.00000000000E+00 -0.00000000000E+00 -0.14500406534E+04  0.14500406534E+04  0.00000000000E+00 0. -1.
         25    2    1    2    0    0  0.41682596916E+02 -0.43685285003E+02  0.25766484330E+03  0.29267993053E+03  0.12499810899E+03 0.  0.
          2    1    1    2  501    0 -0.42129999650E+01  0.46258254371E+02 -0.14307589164E+04  0.14315127147E+04  0.00000000000E+00 0. -1.
          1    1    1    2  502    0 -0.37469596951E+02 -0.25729693673E+01  0.25098169889E+03  0.25377628740E+03  0.00000000000E+00 0. -1.
         22    1    3    3    0    0  0.31675107004E+01  0.12276168764E+02  0.20834473796E+03  0.20873013027E+03  0.00000000000E+00 0.  1.
         22    1    3    3    0    0  0.38515086216E+02 -0.55961453767E+02  0.49320105336E+02  0.83949800264E+02  0.00000000000E+00 0.  1.
</event>
<event>
 7    1  0.5139898E-006  0.1047503E+03  0.7818608E-02  0.1365607E+00
          2   -1    0    0  502    0  0.00000000000E+00  0.00000000000E+00  0.58773943890E+02  0.58773943890E+02  0.00000000000E+00 0. -1.
          1   -1    0    0  501    0 -0.00000000000E+00 -0.00000000000E+00 -0.53076639539E+03  0.53076639539E+03  0.00000000000E+00 0. -1.
         25    2    1    2    0    0 -0.49513649684E+02  0.74940763750E+02 -0.32368855541E+03  0.35842266308E+03  0.12499921973E+03 0.  0.
          2    1    1    2  501    0  0.90988930422E+02 -0.91527095584E+02 -0.12893845729E+03  0.18243168709E+03  0.00000000000E+00 0. -1.
          1    1    1    2  502    0 -0.41475280739E+02  0.16586331834E+02 -0.19365438810E+02  0.48685989118E+02  0.00000000000E+00 0. -1.
         22    1    3    3    0    0  0.59930067607E+01  0.88886632186E+02 -0.13926052155E+03  0.16531860867E+03  0.00000000000E+00 0. -1.
         22    1    3    3    0    0 -0.55506656444E+02 -0.13945868436E+02 -0.18442803386E+03  0.19310405441E+03  0.00000000000E+00 0. -1.
</event>
<event>
 7    1  0.5139898E-006  0.1211757E+03  0.7818608E-02  0.1380143E+00
          2   -1    0    0  502    0  0.00000000000E+00  0.00000000000E+00  0.11041990973E+04  0.11041990973E+04  0.00000000000E+00 0. -1.
          1   -1    0    0  501    0 -0.00000000000E+00 -0.00000000000E+00 -0.87764433852E+02  0.87764433852E+02  0.00000000000E+00 0. -1.
         25    2    1    2    0    0 -0.34020326963E+02 -0.97198410427E+02  0.87230538706E+03  0.88721280395E+03  0.12499983027E+03 0.  0.
          2    1    1    2  501    0  0.10284435960E+02  0.12189534635E+03 -0.31087767611E+02  0.12621685458E+03  0.00000000000E+00 0. -1.
          1    1    1    2  502    0  0.23735891003E+02 -0.24696935922E+02  0.17521704403E+03  0.17853387265E+03  0.00000000000E+00 0. -1.
         22    1    3    3    0    0  0.46870982904E+02 -0.32263460438E+02  0.25687788372E+03  0.26310466940E+03  0.00000000000E+00 0. -1.
         22    1    3    3    0    0 -0.80891309867E+02 -0.64934949989E+02  0.61542750334E+03  0.62410813455E+03  0.00000000000E+00 0. -1.
</event>
<event>
 7    1  0.5139898E-006  0.5908604E+02  0.7818608E-02  0.1550970E+00
          2   -1    0    0  502    0  0.00000000000E+00  0.00000000000E+00  0.26563122626E+04  0.26563122626E+04  0.00000000000E+00 0. -1.
          1   -1    0    0  501    0 -0.00000000000E+00 -0.00000000000E+00 -0.12655171027E+04  0.12655171027E+04  0.00000000000E+00 0. -1.
         25    2    1    2    0    0 -0.31965967554E+02 -0.30766316787E+02  0.11657703678E+04  0.11732922736E+04  0.12500327775E+03 0.  0.
          2    1    1    2  501    0  0.29744501866E+02  0.51064395986E+02 -0.12609940158E+04  0.12623780004E+04  0.00000000000E+00 0. -1.
          1    1    1    2  502    0  0.22214656885E+01 -0.20298079199E+02  0.14860188080E+04  0.14861590913E+04  0.00000000000E+00 0. -1.
         22    1    3    3    0    0  0.10040162016E+02 -0.64906764302E+02  0.37793171232E+03  0.38359623575E+03  0.00000000000E+00 0.  1.
         22    1    3    3    0    0 -0.42006129570E+02  0.34140447515E+02  0.78783865550E+03  0.78969603784E+03  0.00000000000E+00 0.  1.
</event>
<event>
 7    1  0.5139898E-006  0.6713321E+02  0.7818608E-02  0.1453419E+00
          2   -1    0    0  502    0  0.00000000000E+00  0.00000000000E+00  0.23615537238E+03  0.23615537238E+03  0.00000000000E+00 0. -1.
          1   -1    0    0  501    0 -0.00000000000E+00 -0.00000000000E+00 -0.18554009043E+03  0.18554009043E+03  0.00000000000E+00 0. -1.
         25    2    1    2    0    0  0.95609975827E+02 -0.24850108651E+01  0.55792381243E+02  0.16698102967E+03  0.12498972642E+03 0.  0.
          2    1    1    2  501    0 -0.63187315745E+02  0.15894039930E+02 -0.11896557284E+03  0.13563946659E+03  0.00000000000E+00 0. -1.
          1    1    1    2  502    0 -0.32422660082E+02 -0.13409029065E+02  0.11378847354E+03  0.11907496655E+03  0.00000000000E+00 0. -1.
         22    1    3    3    0    0  0.60700709297E+02  0.10354274262E+02 -0.33607830607E+02  0.70151788165E+02  0.00000000000E+00 0. -1.
         22    1    3    3    0    0  0.34909266530E+02 -0.12839285128E+02  0.89400211851E+02  0.96829241509E+02  0.00000000000E+00 0. -1.
</event>
<event>
 7    1  0.5139898E-006  0.6912359E+02  0.7818608E-02  0.1520054E+00
          2   -1    0    0  502    0  0.00000000000E+00  0.00000000000E+00  0.33596026585E+03  0.33596026585E+03  0.00000000000E+00 0. -1.
          1   -1    0    0  501    0 -0.00000000000E+00 -0.00000000000E+00 -0.13315365985E+04  0.13315365985E+04  0.00000000000E+00 0. -1.
         25    2    1    2    0    0  0.18001827516E+02  0.66519038811E+02 -0.46051954632E+02  0.14998429211E+03  0.12500262811E+03 0.  0.
          2    1    1    2  501    0  0.32113695126E+01 -0.69113503071E+02 -0.12321445288E+04  0.12340855436E+04  0.00000000000E+00 0. -1.
          1    1    1    2  502    0 -0.21213197029E+02  0.25944642599E+01  0.28262015073E+03  0.28342702865E+03  0.00000000000E+00 0. -1.
         22    1    3    3    0    0  0.64319571885E+02  0.67658152031E+02 -0.45020401356E+02  0.10364106040E+03  0.00000000000E+00 0.  1.
         22    1    3    3    0    0 -0.46317744369E+02 -0.11391132201E+01 -0.10315532760E+01  0.46343231701E+02  0.00000000000E+00 0.  1.
</event>
<event>
 7    1  0.5139898E-006  0.1096746E+03  0.7818608E-02  0.1402775E+00
          2   -1    0    0  502    0  0.00000000000E+00  0.00000000000E+00  0.48176617472E+02  0.48176617472E+02  0.00000000000E+00 0. -1.
          1   -1    0    0  501    0 -0.00000000000E+00 -0.00000000000E+00 -0.31434739496E+04  0.31434739496E+04  0.00000000000E+00 0. -1.
         25    2    1    2    0    0 -0.91063890719E+02  0.72859312164E+02 -0.15795393420E+04  0.15887637307E+04  0.12499818936E+03 0.  0.
          2    1    1    2  501    0  0.27143725339E+02  0.16111243930E+02 -0.14900175746E+04  0.14903518801E+04  0.00000000000E+00 0. -1.
          1    1    1    2  502    0  0.63920165380E+02 -0.88970556093E+02 -0.25740415522E+02  0.11253495628E+03  0.00000000000E+00 0. -1.
         22    1    3    3    0    0 -0.74973727550E+02  0.44650317380E+02 -0.15041264942E+04  0.15066556412E+04  0.00000000000E+00 0.  1.
         22    1    3    3    0    0 -0.16090163169E+02  0.28208994784E+02 -0.75412847865E+02  0.82108089495E+02  0.00000000000E+00 0.  1.
</event>
<event>
 7    1  0.5139898E-006  0.1488488E+03  0.7818608E-02  0.1280428E+00
          2   -1    0    0  502    0  0.00000000000E+00  0.00000000000E+00  0.25790643793E+04  0.25790643793E+04  0.00000000000E+00 0. -1.
          1   -1    0    0  501    0 -0.00000000000E+00 -0.00000000000E+00 -0.32849406968E+03  0.32849406968E+03  0.00000000000E+00 0. -1.
         25    2    1    2    0    0 -0.81503564234E+02  0.16423020183E+03  0.31929191809E+03  0.38882834017E+03  0.12500303591E+03 0.  0.
          2    1    1    2  501    0  0.64618924027E+02 -0.18070362384E+02 -0.28742531660E+03  0.29515327537E+03  0.00000000000E+00 0. -1.
          1    1    1    2  502    0  0.16884640207E+02 -0.14615983944E+03  0.22187037082E+04  0.22235768335E+04  0.00000000000E+00 0. -1.
         22    1    3    3    0    0 -0.88645569325E+02  0.55306951530E+02  0.10387019159E+03  0.14732926576E+03  0.00000000000E+00 0. -1.
         22    1    3    3    0    0  0.71420050914E+01  0.10892325030E+03  0.21542172650E+03  0.24149907441E+03  0.00000000000E+00 0. -1.
</event>
<event>
 7    1  0.5139898E-006  0.1641773E+03  0.7818608E-02  0.1332878E+00
          2   -1    0    0  502    0  0.00000000000E+00  0.00000000000E+00  0.29858375916E+04  0.29858375916E+04  0.00000000000E+00 0. -1.
          1   -1    0    0  501    0 -0.00000000000E+00 -0.00000000000E+00 -0.29253259784E+03  0.29253259784E+03  0.00000000000E+00 0. -1.
         25    2    1    2    0    0  0.64520080356E+02  0.18256652077E+03  0.21474681864E+03  0.31501372901E+03  0.12499631225E+03 0.  0.
          2    1    1    2  501    0 -0.36777784462E+02 -0.15704822068E+03 -0.21542014455E+03  0.26911445098E+03  0.00000000000E+00 0. -1.
          1    1    1    2  502    0 -0.27742295894E+02 -0.25518300087E+02  0.26939783197E+04  0.26942420095E+04  0.00000000000E+00 0. -1.
         22    1    3    3    0    0 -0.97065839107E+01  0.14071300945E+03  0.16199044450E+03  0.21479123099E+03  0.00000000000E+00 0. -1.
         22    1    3    3    0    0  0.74226664267E+02  0.41853511319E+02  0.52756374143E+02  0.10022249803E+03  0.00000000000E+00 0. -1.
</event>
<event>
 7    1  0.5139898E-006  0.9705296E+02  0.7818608E-02  0.1318228E+00
          2   -1    0    0  502    0  0.00000000000E+00  0.00000000000E+00  0.57453546951E+03  0.57453546951E+03  0.00000000000E+00 0. -1.
          1   -1    0    0  501    0 -0.00000000000E+00 -0.00000000000E+00 -0.37399827037E+03  0.37399827037E+03  0.00000000000E+00 0. -1.
         25    2    1    2    0    0  0.31966500641E+02  0.80536022827E+02  0.40715434658E+02  0.15746508875E+03  0.12501839632E+03 0.  0.
          2    1    1    2  501    0 -0.71695148776E+02  0.11418978136E+02 -0.30605337406E+03  0.31454610981E+03  0.00000000000E+00 0. -1.
          1    1    1    2  502    0  0.39728648136E+02 -0.91955000963E+02  0.46587513854E+03  0.47652254133E+03  0.00000000000E+00 0. -1.
         22    1    3    3    0    0  0.19856798360E+02  0.57827065850E+02 -0.39788266863E+02  0.72947708435E+02  0.00000000000E+00 0. -1.
         22    1    3    3    0    0  0.12109702280E+02  0.22708956977E+02  0.80503701521E+02  0.84517380313E+02  0.00000000000E+00 0. -1.
</event>
<event>
 7    1  0.5139898E-006  0.2640201E+03  0.7818608E-02  0.1108554E+00
          2   -1    0    0  502    0  0.00000000000E+00  0.00000000000E+00  0.11467447383E+03  0.11467447383E+03  0.00000000000E+00 0. -1.
          1   -1    0    0  501    0 -0.00000000000E+00 -0.00000000000E+00 -0.33556756779E+04  0.33556756779E+04  0.00000000000E+00 0. -1.
         25    2    1    2    0    0  0.73573607244E+02  0.21852684014E+03 -0.12711789040E+04  0.12979550111E+04  0.12499739745E+03 0.  0.
          2    1    1    2  501    0 -0.31732404477E+03 -0.15672049846E+03 -0.18677807761E+04  0.19010157526E+04  0.00000000000E+00 0. -1.
          1    1    1    2  502    0  0.24375043753E+03 -0.61806341676E+02 -0.10204152407E+03  0.27137938813E+03  0.00000000000E+00 0. -1.
         22    1    3    3    0    0 -0.35412775690E+02  0.60937750666E+02 -0.36454571575E+03  0.37129644896E+03  0.00000000000E+00 0. -1.
         22    1    3    3    0    0  0.10898638293E+03  0.15758908947E+03 -0.90663318823E+03  0.92665856213E+03  0.00000000000E+00 0. -1.
</event>
<event>
 7    1  0.5139898E-006  0.1052408E+03  0.7818608E-02  0.1371805E+00
          2   -1    0    0  502    0  0.00000000000E+00  0.00000000000E+00  0.17886637111E+04  0.17886637111E+04  0.00000000000E+00 0. -1.
          1   -1    0    0  501    0 -0.00000000000E+00 -0.00000000000E+00 -0.17891239135E+03  0.17891239135E+03  0.00000000000E+00 0. -1.
         25    2    1    2    0    0  0.71523731409E+02  0.43522717447E+01  0.40030450739E+03  0.42544421462E+03  0.12499797878E+03 0.  0.
          2    1    1    2  501    0  0.37218629994E+02  0.19959525951E+02 -0.16136436061E+03  0.16679947833E+03  0.00000000000E+00 0. -1.
          1    1    1    2  502    0 -0.10874236140E+03 -0.24311797695E+02  0.13708111730E+04  0.13753324095E+04  0.00000000000E+00 0. -1.
         22    1    3    3    0    0 -0.35983128716E+02 -0.42293014518E+01  0.10018853350E+03  0.10653832544E+03  0.00000000000E+00 0. -1.
         22    1    3    3    0    0  0.10750686013E+03  0.85815731965E+01  0.30011597389E+03  0.31890588918E+03  0.00000000000E+00 0. -1.
</event>
<event>
 7    1  0.5139898E-006  0.4649272E+02  0.7818608E-02  0.1522565E+00
          2   -1    0    0  502    0  0.00000000000E+00  0.00000000000E+00  0.16395383515E+03  0.16395383515E+03  0.00000000000E+00 0. -1.
          1   -1    0    0  501    0 -0.00000000000E+00 -0.00000000000E+00 -0.16931409981E+03  0.16931409981E+03  0.00000000000E+00 0. -1.
         25    2    1    2    0    0 -0.26506223639E+02 -0.28416881240E+02  0.50798777001E+02  0.14041269328E+03  0.12500043863E+03 0.  0.
          2    1    1    2  501    0 -0.22657589301E+02  0.21515737161E+02 -0.11308485236E+03  0.11732210845E+03  0.00000000000E+00 0. -1.
          1    1    1    2  502    0  0.49163812940E+02  0.69011440785E+01  0.56925810694E+02  0.75533133231E+02  0.00000000000E+00 0. -1.
         22    1    3    3    0    0 -0.61071293917E+02  0.10916789368E+02 -0.69868665651E+01  0.62431526773E+02  0.00000000000E+00 0.  1.
         22    1    3    3    0    0  0.34565070278E+02 -0.39333670608E+02  0.57785643566E+02  0.77981166503E+02  0.00000000000E+00 0.  1.
</event>
<event>
 7    1  0.5139898E-006  0.8424688E+02  0.7818608E-02  0.1365036E+00
          2   -1    0    0  502    0  0.00000000000E+00  0.00000000000E+00  0.63768002681E+03  0.63768002681E+03  0.00000000000E+00 0. -1.
          1   -1    0    0  501    0 -0.00000000000E+00 -0.00000000000E+00 -0.43882441634E+03  0.43882441634E+03  0.00000000000E+00 0. -1.
         25    2    1    2    0    0  0.16359351431E+02 -0.33176264753E+02 -0.10940487966E+02  0.13081609320E+03  0.12499945216E+03 0.  0.
          2    1    1    2  501    0 -0.65263576234E+02  0.60056601479E+02 -0.36122148185E+03  0.37195038475E+03  0.00000000000E+00 0. -1.
          1    1    1    2  502    0  0.48904224804E+02 -0.26880336726E+02  0.57101758029E+03  0.57373796519E+03  0.00000000000E+00 0. -1.
         22    1    3    3    0    0 -0.44572503095E+02  0.18000412060E+02 -0.17063318010E+02  0.51008623663E+02  0.00000000000E+00 0. -1.
         22    1    3    3    0    0  0.60931854525E+02 -0.51176676813E+02  0.61228300436E+01  0.79807469533E+02  0.00000000000E+00 0. -1.
</event>
<event>
 7    1  0.5139898E-006  0.3259816E+02  0.7818608E-02  0.1582763E+00
          2   -1    0    0  502    0  0.00000000000E+00  0.00000000000E+00  0.59710258271E+03  0.59710258271E+03  0.00000000000E+00 0. -1.
          1   -1    0    0  501    0 -0.00000000000E+00 -0.00000000000E+00 -0.11005326182E+03  0.11005326182E+03  0.00000000000E+00 0. -1.
         25    2    1    2    0    0  0.85860505119E+01  0.61856770257E+02  0.18541699603E+03  0.23217637535E+03  0.12500570612E+03 0.  0.
          2    1    1    2  501    0 -0.53721180392E+01 -0.31717111833E+02 -0.83071926653E+02  0.89082994074E+02  0.00000000000E+00 0. -1.
          1    1    1    2  502    0 -0.32139324727E+01 -0.30139658424E+02  0.38470425151E+03  0.38589647511E+03  0.00000000000E+00 0. -1.
         22    1    3    3    0    0  0.51400842564E+02  0.43842133667E+02  0.37780588700E+02  0.77405117294E+02  0.00000000000E+00 0. -1.
         22    1    3    3    0    0 -0.42814792052E+02  0.18014636590E+02  0.14763640733E+03  0.15477125806E+03  0.00000000000E+00 0. -1.
</event>
<event>
 7    1  0.6779080E-006  0.1486447E+03  0.7818608E-02  0.1338044E+00
          2   -1    0    0  502    0  0.00000000000E+00  0.00000000000E+00  0.12872994779E+04  0.12872994779E+04  0.00000000000E+00 0. -1.
          1   -1    0    0  501    0 -0.00000000000E+00 -0.00000000000E+00 -0.11246189127E+04  0.11246189127E+04  0.00000000000E+00 0. -1.
         25    2    1    2    0    0 -0.53736513814E+02 -0.95476855410E+02 -0.25852555823E+03  0.30735272292E+03  0.12500715655E+03 0.  0.
          2    1    1    2  501    0 -0.16528833619E+02 -0.36203411650E+02 -0.83679526460E+03  0.83774113198E+03  0.00000000000E+00 0. -1.
          1    1    1    2  502    0  0.70265347433E+02  0.13168026706E+03  0.12580013881E+04  0.12668245357E+04  0.00000000000E+00 0. -1.
         22    1    3    3    0    0 -0.93934520216E+02 -0.58172142727E+02 -0.15730433147E+03  0.19222992737E+03  0.00000000000E+00 0.  1.
         22    1    3    3    0    0  0.40198006402E+02 -0.37304712682E+02 -0.10122122676E+03  0.11512279554E+03  0.00000000000E+00 0.  1.
</event>
<event>
 7    1  0.5139898E-006  0.4356964E+02  0.7818608E-02  0.1581189E+00
          2   -1    0    0  502    0  0.00000000000E+00  0.00000000000E+00  0.79467204018E+03  0.79467204018E+03  0.00000000000E+00 0. -1.
          1   -1    0    0  501    0 -0.00000000000E+00 -0.00000000000E+00 -0.82565987215E+03  0.82565987215E+03  0.00000000000E+00 0. -1.
         25    2    1    2    0    0 -0.29111859680E+02  0.57180103759E+02  0.12686943848E+03  0.18931035646E+03  0.12500196799E+03 0.  0.
          2    1    1    2  501    0  0.26592473582E+02 -0.34420400696E+02 -0.79363777700E+03  0.79482881472E+03  0.00000000000E+00 0. -1.
          1    1    1    2  502    0  0.25193860977E+01 -0.22759703063E+02  0.63578050654E+03  0.63619274115E+03  0.00000000000E+00 0. -1.
         22    1    3    3    0    0  0.43225117092E+01  0.58645020961E+02  0.73185387727E+00  0.58808657536E+02  0.00000000000E+00 0. -1.
         22    1    3    3    0    0 -0.33434371389E+02 -0.14649172019E+01  0.12613758460E+03  0.13050169892E+03  0.00000000000E+00 0. -1.
</event>
<event>
 7    1  0.5139898E-006  0.1096085E+03  0.7818608E-02  0.1352637E+00
          2   -1    0    0  502    0  0.00000000000E+00  0.00000000000E+00  0.98917375955E+03  0.98917375955E+03  0.00000000000E+00 0. -1.
          1   -1    0    0  501    0 -0.00000000000E+00 -0.00000000000E+00 -0.14427255491E+03  0.14427255491E+03  0.00000000000E+00 0. -1.
         25    2    1    2    0    0 -0.57301068852E+02 -0.13818435284E+03  0.15246805215E+03  0.24748727141E+03  0.12500045888E+03 0.  0.
          2    1    1    2  501    0  0.28867423075E+02  0.99995653669E+02 -0.67814074685E+02  0.12422241180E+03  0.00000000000E+00 0. -1.
          1    1    1    2  502    0  0.28433645777E+02  0.38188699174E+02  0.76024722718E+03  0.76173663125E+03  0.00000000000E+00 0. -1.
         22    1    3    3    0    0 -0.27435047262E+01 -0.40705637596E+02 -0.17258627953E+02  0.44298261694E+02  0.00000000000E+00 0. -1.
         22    1    3    3    0    0 -0.54557564126E+02 -0.97478715246E+02  0.16972668010E+03  0.20318900971E+03  0.00000000000E+00 0. -1.
</event>
<event>
 7    1  0.5139898E-006  0.7863872E+02  0.7818608E-02  0.1356679E+00
          2   -1    0    0  502    0  0.00000000000E+00  0.00000000000E+00  0.13593869131E+02  0.13593869131E+02  0.00000000000E+00 0. -1.
          1   -1    0    0  501    0 -0.00000000000E+00 -0.00000000000E+00 -0.19375768231E+04  0.19375768231E+04  0.00000000000E+00 0. -1.
         25    2    1    2    0    0 -0.34462647451E+02  0.11064189392E+03 -0.91104829204E+03  0.92685662970E+03  0.12499967532E+03 0.  0.
          2    1    1    2  501    0 -0.16016354291E+02 -0.62096065755E+02 -0.73113959225E+03  0.73394655687E+03  0.00000000000E+00 0. -1.
          1    1    1    2  502    0  0.50479001741E+02 -0.48545828163E+02 -0.28179506972E+03  0.29036750570E+03  0.00000000000E+00 0. -1.
         22    1    3    3    0    0 -0.14591669352E+01  0.12750892654E+03 -0.58671765116E+03  0.60041507118E+03  0.00000000000E+00 0. -1.
         22    1    3    3    0    0 -0.33003480515E+02 -0.16867032627E+02 -0.32433064088E+03  0.32644155852E+03  0.00000000000E+00 0. -1.
</event>
<event>
 7    1  0.5139898E-006  0.1117396E+03  0.7818608E-02  0.1412862E+00
          2   -1    0    0  502    0  0.00000000000E+00  0.00000000000E+00  0.71662639501E+03  0.71662639501E+03  0.00000000000E+00 0. -1.
          1   -1    0    0  501    0 -0.00000000000E+00 -0.00000000000E+00 -0.96137908395E+03  0.96137908395E+03  0.00000000000E+00 0. -1.
         25    2    1    2    0    0 -0.91383238287E+02 -0.35096118884E+02  0.15729393060E+03  0.22349335984E+03  0.12500106995E+03 0.  0.
          2    1    1    2  501    0  0.11111128972E+03  0.14348766939E+02 -0.92450568676E+03  0.93126922566E+03  0.00000000000E+00 0. -1.
          1    1    1    2  502    0 -0.19728051431E+02  0.20747351945E+02  0.52245906723E+03  0.52324289346E+03  0.00000000000E+00 0. -1.
         22    1    3    3    0    0 -0.74480217661E+02  0.31141767808E+02  0.12270666132E+03  0.14688103096E+03  0.00000000000E+00 0. -1.
         22    1    3    3    0    0 -0.16903020625E+02 -0.66237886692E+02  0.34587269283E+02  0.76612328878E+02  0.00000000000E+00 0. -1.
</event>
<event>
 7    1  0.5139898E-006  0.1474727E+03  0.7818608E-02  0.1372880E+00
          2   -1    0    0  502    0  0.00000000000E+00  0.00000000000E+00  0.25541908739E+03  0.25541908739E+03  0.00000000000E+00 0. -1.
          1   -1    0    0  501    0 -0.00000000000E+00 -0.00000000000E+00 -0.45248025638E+03  0.45248025638E+03  0.00000000000E+00 0. -1.
         25    2    1    2    0    0 -0.57200788544E+02  0.10679752665E+03  0.57967718616E+02  0.18347535344E+03  0.12500122803E+03 0.  0.
          2    1    1    2  501    0  0.75597742852E+02 -0.13033284587E+03 -0.37323603877E+03  0.40250069574E+03  0.00000000000E+00 0. -1.
          1    1    1    2  502    0 -0.18396954308E+02  0.23535319221E+02  0.11820715116E+03  0.12192329459E+03  0.00000000000E+00 0. -1.
         22    1    3    3    0    0 -0.63470634137E+02  0.21786831981E+02  0.70483726841E+02  0.97319798576E+02  0.00000000000E+00 0.  1.
         22    1    3    3    0    0  0.62698455936E+01  0.85010694671E+02 -0.12516008225E+02  0.86155554865E+02  0.00000000000E+00 0.  1.
</event>
<event>
 7    1  0.5139898E-006  0.1359407E+03  0.7818608E-02  0.1266576E+00
          2   -1    0    0  502    0  0.00000000000E+00  0.00000000000E+00  0.12444867167E+04  0.12444867167E+04  0.00000000000E+00 0. -1.
          1   -1    0    0  501    0 -0.00000000000E+00 -0.00000000000E+00 -0.75632495371E+03  0.75632495371E+03  0.00000000000E+00 0. -1.
         25    2    1    2    0    0  0.12612707623E+03  0.15392181831E+03  0.15812475654E+03  0.28324571371E+03  0.12499892077E+03 0.  0.
          2    1    1    2  501    0 -0.14757069163E+02 -0.82628896815E+02 -0.68692937608E+03  0.69203849128E+03  0.00000000000E+00 0. -1.
          1    1    1    2  502    0 -0.11137000707E+03 -0.71292921490E+02  0.10169663825E+04  0.10255274654E+04  0.00000000000E+00 0. -1.
         22    1    3    3    0    0  0.10229723389E+03  0.33623260533E+02  0.10220357495E+03  0.14846150492E+03  0.00000000000E+00 0.  1.
         22    1    3    3    0    0  0.23829842344E+02  0.12029855777E+03  0.55921181589E+02  0.13478420879E+03  0.00000000000E+00 0.  1.
</event>
<event>
 7    1  0.5139898E-006  0.1732571E+03  0.7818608E-02  0.1203768E+00
          2   -1    0    0  502    0  0.00000000000E+00  0.00000000000E+00  0.27071185525E+04  0.27071185525E+04  0.00000000000E+00 0. -1.
          1   -1    0    0  501    0 -0.00000000000E+00 -0.00000000000E+00 -0.26555328031E+03  0.26555328031E+03  0.00000000000E+00 0. -1.
         25    2    1    2    0    0 -0.21464633835E+03  0.19897815639E+03  0.90537849006E+02  0.33088800626E+03  0.12499765315E+03 0.  0.
          2    1    1    2  501    0  0.76475552781E+02 -0.99275738227E+02 -0.11487527472E+03  0.17000150328E+03  0.00000000000E+00 0. -1.
          1    1    1    2  502    0  0.13817078557E+03 -0.99702418160E+02  0.24659026979E+04  0.24717823233E+04  0.00000000000E+00 0. -1.
         22    1    3    3    0    0 -0.16850927296E+03  0.75401654895E+02  0.69774202321E+02  0.19735557743E+03  0.00000000000E+00 0. -1.
         22    1    3    3    0    0 -0.46137065396E+02  0.12357650149E+03  0.20763646685E+02  0.13353242883E+03  0.00000000000E+00 0. -1.
</event>
<event>
 7    1  0.5139898E-006  0.3230828E+02  0.7818608E-02  0.1575627E+00
          2   -1    0    0  502    0  0.00000000000E+00  0.00000000000E+00  0.30589602105E+03  0.30589602105E+03  0.00000000000E+00 0. -1.
          1   -1    0    0  501    0 -0.00000000000E+00 -0.00000000000E+00 -0.85043839248E+02  0.85043839248E+02  0.00000000000E+00 0. -1.
         25    2    1    2    0    0 -0.14679792929E+02 -0.55619159939E+02  0.23032689165E+03  0.26830026820E+03  0.12500227849E+03 0.  0.
          2    1    1    2  501    0 -0.61548890062E+01  0.31381768352E+02 -0.57004956173E+02  0.65362550989E+02  0.00000000000E+00 0. -1.
          1    1    1    2  502    0  0.20834681936E+02  0.24237391587E+02  0.47530246332E+02  0.57277041113E+02  0.00000000000E+00 0. -1.
         22    1    3    3    0    0  0.49927279700E+02 -0.53137067680E+02  0.12510729588E+03  0.14480371785E+03  0.00000000000E+00 0. -1.
         22    1    3    3    0    0 -0.64607072630E+02 -0.24820922584E+01  0.10521959576E+03  0.12349655035E+03  0.00000000000E+00 0. -1.
</event>
<event>
 7    1  0.5139898E-006  0.2099077E+03  0.7818608E-02  0.1288260E+00
          2   -1    0    0  502    0  0.00000000000E+00  0.00000000000E+00  0.19671611255E+04  0.19671611255E+04  0.00000000000E+00 0. -1.
          1   -1    0    0  501    0 -0.00000000000E+00 -0.00000000000E+00 -0.59103892631E+03  0.59103892631E+03  0.00000000000E+00 0. -1.
         25    2    1    2    0    0  0.22508309023E+03 -0.66488294740E+02  0.16666961184E+04  0.16877748303E+04  0.12499934359E+03 0.  0.
          2    1    1    2  501    0 -0.18864881207E+03  0.91487377377E+02 -0.55970784623E+03  0.59768820270E+03  0.00000000000E+00 0. -1.
          1    1    1    2  502    0 -0.36434278159E+02 -0.24999082637E+02  0.26913392697E+03  0.27273701877E+03  0.00000000000E+00 0. -1.
         22    1    3    3    0    0  0.97468447976E+00 -0.34338741452E+02  0.12877515843E+03  0.13327843263E+03  0.00000000000E+00 0. -1.
         22    1    3    3    0    0  0.22410840575E+03 -0.32149553288E+02  0.15379209600E+04  0.15544963977E+04  0.00000000000E+00 0. -1.
</event>
<event>
 7    1  0.5139898E-006  0.4182062E+02  0.7818608E-02  0.1537409E+00
          2   -1    0    0  502    0  0.00000000000E+00  0.00000000000E+00  0.21433886809E+04  0.21433886809E+04  0.00000000000E+00 0. -1.
          1   -1    0    0  501    0 -0.00000000000E+00 -0.00000000000E+00 -0.13072926513E+03  0.13072926513E+03  0.00000000000E+00 0. -1.
         25    2    1    2    0    0 -0.31668179569E+01 -0.12520554278E+02  0.55643513179E+03  0.57043728163E+03  0.12494736241E+03 0.  0.
          2    1    1    2  501    0  0.29276859338E+02  0.30134800389E+02 -0.11999955612E+03  0.12714218087E+03  0.00000000000E+00 0. -1.
          1    1    1    2  502    0 -0.26110041381E+02 -0.17614246111E+02  0.15762238401E+04  0.15765384835E+04  0.00000000000E+00 0. -1.
         22    1    3    3    0    0 -0.44788301489E+02  0.38527117708E+02  0.23391467794E+03  0.24126004083E+03  0.00000000000E+00 0.  1.
         22    1    3    3    0    0  0.41621483532E+02 -0.51047671986E+02  0.32252045385E+03  0.32917724080E+03  0.00000000000E+00 0.  1.
</event>
<event>
 7    1  0.5139898E-006  0.5274861E+02  0.7818608E-02  0.1545425E+00
          2   -1    0    0  502    0  0.00000000000E+00  0.00000000000E+00  0.12356590640E+04  0.12356590640E+04  0.00000000000E+00 0. -1.
          1   -1    0    0  501    0 -0.00000000000E+00 -0.00000000000E+00 -0.91338001849E+03  0.91338001849E+03  0.00000000000E+00 0. -1.
         25    2    1    2    0    0  0.38531674877E+02  0.52922308188E+01  0.17215196104E+03  0.21627489958E+03  0.12500334725E+03 0.  0.
          2    1    1    2  501    0 -0.44667924002E+02 -0.28188018049E+02 -0.89040096271E+03  0.89196617772E+03  0.00000000000E+00 0. -1.
          1    1    1    2  502    0  0.61362491255E+01  0.22895787230E+02  0.10405280472E+04  0.10407980052E+04  0.00000000000E+00 0. -1.
         22    1    3    3    0    0  0.74105357450E+02 -0.99080176982E+01  0.15850550515E+03  0.17525343928E+03  0.00000000000E+00 0. -1.
         22    1    3    3    0    0 -0.35573682573E+02  0.15200248517E+02  0.13646455892E+02  0.41021460301E+02  0.00000000000E+00 0. -1.
</event>
<event>
 7    1  0.5139898E-006  0.6068897E+02  0.7818608E-02  0.1411886E+00
          2   -1    0    0  502    0  0.00000000000E+00  0.00000000000E+00  0.17254464566E+04  0.17254464566E+04  0.00000000000E+00 0. -1.
          1   -1    0    0  501    0 -0.00000000000E+00 -0.00000000000E+00 -0.26628307019E+03  0.26628307019E+03  0.00000000000E+00 0. -1.
         25    2    1    2    0    0  0.82546988710E+02 -0.51081393255E+02  0.14112720866E+03  0.21205186897E+03  0.12500316807E+03 0.  0.
          2    1    1    2  501    0 -0.53092125333E+02 -0.15153836578E+01 -0.22716973727E+03  0.23329629163E+03  0.00000000000E+00 0. -1.
          1    1    1    2  502    0 -0.29454863377E+02  0.52596776913E+02  0.15452059150E+04  0.15463813662E+04  0.00000000000E+00 0. -1.
         22    1    3    3    0    0 -0.54115503772E+01 -0.68082487974E+02  0.53767762474E+02  0.86922277511E+02  0.00000000000E+00 0. -1.
         22    1    3    3    0    0  0.87958539087E+02  0.17001094720E+02  0.87359446183E+02  0.12512959145E+03  0.00000000000E+00 0. -1.
</event>
<event>
 7    1  0.5139898E-006  0.1955672E+03  0.7818608E-02  0.1264326E+00
          2   -1    0    0  502    0  0.00000000000E+00  0.00000000000E+00  0.11151232365E+03  0.11151232365E+03  0.00000000000E+00 0. -1.
          1   -1    0    0  501    0 -0.00000000000E+00 -0.00000000000E+00 -0.85909027787E+03  0.85909027787E+03  0.00000000000E+00 0. -1.
         25    2    1    2    0    0  0.18258740594E+03 -0.38342230489E+02 -0.41986210207E+03  0.47614986177E+03  0.12500487458E+03 0.  0.
          2    1    1    2  501    0 -0.79999107030E+01 -0.59098939931E+02 -0.28347136695E+03  0.28967688751E+03  0.00000000000E+00 0. -1.
          1    1    1    2  502    0 -0.17458749524E+03  0.97441170420E+02 -0.44244485199E+02  0.20477585223E+03  0.00000000000E+00 0. -1.
         22    1    3    3    0    0  0.12349326370E+02 -0.33863720643E+02 -0.19293098821E+02  0.40883751047E+02  0.00000000000E+00 0. -1.
         22    1    3    3    0    0  0.17023807957E+03 -0.44785098456E+01 -0.40056900325E+03  0.43526611073E+03  0.00000000000E+00 0. -1.
</event>
<event>
 7    1  0.5139898E-006  0.2339531E+03  0.7818608E-02  0.1238513E+00
          2   -1    0    0  502    0  0.00000000000E+00  0.00000000000E+00  0.31011602034E+04  0.31011602034E+04  0.00000000000E+00 0. -1.
          1   -1    0    0  501    0 -0.00000000000E+00 -0.00000000000E+00 -0.31262832602E+04  0.31262832602E+04  0.00000000000E+00 0. -1.
         25    2    1    2    0    0  0.25333285852E+03  0.11077504643E+03 -0.17033144770E+03  0.34797342869E+03  0.12499622748E+03 0.  0.
          2    1    1    2  501    0 -0.19187977392E+03 -0.13029922308E+03 -0.28620939356E+04  0.28714765246E+04  0.00000000000E+00 0. -1.
          1    1    1    2  502    0 -0.61453084598E+02  0.19524176652E+02  0.30073023265E+04  0.30079935104E+04  0.00000000000E+00 0. -1.
         22    1    3    3    0    0  0.23744828099E+03  0.66627748571E+02 -0.10620353960E+03  0.26851468274E+03  0.00000000000E+00 0.  1.
         22    1    3    3    0    0  0.15884577532E+02  0.44147297856E+02 -0.64127908095E+02  0.79458745950E+02  0.00000000000E+00 0.  1.
</event>
<event>
 7    1  0.5139898E-006  0.9420122E+02  0.7818608E-02  0.1404065E+00
          2   -1    0    0  502    0  0.00000000000E+00  0.00000000000E+00  0.83521508898E+03  0.83521508898E+03  0.00000000000E+00 0. -1.
          1   -1    0    0  501    0 -0.00000000000E+00 -0.00000000000E+00 -0.15514416808E+03  0.15514416808E+03  0.00000000000E+00 0. -1.
         25    2    1    2    0    0  0.17691404953E+02 -0.10078758859E+03  0.16901616396E+03  0.23379862196E+03  0.12499683248E+03 0.  0.
          2    1    1    2  501    0  0.30364150456E+02  0.20034753551E+02 -0.11648030732E+03  0.12202882846E+03  0.00000000000E+00 0. -1.
          1    1    1    2  502    0 -0.48055555409E+02  0.80752835034E+02  0.62753506425E+03  0.63453180664E+03  0.00000000000E+00 0. -1.
         22    1    3    3    0    0 -0.17109745430E+02 -0.10066768644E+03  0.17075123268E+03  0.19895403977E+03  0.00000000000E+00 0.  1.
         22    1    3    3    0    0  0.34801150383E+02 -0.11990214429E+00 -0.17350687130E+01  0.34844582189E+02  0.00000000000E+00 0.  1.
</event>
<event>
 7    1  0.5139898E-006  0.7338614E+02  0.7818608E-02  0.1352635E+00
          2   -1    0    0  502    0  0.00000000000E+00  0.00000000000E+00  0.69961147749E+03  0.69961147749E+03  0.00000000000E+00 0. -1.
          1   -1    0    0  501    0 -0.00000000000E+00 -0.00000000000E+00 -0.35891939118E+03  0.35891939118E+03  0.00000000000E+00 0. -1.
         25    2    1    2    0    0 -0.34231263027E+02 -0.81956995675E+02  0.76325671987E+02  0.17128795561E+03  0.12500090809E+03 0.  0.
          2    1    1    2  501    0 -0.34884378096E+02  0.65219687149E+02 -0.30480281905E+03  0.31364834756E+03  0.00000000000E+00 0. -1.
          1    1    1    2  502    0  0.69115641123E+02  0.16737308525E+02  0.56916923337E+03  0.57359456549E+03  0.00000000000E+00 0. -1.
         22    1    3    3    0    0 -0.53431924220E+02 -0.10398200350E+03  0.80258789266E+02  0.14180515093E+03  0.00000000000E+00 0. -1.
         22    1    3    3    0    0  0.19200661193E+02  0.22025007823E+02 -0.39331172793E+01  0.29482804673E+02  0.00000000000E+00 0. -1.
</event>
<event>
 7    1  0.5139898E-006  0.1791120E+03  0.7818608E-02  0.1376096E+00
          2   -1    0    0  502    0  0.00000000000E+00  0.00000000000E+00  0.79559033171E+03  0.79559033171E+03  0.00000000000E+00 0. -1.
          1   -1    0    0  501    0 -0.00000000000E+00 -0.00000000000E+00 -0.56024616990E+03  0.56024616990E+03  0.00000000000E+00 0. -1.
         25    2    1    2    0    0 -0.17324515928E+02 -0.15649348334E+03  0.11668422403E+03  0.23244813779E+03  0.12500631761E+03 0.  0.
          2    1    1    2  501    0  0.16168125573E+02  0.18041926334E+03 -0.48579022807E+03  0.51846375433E+03  0.00000000000E+00 0. -1.
          1    1    1    2  502    0  0.11563903555E+01 -0.23925779995E+02  0.60445016584E+03  0.60492460949E+03  0.00000000000E+00 0. -1.
         22    1    3    3    0    0  0.17568427486E+02 -0.97225078162E+01  0.72529459168E+02  0.75257552775E+02  0.00000000000E+00 0. -1.
         22    1    3    3    0    0 -0.34892943414E+02 -0.14677097552E+03  0.44154764864E+02  0.15719058501E+03  0.00000000000E+00 0. -1.
</event>
<event>
 7    1  0.5139898E-006  0.1191787E+03  0.7818608E-02  0.1406882E+00
          2   -1    0    0  502    0  0.00000000000E+00  0.00000000000E+00  0.31000264567E+03  0.31000264567E+03  0.00000000000E+00 0. -1.
          1   -1    0    0  501    0 -0.00000000000E+00 -0.00000000000E+00 -0.52671079487E+03  0.52671079487E+03  0.00000000000E+00 0. -1.
         25    2    1    2    0    0 -0.11842432677E+03 -0.52491950170E+02 -0.56227487760E+02  0.18859073890E+03  0.12500084166E+03 0.  0.
          2    1    1    2  501    0  0.27350763575E+01  0.27991553257E+02 -0.38942598664E+03  0.39044027298E+03  0.00000000000E+00 0. -1.
          1    1    1    2  502    0  0.11568925041E+03  0.24500396912E+02  0.22894532520E+03  0.25768242866E+03  0.00000000000E+00 0. -1.
         22    1    3    3    0    0 -0.44848657431E+02 -0.68271586085E+02 -0.75154410980E+02  0.11099818480E+03  0.00000000000E+00 0. -1.
         22    1    3    3    0    0 -0.73575669338E+02  0.15779635916E+02  0.18926923220E+02  0.77592554093E+02  0.00000000000E+00 0. -1.
</event>
<event>
 7    1  0.5139898E-006  0.1122338E+03  0.7818608E-02  0.1438911E+00
          2   -1    0    0  502    0  0.00000000000E+00  0.00000000000E+00  0.89712501373E+03  0.89712501373E+03  0.00000000000E+00 0. -1.
          1   -1    0    0  501    0 -0.00000000000E+00 -0.00000000000E+00 -0.46492682184E+02  0.46492682184E+02  0.00000000000E+00 0. -1.
         25    2    1    2    0    0  0.90893655834E+02 -0.64686944827E+02  0.16241044765E+03  0.23334070127E+03  0.12499868743E+03 0.  0.
          2    1    1    2  501    0 -0.14665322160E+02 -0.18193190510E+02  0.15146932117E+02  0.27847682265E+02  0.00000000000E+00 0. -1.
          1    1    1    2  502    0 -0.76228333673E+02  0.82880135337E+02  0.67307495178E+03  0.68242931239E+03  0.00000000000E+00 0. -1.
         22    1    3    3    0    0  0.88671153258E+02 -0.91650370397E+02  0.90120749493E+02  0.15615413316E+03  0.00000000000E+00 0. -1.
         22    1    3    3    0    0  0.22225025757E+01  0.26963425570E+02  0.72289698158E+02  0.77186568105E+02  0.00000000000E+00 0. -1.
</event>
<event>
 7    1  0.5139898E-006  0.1044318E+03  0.7818608E-02  0.1282287E+00
          2   -1    0    0  502    0  0.00000000000E+00  0.00000000000E+00  0.12801310436E+04  0.12801310436E+04  0.00000000000E+00 0. -1.
          1   -1    0    0  501    0 -0.00000000000E+00 -0.00000000000E+00 -0.97230523967E+03  0.97230523967E+03  0.00000000000E+00 0. -1.
         25    2    1    2    0    0 -0.66635383280E+01 -0.28776592961E+02  0.24070308487E+03  0.27282914855E+03  0.12500109675E+03 0.  0.
          2    1    1    2  501    0 -0.55911819814E+02 -0.75517505673E+02 -0.95030317259E+03  0.95493724668E+03  0.00000000000E+00 0. -1.
          1    1    1    2  502    0  0.62575358142E+02  0.10429409863E+03  0.10174258917E+04  0.10246698881E+04  0.00000000000E+00 0. -1.
         22    1    3    3    0    0 -0.12666717465E+02 -0.45962562465E+02  0.20536075567E+02  0.51910820446E+02  0.00000000000E+00 0. -1.
         22    1    3    3    0    0  0.60031791367E+01  0.17185969504E+02  0.22016700930E+03  0.22091832811E+03  0.00000000000E+00 0. -1.
</event>
<event>
 7    1  0.5139898E-006  0.8028325E+02  0.7818608E-02  0.1461683E+00
          2   -1    0    0  502    0  0.00000000000E+00  0.00000000000E+00  0.45833970378E+03  0.45833970378E+03  0.00000000000E+00 0. -1.
          1   -1    0    0  501    0 -0.00000000000E+00 -0.00000000000E+00 -0.87493210878E+03  0.87493210878E+03  0.00000000000E+00 0. -1.
         25    2    1    2    0    0  0.85042749000E+02 -0.57173797345E+02 -0.34050451624E+03  0.37691694684E+03  0.12498778730E+03 0.  0.
          2    1    1    2  501    0 -0.68382513110E+02  0.35139184024E+02 -0.51292008021E+03  0.51865011234E+03  0.00000000000E+00 0. -1.
          1    1    1    2  502    0 -0.16660235890E+02  0.22034613321E+02  0.43683219145E+03  0.43770475338E+03  0.00000000000E+00 0. -1.
         22    1    3    3    0    0  0.11519012115E+03 -0.32784095648E+02 -0.22222634821E+03  0.25244427262E+03  0.00000000000E+00 0.  1.
         22    1    3    3    0    0 -0.30147372145E+02 -0.24389701697E+02 -0.11827816803E+03  0.12447267422E+03  0.00000000000E+00 0.  1.
</event>
<event>
 7    1  0.5139898E-006  0.3003963E+02  0.7818608E-02  0.1665402E+00
          2   -1    0    0  502    0  0.00000000000E+00  0.00000000000E+00  0.18659399372E+04  0.18659399372E+04  0.00000000000E+00 0. -1.
          1   -1    0    0  501    0 -0.00000000000E+00 -0.00000000000E+00 -0.81226295486E+01  0.81226295486E+01  0.00000000000E+00 0. -1.
         25    2    1    2    0    0 -0.92786777566E+01 -0.38400271647E+02  0.81845985441E+03  0.82889230697E+03  0.12500099416E+03 0.  0.
          2    1    1    2  501    0  0.20413423090E+02  0.21422390074E+02  0.75395281724E+02  0.80994290817E+02  0.00000000000E+00 0. -1.
          1    1    1    2  502    0 -0.11134745333E+02  0.16977881574E+02  0.96396217150E+03  0.96417596894E+03  0.00000000000E+00 0. -1.
         22    1    3    3    0    0  0.91946540828E+01  0.13722211032E+01  0.73095141603E+03  0.73101053156E+03  0.00000000000E+00 0. -1.
         22    1    3    3    0    0 -0.18473331839E+02 -0.39772492750E+02  0.87508438382E+02  0.97881775407E+02  0.00000000000E+00 0. -1.
</event>
<event>
 7    1  0.5139898E-006  0.9376090E+02  0.7818608E-02  0.1353512E+00
          2   -1    0    0  502    0  0.00000000000E+00  0.00000000000E+00  0.17827715748E+04  0.17827715748E+04  0.00000000000E+00 0. -1.
          1   -1    0    0  501    0 -0.00000000000E+00 -0.00000000000E+00 -0.25704081794E+03  0.25704081794E+03  0.00000000000E+00 0. -1.
         25    2    1    2    0    0  0.81464312126E+02 -0.60454215110E+02  0.12210360364E+03  0.20205396593E+03  0.12500147540E+03 0.  0.
          2    1    1    2  501    0 -0.47971436257E+02 -0.27403347747E+02 -0.21216135527E+03  0.21923649978E+03  0.00000000000E+00 0. -1.
          1    1    1    2  502    0 -0.33492875869E+02  0.87857562857E+02  0.16157885085E+04  0.16185219270E+04  0.00000000000E+00 0. -1.
         22    1    3    3    0    0  0.46168578805E+02  0.33676041007E+02  0.25308706468E+02  0.62499152233E+02  0.00000000000E+00 0. -1.
         22    1    3    3    0    0  0.35295733322E+02 -0.94130256117E+02  0.96794897173E+02  0.13955481370E+03  0.00000000000E+00 0. -1.
</event>
<event>
 7    1  0.5139898E-006  0.8092585E+02  0.7818608E-02  0.1489139E+00
          2   -1    0    0  502    0  0.00000000000E+00  0.00000000000E+00  0.64868492655E+03  0.64868492655E+03  0.00000000000E+00 0. -1.
          1   -1    0    0  501    0 -0.00000000000E+00 -0.00000000000E+00 -0.12307944646E+04  0.12307944646E+04  0.00000000000E+00 0. -1.
         25    2    1    2    0    0 -0.23628533092E+02 -0.10032112247E+03 -0.24133881775E+03  0.29067582483E+03  0.12500149998E+03 0.  0.
          2    1    1    2  501    0  0.26322016279E+01  0.22390940255E+02 -0.96204483442E+03  0.96230896604E+03  0.00000000000E+00 0. -1.
          1    1    1    2  502    0  0.20996331464E+02  0.77930182211E+02  0.62127411415E+03  0.62649460025E+03  0.00000000000E+00 0. -1.
         22    1    3    3    0    0 -0.30162094077E+02 -0.11115769358E+03 -0.25005823898E+03  0.27530874966E+03  0.00000000000E+00 0. -1.
         22    1    3    3    0    0  0.65335609842E+01  0.10836571117E+02  0.87194212237E+01  0.15367075167E+02  0.00000000000E+00 0. -1.
</event>
<event>
 7    1  0.5139898E-006  0.4462081E+02  0.7818608E-02  0.1585369E+00
          2   -1    0    0  502    0  0.00000000000E+00  0.00000000000E+00  0.21776322865E+02  0.21776322865E+02  0.00000000000E+00 0. -1.
          1   -1    0    0  501    0 -0.00000000000E+00 -0.00000000000E+00 -0.22394161032E+04  0.22394161032E+04  0.00000000000E+00 0. -1.
         25    2    1    2    0    0 -0.26914141221E+02  0.48098471090E+02 -0.12069607682E+04  0.12146673225E+04  0.12499829741E+03 0.  0.
          2    1    1    2  501    0 -0.78276866888E+01 -0.20337683931E+02 -0.10007142640E+04  0.10009515135E+04  0.00000000000E+00 0. -1.
          1    1    1    2  502    0  0.34741827910E+02 -0.27760787159E+02 -0.99647480537E+01  0.45573590094E+02  0.00000000000E+00 0. -1.
         22    1    3    3    0    0  0.22604997686E+02  0.69262657612E+02 -0.90613622557E+03  0.90906059256E+03  0.00000000000E+00 0. -1.
         22    1    3    3    0    0 -0.49519138907E+02 -0.21164186522E+02 -0.30082454264E+03  0.30560672991E+03  0.00000000000E+00 0. -1.
</event>
<event>
 7    1  0.5139898E-006  0.1032815E+03  0.7818608E-02  0.1415531E+00
          2   -1    0    0  502    0  0.00000000000E+00  0.00000000000E+00  0.86481779257E+03  0.86481779257E+03  0.00000000000E+00 0. -1.
          1   -1    0    0  501    0 -0.00000000000E+00 -0.00000000000E+00 -0.38692822703E+03  0.38692822703E+03  0.00000000000E+00 0. -1.
         25    2    1    2    0    0  0.64574014488E+02  0.62022298272E+02  0.24850343036E+03  0.29222657469E+03  0.12500338886E+03 0.  0.
          2    1    1    2  501    0 -0.87193784730E+01  0.29059537685E+02 -0.35962182452E+03  0.36089935018E+03  0.00000000000E+00 0. -1.
          1    1    1    2  502    0 -0.55854636015E+02 -0.91081835957E+02  0.58900795970E+03  0.59862009472E+03  0.00000000000E+00 0. -1.
         22    1    3    3    0    0 -0.23585471330E+02 -0.21207271004E+02  0.40165938633E+02  0.51179345712E+02  0.00000000000E+00 0. -1.
         22    1    3    3    0    0  0.88159485818E+02  0.83229569276E+02  0.20833749173E+03  0.24104722898E+03  0.00000000000E+00 0. -1.
</event>
<event>
 7    1  0.5139898E-006  0.1573781E+03  0.7818608E-02  0.1250707E+00
          2   -1    0    0  502    0  0.00000000000E+00  0.00000000000E+00  0.14162880480E+04  0.14162880480E+04  0.00000000000E+00 0. -1.
          1   -1    0    0  501    0 -0.00000000000E+00 -0.00000000000E+00 -0.15117799008E+04  0.15117799008E+04  0.00000000000E+00 0. -1.
         25    2    1    2    0    0  0.12312590698E+03  0.19681396447E+03  0.75071444951E+03  0.79567116598E+03  0.12499877639E+03 0.  0.
          2    1    1    2  501    0 -0.54314465038E+02 -0.14730906788E+03 -0.14823443188E+04  0.14906356705E+04  0.00000000000E+00 0. -1.
          1    1    1    2  502    0 -0.68811441944E+02 -0.49504896587E+02  0.63613801645E+03  0.64176111233E+03  0.00000000000E+00 0. -1.
         22    1    3    3    0    0  0.10881323170E+03  0.12874437204E+03  0.34434206528E+03  0.38338869394E+03  0.00000000000E+00 0. -1.
         22    1    3    3    0    0  0.14312675287E+02  0.68069592429E+02  0.40637238423E+03  0.41228247204E+03  0.00000000000E+00 0. -1.
</event>
<event>
 7    1  0.5139898E-006  0.4296043E+02  0.7818608E-02  0.1566222E+00
          2   -1    0    0  502    0  0.00000000000E+00  0.00000000000E+00  0.29832856052E+03  0.29832856052E+03  0.00000000000E+00 0. -1.
          1   -1    0    0  501    0 -0.00000000000E+00 -0.00000000000E+00 -0.72935119371E+03  0.72935119371E+03  0.00000000000E+00 0. -1.
         25    2    1    2    0    0 -0.32030708992E+02 -0.99164583943E+01 -0.16314028991E+01  0.12943017977E+03  0.12500082997E+03 0.  0.
          2    1    1    2  501    0  0.59121083559E+01 -0.24796265339E+02 -0.66156032557E+03  0.66205126098E+03  0.00000000000E+00 0. -1.
          1    1    1    2  502    0  0.26118600636E+02  0.34712723734E+02  0.23216909527E+03  0.23619831348E+03  0.00000000000E+00 0. -1.
         22    1    3    3    0    0 -0.40626040395E+02 -0.26283635858E+02 -0.54820226434E+02  0.73120188036E+02  0.00000000000E+00 0.  1.
         22    1    3    3    0    0  0.85953314029E+01  0.16367177463E+02  0.53188823535E+02  0.56309991734E+02  0.00000000000E+00 0.  1.
</event>
<event>
 7    1  0.5139898E-006  0.5947206E+02  0.7818608E-02  0.1421367E+00
          2   -1    0    0  502    0  0.00000000000E+00  0.00000000000E+00  0.11675758221E+04  0.11675758221E+04  0.00000000000E+00 0. -1.
          1   -1    0    0  501    0 -0.00000000000E+00 -0.00000000000E+00 -0.37894062748E+03  0.37894062748E+03  0.00000000000E+00 0. -1.
         25    2    1    2    0    0 -0.39978059550E+01 -0.12910546490E+02  0.12619879470E+03  0.17813935179E+03  0.12499931283E+03 0.  0.
          2    1    1    2  501    0 -0.42936404671E+02 -0.26338080421E+02 -0.35024532271E+03  0.35384885955E+03  0.00000000000E+00 0. -1.
          1    1    1    2  502    0  0.46934210626E+02  0.39248626911E+02  0.10126817227E+04  0.10145282383E+04  0.00000000000E+00 0. -1.
         22    1    3    3    0    0 -0.12473842423E+02 -0.75887935899E+01  0.15083907462E+03  0.15154409578E+03  0.00000000000E+00 0. -1.
         22    1    3    3    0    0  0.84760364679E+01 -0.53217529000E+01 -0.24640279914E+02  0.26595256013E+02  0.00000000000E+00 0. -1.
</event>
<event>
 7    1  0.5139898E-006  0.7531019E+02  0.7818608E-02  0.1380888E+00
          2   -1    0    0  502    0  0.00000000000E+00  0.00000000000E+00  0.52138919054E+03  0.52138919054E+03  0.00000000000E+00 0. -1.
          1   -1    0    0  501    0 -0.00000000000E+00 -0.00000000000E+00 -0.59014838683E+02  0.59014838683E+02  0.00000000000E+00 0. -1.
         25    2    1    2    0    0 -0.16380770703E+02 -0.43993775095E+02  0.28492504753E+03  0.31466001548E+03  0.12499944295E+03 0.  0.
          2    1    1    2  501    0  0.79898086952E+00 -0.54775910382E+02 -0.76992015714E+01  0.55320126838E+02  0.00000000000E+00 0. -1.
          1    1    1    2  502    0  0.15581789834E+02  0.98769685476E+02  0.18514850590E+03  0.21042388691E+03  0.00000000000E+00 0. -1.
         22    1    3    3    0    0 -0.24496332517E+02 -0.54323899592E+01  0.27204889585E+03  0.27320355580E+03  0.00000000000E+00 0.  1.
         22    1    3    3    0    0  0.81155618137E+01 -0.38561385136E+02  0.12876151675E+02  0.41456459679E+02  0.00000000000E+00 0.  1.
</event>
<event>
 7    1  0.5139898E-006  0.6982850E+02  0.7818608E-02  0.1452033E+00
          2   -1    0    0  502    0  0.00000000000E+00  0.00000000000E+00  0.30291578378E+04  0.30291578378E+04  0.00000000000E+00 0. -1.
          1   -1    0    0  501    0 -0.00000000000E+00 -0.00000000000E+00 -0.44438872458E+03  0.44438872458E+03  0.00000000000E+00 0. -1.
         25    2    1    2    0    0 -0.52863573087E+02 -0.28955200457E+01  0.11481001826E+04  0.11560973424E+04  0.12499637784E+03 0.  0.
          2    1    1    2  501    0  0.63337896650E+02 -0.29531502744E+02 -0.43746185306E+03  0.44300865871E+03  0.00000000000E+00 0. -1.
          1    1    1    2  502    0 -0.10474323563E+02  0.32427022790E+02  0.18741307837E+04  0.18744405613E+04  0.00000000000E+00 0. -1.
         22    1    3    3    0    0  0.20069759598E+02  0.10234243895E+02  0.79430374382E+03  0.79462316379E+03  0.00000000000E+00 0. -1.
         22    1    3    3    0    0 -0.72933332685E+02 -0.13129763941E+02  0.35379643874E+03  0.36147417858E+03  0.00000000000E+00 0. -1.
</event>
<event>
 7    1  0.5139898E-006  0.5925034E+02  0.7818608E-02  0.1405327E+00
          2   -1    0    0  502    0  0.00000000000E+00  0.00000000000E+00  0.17099874558E+04  0.17099874558E+04  0.00000000000E+00 0. -1.
          1   -1    0    0  501    0 -0.00000000000E+00 -0.00000000000E+00 -0.17631368401E+03  0.17631368401E+03  0.00000000000E+00 0. -1.
         25    2    1    2    0    0  0.61073859824E+01 -0.30635394161E+01  0.19127099583E+03  0.22860024200E+03  0.12500716524E+03 0.  0.
          2    1    1    2  501    0  0.46496562038E+01 -0.57076904218E+02 -0.15180367469E+03  0.16224594894E+03  0.00000000000E+00 0. -1.
          1    1    1    2  502    0 -0.10757042186E+02  0.60140443634E+02  0.14942064507E+04  0.14954549489E+04  0.00000000000E+00 0. -1.
         22    1    3    3    0    0 -0.36207178754E+02 -0.50911725592E+01  0.42130695929E+01  0.36805295635E+02  0.00000000000E+00 0. -1.
         22    1    3    3    0    0  0.42314564736E+02  0.20276331431E+01  0.18705792624E+03  0.19179494637E+03  0.00000000000E+00 0. -1.
</event>
<event>
 7    1  0.5139898E-006  0.9975030E+02  0.7818608E-02  0.1321911E+00
          2   -1    0    0  502    0  0.00000000000E+00  0.00000000000E+00  0.42527012241E+03  0.42527012241E+03  0.00000000000E+00 0. -1.
          1   -1    0    0  501    0 -0.00000000000E+00 -0.00000000000E+00 -0.14734662920E+03  0.14734662920E+03  0.00000000000E+00 0. -1.
         25    2    1    2    0    0 -0.59234037459E+02 -0.16530625124E+02  0.64828669916E+02  0.15365413880E+03  0.12499962066E+03 0.  0.
          2    1    1    2  501    0  0.78086956063E+02  0.82228577482E+02 -0.66280638508E+02  0.13134776246E+03  0.00000000000E+00 0. -1.
          1    1    1    2  502    0 -0.18852918605E+02 -0.65697952358E+02  0.27937546181E+03  0.28761485036E+03  0.00000000000E+00 0. -1.
         22    1    3    3    0    0  0.33083032202E+02 -0.30798528105E+02  0.28444726512E+02  0.53405419383E+02  0.00000000000E+00 0.  1.
         22    1    3    3    0    0 -0.92317069660E+02  0.14267902981E+02  0.36383943404E+02  0.10024871941E+03  0.00000000000E+00 0.  1.
</event>
<event>
 7    1  0.5139898E-006  0.5463044E+02  0.7818608E-02  0.1439692E+00
          2   -1    0    0  502    0  0.00000000000E+00  0.00000000000E+00  0.74495538524E+03  0.74495538524E+03  0.00000000000E+00 0. -1.
          1   -1    0    0  501    0 -0.00000000000E+00 -0.00000000000E+00 -0.16322149408E+04  0.16322149408E+04  0.00000000000E+00 0. -1.
         25    2    1    2    0    0  0.90636060992E+02  0.18351265244E+02  0.14415409328E+02  0.15614940848E+03  0.12499267681E+03 0.  0.
          2    1    1    2  501    0 -0.37618751159E+02 -0.29373555539E+02 -0.15598710408E+04  0.15606010509E+04  0.00000000000E+00 0. -1.
          1    1    1    2  502    0 -0.53017309833E+02  0.11022290295E+02  0.65819607586E+03  0.66041986668E+03  0.00000000000E+00 0. -1.
         22    1    3    3    0    0 -0.13812476926E+02 -0.35380306296E+02  0.19495979049E+01  0.38030928525E+02  0.00000000000E+00 0.  1.
         22    1    3    3    0    0  0.10444853792E+03  0.53731571540E+02  0.12465811423E+02  0.11811847996E+03  0.00000000000E+00 0.  1.
</event>
<event>
 7    1  0.5139898E-006  0.6419636E+02  0.7818608E-02  0.1396193E+00
          2   -1    0    0  502    0  0.00000000000E+00  0.00000000000E+00  0.46148831482E+03  0.46148831482E+03  0.00000000000E+00 0. -1.
          1   -1    0    0  501    0 -0.00000000000E+00 -0.00000000000E+00 -0.20906654012E+03  0.20906654012E+03  0.00000000000E+00 0. -1.
         25    2    1    2    0    0 -0.11931818280E+02  0.65308082356E+01  0.94484852701E+02  0.15728079479E+03  0.12499936510E+03 0.  0.
          2    1    1    2  501    0 -0.54107059495E+02  0.17326513299E+02 -0.16930529524E+03  0.17858349573E+03  0.00000000000E+00 0. -1.
          1    1    1    2  502    0  0.66038877775E+02 -0.23857321534E+02  0.32724221724E+03  0.33469056443E+03  0.00000000000E+00 0. -1.
         22    1    3    3    0    0  0.29267498591E+02 -0.12006121582E+02 -0.17764593056E+02  0.36281044578E+02  0.00000000000E+00 0. -1.
         22    1    3    3    0    0 -0.41199316871E+02  0.18536929818E+02  0.11224944576E+03  0.12099975021E+03  0.00000000000E+00 0. -1.
</event>
<event>
 7    1  0.5139898E-006  0.9081363E+02  0.7818608E-02  0.1396512E+00
          2   -1    0    0  502    0  0.00000000000E+00  0.00000000000E+00  0.69042587637E+02  0.69042587637E+02  0.00000000000E+00 0. -1.
          1   -1    0    0  501    0 -0.00000000000E+00 -0.00000000000E+00 -0.14049272798E+04  0.14049272798E+04  0.00000000000E+00 0. -1.
         25    2    1    2    0    0 -0.74880517182E+02  0.47939288870E+02 -0.10536189242E+03  0.18610183896E+03  0.12500999488E+03 0.  0.
          2    1    1    2  501    0  0.47970018376E+02 -0.77614437849E+02 -0.12426636557E+04  0.12460088622E+04  0.00000000000E+00 0. -1.
          1    1    1    2  502    0  0.26910498805E+02  0.29675148979E+02  0.12140855957E+02  0.41859166215E+02  0.00000000000E+00 0. -1.
         22    1    3    3    0    0 -0.22479214988E+01 -0.25900090570E+02 -0.73151886769E+02  0.77634183067E+02  0.00000000000E+00 0.  1.
         22    1    3    3    0    0 -0.72632595683E+02  0.73839379441E+02 -0.32210005649E+02  0.10846765590E+03  0.00000000000E+00 0.  1.
</event>
<event>
 7    1  0.5139898E-006  0.6926373E+02  0.7818608E-02  0.1480763E+00
          2   -1    0    0  502    0  0.00000000000E+00  0.00000000000E+00  0.12457751985E+04  0.12457751985E+04  0.00000000000E+00 0. -1.
          1   -1    0    0  501    0 -0.00000000000E+00 -0.00000000000E+00 -0.31873224182E+03  0.31873224182E+03  0.00000000000E+00 0. -1.
         25    2    1    2    0    0 -0.62238915038E+01  0.64555644081E+02  0.47293522231E+03  0.49345609695E+03  0.12500010840E+03 0.  0.
          2    1    1    2  501    0  0.33864957504E+02 -0.60511574855E+02 -0.30431437896E+03  0.31211492640E+03  0.00000000000E+00 0. -1.
          1    1    1    2  502    0 -0.27641066000E+02 -0.40440692263E+01  0.75842211330E+03  0.75893641695E+03  0.00000000000E+00 0. -1.
         22    1    3    3    0    0  0.45669276444E+02 -0.98036140725E+01  0.11297038191E+03  0.12224606681E+03  0.00000000000E+00 0. -1.
         22    1    3    3    0    0 -0.51893167948E+02  0.74359258154E+02  0.35996484040E+03  0.37121003014E+03  0.00000000000E+00 0. -1.
</event>
<event>
 7    1  0.5139898E-006  0.7644423E+02  0.7818608E-02  0.1353171E+00
          2   -1    0    0  502    0  0.00000000000E+00  0.00000000000E+00  0.31452724874E+03  0.31452724874E+03  0.00000000000E+00 0. -1.
          1   -1    0    0  501    0 -0.00000000000E+00 -0.00000000000E+00 -0.64426320610E+03  0.64426320610E+03  0.00000000000E+00 0. -1.
         25    2    1    2    0    0  0.60790398932E+02 -0.59619566289E+01 -0.92327045459E+02  0.16697406448E+03  0.12500014943E+03 0.  0.
          2    1    1    2  501    0 -0.51167299838E+02 -0.61311518515E+02 -0.50727645760E+03  0.51352370861E+03  0.00000000000E+00 0. -1.
          1    1    1    2  502    0 -0.96230990933E+01  0.67273475144E+02  0.26986754569E+03  0.27829268174E+03  0.00000000000E+00 0. -1.
         22    1    3    3    0    0 -0.20310704248E+02  0.39800584517E+02 -0.41003995137E+02  0.60646012665E+02  0.00000000000E+00 0. -1.
         22    1    3    3    0    0  0.81101103180E+02 -0.45762541146E+02 -0.51323050322E+02  0.10632805182E+03  0.00000000000E+00 0. -1.
</event>
<event>
 7    1  0.5139898E-006  0.7712633E+02  0.7818608E-02  0.1383865E+00
          2   -1    0    0  502    0  0.00000000000E+00  0.00000000000E+00  0.75907111349E+01  0.75907111349E+01  0.00000000000E+00 0. -1.
          1   -1    0    0  501    0 -0.00000000000E+00 -0.00000000000E+00 -0.36627170862E+04  0.36627170862E+04  0.00000000000E+00 0. -1.
         25    2    1    2    0    0  0.41408691014E+02  0.14612430039E+02 -0.14149619165E+04  0.14211512805E+04  0.12500213645E+03 0.  0.
          2    1    1    2  501    0  0.24538117604E+02  0.46087988563E+02 -0.17553587086E+04  0.17561350796E+04  0.00000000000E+00 0. -1.
          1    1    1    2  502    0 -0.65946808618E+02 -0.60700418602E+02 -0.48480575000E+03  0.49302143728E+03  0.00000000000E+00 0. -1.
         22    1    3    3    0    0  0.42080361954E+02  0.51640043027E+02 -0.39960791446E+03  0.40512212505E+03  0.00000000000E+00 0.  1.
         22    1    3    3    0    0 -0.67167094005E+00 -0.37027612988E+02 -0.10153540020E+04  0.10160291555E+04  0.00000000000E+00 0.  1.
</event>
<event>
 7    1  0.5139898E-006  0.8894668E+02  0.7818608E-02  0.1361704E+00
          2   -1    0    0  502    0  0.00000000000E+00  0.00000000000E+00  0.27343228244E+04  0.27343228244E+04  0.00000000000E+00 0. -1.
          1   -1    0    0  501    0 -0.00000000000E+00 -0.00000000000E+00 -0.46610823231E+02  0.46610823231E+02  0.00000000000E+00 0. -1.
         25    2    1    2    0    0 -0.95589585937E+02 -0.70843733520E+02  0.18723013038E+03  0.25460747844E+03  0.12495456310E+03 0.  0.
          2    1    1    2  501    0  0.41815427974E+02  0.62958253284E+02  0.10059411874E+03  0.12582308373E+03  0.00000000000E+00 0. -1.
          1    1    1    2  502    0  0.53774157963E+02  0.78854802360E+01  0.23998877521E+04  0.24005030855E+04  0.00000000000E+00 0. -1.
         22    1    3    3    0    0  0.76540948089E+01  0.27927138692E+02  0.40667098815E+02  0.49923172665E+02  0.00000000000E+00 0.  1.
         22    1    3    3    0    0 -0.10324368075E+03 -0.98770872212E+02  0.14656303156E+03  0.20468430578E+03  0.00000000000E+00 0.  1.
</event>
<event>
 7    1  0.5139898E-006  0.4612203E+02  0.7818608E-02  0.1548325E+00
          2   -1    0    0  502    0  0.00000000000E+00  0.00000000000E+00  0.20947224844E+04  0.20947224844E+04  0.00000000000E+00 0. -1.
          1   -1    0    0  501    0 -0.00000000000E+00 -0.00000000000E+00 -0.58818580211E+02  0.58818580211E+02  0.00000000000E+00 0. -1.
         25    2    1    2    0    0  0.61310235569E+02 -0.31078595961E+02  0.51600278703E+03  0.53535888023E+03  0.12500172120E+03 0.  0.
          2    1    1    2  501    0 -0.34739087219E+02  0.29696247862E+02 -0.38376339869E+02  0.59677590263E+02  0.00000000000E+00 0. -1.
          1    1    1    2  502    0 -0.26571148350E+02  0.13823480990E+01  0.15582774570E+04  0.15585045941E+04  0.00000000000E+00 0. -1.
         22    1    3    3    0    0  0.80809776226E+02 -0.59380387595E+02  0.29211668893E+03  0.30885014217E+03  0.00000000000E+00 0. -1.
         22    1    3    3    0    0 -0.19499540657E+02  0.28301791634E+02  0.22388609810E+03  0.22650873807E+03  0.00000000000E+00 0. -1.
</event>
<event>
 7    1  0.5139898E-006  0.6703205E+02  0.7818608E-02  0.1392517E+00
          2   -1    0    0  502    0  0.00000000000E+00  0.00000000000E+00  0.91652512850E+02  0.91652512850E+02  0.00000000000E+00 0. -1.
          1   -1    0    0  501    0 -0.00000000000E+00 -0.00000000000E+00 -0.25173399357E+03  0.25173399357E+03  0.00000000000E+00 0. -1.
         25    2    1    2    0    0 -0.31964862070E+02 -0.92145372371E+02 -0.11926589426E+03  0.19839832949E+03  0.12500008622E+03 0.  0.
          2    1    1    2  501    0  0.47428893588E+02  0.29831767434E+02 -0.55781380752E+02  0.79063245152E+02  0.00000000000E+00 0. -1.
          1    1    1    2  502    0 -0.15464031518E+02  0.62313604937E+02  0.14965794294E+02  0.65924931778E+02  0.00000000000E+00 0. -1.
         22    1    3    3    0    0  0.32395870629E+02 -0.87797932857E+02 -0.63140421175E+02  0.11289234799E+03  0.00000000000E+00 0.  1.
         22    1    3    3    0    0 -0.64360732700E+02 -0.43474395139E+01 -0.56125473088E+02  0.85505981506E+02  0.00000000000E+00 0.  1.
</event>
<event>
 7    1  0.5139898E-006  0.2207010E+03  0.7818608E-02  0.1327366E+00
          2   -1    0    0  502    0  0.00000000000E+00  0.00000000000E+00  0.10398529838E+04  0.10398529838E+04  0.00000000000E+00 0. -1.
          1   -1    0    0  501    0 -0.00000000000E+00 -0.00000000000E+00 -0.72673802726E+03  0.72673802726E+03  0.00000000000E+00 0. -1.
         25    2    1    2    0    0 -0.16158002218E+03  0.17621481333E+03  0.24594319268E+03  0.36506507551E+03  0.12499876529E+03 0.  0.
          2    1    1    2  501    0  0.33510488181E+01 -0.29241525812E+02 -0.65096018355E+03  0.65162524270E+03  0.00000000000E+00 0. -1.
          1    1    1    2  502    0  0.15822897336E+03 -0.14697328752E+03  0.71813194738E+03  0.74990069283E+03  0.00000000000E+00 0. -1.
         22    1    3    3    0    0 -0.12738326230E+03  0.95866686431E+02  0.22415030623E+03  0.27506413227E+03  0.00000000000E+00 0.  1.
         22    1    3    3    0    0 -0.34196759883E+02  0.80348126904E+02  0.21792886454E+02  0.90000943236E+02  0.00000000000E+00 0.  1.
</event>
<event>
 7    1  0.5139898E-006  0.9365817E+02  0.7818608E-02  0.1412352E+00
          2   -1    0    0  502    0  0.00000000000E+00  0.00000000000E+00  0.95157946210E+03  0.95157946210E+03  0.00000000000E+00 0. -1.
          1   -1    0    0  501    0 -0.00000000000E+00 -0.00000000000E+00 -0.15777163481E+04  0.15777163481E+04  0.00000000000E+00 0. -1.
         25    2    1    2    0    0 -0.10150241235E+03 -0.31830796379E+02  0.16817041857E+03  0.23499325170E+03  0.12499839738E+03 0.  0.
          2    1    1    2  501    0  0.75955754529E+02  0.54707293754E+02 -0.15424933738E+04  0.15453310237E+04  0.00000000000E+00 0. -1.
          1    1    1    2  502    0  0.25546657822E+02 -0.22876497375E+02  0.74818606919E+03  0.74897153483E+03  0.00000000000E+00 0. -1.
         22    1    3    3    0    0 -0.40728827361E+02 -0.36617829719E+02  0.16510746298E+03  0.17395452614E+03  0.00000000000E+00 0. -1.
         22    1    3    3    0    0 -0.60773584990E+02  0.47870333396E+01  0.30629555907E+01  0.61038725558E+02  0.00000000000E+00 0. -1.
</event>
<event>
 7    1  0.5139898E-006  0.2512833E+03  0.7818608E-02  0.1296250E+00
          2   -1    0    0  502    0  0.00000000000E+00  0.00000000000E+00  0.19688691433E+04  0.19688691433E+04  0.00000000000E+00 0. -1.
          1   -1    0    0  501    0 -0.00000000000E+00 -0.00000000000E+00 -0.22309270563E+03  0.22309270563E+03  0.00000000000E+00 0. -1.
         25    2    1    2    0    0  0.49976989802E+02  0.27320902912E+03  0.57472173189E+03  0.65044147759E+03  0.12501269363E+03 0.  0.
          2    1    1    2  501    0 -0.90725361678E+01 -0.33035466085E+02 -0.17259465368E+03  0.17596183510E+03  0.00000000000E+00 0. -1.
          1    1    1    2  502    0 -0.40904453634E+02 -0.24017356303E+03  0.13436493595E+04  0.13655585362E+04  0.00000000000E+00 0. -1.
         22    1    3    3    0    0 -0.12561734947E+02 -0.90431305869E+01  0.29980002442E+02  0.33739827239E+02  0.00000000000E+00 0.  1.
         22    1    3    3    0    0  0.62538724749E+02  0.28225215971E+03  0.54474172944E+03  0.61670165035E+03  0.00000000000E+00 0.  1.
</event>
<event>
 7    1  0.5251541E-006  0.7550871E+02  0.7818608E-02  0.1395834E+00
          2   -1    0    0  502    0  0.00000000000E+00  0.00000000000E+00  0.19515820671E+04  0.19515820671E+04  0.00000000000E+00 0. -1.
          1   -1    0    0  501    0 -0.00000000000E+00 -0.00000000000E+00 -0.46910558988E+03  0.46910558988E+03  0.00000000000E+00 0. -1.
         25    2    1    2    0    0 -0.10479948551E+03 -0.25180329209E+02  0.83095842525E+01  0.16526015740E+03  0.12499955716E+03 0.  0.
          2    1    1    2  501    0  0.60151665664E+02  0.43969637243E+02 -0.38675931453E+03  0.39387094239E+03  0.00000000000E+00 0. -1.
          1    1    1    2  502    0  0.44647819844E+02 -0.18789308034E+02  0.18609262075E+04  0.18615565572E+04  0.00000000000E+00 0. -1.
         22    1    3    3    0    0 -0.11873936206E+03  0.13241900399E+02 -0.11143796622E+02  0.11999403415E+03  0.00000000000E+00 0. -1.
         22    1    3    3    0    0  0.13939876550E+02 -0.38422229608E+02  0.19453380875E+02  0.45266123246E+02  0.00000000000E+00 0. -1.
</event>
<event>
 7    1  0.5139898E-006  0.6518005E+02  0.7818608E-02  0.1468373E+00
          2   -1    0    0  502    0  0.00000000000E+00  0.00000000000E+00  0.23038297850E+03  0.23038297850E+03  0.00000000000E+00 0. -1.
          1   -1    0    0  501    0 -0.00000000000E+00 -0.00000000000E+00 -0.13394199886E+03  0.13394199886E+03  0.00000000000E+00 0. -1.
         25    2    1    2    0    0  0.25072594812E+02  0.65937746137E+02 -0.51673438350E+02  0.15254827398E+03  0.12499764112E+03 0.  0.
          2    1    1    2  501    0  0.73031328462E+01 -0.64204317459E+02  0.47509373636E+01  0.64792758358E+02  0.00000000000E+00 0. -1.
          1    1    1    2  502    0 -0.32375727658E+02 -0.17334286781E+01  0.14336348063E+03  0.14698394502E+03  0.00000000000E+00 0. -1.
         22    1    3    3    0    0  0.48690226416E+02  0.40934950464E+02  0.25130058195E+02  0.68395381005E+02  0.00000000000E+00 0. -1.
         22    1    3    3    0    0 -0.23617631604E+02  0.25002795673E+02 -0.76803496546E+02  0.84152892973E+02  0.00000000000E+00 0. -1.
</event>
<event>
 7    1  0.5139898E-006  0.1422190E+03  0.7818608E-02  0.1236300E+00
          2   -1    0    0  502    0  0.00000000000E+00  0.00000000000E+00  0.65443457339E+03  0.65443457339E+03  0.00000000000E+00 0. -1.
          1   -1    0    0  501    0 -0.00000000000E+00 -0.00000000000E+00 -0.14558693736E+03  0.14558693736E+03  0.00000000000E+00 0. -1.
         25    2    1    2    0    0 -0.46482697421E+02  0.50579097294E+02  0.10714593141E+03  0.17839263522E+03  0.12499918177E+03 0.  0.
          2    1    1    2  501    0 -0.50148398171E+02  0.96205441412E+02 -0.62548417644E+02  0.12523040105E+03  0.00000000000E+00 0. -1.
          1    1    1    2  502    0  0.96631095592E+02 -0.14678453871E+03  0.46425012227E+03  0.49639847448E+03  0.00000000000E+00 0. -1.
         22    1    3    3    0    0 -0.62962825107E+01 -0.36814886795E+02  0.43362714302E+01  0.37600296716E+02  0.00000000000E+00 0. -1.
         22    1    3    3    0    0 -0.40186414910E+02  0.87393984089E+02  0.10280965998E+03  0.14079233851E+03  0.00000000000E+00 0. -1.
</event>
<event>
 7    1  0.5139898E-006  0.2280431E+03  0.7818608E-02  0.1133993E+00
          2   -1    0    0  502    0  0.00000000000E+00  0.00000000000E+00  0.14858676574E+03  0.14858676574E+03  0.00000000000E+00 0. -1.
          1   -1    0    0  501    0 -0.00000000000E+00 -0.00000000000E+00 -0.26717742240E+04  0.26717742240E+04  0.00000000000E+00 0. -1.
         25    2    1    2    0    0 -0.22623937617E+02  0.50139632381E+02 -0.59839976280E+03  0.61377707307E+03  0.12495676860E+03 0.  0.
          2    1    1    2  501    0 -0.35275149166E+02  0.20899911756E+03 -0.19294083238E+04  0.19410155711E+04  0.00000000000E+00 0. -1.
          1    1    1    2  502    0  0.57899086783E+02 -0.25913874994E+03  0.46206283194E+01  0.26556834559E+03  0.00000000000E+00 0. -1.
         22    1    3    3    0    0 -0.36365704430E+00  0.72795040505E+02 -0.55628693384E+03  0.56102977009E+03  0.00000000000E+00 0.  1.
         22    1    3    3    0    0 -0.22260280572E+02 -0.22655408124E+02 -0.42112828960E+02  0.52747302978E+02  0.00000000000E+00 0.  1.
</event>
<event>
 7    1  0.5139898E-006  0.7725686E+02  0.7818608E-02  0.1417830E+00
          2   -1    0    0  502    0  0.00000000000E+00  0.00000000000E+00  0.36821499171E+03  0.36821499171E+03  0.00000000000E+00 0. -1.
          1   -1    0    0  501    0 -0.00000000000E+00 -0.00000000000E+00 -0.10894216294E+03  0.10894216294E+03  0.00000000000E+00 0. -1.
         25    2    1    2    0    0 -0.55825039176E+02  0.67255575867E+02  0.18750466521E+03  0.24170827308E+03  0.12500056926E+03 0.  0.
          2    1    1    2  501    0  0.16797279875E+02 -0.75285292279E+02 -0.60040650691E+02  0.97749187107E+02  0.00000000000E+00 0. -1.
          1    1    1    2  502    0  0.39027759302E+02  0.80297164121E+01  0.13180881425E+03  0.13769969446E+03  0.00000000000E+00 0. -1.
         22    1    3    3    0    0 -0.64061511294E+02  0.99767425752E+02  0.15335622530E+03  0.19384413405E+03  0.00000000000E+00 0. -1.
         22    1    3    3    0    0  0.82364721176E+01 -0.32511849884E+02  0.34148439915E+02  0.47864139024E+02  0.00000000000E+00 0. -1.
</event>
<event>
 7    1  0.5139898E-006  0.9297717E+02  0.7818608E-02  0.1345822E+00
          2   -1    0    0  502    0  0.00000000000E+00  0.00000000000E+00  0.12541715787E+03  0.12541715787E+03  0.00000000000E+00 0. -1.
          1   -1    0    0  501    0 -0.00000000000E+00 -0.00000000000E+00 -0.59252256823E+03  0.59252256823E+03  0.00000000000E+00 0. -1.
         25    2    1    2    0    0 -0.50576584574E+02  0.10443940968E+03 -0.21801114924E+03  0.27680177578E+03  0.12499912271E+03 0.  0.
          2    1    1    2  501    0  0.58151179570E+02 -0.12559547982E+02 -0.31959133385E+03  0.32508140919E+03  0.00000000000E+00 0. -1.
          1    1    1    2  502    0 -0.75745949959E+01 -0.91879861702E+02  0.70497072733E+02  0.11605654113E+03  0.00000000000E+00 0. -1.
         22    1    3    3    0    0 -0.62122019868E+02  0.20444739057E+00 -0.55007102234E+02  0.82975709985E+02  0.00000000000E+00 0. -1.
         22    1    3    3    0    0  0.11545435295E+02  0.10423496229E+03 -0.16300404701E+03  0.19382606580E+03  0.00000000000E+00 0. -1.
</event>
<event>
 7    1  0.5139898E-006  0.7749897E+02  0.7818608E-02  0.1464282E+00
          2   -1    0    0  502    0  0.00000000000E+00  0.00000000000E+00  0.15748851671E+04  0.15748851671E+04  0.00000000000E+00 0. -1.
          1   -1    0    0  501    0 -0.00000000000E+00 -0.00000000000E+00 -0.71025691565E+03  0.71025691565E+03  0.00000000000E+00 0. -1.
         25    2    1    2    0    0 -0.25959675227E+02  0.80022812953E+02 -0.35776518827E+02  0.15486054008E+03  0.12499708894E+03 0.  0.
          2    1    1    2  501    0  0.47049662405E+02 -0.61478264835E+02 -0.61237101938E+03  0.61724509975E+03  0.00000000000E+00 0. -1.
          1    1    1    2  502    0 -0.21089987179E+02 -0.18544548118E+02  0.15127757897E+04  0.15130364430E+04  0.00000000000E+00 0. -1.
         22    1    3    3    0    0  0.45800539739E+02  0.14211648750E+02  0.70855591920E+01  0.48475411805E+02  0.00000000000E+00 0. -1.
         22    1    3    3    0    0 -0.71760214966E+02  0.65811164203E+02 -0.42862078019E+02  0.10638512827E+03  0.00000000000E+00 0. -1.
</event>
<event>
 7    1  0.5139898E-006  0.1016215E+03  0.7818608E-02  0.1371612E+00
          2   -1    0    0  502    0  0.00000000000E+00  0.00000000000E+00  0.30623254050E+04  0.30623254050E+04  0.00000000000E+00 0. -1.
          1   -1    0    0  501    0 -0.00000000000E+00 -0.00000000000E+00 -0.13995789881E+03  0.13995789881E+03  0.00000000000E+00 0. -1.
         25    2    1    2    0    0  0.22378620138E+02  0.10254230975E+03  0.55718637050E+03  0.58060072331E+03  0.12499928201E+03 0.  0.
          2    1    1    2  501    0 -0.60870328357E+02 -0.81628169551E+02 -0.10781502054E+03  0.14829846120E+03  0.00000000000E+00 0. -1.
          1    1    1    2  502    0  0.38491708219E+02 -0.20914140200E+02  0.24729961563E+04  0.24733841193E+04  0.00000000000E+00 0. -1.
         22    1    3    3    0    0  0.13430006444E+01  0.84901916925E+02  0.14903548131E+03  0.17152758915E+03  0.00000000000E+00 0.  1.
         22    1    3    3    0    0  0.21035619493E+02  0.17640392826E+02  0.40815088919E+03  0.40907313416E+03  0.00000000000E+00 0.  1.
</event>
<event>
 7    1  0.5139898E-006  0.5817695E+02  0.7818608E-02  0.1435366E+00
          2   -1    0    0  502    0  0.00000000000E+00  0.00000000000E+00  0.31598666981E+04  0.31598666981E+04  0.00000000000E+00 0. -1.
          1   -1    0    0  501    0 -0.00000000000E+00 -0.00000000000E+00 -0.46359404468E+02  0.46359404468E+02  0.00000000000E+00 0. -1.
         25    2    1    2    0    0 -0.61220232654E+02 -0.56026393207E+02  0.63970311378E+03  0.65706844929E+03  0.12502799549E+03 0.  0.
          2    1    1    2  501    0  0.56892948200E+02  0.99324949992E+01 -0.15202188057E+02  0.59720754630E+02  0.00000000000E+00 0. -1.
          1    1    1    2  502    0  0.43272844542E+01  0.46093898208E+02  0.24890063679E+04  0.24894368986E+04  0.00000000000E+00 0. -1.
         22    1    3    3    0    0 -0.12928176145E+02 -0.74813477441E+02  0.19341980761E+03  0.20778694887E+03  0.00000000000E+00 0.  1.
         22    1    3    3    0    0 -0.48292056509E+02  0.18787084234E+02  0.44628330617E+03  0.44928150042E+03  0.00000000000E+00 0.  1.
</event>
<event>
 7    1  0.5139898E-006  0.3610044E+03  0.7818608E-02  0.1196691E+00
          2   -1    0    0  502    0  0.00000000000E+00  0.00000000000E+00  0.19053651471E+04  0.19053651471E+04  0.00000000000E+00 0. -1.
          1   -1    0    0  501    0 -0.00000000000E+00 -0.00000000000E+00 -0.77627388627E+03  0.77627388627E+03  0.00000000000E+00 0. -1.
         25    2    1    2    0    0  0.11987126387E+03  0.36698407261E+03 -0.74549229809E+02  0.41258792905E+03  0.12499912835E+03 0.  0.
          2    1    1    2  501    0  0.44477636422E+02 -0.47325276511E+02 -0.51203092855E+03  0.51613332941E+03  0.00000000000E+00 0. -1.
          1    1    1    2  502    0 -0.16434890029E+03 -0.31965879610E+03  0.17156714192E+04  0.17529177749E+04  0.00000000000E+00 0. -1.
         22    1    3    3    0    0  0.53646333177E+02  0.42332318197E+02  0.13706087583E+02  0.69697998996E+02  0.00000000000E+00 0. -1.
         22    1    3    3    0    0  0.66224930690E+02  0.32465175441E+03 -0.88255317392E+02  0.34288993006E+03  0.00000000000E+00 0. -1.
</event>
<event>
 7    1  0.5139898E-006  0.7771585E+02  0.7818608E-02  0.1356709E+00
          2   -1    0    0  502    0  0.00000000000E+00  0.00000000000E+00  0.23635446622E+03  0.23635446622E+03  0.00000000000E+00 0. -1.
          1   -1    0    0  501    0 -0.00000000000E+00 -0.00000000000E+00 -0.16201857625E+04  0.16201857625E+04  0.00000000000E+00 0. -1.
         25    2    1    2    0    0 -0.11504547456E+03 -0.19807118598E+02 -0.58332821300E+02  0.18070270598E+03  0.12499186670E+03 0.  0.
          2    1    1    2  501    0  0.71867026162E+02 -0.28609378398E+02 -0.14936262971E+04  0.14956279221E+04  0.00000000000E+00 0. -1.
          1    1    1    2  502    0  0.43178448398E+02  0.48416496996E+02  0.16812782213E+03  0.18020960064E+03  0.00000000000E+00 0. -1.
         22    1    3    3    0    0 -0.69026861919E+02  0.55011104306E+00 -0.95719604499E+02  0.11801378298E+03  0.00000000000E+00 0. -1.
         22    1    3    3    0    0 -0.46018612641E+02 -0.20357229641E+02  0.37386783199E+02  0.62688922993E+02  0.00000000000E+00 0. -1.
</event>
<event>
 7    1  0.5139898E-006  0.1112927E+03  0.7818608E-02  0.1398559E+00
          2   -1    0    0  502    0  0.00000000000E+00  0.00000000000E+00  0.22548445948E+03  0.22548445948E+03  0.00000000000E+00 0. -1.
          1   -1    0    0  501    0 -0.00000000000E+00 -0.00000000000E+00 -0.38586756970E+03  0.38586756970E+03  0.00000000000E+00 0. -1.
         25    2    1    2    0    0  0.99375293341E+02  0.75296007355E+02  0.40197004064E+02  0.18106816443E+03  0.12499977353E+03 0.  0.
          2    1    1    2  501    0 -0.69092911154E+02 -0.86126932362E+02 -0.30323331285E+03  0.32271058377E+03  0.00000000000E+00 0. -1.
          1    1    1    2  502    0 -0.30282382187E+02  0.10830925007E+02  0.10265319856E+03  0.10757328099E+03  0.00000000000E+00 0. -1.
         22    1    3    3    0    0  0.37321160637E+01 -0.19152600478E+02  0.42354300889E+02  0.46633009759E+02  0.00000000000E+00 0.  1.
         22    1    3    3    0    0  0.95643177277E+02  0.94448607833E+02 -0.21572968242E+01  0.13443515467E+03  0.00000000000E+00 0.  1.
</event>
<event>
 7    1  0.5139898E-006  0.3671843E+02  0.7818608E-02  0.1575527E+00
          2   -1    0    0  502    0  0.00000000000E+00  0.00000000000E+00  0.38639674222E+03  0.38639674222E+03  0.00000000000E+00 0. -1.
          1   -1    0    0  501    0 -0.00000000000E+00 -0.00000000000E+00 -0.41130030742E+03  0.41130030742E+03  0.00000000000E+00 0. -1.
         25    2    1    2    0    0 -0.66769711425E+00 -0.10721089443E+02  0.15157931122E+03  0.19676649889E+03  0.12500151967E+03 0.  0.
          2    1    1    2  501    0 -0.65702596889E+01 -0.27362344458E+02 -0.38642057928E+03  0.38744384147E+03  0.00000000000E+00 0. -1.
          1    1    1    2  502    0  0.72379568031E+01  0.38083433901E+02  0.20993770286E+03  0.21348670928E+03  0.00000000000E+00 0. -1.
         22    1    3    3    0    0  0.46416699442E+02  0.35334227555E+02  0.57387627379E+02  0.81831273974E+02  0.00000000000E+00 0.  1.
         22    1    3    3    0    0 -0.47084396556E+02 -0.46055316998E+02  0.94191683839E+02  0.11493522492E+03  0.00000000000E+00 0.  1.
</event>
<event>
 7    1  0.5139898E-006  0.1290094E+03  0.7818608E-02  0.1286503E+00
          2   -1    0    0  502    0  0.00000000000E+00  0.00000000000E+00  0.29626277518E+03  0.29626277518E+03  0.00000000000E+00 0. -1.
          1   -1    0    0  501    0 -0.00000000000E+00 -0.00000000000E+00 -0.61512082078E+03  0.61512082078E+03  0.00000000000E+00 0. -1.
         25    2    1    2    0    0  0.38846206641E+02 -0.15387509764E+03 -0.23386742647E+03  0.30904859189E+03  0.12502194023E+03 0.  0.
          2    1    1    2  501    0  0.45423860815E+02  0.57263213357E+02 -0.32344622700E+03  0.33160196697E+03  0.00000000000E+00 0. -1.
          1    1    1    2  502    0 -0.84270067457E+02  0.96611884279E+02  0.23845560788E+03  0.27073303711E+03  0.00000000000E+00 0. -1.
         22    1    3    3    0    0  0.43780713852E+02 -0.12926119631E+03 -0.24588251912E+03  0.28121774657E+03  0.00000000000E+00 0. -1.
         22    1    3    3    0    0 -0.49345072100E+01 -0.24613901324E+02  0.12015092646E+02  0.27830845317E+02  0.00000000000E+00 0. -1.
</event>
<event>
 7    1  0.5139898E-006  0.7956310E+02  0.7818608E-02  0.1342963E+00
          2   -1    0    0  502    0  0.00000000000E+00  0.00000000000E+00  0.74836692972E+03  0.74836692972E+03  0.00000000000E+00 0. -1.
          1   -1    0    0  501    0 -0.00000000000E+00 -0.00000000000E+00 -0.16855368814E+04  0.16855368814E+04  0.00000000000E+00 0. -1.
         25    2    1    2    0    0 -0.81768112682E+02  0.11552580610E+03  0.30157967045E+03  0.35581836048E+03  0.12499668756E+03 0.  0.
          2    1    1    2  501    0  0.22352319236E+02 -0.76194696452E+02 -0.16544339064E+04  0.16563383738E+04  0.00000000000E+00 0. -1.
          1    1    1    2  502    0  0.59415793446E+02 -0.39331109650E+02  0.41568428423E+03  0.42174707687E+03  0.00000000000E+00 0. -1.
         22    1    3    3    0    0 -0.36960799587E+01  0.39699380942E+02  0.53497738859E+01  0.40228372263E+02  0.00000000000E+00 0. -1.
         22    1    3    3    0    0 -0.78072032723E+02  0.75826425160E+02  0.29622989656E+03  0.31558998822E+03  0.00000000000E+00 0. -1.
</event>
<event>
 7    1  0.5139898E-006  0.1918992E+03  0.7818608E-02  0.1197491E+00
          2   -1    0    0  502    0  0.00000000000E+00  0.00000000000E+00  0.24201518278E+04  0.24201518278E+04  0.00000000000E+00 0. -1.
          1   -1    0    0  501    0 -0.00000000000E+00 -0.00000000000E+00 -0.23726396790E+04  0.23726396790E+04  0.00000000000E+00 0. -1.
         25    2    1    2    0    0  0.25127666798E+03 -0.25392133590E+02  0.17230354713E+03  0.33030413045E+03  0.12501032726E+03 0.  0.
          2    1    1    2  501    0 -0.16000222911E+03  0.10500254168E+03 -0.22879503061E+04  0.22959405154E+04  0.00000000000E+00 0. -1.
          1    1    1    2  502    0 -0.91274438862E+02 -0.79610408087E+02  0.21631589078E+04  0.21665468610E+04  0.00000000000E+00 0. -1.
         22    1    3    3    0    0  0.17525967359E+03  0.32975695173E+02  0.74198955865E+02  0.19315495000E+03  0.00000000000E+00 0.  1.
         22    1    3    3    0    0  0.76016994388E+02 -0.58367828762E+02  0.98104591270E+02  0.13714918045E+03  0.00000000000E+00 0.  1.
</event>
<event>
 7    1  0.5139898E-006  0.7206763E+02  0.7818608E-02  0.1357274E+00
          2   -1    0    0  502    0  0.00000000000E+00  0.00000000000E+00  0.72230931402E+03  0.72230931402E+03  0.00000000000E+00 0. -1.
          1   -1    0    0  501    0 -0.00000000000E+00 -0.00000000000E+00 -0.11628255897E+03  0.11628255897E+03  0.00000000000E+00 0. -1.
         25    2    1    2    0    0  0.19448660306E+02  0.21890156450E+01  0.25392129440E+02  0.12904511406E+03  0.12499935619E+03 0.  0.
          2    1    1    2  501    0 -0.91402037989E+02  0.18673552602E+01 -0.28812073116E+02  0.95853821632E+02  0.00000000000E+00 0. -1.
          1    1    1    2  502    0  0.71953377684E+02 -0.40563709052E+01  0.60944669872E+03  0.61369293730E+03  0.00000000000E+00 0. -1.
         22    1    3    3    0    0  0.31974607947E+02 -0.89958562378E+01 -0.45419632446E+02  0.56269387719E+02  0.00000000000E+00 0.  1.
         22    1    3    3    0    0 -0.12525947641E+02  0.11184871883E+02  0.70811761885E+02  0.72775726342E+02  0.00000000000E+00 0.  1.
</event>
<event>
 7    1  0.5139898E-006  0.1759747E+03  0.7818608E-02  0.1263444E+00
          2   -1    0    0  502    0  0.00000000000E+00  0.00000000000E+00  0.47223981928E+03  0.47223981928E+03  0.00000000000E+00 0. -1.
          1   -1    0    0  501    0 -0.00000000000E+00 -0.00000000000E+00 -0.12028335388E+03  0.12028335388E+03  0.00000000000E+00 0. -1.
         25    2    1    2    0    0 -0.21847068581E+03  0.80483451206E+01  0.21093423705E+03  0.32849832734E+03  0.12499472902E+03 0.  0.
          2    1    1    2  501    0  0.15355692362E+03 -0.24024395472E+02  0.87310736235E+02  0.17826964136E+03  0.00000000000E+00 0. -1.
          1    1    1    2  502    0  0.64913762196E+02  0.15976050352E+02  0.53711492115E+02  0.85755204463E+02  0.00000000000E+00 0. -1.
         22    1    3    3    0    0 -0.99252868081E+02  0.36999830557E+02  0.30358468801E+02  0.11018963613E+03  0.00000000000E+00 0. -1.
         22    1    3    3    0    0 -0.11921781773E+03 -0.28951485437E+02  0.18057576825E+03  0.21830869120E+03  0.00000000000E+00 0. -1.
</event>
<event>
 7    1  0.5139898E-006  0.3884466E+02  0.7818608E-02  0.1525287E+00
          2   -1    0    0  502    0  0.00000000000E+00  0.00000000000E+00  0.10682693987E+04  0.10682693987E+04  0.00000000000E+00 0. -1.
          1   -1    0    0  501    0 -0.00000000000E+00 -0.00000000000E+00 -0.29004076792E+02  0.29004076792E+02  0.00000000000E+00 0. -1.
         25    2    1    2    0    0  0.35598913777E+02 -0.55180525419E+02  0.55203140378E+03  0.56980298215E+03  0.12499837860E+03 0.  0.
          2    1    1    2  501    0 -0.33646566840E+01  0.36572364686E+02 -0.20395361514E+01  0.36783399531E+02  0.00000000000E+00 0. -1.
          1    1    1    2  502    0 -0.32234257093E+02  0.18608160732E+02  0.48927345424E+03  0.49068709378E+03  0.00000000000E+00 0. -1.
         22    1    3    3    0    0 -0.38215237015E+02  0.10445135654E+02  0.11131628129E+03  0.11815591258E+03  0.00000000000E+00 0. -1.
         22    1    3    3    0    0  0.73814150792E+02 -0.65625661073E+02  0.44071512250E+03  0.45164706956E+03  0.00000000000E+00 0. -1.
</event>
<event>
 7    1  0.5139898E-006  0.5036977E+02  0.7818608E-02  0.1477186E+00
          2   -1    0    0  502    0  0.00000000000E+00  0.00000000000E+00  0.17752141118E+03  0.17752141118E+03  0.00000000000E+00 0. -1.
          1   -1    0    0  501    0 -0.00000000000E+00 -0.00000000000E+00 -0.15392256681E+04  0.15392256681E+04  0.00000000000E+00 0. -1.
         25    2    1    2    0    0 -0.74060372950E+02 -0.33507256209E+01 -0.92715754157E+03  0.93847909222E+03  0.12500293378E+03 0.  0.
          2    1    1    2  501    0  0.40825171899E+02  0.24508369003E+02 -0.60319872467E+03  0.60507524843E+03  0.00000000000E+00 0. -1.
          1    1    1    2  502    0  0.33235201051E+02 -0.21157643382E+02  0.16865200932E+03  0.17319273862E+03  0.00000000000E+00 0. -1.
         22    1    3    3    0    0 -0.83913922998E+02 -0.43709030853E+02 -0.46942587578E+03  0.47886603419E+03  0.00000000000E+00 0.  1.
         22    1    3    3    0    0  0.98535500477E+01  0.40358305232E+02 -0.45773166578E+03  0.45961305803E+03  0.00000000000E+00 0.  1.
</event>
<event>
 7    1  0.5139898E-006  0.6862828E+02  0.7818608E-02  0.1374856E+00
          2   -1    0    0  502    0  0.00000000000E+00  0.00000000000E+00  0.38874541990E+02  0.38874541990E+02  0.00000000000E+00 0. -1.
          1   -1    0    0  501    0 -0.00000000000E+00 -0.00000000000E+00 -0.29668691688E+04  0.29668691688E+04  0.00000000000E+00 0. -1.
         25    2    1    2    0    0 -0.99746054739E+01 -0.68903364752E+02 -0.13667026478E+04  0.13741718559E+04  0.12499998228E+03 0.  0.
          2    1    1    2  501    0  0.59699851525E+02  0.20606557645E+02 -0.15609746010E+04  0.15622517106E+04  0.00000000000E+00 0. -1.
          1    1    1    2  502    0 -0.49725246052E+02  0.48296807107E+02 -0.31737802394E+00  0.69320144261E+02  0.00000000000E+00 0. -1.
         22    1    3    3    0    0  0.54016598580E+02 -0.55629373571E+02 -0.70642040757E+03  0.71066322007E+03  0.00000000000E+00 0. -1.
         22    1    3    3    0    0 -0.63991204053E+02 -0.13273991181E+02 -0.66028224024E+03  0.66350863583E+03  0.00000000000E+00 0. -1.
</event>
<event>
 7    1  0.5139898E-006  0.1042926E+03  0.7818608E-02  0.1394313E+00
          2   -1    0    0  502    0  0.00000000000E+00  0.00000000000E+00  0.65093828485E+03  0.65093828485E+03  0.00000000000E+00 0. -1.
          1   -1    0    0  501    0 -0.00000000000E+00 -0.00000000000E+00 -0.23935226835E+04  0.23935226835E+04  0.00000000000E+00 0. -1.
         25    2    1    2    0    0 -0.37798906074E+02  0.99696859086E+02 -0.59771944831E+02  0.17485259993E+03  0.12503009758E+03 0.  0.
          2    1    1    2  501    0  0.35186963460E+02  0.46984350165E+01 -0.22714762603E+04  0.22717536396E+04  0.00000000000E+00 0. -1.
          1    1    1    2  502    0  0.26119426136E+01 -0.10439529410E+03  0.58866380652E+03  0.59785472883E+03  0.00000000000E+00 0. -1.
         22    1    3    3    0    0 -0.63789087547E+02  0.76452761499E+01 -0.44104637446E+02  0.77927639395E+02  0.00000000000E+00 0. -1.
         22    1    3    3    0    0  0.25990181473E+02  0.92051582936E+02 -0.15667307385E+02  0.96924960535E+02  0.00000000000E+00 0. -1.
</event>
<event>
 7    1  0.5139898E-006  0.8609313E+02  0.7818608E-02  0.1314223E+00
          2   -1    0    0  502    0  0.00000000000E+00  0.00000000000E+00  0.12568168928E+04  0.12568168928E+04  0.00000000000E+00 0. -1.
          1   -1    0    0  501    0 -0.00000000000E+00 -0.00000000000E+00 -0.53202214219E+03  0.53202214219E+03  0.00000000000E+00 0. -1.
         25    2    1    2    0    0 -0.35111696075E+02 -0.12810954952E+03 -0.40507347789E+02  0.18682174063E+03  0.12496651419E+03 0.  0.
          2    1    1    2  501    0  0.68528426055E+02  0.50127567133E+02 -0.41250812985E+03  0.42115540523E+03  0.00000000000E+00 0. -1.
          1    1    1    2  502    0 -0.33416729980E+02  0.77981982391E+02  0.11778102283E+04  0.11808618891E+04  0.00000000000E+00 0. -1.
         22    1    3    3    0    0 -0.18937730366E+02  0.39746194207E+01  0.30401652249E+02  0.36037420696E+02  0.00000000000E+00 0. -1.
         22    1    3    3    0    0 -0.16173965710E+02 -0.13208416895E+03 -0.70909000039E+02  0.15078431994E+03  0.00000000000E+00 0. -1.
</event>
<event>
 7    1  0.5139898E-006  0.3514240E+02  0.7818608E-02  0.1639861E+00
          2   -1    0    0  502    0  0.00000000000E+00  0.00000000000E+00  0.18699673526E+02  0.18699673526E+02  0.00000000000E+00 0. -1.
          1   -1    0    0  501    0 -0.00000000000E+00 -0.00000000000E+00 -0.52734090717E+03  0.52734090717E+03  0.00000000000E+00 0. -1.
         25    2    1    2    0    0  0.57012886187E+01  0.18362475078E+02 -0.29793017741E+03  0.32366044094E+03  0.12499602088E+03 0.  0.
          2    1    1    2  501    0  0.10558375374E+01  0.20010681628E+02 -0.14186313984E+03  0.14327139497E+03  0.00000000000E+00 0. -1.
          1    1    1    2  502    0 -0.67571261562E+01 -0.38373156706E+02 -0.68847916399E+02  0.79108744788E+02  0.00000000000E+00 0. -1.
         22    1    3    3    0    0  0.25687998102E+02  0.23911551070E+02 -0.30069340569E+03  0.30273447069E+03  0.00000000000E+00 0. -1.
         22    1    3    3    0    0 -0.19986709483E+02 -0.55490759928E+01  0.27632282775E+01  0.20925970248E+02  0.00000000000E+00 0. -1.
</event>
<event>
 7    1  0.5139898E-006  0.1192060E+03  0.7818608E-02  0.1360978E+00
          2   -1    0    0  502    0  0.00000000000E+00  0.00000000000E+00  0.16510704487E+03  0.16510704487E+03  0.00000000000E+00 0. -1.
          1   -1    0    0  501    0 -0.00000000000E+00 -0.00000000000E+00 -0.63258467182E+03  0.63258467182E+03  0.00000000000E+00 0. -1.
         25    2    1    2    0    0 -0.87531173039E+02 -0.71370402481E+02 -0.72890007275E+02  0.18355766144E+03  0.12500008524E+03 0.  0.
          2    1    1    2  501    0  0.11391213770E+03  0.40245583159E+02 -0.49300629928E+03  0.50759323598E+03  0.00000000000E+00 0. -1.
          1    1    1    2  502    0 -0.26380964658E+02  0.31124819323E+02  0.98418679605E+02  0.10654081926E+03  0.00000000000E+00 0. -1.
         22    1    3    3    0    0 -0.94707222535E+02 -0.96995685915E+01 -0.10904368727E+02  0.95825074425E+02  0.00000000000E+00 0.  1.
         22    1    3    3    0    0  0.71760494954E+01 -0.61670833890E+02 -0.61985638548E+02  0.87732587020E+02  0.00000000000E+00 0.  1.
</event>
<event>
 7    1  0.5139898E-006  0.3566332E+02  0.7818608E-02  0.1565130E+00
          2   -1    0    0  502    0  0.00000000000E+00  0.00000000000E+00  0.11545758102E+04  0.11545758102E+04  0.00000000000E+00 0. -1.
          1   -1    0    0  501    0 -0.00000000000E+00 -0.00000000000E+00 -0.23876876889E+03  0.23876876889E+03  0.00000000000E+00 0. -1.
         25    2    1    2    0    0  0.58562068678E+01 -0.22787356961E+02  0.21828780435E+03  0.25264287597E+03  0.12500119382E+03 0.  0.
          2    1    1    2  501    0  0.28575805734E+02  0.11806620286E+02 -0.22015527612E+03  0.22231580817E+03  0.00000000000E+00 0. -1.
          1    1    1    2  502    0 -0.34432012601E+02  0.10980736676E+02  0.91767451311E+03  0.91838589497E+03  0.00000000000E+00 0. -1.
         22    1    3    3    0    0  0.46331681399E+02  0.31350235059E+02  0.12938647296E+03  0.14096212727E+03  0.00000000000E+00 0.  1.
         22    1    3    3    0    0 -0.40475474531E+02 -0.54137592020E+02  0.88901331386E+02  0.11168074870E+03  0.00000000000E+00 0.  1.
</event>
<event>
 7    1  0.5139898E-006  0.8583172E+02  0.7818608E-02  0.1374732E+00
          2   -1    0    0  502    0  0.00000000000E+00  0.00000000000E+00  0.15675576853E+04  0.15675576853E+04  0.00000000000E+00 0. -1.
          1   -1    0    0  501    0 -0.00000000000E+00 -0.00000000000E+00 -0.25606748353E+03  0.25606748353E+03  0.00000000000E+00 0. -1.
         25    2    1    2    0    0 -0.69105256895E+01 -0.10056516470E+03  0.38008892316E+01  0.16063097036E+03  0.12500701645E+03 0.  0.
          2    1    1    2  501    0 -0.41090479795E+02  0.29441511880E+02 -0.17278904414E+03  0.18003134151E+03  0.00000000000E+00 0. -1.
          1    1    1    2  502    0  0.48001005485E+02  0.71123652823E+02  0.14804783567E+04  0.14829628569E+04  0.00000000000E+00 0. -1.
         22    1    3    3    0    0 -0.22704114115E+02  0.24257196436E+02 -0.82613965173E+01  0.34236516311E+02  0.00000000000E+00 0. -1.
         22    1    3    3    0    0  0.15793588426E+02 -0.12482236114E+03  0.12062285749E+02  0.12639445404E+03  0.00000000000E+00 0. -1.
</event>
<event>
 7    1  0.5139898E-006  0.6234802E+02  0.7818608E-02  0.1497726E+00
          2   -1    0    0  502    0  0.00000000000E+00  0.00000000000E+00  0.24531662451E+03  0.24531662451E+03  0.00000000000E+00 0. -1.
          1   -1    0    0  501    0 -0.00000000000E+00 -0.00000000000E+00 -0.89828497622E+03  0.89828497622E+03  0.00000000000E+00 0. -1.
         25    2    1    2    0    0 -0.37764989821E+01 -0.84328585673E+02 -0.51825214671E+03  0.53975486306E+03  0.12499780924E+03 0.  0.
          2    1    1    2  501    0 -0.32870694960E+01  0.57677321794E+02 -0.36619891112E+03  0.37072782575E+03  0.00000000000E+00 0. -1.
          1    1    1    2  502    0  0.70635684781E+01  0.26651263879E+02  0.23148270612E+03  0.23311891193E+03  0.00000000000E+00 0. -1.
         22    1    3    3    0    0 -0.23558360444E+02 -0.65568308242E+01 -0.12105441787E+02  0.27286078834E+02  0.00000000000E+00 0. -1.
         22    1    3    3    0    0  0.19781861462E+02 -0.77771754848E+02 -0.50614670493E+03  0.51246878422E+03  0.00000000000E+00 0. -1.
</event>
<event>
 7    1  0.5139898E-006  0.1851821E+03  0.7818608E-02  0.1299218E+00
          2   -1    0    0  502    0  0.00000000000E+00  0.00000000000E+00  0.27002129768E+04  0.27002129768E+04  0.00000000000E+00 0. -1.
          1   -1    0    0  501    0 -0.00000000000E+00 -0.00000000000E+00 -0.10939111242E+04  0.10939111242E+04  0.00000000000E+00 0. -1.
         25    2    1    2    0    0 -0.19683516011E+03  0.17332837656E+02  0.24018001639E+03  0.33519394647E+03  0.12499613578E+03 0.  0.
          2    1    1    2  501    0  0.21317894203E+02  0.39888936353E+02 -0.10423814346E+04  0.10433621783E+04  0.00000000000E+00 0. -1.
          1    1    1    2  502    0  0.17551726591E+03 -0.57221774009E+02  0.24085032709E+04  0.24155679763E+04  0.00000000000E+00 0. -1.
         22    1    3    3    0    0 -0.19112771642E+03  0.51705574615E+02  0.19260830677E+03  0.27622677326E+03  0.00000000000E+00 0.  1.
         22    1    3    3    0    0 -0.57074436878E+01 -0.34372736959E+02  0.47571709626E+02  0.58967173209E+02  0.00000000000E+00 0.  1.
</event>
<event>
 7    1  0.5139898E-006  0.1253182E+03  0.7818608E-02  0.1387043E+00
          2   -1    0    0  502    0  0.00000000000E+00  0.00000000000E+00  0.16073706612E+04  0.16073706612E+04  0.00000000000E+00 0. -1.
          1   -1    0    0  501    0 -0.00000000000E+00 -0.00000000000E+00 -0.54194870485E+02  0.54194870485E+02  0.00000000000E+00 0. -1.
         25    2    1    2    0    0  0.29933938864E+02 -0.14693217042E+03  0.59505428046E+03  0.62625824783E+03  0.12499877151E+03 0.  0.
          2    1    1    2  501    0 -0.13039240193E+02  0.28475204657E+02 -0.27965389465E+02  0.41987165575E+02  0.00000000000E+00 0. -1.
          1    1    1    2  502    0 -0.16894698670E+02  0.11845696576E+03  0.98608689967E+03  0.99332011823E+03  0.00000000000E+00 0. -1.
         22    1    3    3    0    0  0.66306298621E+02 -0.59489031115E+02  0.18392806937E+03  0.20436488143E+03  0.00000000000E+00 0.  1.
         22    1    3    3    0    0 -0.36372359757E+02 -0.87443139307E+02  0.41112621110E+03  0.42189336640E+03  0.00000000000E+00 0.  1.
</event>
<event>
 7    1  0.5139898E-006  0.1180773E+03  0.7818608E-02  0.1332934E+00
          2   -1    0    0  502    0  0.00000000000E+00  0.00000000000E+00  0.71982600174E+03  0.71982600174E+03  0.00000000000E+00 0. -1.
          1   -1    0    0  501    0 -0.00000000000E+00 -0.00000000000E+00 -0.37734770182E+03  0.37734770182E+03  0.00000000000E+00 0. -1.
         25    2    1    2    0    0  0.68929834554E+02  0.30776113523E+02 -0.38335232672E+02  0.15097156197E+03  0.12499732479E+03 0.  0.
          2    1    1    2  501    0  0.23586128917E+02  0.46774232256E+02 -0.27470773270E+03  0.27965777780E+03  0.00000000000E+00 0. -1.
          1    1    1    2  502    0 -0.92515963471E+02 -0.77550345779E+02  0.65552126529E+03  0.66654436377E+03  0.00000000000E+00 0. -1.
         22    1    3    3    0    0  0.24958758632E+02  0.59508087656E+02  0.24543757861E+02  0.69040192489E+02  0.00000000000E+00 0.  1.
         22    1    3    3    0    0  0.43971075922E+02 -0.28731974133E+02 -0.62878990534E+02  0.81931369486E+02  0.00000000000E+00 0.  1.
</event>
<event>
 7    1  0.5139898E-006  0.2008832E+03  0.7818608E-02  0.1341445E+00
          2   -1    0    0  502    0  0.00000000000E+00  0.00000000000E+00  0.13696733461E+04  0.13696733461E+04  0.00000000000E+00 0. -1.
          1   -1    0    0  501    0 -0.00000000000E+00 -0.00000000000E+00 -0.69607186863E+03  0.69607186863E+03  0.00000000000E+00 0. -1.
         25    2    1    2    0    0  0.16794988198E+03  0.66092395760E+02  0.75277304114E+02  0.23209357348E+03  0.12500154678E+03 0.  0.
          2    1    1    2  501    0  0.27080433517E+02 -0.91781040371E+01 -0.60883974466E+03  0.60951080560E+03  0.00000000000E+00 0. -1.
          1    1    1    2  502    0 -0.19503031550E+03 -0.56914291723E+02  0.12071639180E+04  0.12241408356E+04  0.00000000000E+00 0. -1.
         22    1    3    3    0    0  0.11608661673E+02  0.48328049784E+02 -0.13401448907E+02  0.51477764662E+02  0.00000000000E+00 0.  1.
         22    1    3    3    0    0  0.15634122031E+03  0.17764345976E+02  0.88678753022E+02  0.18061580881E+03  0.00000000000E+00 0.  1.
</event>
<event>
 7    1  0.7324336E-006  0.9085553E+02  0.7818608E-02  0.1441082E+00
          2   -1    0    0  502    0  0.00000000000E+00  0.00000000000E+00  0.16299683628E+04  0.16299683628E+04  0.00000000000E+00 0. -1.
          1   -1    0    0  501    0 -0.00000000000E+00 -0.00000000000E+00 -0.76878813268E+03  0.76878813268E+03  0.00000000000E+00 0. -1.
         25    2    1    2    0    0 -0.73388604646E+02 -0.59481714470E+01 -0.85302048190E+02  0.16829593622E+03  0.12500325870E+03 0.  0.
          2    1    1    2  501    0 -0.11975977281E+02 -0.25753628172E+02 -0.64036906490E+03  0.64099860583E+03  0.00000000000E+00 0. -1.
          1    1    1    2  502    0  0.85364581927E+02  0.31701799618E+02  0.15868513432E+04  0.15894619534E+04  0.00000000000E+00 0. -1.
         22    1    3    3    0    0 -0.12494790332E+02  0.20203160774E+02 -0.97983364038E+02  0.10082175915E+03  0.00000000000E+00 0. -1.
         22    1    3    3    0    0 -0.60893814314E+02 -0.26151332221E+02  0.12681315848E+02  0.67474177063E+02  0.00000000000E+00 0. -1.
</event>
<event>
 7    1  0.5139898E-006  0.6495420E+02  0.7818608E-02  0.1461312E+00
          2   -1    0    0  502    0  0.00000000000E+00  0.00000000000E+00  0.33468637864E+04  0.33468637864E+04  0.00000000000E+00 0. -1.
          1   -1    0    0  501    0 -0.00000000000E+00 -0.00000000000E+00 -0.58953153076E+02  0.58953153076E+02  0.00000000000E+00 0. -1.
         25    2    1    2    0    0  0.62021513981E+02 -0.54368538358E+02  0.81207965226E+03  0.82577301527E+03  0.12500041984E+03 0.  0.
          2    1    1    2  501    0 -0.34055929805E+02 -0.34986653664E+01 -0.46029187749E+02  0.57364912090E+02  0.00000000000E+00 0. -1.
          1    1    1    2  502    0 -0.27965584175E+02  0.57867203725E+02  0.25218601688E+04  0.25226790121E+04  0.00000000000E+00 0. -1.
         22    1    3    3    0    0 -0.16598028767E+02  0.13707900272E+02  0.40659052422E+03  0.40715998757E+03  0.00000000000E+00 0.  1.
         22    1    3    3    0    0  0.78619542748E+02 -0.68076438631E+02  0.40548912804E+03  0.41861302770E+03  0.00000000000E+00 0.  1.
</event>
<event>
 7    1  0.5139898E-006  0.1679190E+03  0.7818608E-02  0.1322258E+00
          2   -1    0    0  502    0  0.00000000000E+00  0.00000000000E+00  0.73331758199E+03  0.73331758199E+03  0.00000000000E+00 0. -1.
          1   -1    0    0  501    0 -0.00000000000E+00 -0.00000000000E+00 -0.68229871336E+03  0.68229871336E+03  0.00000000000E+00 0. -1.
         25    2    1    2    0    0  0.75577017487E+02 -0.17298176808E+03  0.20657640554E+03  0.30648626034E+03  0.12500175515E+03 0.  0.
          2    1    1    2  501    0 -0.95061659890E+02  0.13750293192E+03 -0.62040120788E+03  0.64252738012E+03  0.00000000000E+00 0. -1.
          1    1    1    2  502    0  0.19484642404E+02  0.35478836155E+02  0.46484367097E+03  0.46660265488E+03  0.00000000000E+00 0. -1.
         22    1    3    3    0    0 -0.16256781740E+01  0.69735032799E+01  0.63662746844E+02  0.64064170277E+02  0.00000000000E+00 0. -1.
         22    1    3    3    0    0  0.77202695661E+02 -0.17995527136E+03  0.14291365870E+03  0.24242209006E+03  0.00000000000E+00 0. -1.
</event>
<event>
 7    1  0.5139898E-006  0.2176626E+02  0.7818608E-02  0.1715981E+00
          2   -1    0    0  502    0  0.00000000000E+00  0.00000000000E+00  0.81905481768E+03  0.81905481768E+03  0.00000000000E+00 0. -1.
          1   -1    0    0  501    0 -0.00000000000E+00 -0.00000000000E+00 -0.70703337747E+03  0.70703337747E+03  0.00000000000E+00 0. -1.
         25    2    1    2    0    0  0.76534007286E-01  0.17226461649E+02  0.59072595314E+03  0.60405221546E+03  0.12500068179E+03 0.  0.
          2    1    1    2  501    0 -0.19802297399E+02 -0.90453447020E+01 -0.69968622170E+03  0.70002482676E+03  0.00000000000E+00 0. -1.
          1    1    1    2  502    0  0.19725763392E+02 -0.81811169466E+01  0.22098170877E+03  0.22201115293E+03  0.00000000000E+00 0. -1.
         22    1    3    3    0    0 -0.33019576325E+02  0.18703031176E+02  0.55108671718E+03  0.55239176827E+03  0.00000000000E+00 0. -1.
         22    1    3    3    0    0  0.33096110332E+02 -0.14765695276E+01  0.39639235962E+02  0.51660447194E+02  0.00000000000E+00 0. -1.
</event>
<event>
 7    1  0.5139898E-006  0.8017474E+02  0.7818608E-02  0.1499785E+00
          2   -1    0    0  502    0  0.00000000000E+00  0.00000000000E+00  0.11833662604E+04  0.11833662604E+04  0.00000000000E+00 0. -1.
          1   -1    0    0  501    0 -0.00000000000E+00 -0.00000000000E+00 -0.54251795272E+02  0.54251795272E+02  0.00000000000E+00 0. -1.
         25    2    1    2    0    0 -0.37776242715E+02  0.46550574399E+02  0.85231387968E+03  0.86351415901E+03  0.12499501125E+03 0.  0.
          2    1    1    2  501    0  0.52968772895E+02 -0.61249514421E+02 -0.14306237309E+02  0.82230543868E+02  0.00000000000E+00 0. -1.
          1    1    1    2  502    0 -0.15192530181E+02  0.14698940022E+02  0.29110682274E+03  0.29187335277E+03  0.00000000000E+00 0. -1.
         22    1    3    3    0    0 -0.99386485921E+01  0.68870390827E+02  0.23288005350E+03  0.24305354716E+03  0.00000000000E+00 0. -1.
         22    1    3    3    0    0 -0.27837594122E+02 -0.22319816428E+02  0.61943382617E+03  0.62046061185E+03  0.00000000000E+00 0. -1.
</event>
<event>
 7    1  0.5139898E-006  0.4485014E+02  0.7818608E-02  0.1499523E+00
          2   -1    0    0  502    0  0.00000000000E+00  0.00000000000E+00  0.20156690384E+04  0.20156690384E+04  0.00000000000E+00 0. -1.
          1   -1    0    0  501    0 -0.00000000000E+00 -0.00000000000E+00 -0.83736075045E+02  0.83736075045E+02  0.00000000000E+00 0. -1.
         25    2    1    2    0    0  0.93767296750E+01  0.68783247052E+02  0.72555413986E+02  0.16034210220E+03  0.12500497392E+03 0.  0.
          2    1    1    2  501    0 -0.25705685560E+02 -0.34628774572E+02 -0.27926564921E+02  0.51379249963E+02  0.00000000000E+00 0. -1.
          1    1    1    2  502    0  0.16328955885E+02 -0.34154472480E+02  0.18873041143E+04  0.18876837613E+04  0.00000000000E+00 0. -1.
         22    1    3    3    0    0  0.92838802737E+01  0.10425499007E+03  0.39551823977E+02  0.11189119790E+03  0.00000000000E+00 0. -1.
         22    1    3    3    0    0  0.92849401267E-01 -0.35471743021E+02  0.33003590009E+02  0.48450904299E+02  0.00000000000E+00 0. -1.
</event>
<event>
 7    1  0.5139898E-006  0.1090310E+03  0.7818608E-02  0.1323153E+00
          2   -1    0    0  502    0  0.00000000000E+00  0.00000000000E+00  0.20525433665E+04  0.20525433665E+04  0.00000000000E+00 0. -1.
          1   -1    0    0  501    0 -0.00000000000E+00 -0.00000000000E+00 -0.87209330368E+03  0.87209330368E+03  0.00000000000E+00 0. -1.
         25    2    1    2    0    0  0.42989127446E+02 -0.39752365197E+02  0.27416394950E+03  0.30695068208E+03  0.12499813761E+03 0.  0.
          2    1    1    2  501    0  0.14095005106E+02 -0.60216923714E+02 -0.85269851732E+03  0.85493830685E+03  0.00000000000E+00 0. -1.
          1    1    1    2  502    0 -0.57084132552E+02  0.99969288912E+02  0.17589846306E+04  0.17627476812E+04  0.00000000000E+00 0. -1.
         22    1    3    3    0    0  0.68980456823E+02  0.16680073456E+02  0.10496449470E+03  0.12670467009E+03  0.00000000000E+00 0.  1.
         22    1    3    3    0    0 -0.25991329376E+02 -0.56432438654E+02  0.16919945480E+03  0.18024601200E+03  0.00000000000E+00 0.  1.
</event>
<event>
 7    1  0.5139898E-006  0.1093428E+03  0.7818608E-02  0.1262237E+00
          2   -1    0    0  502    0  0.00000000000E+00  0.00000000000E+00  0.16749392374E+04  0.16749392374E+04  0.00000000000E+00 0. -1.
          1   -1    0    0  501    0 -0.00000000000E+00 -0.00000000000E+00 -0.44795785660E+03  0.44795785660E+03  0.00000000000E+00 0. -1.
         25    2    1    2    0    0 -0.15947694115E+02  0.34715669451E+02 -0.10127104283E+03  0.16535035936E+03  0.12500164228E+03 0.  0.
          2    1    1    2  501    0  0.45017186777E+02 -0.14012347001E+03 -0.29549664147E+03  0.33012027971E+03  0.00000000000E+00 0. -1.
          1    1    1    2  502    0 -0.29069492662E+02  0.10540780056E+03  0.16237490650E+04  0.16274264549E+04  0.00000000000E+00 0. -1.
         22    1    3    3    0    0 -0.66512747468E+02  0.40197130102E+02 -0.75423642095E+02  0.10829811001E+03  0.00000000000E+00 0.  1.
         22    1    3    3    0    0  0.50565053353E+02 -0.54814606509E+01 -0.25847400732E+02  0.57052249351E+02  0.00000000000E+00 0.  1.
</event>
<event>
 7    1  0.5139898E-006  0.1033849E+03  0.7818608E-02  0.1386063E+00
          2   -1    0    0  502    0  0.00000000000E+00  0.00000000000E+00  0.65686062091E+03  0.65686062091E+03  0.00000000000E+00 0. -1.
          1   -1    0    0  501    0 -0.00000000000E+00 -0.00000000000E+00 -0.29308780451E+03  0.29308780451E+03  0.00000000000E+00 0. -1.
         25    2    1    2    0    0  0.13847599828E+03  0.12341926297E+02  0.24229927783E+03  0.30604412097E+03  0.12500455472E+03 0.  0.
          2    1    1    2  501    0 -0.10057325668E+03 -0.17591982500E+02 -0.25021863504E+03  0.27024770698E+03  0.00000000000E+00 0. -1.
          1    1    1    2  502    0 -0.37902741594E+02  0.52500562023E+01  0.37169217360E+03  0.37365659746E+03  0.00000000000E+00 0. -1.
         22    1    3    3    0    0  0.15075599825E+02 -0.46425616077E+02  0.81555189496E+02  0.95046622623E+02  0.00000000000E+00 0.  1.
         22    1    3    3    0    0  0.12340039845E+03  0.58767542375E+02  0.16074408834E+03  0.21099749835E+03  0.00000000000E+00 0.  1.
</event>
<event>
 7    1  0.5139898E-006  0.9038285E+02  0.7818608E-02  0.1375403E+00
          2   -1    0    0  502    0  0.00000000000E+00  0.00000000000E+00  0.14161586294E+04  0.14161586294E+04  0.00000000000E+00 0. -1.
          1   -1    0    0  501    0 -0.00000000000E+00 -0.00000000000E+00 -0.18683029348E+03  0.18683029348E+03  0.00000000000E+00 0. -1.
         25    2    1    2    0    0  0.11605759512E+02 -0.78177752075E+02  0.14606135181E+02  0.14860866180E+03  0.12499896242E+03 0.  0.
          2    1    1    2  501    0  0.46952684664E+02  0.86348222230E+01 -0.11345768709E+03  0.12309249170E+03  0.00000000000E+00 0. -1.
          1    1    1    2  502    0 -0.58558444175E+02  0.69542929852E+02  0.13281798879E+04  0.13312877694E+04  0.00000000000E+00 0. -1.
         22    1    3    3    0    0  0.31817989264E+02 -0.22080673107E+02 -0.48315641810E+02  0.61922062378E+02  0.00000000000E+00 0. -1.
         22    1    3    3    0    0 -0.20212229752E+02 -0.56097078968E+02  0.62921776991E+02  0.86686599426E+02  0.00000000000E+00 0. -1.
</event>
<event>
 7    1  0.5139898E-006  0.1459323E+03  0.7818608E-02  0.1375194E+00
          2   -1    0    0  502    0  0.00000000000E+00  0.00000000000E+00  0.17348594954E+03  0.17348594954E+03  0.00000000000E+00 0. -1.
          1   -1    0    0  501    0 -0.00000000000E+00 -0.00000000000E+00 -0.25358177830E+03  0.25358177830E+03  0.00000000000E+00 0. -1.
         25    2    1    2    0    0 -0.21907742739E+02  0.13024433532E+03 -0.90690588372E+02  0.20320764045E+03  0.12500010497E+03 0.  0.
          2    1    1    2  501    0  0.24700869613E+02 -0.15973069943E+03 -0.38841018472E+02  0.16623072525E+03  0.00000000000E+00 0. -1.
          1    1    1    2  502    0 -0.27931268742E+01  0.29486364106E+02  0.49435778083E+02  0.57629362140E+02  0.00000000000E+00 0. -1.
         22    1    3    3    0    0 -0.63810681270E+02  0.76827086245E+02 -0.14104946756E+02  0.10086205306E+03  0.00000000000E+00 0. -1.
         22    1    3    3    0    0  0.41902938531E+02  0.53417249079E+02 -0.76585641616E+02  0.10234558739E+03  0.00000000000E+00 0. -1.
</event>
<event>
 7    1  0.5139898E-006  0.1414145E+03  0.7818608E-02  0.1259165E+00
          2   -1    0    0  502    0  0.00000000000E+00  0.00000000000E+00  0.73087399636E+03  0.73087399636E+03  0.00000000000E+00 0. -1.
          1   -1    0    0  501    0 -0.00000000000E+00 -0.00000000000E+00 -0.70664725159E+03  0.70664725159E+03  0.00000000000E+00 0. -1.
         25    2    1    2    0    0 -0.19333769869E+03  0.10109926574E+03 -0.25015378536E+03  0.35468703575E+03  0.12500179891E+03 0.  0.
          2    1    1    2  501    0  0.58696749229E+02 -0.63882644038E+02 -0.39224793108E+03  0.40172719602E+03  0.00000000000E+00 0. -1.
          1    1    1    2  502    0  0.13464094946E+03 -0.37216621706E+02  0.66662846121E+03  0.68110701619E+03  0.00000000000E+00 0. -1.
         22    1    3    3    0    0 -0.10912082957E+03  0.12091356403E+03 -0.18432606069E+03  0.24597467769E+03  0.00000000000E+00 0.  1.
         22    1    3    3    0    0 -0.84216869111E+02 -0.19814298291E+02 -0.65827724674E+02  0.10871235806E+03  0.00000000000E+00 0.  1.
</event>
<event>
 7    1  0.5139898E-006  0.9210003E+02  0.7818608E-02  0.1424212E+00
          2   -1    0    0  502    0  0.00000000000E+00  0.00000000000E+00  0.11495633263E+04  0.11495633263E+04  0.00000000000E+00 0. -1.
          1   -1    0    0  501    0 -0.00000000000E+00 -0.00000000000E+00 -0.66723652701E+03  0.66723652701E+03  0.00000000000E+00 0. -1.
         25    2    1    2    0    0  0.63097133731E+02 -0.11837401038E+02  0.22210821546E+01  0.14054478029E+03  0.12500611870E+03 0.  0.
          2    1    1    2  501    0 -0.88099097028E+02  0.31528786159E+02 -0.59417770824E+03  0.60150034433E+03  0.00000000000E+00 0. -1.
          1    1    1    2  502    0  0.25001963297E+02 -0.19691385121E+02  0.10742834254E+04  0.10747547287E+04  0.00000000000E+00 0. -1.
         22    1    3    3    0    0  0.39109323284E+02 -0.45686245903E+01 -0.60961460645E+02  0.72572110224E+02  0.00000000000E+00 0.  1.
         22    1    3    3    0    0  0.23987810446E+02 -0.72687764476E+01  0.63182542799E+02  0.67972670064E+02  0.00000000000E+00 0.  1.
</event>
<event>
 7    1  0.5139898E-006  0.1266037E+03  0.7818608E-02  0.1260595E+00
          2   -1    0    0  502    0  0.00000000000E+00  0.00000000000E+00  0.14119810959E+04  0.14119810959E+04  0.00000000000E+00 0. -1.
          1   -1    0    0  501    0 -0.00000000000E+00 -0.00000000000E+00 -0.46024563639E+03  0.46024563639E+03  0.00000000000E+00 0. -1.
         25    2    1    2    0    0  0.89882770236E+02  0.82033121429E+02 -0.16825163698E+03  0.24236802755E+03  0.12500120814E+03 0.  0.
          2    1    1    2  501    0 -0.14012595982E+02 -0.14011493884E+03 -0.23367782788E+03  0.27282572492E+03  0.00000000000E+00 0. -1.
          1    1    1    2  502    0 -0.75870174254E+02  0.58081817411E+02  0.13536649243E+04  0.13570329798E+04  0.00000000000E+00 0. -1.
         22    1    3    3    0    0  0.58482817592E+02  0.15254084588E+02 -0.15634503441E+03  0.16762069334E+03  0.00000000000E+00 0.  1.
         22    1    3    3    0    0  0.31399952644E+02  0.66779036841E+02 -0.11906602572E+02  0.74747334215E+02  0.00000000000E+00 0.  1.
</event>
<event>
 7    1  0.5139898E-006  0.8213168E+02  0.7818608E-02  0.1390997E+00
          2   -1    0    0  502    0  0.00000000000E+00  0.00000000000E+00  0.34634300686E+03  0.34634300686E+03  0.00000000000E+00 0. -1.
          1   -1    0    0  501    0 -0.00000000000E+00 -0.00000000000E+00 -0.13549464675E+04  0.13549464675E+04  0.00000000000E+00 0. -1.
         25    2    1    2    0    0 -0.57560192088E+02  0.52343462690E+02 -0.96783573812E+02  0.17619641988E+03  0.12500041768E+03 0.  0.
          2    1    1    2  501    0 -0.24243347791E+02 -0.39433962265E+02 -0.12124150289E+04  0.12132983885E+04  0.00000000000E+00 0. -1.
          1    1    1    2  502    0  0.81803539879E+02 -0.12909500425E+02  0.30059514202E+03  0.31179466600E+03  0.00000000000E+00 0. -1.
         22    1    3    3    0    0 -0.92072823640E+02  0.19370533612E+02 -0.85535355805E+02  0.12715706633E+03  0.00000000000E+00 0. -1.
         22    1    3    3    0    0  0.34512631551E+02  0.32972929078E+02 -0.11248218007E+02  0.49039353553E+02  0.00000000000E+00 0. -1.
</event>
<event>
 7    1  0.5139898E-006  0.1021018E+03  0.7818608E-02  0.1445761E+00
          2   -1    0    0  502    0  0.00000000000E+00  0.00000000000E+00  0.35107950084E+03  0.35107950084E+03  0.00000000000E+00 0. -1.
          1   -1    0    0  501    0 -0.00000000000E+00 -0.00000000000E+00 -0.16696293497E+04  0.16696293497E+04  0.00000000000E+00 0. -1.
         25    2    1    2    0    0  0.68891192989E+02 -0.36962362638E+02 -0.37175117894E+03  0.39992064521E+03  0.12500148278E+03 0.  0.
          2    1    1    2  501    0  0.21264171514E+02 -0.11985521444E+02 -0.12758668376E+04  0.12761003115E+04  0.00000000000E+00 0. -1.
          1    1    1    2  502    0 -0.90155364502E+02  0.48947884082E+02  0.32906816774E+03  0.34468789378E+03  0.00000000000E+00 0. -1.
         22    1    3    3    0    0  0.40919634695E+02 -0.34523380236E+02 -0.36767052832E+03  0.37154797494E+03  0.00000000000E+00 0. -1.
         22    1    3    3    0    0  0.27971558294E+02 -0.24389824017E+01 -0.40806506178E+01  0.28372670266E+02  0.00000000000E+00 0. -1.
</event>
<event>
 7    1  0.5139898E-006  0.9630967E+02  0.7818608E-02  0.1377782E+00
          2   -1    0    0  502    0  0.00000000000E+00  0.00000000000E+00  0.18359181464E+03  0.18359181464E+03  0.00000000000E+00 0. -1.
          1   -1    0    0  501    0 -0.00000000000E+00 -0.00000000000E+00 -0.20389588915E+04  0.20389588915E+04  0.00000000000E+00 0. -1.
         25    2    1    2    0    0 -0.80916065971E+01  0.76478800749E+02 -0.21982264118E+03  0.26431952386E+03  0.12501334350E+03 0.  0.
          2    1    1    2  501    0  0.51499946268E+02 -0.83273657494E+02 -0.17925355714E+04  0.17952076541E+04  0.00000000000E+00 0. -1.
          1    1    1    2  502    0 -0.43408339671E+02  0.67948567446E+01  0.15699113576E+03  0.16302352818E+03  0.00000000000E+00 0. -1.
         22    1    3    3    0    0  0.31467353193E+02  0.23714407793E+02 -0.18614773699E+03  0.19027229814E+03  0.00000000000E+00 0. -1.
         22    1    3    3    0    0 -0.39558959790E+02  0.52764392956E+02 -0.33674904196E+02  0.74047225717E+02  0.00000000000E+00 0. -1.
</event>
<event>
 7    1  0.5139898E-006  0.2275245E+03  0.7818608E-02  0.1282881E+00
          2   -1    0    0  502    0  0.00000000000E+00  0.00000000000E+00  0.61204215615E+03  0.61204215615E+03  0.00000000000E+00 0. -1.
          1   -1    0    0  501    0 -0.00000000000E+00 -0.00000000000E+00 -0.61996502997E+03  0.61996502997E+03  0.00000000000E+00 0. -1.
         25    2    1    2    0    0  0.15380764488E+03 -0.18982815787E+03 -0.16889673324E+03  0.32222648858E+03  0.12494911884E+03 0.  0.
          2    1    1    2  501    0 -0.42316522114E+02 -0.69655932854E+01 -0.34914393714E+03  0.35176795815E+03  0.00000000000E+00 0. -1.
          1    1    1    2  502    0 -0.11149112276E+03  0.19679375116E+03  0.51011779657E+03  0.55801273940E+03  0.00000000000E+00 0. -1.
         22    1    3    3    0    0  0.63706637847E+02  0.27469182743E+00 -0.32651750217E+02  0.71587344926E+02  0.00000000000E+00 0. -1.
         22    1    3    3    0    0  0.90101007031E+02 -0.19010284970E+03 -0.13624498303E+03  0.25063914366E+03  0.00000000000E+00 0. -1.
</event>
<event>
 7    1  0.5139898E-006  0.9026777E+02  0.7818608E-02  0.1439706E+00
          2   -1    0    0  502    0  0.00000000000E+00  0.00000000000E+00  0.94163293960E+03  0.94163293960E+03  0.00000000000E+00 0. -1.
          1   -1    0    0  501    0 -0.00000000000E+00 -0.00000000000E+00 -0.74888729497E+02  0.74888729497E+02  0.00000000000E+00 0. -1.
         25    2    1    2    0    0  0.54410823129E+02  0.41561677521E+02  0.13520208173E+03  0.19644663278E+03  0.12499506356E+03 0.  0.
          2    1    1    2  501    0 -0.77480618530E+02 -0.58939062516E+02  0.98967971620E+01  0.97851959266E+02  0.00000000000E+00 0. -1.
          1    1    1    2  502    0  0.23069795400E+02  0.17377384996E+02  0.72164533121E+03  0.72222307705E+03  0.00000000000E+00 0. -1.
         22    1    3    3    0    0  0.54597547921E+00  0.59869664758E+02  0.12506747786E+03  0.13865983148E+03  0.00000000000E+00 0. -1.
         22    1    3    3    0    0  0.53864847650E+02 -0.18307987237E+02  0.10134603871E+02  0.57786801302E+02  0.00000000000E+00 0. -1.
</event>
<event>
 7    1  0.5139898E-006  0.8777473E+02  0.7818608E-02  0.1386028E+00
          2   -1    0    0  502    0  0.00000000000E+00  0.00000000000E+00  0.44081374765E+03  0.44081374765E+03  0.00000000000E+00 0. -1.
          1   -1    0    0  501    0 -0.00000000000E+00 -0.00000000000E+00 -0.18061510515E+04  0.18061510515E+04  0.00000000000E+00 0. -1.
         25    2    1    2    0    0 -0.11200484280E+03  0.10882772144E+02 -0.36119923795E+03  0.39844153208E+03  0.12500898149E+03 0.  0.
          2    1    1    2  501    0  0.27930039982E+02 -0.35388311550E+02 -0.14214282188E+04  0.14221429608E+04  0.00000000000E+00 0. -1.
          1    1    1    2  502    0  0.84074802815E+02  0.24505539406E+02  0.41729015287E+03  0.42638030631E+03  0.00000000000E+00 0. -1.
         22    1    3    3    0    0 -0.10976508334E+03  0.24322883608E+02 -0.15335870605E+03  0.19015485507E+03  0.00000000000E+00 0.  1.
         22    1    3    3    0    0 -0.22397594578E+01 -0.13440111464E+02 -0.20784053190E+03  0.20828667701E+03  0.00000000000E+00 0.  1.
</event>
<event>
 7    1  0.5139898E-006  0.5675449E+02  0.7818608E-02  0.1482130E+00
          2   -1    0    0  502    0  0.00000000000E+00  0.00000000000E+00  0.29158533556E+03  0.29158533556E+03  0.00000000000E+00 0. -1.
          1   -1    0    0  501    0 -0.00000000000E+00 -0.00000000000E+00 -0.43664030651E+03  0.43664030651E+03  0.00000000000E+00 0. -1.
         25    2    1    2    0    0  0.50214668504E+02  0.46033741185E+02  0.69403005168E+02  0.15837311596E+03  0.12499859389E+03 0.  0.
          2    1    1    2  501    0 -0.55277768699E+02 -0.12650037591E+02 -0.38847394370E+03  0.39259095774E+03  0.00000000000E+00 0. -1.
          1    1    1    2  502    0  0.50631001947E+01 -0.33383703594E+02  0.17401596758E+03  0.17726156837E+03  0.00000000000E+00 0. -1.
         22    1    3    3    0    0 -0.10139775567E+02 -0.18157486383E+02  0.67084039674E+02  0.70233736475E+02  0.00000000000E+00 0. -1.
         22    1    3    3    0    0  0.60354444072E+02  0.64191227567E+02  0.23189654941E+01  0.88139379489E+02  0.00000000000E+00 0. -1.
</event>
<event>
 7    1  0.5139898E-006  0.1878065E+03  0.7818608E-02  0.1216961E+00
          2   -1    0    0  502    0  0.00000000000E+00  0.00000000000E+00  0.42687507031E+04  0.42687507031E+04  0.00000000000E+00 0. -1.
          1   -1    0    0  501    0 -0.00000000000E+00 -0.00000000000E+00 -0.35307645844E+03  0.35307645844E+03  0.00000000000E+00 0. -1.
         25    2    1    2    0    0  0.97727412194E+02 -0.19961324712E+03 -0.10595796597E+03  0.27613563983E+03  0.12501082158E+03 0.  0.
          2    1    1    2  501    0 -0.13536862571E+00  0.17592230729E+03 -0.11348808982E+03  0.20935191200E+03  0.00000000000E+00 0. -1.
          1    1    1    2  502    0 -0.97592043568E+02  0.23690939826E+02  0.41351203005E+04  0.41363396097E+04  0.00000000000E+00 0. -1.
         22    1    3    3    0    0  0.66302447665E+02 -0.16637374370E+03 -0.13292416212E+03  0.22303602855E+03  0.00000000000E+00 0. -1.
         22    1    3    3    0    0  0.31424964529E+02 -0.33239503422E+02  0.26966196142E+02  0.53099611277E+02  0.00000000000E+00 0. -1.
</event>
<event>
 7    1  0.5139898E-006  0.9080191E+02  0.7818608E-02  0.1405495E+00
          2   -1    0    0  502    0  0.00000000000E+00  0.00000000000E+00  0.59351832941E+03  0.59351832941E+03  0.00000000000E+00 0. -1.
          1   -1    0    0  501    0 -0.00000000000E+00 -0.00000000000E+00 -0.11568329656E+03  0.11568329656E+03  0.00000000000E+00 0. -1.
         25    2    1    2    0    0 -0.33607685546E+02  0.84730514222E+02  0.20858925075E+03  0.25969741515E+03  0.12499814133E+03 0.  0.
          2    1    1    2  501    0 -0.31079193283E+01 -0.91410262773E+02 -0.65618576744E+02  0.11256683755E+03  0.00000000000E+00 0. -1.
          1    1    1    2  502    0  0.36715604874E+02  0.66797485504E+01  0.33486435884E+03  0.33693737327E+03  0.00000000000E+00 0. -1.
         22    1    3    3    0    0  0.31497900204E+02  0.16057983245E+02  0.13575799065E+03  0.14028616671E+03  0.00000000000E+00 0. -1.
         22    1    3    3    0    0 -0.65105585750E+02  0.68672530978E+02  0.72831260101E+02  0.11941124844E+03  0.00000000000E+00 0. -1.
</event>
<event>
 7    1  0.5139898E-006  0.7897639E+02  0.7818608E-02  0.1371172E+00
          2   -1    0    0  502    0  0.00000000000E+00  0.00000000000E+00  0.36624394658E+04  0.36624394658E+04  0.00000000000E+00 0. -1.
          1   -1    0    0  501    0 -0.00000000000E+00 -0.00000000000E+00 -0.62639060043E+01  0.62639060043E+01  0.00000000000E+00 0. -1.
         25    2    1    2    0    0 -0.54097137572E+02  0.54469347622E+02  0.24106377934E+04  0.24150969649E+04  0.12500147452E+03 0.  0.
          2    1    1    2  501    0  0.83481206902E+02 -0.61261179705E+01  0.64474134509E+03  0.65015232315E+03  0.00000000000E+00 0. -1.
          1    1    1    2  502    0 -0.29384069330E+02 -0.48343229651E+02  0.60079642129E+03  0.60345408377E+03  0.00000000000E+00 0. -1.
         22    1    3    3    0    0  0.13543838995E+02  0.74601948182E+02  0.11714869018E+04  0.11739380083E+04  0.00000000000E+00 0.  1.
         22    1    3    3    0    0 -0.67640976567E+02 -0.20132600560E+02  0.12391508916E+04  0.12411589565E+04  0.00000000000E+00 0.  1.
</event>
<event>
 7    1  0.5139898E-006  0.3199736E+03  0.7818608E-02  0.1143182E+00
          2   -1    0    0  502    0  0.00000000000E+00  0.00000000000E+00  0.14123606335E+04  0.14123606335E+04  0.00000000000E+00 0. -1.
          1   -1    0    0  501    0 -0.00000000000E+00 -0.00000000000E+00 -0.17454163151E+04  0.17454163151E+04  0.00000000000E+00 0. -1.
         25    2    1    2    0    0 -0.15598525560E+03  0.23873410293E+03 -0.51643459359E+03  0.60303805215E+03  0.12499932411E+03 0.  0.
          2    1    1    2  501    0  0.28559910502E+03 -0.20035871412E+03 -0.11565429899E+04  0.12080157907E+04  0.00000000000E+00 0. -1.
          1    1    1    2  502    0 -0.12961384942E+03 -0.38375388808E+02  0.13399219019E+04  0.13467231058E+04  0.00000000000E+00 0. -1.
         22    1    3    3    0    0 -0.42498377561E+01  0.10910110634E+03 -0.14657980563E+03  0.18277514039E+03  0.00000000000E+00 0. -1.
         22    1    3    3    0    0 -0.15173541784E+03  0.12963299659E+03 -0.36985478795E+03  0.42026291176E+03  0.00000000000E+00 0. -1.
</event>
<event>
 7    1  0.5139898E-006  0.6669025E+02  0.7818608E-02  0.1462225E+00
          2   -1    0    0  502    0  0.00000000000E+00  0.00000000000E+00  0.65629502002E+03  0.65629502002E+03  0.00000000000E+00 0. -1.
          1   -1    0    0  501    0 -0.00000000000E+00 -0.00000000000E+00 -0.18222649873E+04  0.18222649873E+04  0.00000000000E+00 0. -1.
         25    2    1    2    0    0  0.66677645621E+02  0.42417269580E+02  0.15439581798E+03  0.21379546877E+03  0.12500120268E+03 0.  0.
          2    1    1    2  501    0 -0.11041954647E+01 -0.33105748166E+02 -0.17900887668E+04  0.17903952086E+04  0.00000000000E+00 0. -1.
          1    1    1    2  502    0 -0.65573450156E+02 -0.93115214143E+01  0.46972298157E+03  0.47436932996E+03  0.00000000000E+00 0. -1.
         22    1    3    3    0    0  0.37543959012E+02  0.74605779550E+01 -0.12921725728E+02  0.40400248483E+02  0.00000000000E+00 0.  1.
         22    1    3    3    0    0  0.29133686609E+02  0.34956691625E+02  0.16731754371E+03  0.17339522029E+03  0.00000000000E+00 0.  1.
</event>
<event>
 7    1  0.5139898E-006  0.5885264E+02  0.7818608E-02  0.1452493E+00
          2   -1    0    0  502    0  0.00000000000E+00  0.00000000000E+00  0.92711072078E+03  0.92711072078E+03  0.00000000000E+00 0. -1.
          1   -1    0    0  501    0 -0.00000000000E+00 -0.00000000000E+00 -0.86752765724E+03  0.86752765724E+03  0.00000000000E+00 0. -1.
         25    2    1    2    0    0  0.84949002011E+02 -0.44558925683E+02  0.32967836958E+03  0.36539558871E+03  0.12499711227E+03 0.  0.
          2    1    1    2  501    0 -0.33390126535E+02  0.22557522135E+02 -0.84783393625E+03  0.84879097888E+03  0.00000000000E+00 0. -1.
          1    1    1    2  502    0 -0.51558875477E+02  0.22001403548E+02  0.57773863021E+03  0.58045181044E+03  0.00000000000E+00 0. -1.
         22    1    3    3    0    0  0.68726492946E+02 -0.73399920034E+02  0.31215728639E+03  0.32795281756E+03  0.00000000000E+00 0. -1.
         22    1    3    3    0    0  0.16222509065E+02  0.28840994351E+02  0.17521083187E+02  0.37442771152E+02  0.00000000000E+00 0. -1.
</event>
<event>
 7    1  0.5139898E-006  0.1120953E+03  0.7818608E-02  0.1398367E+00
          2   -1    0    0  502    0  0.00000000000E+00  0.00000000000E+00  0.11705298549E+04  0.11705298549E+04  0.00000000000E+00 0. -1.
          1   -1    0    0  501    0 -0.00000000000E+00 -0.00000000000E+00 -0.15349526792E+04  0.15349526792E+04  0.00000000000E+00 0. -1.
         25    2    1    2    0    0  0.10573890482E+03  0.11892869685E+02  0.23315283819E+03  0.28513980840E+03  0.12498923169E+03 0.  0.
          2    1    1    2  501    0  0.59522716422E+01 -0.31420561098E+02 -0.15052621299E+04  0.15056017936E+04  0.00000000000E+00 0. -1.
          1    1    1    2  502    0 -0.11169117646E+03  0.19527691413E+02  0.90768646744E+03  0.91474093207E+03  0.00000000000E+00 0. -1.
         22    1    3    3    0    0  0.97426922277E+01 -0.23640564466E+02  0.15302378557E+03  0.15514533603E+03  0.00000000000E+00 0.  1.
         22    1    3    3    0    0  0.95996212593E+02  0.35533434151E+02  0.80129052618E+02  0.12999447238E+03  0.00000000000E+00 0.  1.
</event>
<event>
 7    1  0.5139898E-006  0.1586665E+03  0.7818608E-02  0.1343539E+00
          2   -1    0    0  502    0  0.00000000000E+00  0.00000000000E+00  0.12783533145E+04  0.12783533145E+04  0.00000000000E+00 0. -1.
          1   -1    0    0  501    0 -0.00000000000E+00 -0.00000000000E+00 -0.14280674329E+03  0.14280674329E+03  0.00000000000E+00 0. -1.
         25    2    1    2    0    0 -0.25158813725E+02  0.18153540264E+03  0.22513623689E+03  0.31607108269E+03  0.12500614317E+03 0.  0.
          2    1    1    2  501    0  0.38313566973E+02 -0.14850525580E+03 -0.36386172522E+02  0.15762516920E+03  0.00000000000E+00 0. -1.
          1    1    1    2  502    0 -0.13154753248E+02 -0.33030146837E+02  0.94679650688E+03  0.94746380594E+03  0.00000000000E+00 0. -1.
         22    1    3    3    0    0  0.14540332319E+02  0.72454246044E+02  0.17435427647E+03  0.18936856328E+03  0.00000000000E+00 0.  1.
         22    1    3    3    0    0 -0.39699146044E+02  0.10908115660E+03  0.50781960418E+02  0.12670251941E+03  0.00000000000E+00 0.  1.
</event>
<event>
 7    1  0.5139898E-006  0.1514595E+03  0.7818608E-02  0.1366585E+00
          2   -1    0    0  502    0  0.00000000000E+00  0.00000000000E+00  0.41926562409E+03  0.41926562409E+03  0.00000000000E+00 0. -1.
          1   -1    0    0  501    0 -0.00000000000E+00 -0.00000000000E+00 -0.17580442569E+04  0.17580442569E+04  0.00000000000E+00 0. -1.
         25    2    1    2    0    0  0.11920754357E+02 -0.14048657963E+03 -0.54976804446E+03  0.58116127387E+03  0.12499976039E+03 0.  0.
          2    1    1    2  501    0 -0.28838819331E+02 -0.10358379139E+02 -0.11781004126E+04  0.11784988569E+04  0.00000000000E+00 0. -1.
          1    1    1    2  502    0  0.16918064974E+02  0.15084495877E+03  0.38908982426E+03  0.41764975021E+03  0.00000000000E+00 0. -1.
         22    1    3    3    0    0  0.33731295172E+02 -0.14920198847E+03 -0.37773887845E+03  0.40753612592E+03  0.00000000000E+00 0.  1.
         22    1    3    3    0    0 -0.21810540815E+02  0.87154088462E+01 -0.17202916601E+03  0.17362514795E+03  0.00000000000E+00 0.  1.
</event>
<event>
 7    1  0.5139898E-006  0.1193176E+03  0.7818608E-02  0.1262698E+00
          2   -1    0    0  502    0  0.00000000000E+00  0.00000000000E+00  0.18013400085E+04  0.18013400085E+04  0.00000000000E+00 0. -1.
          1   -1    0    0  501    0 -0.00000000000E+00 -0.00000000000E+00 -0.34880532272E+03  0.34880532272E+03  0.00000000000E+00 0. -1.
         25    2    1    2    0    0  0.83710572734E+02  0.49427764031E+01  0.78937149137E+03  0.80359400033E+03  0.12499629972E+03 0.  0.
          2    1    1    2  501    0 -0.33024987178E+02  0.11465619862E+03 -0.32690448487E+03  0.34799890214E+03  0.00000000000E+00 0. -1.
          1    1    1    2  502    0 -0.50685585556E+02 -0.11959897503E+03  0.99006767925E+03  0.99855242872E+03  0.00000000000E+00 0. -1.
         22    1    3    3    0    0  0.14598675614E+02  0.88918053232E+01  0.62508471075E+03  0.62531838382E+03  0.00000000000E+00 0. -1.
         22    1    3    3    0    0  0.69111897120E+02 -0.39490289201E+01  0.16428678063E+03  0.17827561651E+03  0.00000000000E+00 0. -1.
</event>
<event>
 7    1  0.5139898E-006  0.6977520E+02  0.7818608E-02  0.1400922E+00
          2   -1    0    0  502    0  0.00000000000E+00  0.00000000000E+00  0.71214004961E+03  0.71214004961E+03  0.00000000000E+00 0. -1.
          1   -1    0    0  501    0 -0.00000000000E+00 -0.00000000000E+00 -0.38493029794E+02  0.38493029794E+02  0.00000000000E+00 0. -1.
         25    2    1    2    0    0  0.45882034948E+01  0.32165168793E+02  0.26255719484E+03  0.29260416796E+03  0.12500107541E+03 0.  0.
          2    1    1    2  501    0 -0.35845867518E+02 -0.71632564062E+02  0.52163025382E+02  0.95588344840E+02  0.00000000000E+00 0. -1.
          1    1    1    2  502    0  0.31257664024E+02  0.39467395270E+02  0.35892679960E+03  0.36244056660E+03  0.00000000000E+00 0. -1.
         22    1    3    3    0    0 -0.14051169294E+02 -0.40039544357E+02  0.16168407433E+03  0.16715962539E+03  0.00000000000E+00 0.  1.
         22    1    3    3    0    0  0.18639372789E+02  0.72204713149E+02  0.10087312051E+03  0.12544454257E+03  0.00000000000E+00 0.  1.
</event>
<event>
 7    1  0.5139898E-006  0.2378452E+03  0.7818608E-02  0.1261716E+00
          2   -1    0    0  502    0  0.00000000000E+00  0.00000000000E+00  0.31862676020E+04  0.31862676020E+04  0.00000000000E+00 0. -1.
          1   -1    0    0  501    0 -0.00000000000E+00 -0.00000000000E+00 -0.19473919009E+03  0.19473919009E+03  0.00000000000E+00 0. -1.
         25    2    1    2    0    0  0.15437861493E+03 -0.22901158563E+03  0.65700730296E+03  0.72357616498E+03  0.12499922913E+03 0.  0.
          2    1    1    2  501    0 -0.14974261833E+03  0.17892112539E+03 -0.76765965572E+02  0.24561888023E+03  0.00000000000E+00 0. -1.
          1    1    1    2  502    0 -0.46359966047E+01  0.50090460246E+02  0.24112870746E+04  0.24118117469E+04  0.00000000000E+00 0. -1.
         22    1    3    3    0    0  0.46853331494E+02 -0.37134680844E+01  0.16912272002E+03  0.17553210232E+03  0.00000000000E+00 0. -1.
         22    1    3    3    0    0  0.10752528344E+03 -0.22529811755E+03  0.48788458294E+03  0.54804406266E+03  0.00000000000E+00 0. -1.
</event>
<event>
 7    1  0.5139898E-006  0.5424746E+02  0.7818608E-02  0.1427531E+00
          2   -1    0    0  502    0  0.00000000000E+00  0.00000000000E+00  0.21806141391E+04  0.21806141391E+04  0.00000000000E+00 0. -1.
          1   -1    0    0  501    0 -0.00000000000E+00 -0.00000000000E+00 -0.56973222052E+02  0.56973222052E+02  0.00000000000E+00 0. -1.
         25    2    1    2    0    0  0.27095099384E+02  0.17126534713E+01  0.11062019850E+04  0.11135725425E+04  0.12499559216E+03 0.  0.
          2    1    1    2  501    0  0.68459507338E+01 -0.53813756432E+02 -0.38325952087E+02  0.66420373578E+02  0.00000000000E+00 0. -1.
          1    1    1    2  502    0 -0.33941050118E+02  0.52101102961E+02  0.10557648841E+04  0.10575944451E+04  0.00000000000E+00 0. -1.
         22    1    3    3    0    0  0.67626408520E+02  0.31322238701E+02  0.53443355997E+03  0.53960508133E+03  0.00000000000E+00 0. -1.
         22    1    3    3    0    0 -0.40531309136E+02 -0.29609585230E+02  0.57176842507E+03  0.57396746116E+03  0.00000000000E+00 0. -1.
</event>
<event>
 7    1  0.5139898E-006  0.1115062E+03  0.7818608E-02  0.1432055E+00
          2   -1    0    0  502    0  0.00000000000E+00  0.00000000000E+00  0.91151692650E+03  0.91151692650E+03  0.00000000000E+00 0. -1.
          1   -1    0    0  501    0 -0.00000000000E+00 -0.00000000000E+00 -0.29009329173E+03  0.29009329173E+03  0.00000000000E+00 0. -1.
         25    2    1    2    0    0 -0.28181632553E+02 -0.97362204489E+02 -0.82253395755E+02  0.18073164007E+03  0.12499880533E+03 0.  0.
          2    1    1    2  501    0  0.20285653788E+02 -0.14205768412E+02 -0.15398024990E+03  0.15595906182E+03  0.00000000000E+00 0. -1.
          1    1    1    2  502    0  0.78959787649E+01  0.11156797290E+03  0.85765728042E+03  0.86491951633E+03  0.00000000000E+00 0. -1.
         22    1    3    3    0    0  0.30498154687E+02 -0.72789755984E+02 -0.86350985110E+02  0.11698281346E+03  0.00000000000E+00 0.  1.
         22    1    3    3    0    0 -0.58679787240E+02 -0.24572448506E+02  0.40975893556E+01  0.63748826613E+02  0.00000000000E+00 0.  1.
</event>
<event>
 7    1  0.5139898E-006  0.1822752E+03  0.7818608E-02  0.1320275E+00
          2   -1    0    0  502    0  0.00000000000E+00  0.00000000000E+00  0.16185465328E+03  0.16185465328E+03  0.00000000000E+00 0. -1.
          1   -1    0    0  501    0 -0.00000000000E+00 -0.00000000000E+00 -0.57569539505E+03  0.57569539505E+03  0.00000000000E+00 0. -1.
         25    2    1    2    0    0 -0.17791338690E+03 -0.30738755545E+01 -0.22960353946E+03  0.31623519999E+03  0.12499717770E+03 0.  0.
          2    1    1    2  501    0 -0.30106409278E+01  0.37834481667E+02 -0.22867091038E+03  0.23179926060E+03  0.00000000000E+00 0. -1.
          1    1    1    2  502    0  0.18092402782E+03 -0.34760606112E+02  0.44433708080E+02  0.18951558774E+03  0.00000000000E+00 0. -1.
         22    1    3    3    0    0 -0.63957058916E+02 -0.57204018521E+02 -0.59345406870E+02  0.10432968148E+03  0.00000000000E+00 0.  1.
         22    1    3    3    0    0 -0.11395632798E+03  0.54130142966E+02 -0.17025813259E+03  0.21190551852E+03  0.00000000000E+00 0.  1.
</event>
<event>
 7    1  0.5139898E-006  0.4522584E+02  0.7818608E-02  0.1492216E+00
          2   -1    0    0  502    0  0.00000000000E+00  0.00000000000E+00  0.46076297545E+03  0.46076297545E+03  0.00000000000E+00 0. -1.
          1   -1    0    0  501    0 -0.00000000000E+00 -0.00000000000E+00 -0.34296802971E+03  0.34296802971E+03  0.00000000000E+00 0. -1.
         25    2    1    2    0    0  0.52859747749E+01  0.83869143055E+02  0.43560407788E+02  0.15679443118E+03  0.12500003934E+03 0.  0.
          2    1    1    2  501    0 -0.31692735287E+01 -0.44439114969E+02 -0.28352524686E+03  0.28700425927E+03  0.00000000000E+00 0. -1.
          1    1    1    2  502    0 -0.21167012462E+01 -0.39430028086E+02  0.35775978481E+03  0.35993231471E+03  0.00000000000E+00 0. -1.
         22    1    3    3    0    0  0.61503549431E+02  0.60631299228E+02  0.90023657851E+01  0.86832503294E+02  0.00000000000E+00 0. -1.
         22    1    3    3    0    0 -0.56217574656E+02  0.23237843827E+02  0.34558042003E+02  0.69961927882E+02  0.00000000000E+00 0. -1.
</event>
<event>
 7    1  0.5139898E-006  0.1451728E+03  0.7818608E-02  0.1209532E+00
          2   -1    0    0  502    0  0.00000000000E+00  0.00000000000E+00  0.40072533618E+04  0.40072533618E+04  0.00000000000E+00 0. -1.
          1   -1    0    0  501    0 -0.00000000000E+00 -0.00000000000E+00 -0.71297425624E+02  0.71297425624E+02  0.00000000000E+00 0. -1.
         25    2    1    2    0    0  0.25574485353E+02  0.10110073994E+03  0.20766475616E+04  0.20830183564E+04  0.12499985643E+03 0.  0.
          2    1    1    2  501    0  0.11488715549E+03 -0.95237209400E+02  0.19657540175E+02  0.15051778445E+03  0.00000000000E+00 0. -1.
          1    1    1    2  502    0 -0.14046164084E+03 -0.58635305357E+01  0.18396508344E+04  0.18450146465E+04  0.00000000000E+00 0. -1.
         22    1    3    3    0    0 -0.39648706930E+02  0.87495478676E+02  0.12622850077E+04  0.12659348006E+04  0.00000000000E+00 0. -1.
         22    1    3    3    0    0  0.65223192283E+02  0.13605261259E+02  0.81436255396E+03  0.81708355585E+03  0.00000000000E+00 0. -1.
</event>
<event>
 7    1  0.5139898E-006  0.1722046E+03  0.7818608E-02  0.1293795E+00
          2   -1    0    0  502    0  0.00000000000E+00  0.00000000000E+00  0.42710605673E+02  0.42710605673E+02  0.00000000000E+00 0. -1.
          1   -1    0    0  501    0 -0.00000000000E+00 -0.00000000000E+00 -0.20207354853E+04  0.20207354853E+04  0.00000000000E+00 0. -1.
         25    2    1    2    0    0 -0.20161727286E+01 -0.17375362721E+03 -0.67254239227E+03  0.70578518073E+03  0.12500025602E+03 0.  0.
          2    1    1    2  501    0  0.50676725892E+02  0.68966293161E+01 -0.10342758713E+04  0.10355396043E+04  0.00000000000E+00 0. -1.
          1    1    1    2  502    0 -0.48660553163E+02  0.16685699790E+03 -0.27120661609E+03  0.32212130602E+03  0.00000000000E+00 0. -1.
         22    1    3    3    0    0  0.22711554463E+02 -0.16705282493E+03 -0.65048958628E+03  0.67198151975E+03  0.00000000000E+00 0. -1.
         22    1    3    3    0    0 -0.24727727192E+02 -0.67008022811E+01 -0.22052805993E+02  0.33803660977E+02  0.00000000000E+00 0. -1.
</event>
<event>
 7    1  0.5139898E-006  0.9579039E+02  0.7818608E-02  0.1435523E+00
          2   -1    0    0  502    0  0.00000000000E+00  0.00000000000E+00  0.27560077739E+04  0.27560077739E+04  0.00000000000E+00 0. -1.
          1   -1    0    0  501    0 -0.00000000000E+00 -0.00000000000E+00 -0.52662768028E+03  0.52662768028E+03  0.00000000000E+00 0. -1.
         25    2    1    2    0    0 -0.16129097516E+02  0.11780611546E+03  0.24190028362E+03  0.29711855308E+03  0.12500103497E+03 0.  0.
          2    1    1    2  501    0 -0.97613284529E+01 -0.26333356297E+02 -0.49771387433E+03  0.49850559665E+03  0.00000000000E+00 0. -1.
          1    1    1    2  502    0  0.25890425969E+02 -0.91472759165E+02  0.24851936843E+04  0.24870113044E+04  0.00000000000E+00 0. -1.
         22    1    3    3    0    0  0.20720899697E+02  0.11137164512E+02  0.14928231896E+03  0.15112446153E+03  0.00000000000E+00 0.  1.
         22    1    3    3    0    0 -0.36849997213E+02  0.10666895095E+03  0.92617964655E+02  0.14599409155E+03  0.00000000000E+00 0.  1.
</event>
<event>
 7    1  0.5139898E-006  0.7278892E+02  0.7818608E-02  0.1393150E+00
          2   -1    0    0  502    0  0.00000000000E+00  0.00000000000E+00  0.25861735041E+04  0.25861735041E+04  0.00000000000E+00 0. -1.
          1   -1    0    0  501    0 -0.00000000000E+00 -0.00000000000E+00 -0.10161630186E+03  0.10161630186E+03  0.00000000000E+00 0. -1.
         25    2    1    2    0    0  0.29369298134E+02  0.49863191965E+02  0.14047725538E+03  0.19674151296E+03  0.12499788021E+03 0.  0.
          2    1    1    2  501    0  0.15634716210E+02 -0.74566784011E+02 -0.53387284112E+02  0.93031455614E+02  0.00000000000E+00 0. -1.
          1    1    1    2  502    0 -0.45004014344E+02  0.24703592046E+02  0.23974672310E+04  0.23980168374E+04  0.00000000000E+00 0. -1.
         22    1    3    3    0    0  0.11476689393E+02 -0.42303674645E+02  0.46409862882E+02  0.63837220026E+02  0.00000000000E+00 0. -1.
         22    1    3    3    0    0  0.17892608742E+02  0.92166866610E+02  0.94067392499E+02  0.13290429293E+03  0.00000000000E+00 0. -1.
</event>
<event>
 7    1  0.5139898E-006  0.8606756E+02  0.7818608E-02  0.1454433E+00
          2   -1    0    0  502    0  0.00000000000E+00  0.00000000000E+00  0.30234892509E+03  0.30234892509E+03  0.00000000000E+00 0. -1.
          1   -1    0    0  501    0 -0.00000000000E+00 -0.00000000000E+00 -0.92313872692E+03  0.92313872692E+03  0.00000000000E+00 0. -1.
         25    2    1    2    0    0  0.15794550773E+02 -0.10245195388E+03 -0.53131215724E+02  0.17085839235E+03  0.12499517376E+03 0.  0.
          2    1    1    2  501    0 -0.30734697231E+02  0.79764534703E+02 -0.80812497946E+03  0.81263336446E+03  0.00000000000E+00 0. -1.
          1    1    1    2  502    0  0.14940146459E+02  0.22687419177E+02  0.24046639334E+03  0.24199589520E+03  0.00000000000E+00 0. -1.
         22    1    3    3    0    0  0.44544603557E+02 -0.78932506355E+02 -0.83228271827E+02  0.12305083298E+03  0.00000000000E+00 0.  1.
         22    1    3    3    0    0 -0.28750052784E+02 -0.23519447526E+02  0.30097056103E+02  0.47807559372E+02  0.00000000000E+00 0.  1.
</event>
<event>
 7    1  0.5139898E-006  0.2567773E+03  0.7818608E-02  0.1133190E+00
          2   -1    0    0  502    0  0.00000000000E+00  0.00000000000E+00  0.27488430935E+04  0.27488430935E+04  0.00000000000E+00 0. -1.
          1   -1    0    0  501    0 -0.00000000000E+00 -0.00000000000E+00 -0.40276817646E+03  0.40276817646E+03  0.00000000000E+00 0. -1.
         25    2    1    2    0    0  0.27628477870E+03 -0.77864607971E+02  0.11973401155E+04  0.12375957987E+04  0.12499533125E+03 0.  0.
          2    1    1    2  501    0 -0.14387153803E+03  0.21425244792E+03 -0.33234838922E+03  0.42078329662E+03  0.00000000000E+00 0. -1.
          1    1    1    2  502    0 -0.13241324067E+03 -0.13638783995E+03  0.14810831908E+04  0.14932321746E+04  0.00000000000E+00 0. -1.
         22    1    3    3    0    0  0.24282815886E+03 -0.61165219022E+02  0.79461489522E+03  0.83313836214E+03  0.00000000000E+00 0. -1.
         22    1    3    3    0    0  0.33456619840E+02 -0.16699388949E+02  0.40272522025E+03  0.40445743661E+03  0.00000000000E+00 0. -1.
</event>
<event>
 7    1  0.5139898E-006  0.7435122E+02  0.7818608E-02  0.1411758E+00
          2   -1    0    0  502    0  0.00000000000E+00  0.00000000000E+00  0.89465830037E+02  0.89465830037E+02  0.00000000000E+00 0. -1.
          1   -1    0    0  501    0 -0.00000000000E+00 -0.00000000000E+00 -0.10327161166E+04  0.10327161166E+04  0.00000000000E+00 0. -1.
         25    2    1    2    0    0 -0.10918870360E+03  0.64868963475E+01 -0.46436452412E+03  0.49318088555E+03  0.12501488628E+03 0.  0.
          2    1    1    2  501    0  0.37607629454E+02 -0.21655554724E+02 -0.53502088059E+03  0.53677801698E+03  0.00000000000E+00 0. -1.
          1    1    1    2  502    0  0.71581074145E+02  0.15168658376E+02  0.56135118156E+02  0.92223044100E+02  0.00000000000E+00 0. -1.
         22    1    3    3    0    0 -0.11673119141E+03 -0.15500510145E+02 -0.23710984570E+03  0.26474046874E+03  0.00000000000E+00 0.  1.
         22    1    3    3    0    0  0.75424878106E+01  0.21987406493E+02 -0.22725467842E+03  0.22844041681E+03  0.00000000000E+00 0.  1.
</event>
<event>
 7    1  0.5139898E-006  0.4696426E+02  0.7818608E-02  0.1564149E+00
          2   -1    0    0  502    0  0.00000000000E+00  0.00000000000E+00  0.43344594739E+03  0.43344594739E+03  0.00000000000E+00 0. -1.
          1   -1    0    0  501    0 -0.00000000000E+00 -0.00000000000E+00 -0.20388644906E+03  0.20388644906E+03  0.00000000000E+00 0. -1.
         25    2    1    2    0    0  0.16211248407E+02  0.32110620818E+02  0.14724622737E+02  0.13090304802E+03  0.12499958769E+03 0.  0.
          2    1    1    2  501    0 -0.18058268372E+02  0.15231948406E+02 -0.14326958791E+03  0.14520429790E+03  0.00000000000E+00 0. -1.
          1    1    1    2  502    0  0.18470199649E+01 -0.47342569223E+02  0.35810446350E+03  0.36122505052E+03  0.00000000000E+00 0. -1.
         22    1    3    3    0    0  0.33480771474E+02  0.52947652187E+02 -0.36835191667E+02  0.72672190526E+02  0.00000000000E+00 0.  1.
         22    1    3    3    0    0 -0.17269523067E+02 -0.20837031370E+02  0.51559814405E+02  0.58230857496E+02  0.00000000000E+00 0.  1.
</event>
<event>
 7    1  0.5139898E-006  0.1029660E+03  0.7818608E-02  0.1291957E+00
          2   -1    0    0  502    0  0.00000000000E+00  0.00000000000E+00  0.34130089488E+03  0.34130089488E+03  0.00000000000E+00 0. -1.
          1   -1    0    0  501    0 -0.00000000000E+00 -0.00000000000E+00 -0.39276838063E+03  0.39276838063E+03  0.00000000000E+00 0. -1.
         25    2    1    2    0    0 -0.10343528107E+03  0.97229621739E+00  0.39532149005E+01  0.16229913094E+03  0.12500230905E+03 0.  0.
          2    1    1    2  501    0  0.69231560969E+02 -0.80981407971E+02 -0.29671665716E+03  0.31526460649E+03  0.00000000000E+00 0. -1.
          1    1    1    2  502    0  0.34203720102E+02  0.80009111754E+02  0.24129595651E+03  0.25650553807E+03  0.00000000000E+00 0. -1.
         22    1    3    3    0    0 -0.48228767062E+02 -0.76109425381E+01 -0.60015025484E+02  0.77367588191E+02  0.00000000000E+00 0.  1.
         22    1    3    3    0    0 -0.55206514009E+02  0.85832387555E+01  0.63968240385E+02  0.84931542753E+02  0.00000000000E+00 0.  1.
</event>
<event>
 7    1  0.5139898E-006  0.1364953E+03  0.7818608E-02  0.1292053E+00
          2   -1    0    0  502    0  0.00000000000E+00  0.00000000000E+00  0.63581881687E+02  0.63581881687E+02  0.00000000000E+00 0. -1.
          1   -1    0    0  501    0 -0.00000000000E+00 -0.00000000000E+00 -0.10455196139E+04  0.10455196139E+04  0.00000000000E+00 0. -1.
         25    2    1    2    0    0  0.14672171879E+03  0.63962698946E+02 -0.26950200505E+03  0.33745568281E+03  0.12500606990E+03 0.  0.
          2    1    1    2  501    0 -0.13412196938E+03  0.39552003698E+00 -0.68911019695E+03  0.70204111179E+03  0.00000000000E+00 0. -1.
          1    1    1    2  502    0 -0.12599749410E+02 -0.64358218983E+02 -0.23325530171E+02  0.69604700945E+02  0.00000000000E+00 0. -1.
         22    1    3    3    0    0 -0.74663814784E+00 -0.28625419983E+02 -0.45067886218E+02  0.53395566350E+02  0.00000000000E+00 0. -1.
         22    1    3    3    0    0  0.14746835694E+03  0.92588118929E+02 -0.22443411883E+03  0.28406011646E+03  0.00000000000E+00 0. -1.
</event>
<event>
 7    1  0.5139898E-006  0.1577978E+03  0.7818608E-02  0.1325488E+00
          2   -1    0    0  502    0  0.00000000000E+00  0.00000000000E+00  0.14021388231E+04  0.14021388231E+04  0.00000000000E+00 0. -1.
          1   -1    0    0  501    0 -0.00000000000E+00 -0.00000000000E+00 -0.35615625996E+03  0.35615625996E+03  0.00000000000E+00 0. -1.
         25    2    1    2    0    0  0.13460677378E+03  0.95027138639E+02  0.10725087487E+03  0.23297472033E+03  0.12500131811E+03 0.  0.
          2    1    1    2  501    0 -0.10142018412E+03 -0.12053245564E+03 -0.27175530210E+03  0.31410996614E+03  0.00000000000E+00 0. -1.
          1    1    1    2  502    0 -0.33186589659E+02  0.25505316996E+02  0.12104869904E+04  0.12112103966E+04  0.00000000000E+00 0. -1.
         22    1    3    3    0    0  0.11639715483E+03  0.12184389872E+03  0.10870558119E+03  0.20052714702E+03  0.00000000000E+00 0.  1.
         22    1    3    3    0    0  0.18209618947E+02 -0.26816760081E+02 -0.14547063277E+01  0.32447573314E+02  0.00000000000E+00 0.  1.
</event>
<event>
 7    1  0.5139898E-006  0.4431476E+02  0.7818608E-02  0.1488454E+00
          2   -1    0    0  502    0  0.00000000000E+00  0.00000000000E+00  0.62387876486E+03  0.62387876486E+03  0.00000000000E+00 0. -1.
          1   -1    0    0  501    0 -0.00000000000E+00 -0.00000000000E+00 -0.12417127944E+03  0.12417127944E+03  0.00000000000E+00 0. -1.
         25    2    1    2    0    0  0.70931368376E+02  0.41735720924E+01  0.31592789217E+02  0.14721244343E+03  0.12499888578E+03 0.  0.
          2    1    1    2  501    0 -0.35076624725E+02 -0.24808037511E+02 -0.58510626390E+02  0.72589956108E+02  0.00000000000E+00 0. -1.
          1    1    1    2  502    0 -0.35854743650E+02  0.20634465418E+02  0.52662532259E+03  0.52824764477E+03  0.00000000000E+00 0. -1.
         22    1    3    3    0    0  0.25827163073E+02 -0.43447755028E+02 -0.28696587389E+02  0.58122662509E+02  0.00000000000E+00 0. -1.
         22    1    3    3    0    0  0.45104205303E+02  0.47621327120E+02  0.60289376606E+02  0.89089780919E+02  0.00000000000E+00 0. -1.
</event>
<event>
 7    1  0.5139898E-006  0.8041335E+02  0.7818608E-02  0.1395901E+00
          2   -1    0    0  502    0  0.00000000000E+00  0.00000000000E+00  0.87583674948E+03  0.87583674948E+03  0.00000000000E+00 0. -1.
          1   -1    0    0  501    0 -0.00000000000E+00 -0.00000000000E+00 -0.41737129331E+03  0.41737129331E+03  0.00000000000E+00 0. -1.
         25    2    1    2    0    0  0.73721634140E+02 -0.46401690331E+01  0.48654291201E+03  0.50774644636E+03  0.12500415212E+03 0.  0.
          2    1    1    2  501    0 -0.69570260181E+02 -0.40631575260E+02 -0.40138764317E+03  0.40939343680E+03  0.00000000000E+00 0. -1.
          1    1    1    2  502    0 -0.41513739591E+01  0.45271744293E+02  0.37331018731E+03  0.37606815963E+03  0.00000000000E+00 0. -1.
         22    1    3    3    0    0  0.64035992516E+02 -0.59026566035E+01  0.49225066474E+03  0.49643344632E+03  0.00000000000E+00 0. -1.
         22    1    3    3    0    0  0.96856416233E+01  0.12624875704E+01 -0.57077527264E+01  0.11313000031E+02  0.00000000000E+00 0. -1.
</event>
<event>
 7    1  0.6793229E-006  0.1008449E+03  0.7818608E-02  0.1405048E+00
          2   -1    0    0  502    0  0.00000000000E+00  0.00000000000E+00  0.14759675812E+04  0.14759675812E+04  0.00000000000E+00 0. -1.
          1   -1    0    0  501    0 -0.00000000000E+00 -0.00000000000E+00 -0.86658053098E+03  0.86658053098E+03  0.00000000000E+00 0. -1.
         25    2    1    2    0    0  0.35815977063E+02 -0.11661696732E+03 -0.40347253596E+03  0.43965604469E+03  0.12500019633E+03 0.  0.
          2    1    1    2  501    0 -0.29664021227E+02  0.16033458316E+02 -0.44263282421E+03  0.44391535569E+03  0.00000000000E+00 0. -1.
          1    1    1    2  502    0 -0.61519558357E+01  0.10058350900E+03  0.14554924104E+04  0.14589767118E+04  0.00000000000E+00 0. -1.
         22    1    3    3    0    0 -0.37743273007E+02 -0.52401605978E+02 -0.24626561428E+03  0.25459229317E+03  0.00000000000E+00 0.  1.
         22    1    3    3    0    0  0.73559250070E+02 -0.64215361338E+02 -0.15720692168E+03  0.18506375152E+03  0.00000000000E+00 0.  1.
</event>
<event>
 7    1  0.5139898E-006  0.4712253E+02  0.7818608E-02  0.1527557E+00
          2   -1    0    0  502    0  0.00000000000E+00  0.00000000000E+00  0.39140580815E+03  0.39140580815E+03  0.00000000000E+00 0. -1.
          1   -1    0    0  501    0 -0.00000000000E+00 -0.00000000000E+00 -0.39361517898E+02  0.39361517898E+02  0.00000000000E+00 0. -1.
         25    2    1    2    0    0 -0.24957466335E+02 -0.20477330961E+02  0.13341398471E+03  0.18565058516E+03  0.12499860897E+03 0.  0.
          2    1    1    2  501    0  0.12154636661E+02 -0.27233546330E+02  0.11153520369E+02  0.31840261536E+02  0.00000000000E+00 0. -1.
          1    1    1    2  502    0  0.12802829674E+02  0.47710877291E+02  0.20747678518E+03  0.21327647936E+03  0.00000000000E+00 0. -1.
         22    1    3    3    0    0 -0.57719207091E+02  0.32649093138E+02  0.75742131462E+02  0.10066946224E+03  0.00000000000E+00 0.  1.
         22    1    3    3    0    0  0.32761740757E+02 -0.53126424099E+02  0.57671853245E+02  0.84981122913E+02  0.00000000000E+00 0.  1.
</event>
<event>
 7    1  0.5139898E-006  0.7438595E+02  0.7818608E-02  0.1383164E+00
          2   -1    0    0  502    0  0.00000000000E+00  0.00000000000E+00  0.20403335694E+04  0.20403335694E+04  0.00000000000E+00 0. -1.
          1   -1    0    0  501    0 -0.00000000000E+00 -0.00000000000E+00 -0.23403993813E+04  0.23403993813E+04  0.00000000000E+00 0. -1.
         25    2    1    2    0    0  0.74392937977E+01  0.26927099105E+02  0.19946088028E+03  0.23704178055E+03  0.12499500471E+03 0.  0.
          2    1    1    2  501    0 -0.27670807081E+02  0.46889709217E+02 -0.23204856871E+04  0.23211243273E+04  0.00000000000E+00 0. -1.
          1    1    1    2  502    0  0.20231513283E+02 -0.73816808322E+02  0.18209589950E+04  0.18225668429E+04  0.00000000000E+00 0. -1.
         22    1    3    3    0    0  0.45181530495E+02 -0.85116981661E+01  0.19779634299E+02  0.50050510852E+02  0.00000000000E+00 0.  1.
         22    1    3    3    0    0 -0.37742236697E+02  0.35438797271E+02  0.17968124599E+03  0.18699126969E+03  0.00000000000E+00 0.  1.
</event>
<event>
 7    1  0.5139898E-006  0.1294199E+03  0.7818608E-02  0.1229036E+00
          2   -1    0    0  502    0  0.00000000000E+00  0.00000000000E+00  0.92107498257E+03  0.92107498257E+03  0.00000000000E+00 0. -1.
          1   -1    0    0  501    0 -0.00000000000E+00 -0.00000000000E+00 -0.85464261571E+03  0.85464261571E+03  0.00000000000E+00 0. -1.
         25    2    1    2    0    0  0.88476498085E+02  0.65324184455E+02  0.27374577477E+03  0.32040034327E+03  0.12499716387E+03 0.  0.
          2    1    1    2  501    0 -0.11619081008E+03  0.60114556605E+02 -0.81945986135E+03  0.82983644691E+03  0.00000000000E+00 0. -1.
          1    1    1    2  502    0  0.27714311997E+02 -0.12543874106E+03  0.61214645343E+03  0.62548080810E+03  0.00000000000E+00 0. -1.
         22    1    3    3    0    0 -0.38408600286E+01  0.72387506706E+02  0.14118488883E+03  0.15870688759E+03  0.00000000000E+00 0.  1.
         22    1    3    3    0    0  0.92317358114E+02 -0.70633222508E+01  0.13256088594E+03  0.16169345568E+03  0.00000000000E+00 0.  1.
</event>
<event>
 7    1  0.5139898E-006  0.1079666E+03  0.7818608E-02  0.1304542E+00
          2   -1    0    0  502    0  0.00000000000E+00  0.00000000000E+00  0.11328346757E+04  0.11328346757E+04  0.00000000000E+00 0. -1.
          1   -1    0    0  501    0 -0.00000000000E+00 -0.00000000000E+00 -0.10235577227E+04  0.10235577227E+04  0.00000000000E+00 0. -1.
         25    2    1    2    0    0 -0.25732259001E+02  0.12127334123E+03  0.18264259571E+00  0.17605265485E+03  0.12500052590E+03 0.  0.
          2    1    1    2  501    0  0.70301797462E+02 -0.22680194821E+02 -0.93135486693E+03  0.93427973440E+03  0.00000000000E+00 0. -1.
          1    1    1    2  502    0 -0.44569538462E+02 -0.98593146411E+02  0.10404491773E+04  0.10460600092E+04  0.00000000000E+00 0. -1.
         22    1    3    3    0    0  0.11105849883E+02 -0.21714227156E+02  0.13360386063E+02  0.27809125811E+02  0.00000000000E+00 0. -1.
         22    1    3    3    0    0 -0.36838108884E+02  0.14298756839E+03 -0.13177743468E+02  0.14824352904E+03  0.00000000000E+00 0. -1.
</event>
<event>
 7    1  0.5139898E-006  0.3687737E+02  0.7818608E-02  0.1562257E+00
          2   -1    0    0  502    0  0.00000000000E+00  0.00000000000E+00  0.98161837956E+03  0.98161837956E+03  0.00000000000E+00 0. -1.
          1   -1    0    0  501    0 -0.00000000000E+00 -0.00000000000E+00 -0.27004522997E+03  0.27004522997E+03  0.00000000000E+00 0. -1.
         25    2    1    2    0    0  0.36601293003E+02  0.34641559663E+02  0.32706762108E+03  0.35374757326E+03  0.12499769809E+03 0.  0.
          2    1    1    2  501    0 -0.62008535679E+01 -0.36338573312E+02 -0.25501773740E+03  0.25766836997E+03  0.00000000000E+00 0. -1.
          1    1    1    2  502    0 -0.30400439435E+02  0.16970136488E+01  0.63952326591E+03  0.64024766631E+03  0.00000000000E+00 0. -1.
         22    1    3    3    0    0 -0.30385053509E+02  0.20326154291E+02  0.25683308959E+02  0.44677022999E+02  0.00000000000E+00 0.  1.
         22    1    3    3    0    0  0.66986346512E+02  0.14315405372E+02  0.30138431212E+03  0.30907055026E+03  0.00000000000E+00 0.  1.
</event>
<event>
 7    1  0.5139898E-006  0.2897287E+03  0.7818608E-02  0.1252734E+00
          2   -1    0    0  502    0  0.00000000000E+00  0.00000000000E+00  0.17745649572E+04  0.17745649572E+04  0.00000000000E+00 0. -1.
          1   -1    0    0  501    0 -0.00000000000E+00 -0.00000000000E+00 -0.63617182516E+03  0.63617182516E+03  0.00000000000E+00 0. -1.
         25    2    1    2    0    0  0.25859632926E+03 -0.47611395233E+02  0.54955637955E+03  0.62191321936E+03  0.12499972657E+03 0.  0.
          2    1    1    2  501    0  0.43617597859E+02  0.11566503618E+02 -0.57962231638E+03  0.58137621940E+03  0.00000000000E+00 0. -1.
          1    1    1    2  502    0 -0.30221392712E+03  0.36044891615E+02  0.11684590689E+04  0.12074473436E+04  0.00000000000E+00 0. -1.
         22    1    3    3    0    0  0.15886385175E+03 -0.25539705989E+01  0.19886053858E+03  0.25453832710E+03  0.00000000000E+00 0.  1.
         22    1    3    3    0    0  0.99732477506E+02 -0.45057424634E+02  0.35069584097E+03  0.36737489226E+03  0.00000000000E+00 0.  1.
</event>
<event>
 7    1  0.5139898E-006  0.1351417E+03  0.7818608E-02  0.1380908E+00
          2   -1    0    0  502    0  0.00000000000E+00  0.00000000000E+00  0.49697301599E+03  0.49697301599E+03  0.00000000000E+00 0. -1.
          1   -1    0    0  501    0 -0.00000000000E+00 -0.00000000000E+00 -0.95560897448E+03  0.95560897448E+03  0.00000000000E+00 0. -1.
         25    2    1    2    0    0  0.84540866069E+02 -0.65632315327E+02  0.15081016520E+02  0.16525316501E+03  0.12500565042E+03 0.  0.
          2    1    1    2  501    0 -0.11253358746E+03  0.77800354806E+02 -0.87462518415E+03  0.88526036637E+03  0.00000000000E+00 0. -1.
          1    1    1    2  502    0  0.27992721390E+02 -0.12168039479E+02  0.40090820914E+03  0.40206845909E+03  0.00000000000E+00 0. -1.
         22    1    3    3    0    0 -0.55288015373E+00 -0.19757387282E+02 -0.46573483141E+02  0.50593965653E+02  0.00000000000E+00 0. -1.
         22    1    3    3    0    0  0.85093746223E+02 -0.45874928045E+02  0.61654499661E+02  0.11465919936E+03  0.00000000000E+00 0. -1.
</event>
<event>
 7    1  0.5139898E-006  0.6333830E+02  0.7818608E-02  0.1486320E+00
          2   -1    0    0  502    0  0.00000000000E+00  0.00000000000E+00  0.46247084086E+02  0.46247084086E+02  0.00000000000E+00 0. -1.
          1   -1    0    0  501    0 -0.00000000000E+00 -0.00000000000E+00 -0.32926456959E+04  0.32926456959E+04  0.00000000000E+00 0. -1.
         25    2    1    2    0    0  0.73627563391E+02 -0.22308498160E+02 -0.95267798110E+03  0.96391816008E+03  0.12499678581E+03 0.  0.
          2    1    1    2  501    0 -0.62490789062E+02 -0.48773101925E+01 -0.23285590761E+04  0.23294025539E+04  0.00000000000E+00 0. -1.
          1    1    1    2  502    0 -0.11136774329E+02  0.27185808353E+02  0.34838445465E+02  0.45572066013E+02  0.00000000000E+00 0. -1.
         22    1    3    3    0    0  0.29052667197E+01  0.63795305067E+00 -0.71224731399E+03  0.71225352497E+03  0.00000000000E+00 0.  1.
         22    1    3    3    0    0  0.70722296672E+02 -0.22946451211E+02 -0.24043066712E+03  0.25166463510E+03  0.00000000000E+00 0.  1.
</event>
<event>
 7    1  0.5139898E-006  0.1192851E+03  0.7818608E-02  0.1390898E+00
          2   -1    0    0  502    0  0.00000000000E+00  0.00000000000E+00  0.90245241244E+03  0.90245241244E+03  0.00000000000E+00 0. -1.
          1   -1    0    0  501    0 -0.00000000000E+00 -0.00000000000E+00 -0.83090531034E+03  0.83090531034E+03  0.00000000000E+00 0. -1.
         25    2    1    2    0    0 -0.17874502862E+02  0.14977563129E+03  0.44420653912E+03  0.48548627734E+03  0.12500095404E+03 0.  0.
          2    1    1    2  501    0  0.12563409248E+02 -0.11832335948E+03 -0.80530674662E+03  0.81404988348E+03  0.00000000000E+00 0. -1.
          1    1    1    2  502    0  0.53110936137E+01 -0.31452271811E+02  0.43264730959E+03  0.43382156195E+03  0.00000000000E+00 0. -1.
         22    1    3    3    0    0  0.34394400660E+02  0.31182920880E+02  0.23382863552E+03  0.23839291126E+03  0.00000000000E+00 0.  1.
         22    1    3    3    0    0 -0.52268903522E+02  0.11859271041E+03  0.21037790360E+03  0.24709336608E+03  0.00000000000E+00 0.  1.
</event>
<event>
 7    1  0.5139898E-006  0.1134323E+03  0.7818608E-02  0.1298495E+00
          2   -1    0    0  502    0  0.00000000000E+00  0.00000000000E+00  0.84974266702E+03  0.84974266702E+03  0.00000000000E+00 0. -1.
          1   -1    0    0  501    0 -0.00000000000E+00 -0.00000000000E+00 -0.83306489384E+02  0.83306489384E+02  0.00000000000E+00 0. -1.
         25    2    1    2    0    0  0.64676911350E+01 -0.97615019134E+02  0.81911880998E+02  0.17862256070E+03  0.12500375976E+03 0.  0.
          2    1    1    2  501    0 -0.78433954088E+02  0.11621680334E+03  0.11859954987E+03  0.18364118210E+03  0.00000000000E+00 0. -1.
          1    1    1    2  502    0  0.71966262953E+02 -0.18601784211E+02  0.56592474677E+03  0.57078541361E+03  0.00000000000E+00 0. -1.
         22    1    3    3    0    0 -0.20432795481E+01 -0.55804415123E+02 -0.26724622822E+02  0.61907295237E+02  0.00000000000E+00 0. -1.
         22    1    3    3    0    0  0.85109706832E+01 -0.41810604011E+02  0.10863650382E+03  0.11671526546E+03  0.00000000000E+00 0. -1.
</event>
<event>
 7    1  0.5139898E-006  0.8094826E+02  0.7818608E-02  0.1332857E+00
          2   -1    0    0  502    0  0.00000000000E+00  0.00000000000E+00  0.89511467536E+03  0.89511467536E+03  0.00000000000E+00 0. -1.
          1   -1    0    0  501    0 -0.00000000000E+00 -0.00000000000E+00 -0.14035836996E+04  0.14035836996E+04  0.00000000000E+00 0. -1.
         25    2    1    2    0    0 -0.84643817417E+02 -0.46336576169E+01  0.65857795344E+03  0.67567876842E+03  0.12502332074E+03 0.  0.
          2    1    1    2  501    0  0.27990173159E+02 -0.71156267543E+02 -0.13841141160E+04  0.13862245670E+04  0.00000000000E+00 0. -1.
          1    1    1    2  502    0  0.56653644258E+02  0.75789925160E+02  0.21706713834E+03  0.23679503946E+03  0.00000000000E+00 0. -1.
         22    1    3    3    0    0 -0.27610840760E+02  0.58770477456E+02  0.32039794047E+03  0.32691155961E+03  0.00000000000E+00 0.  1.
         22    1    3    3    0    0 -0.57032976657E+02 -0.63404135073E+02  0.33818001297E+03  0.34876720881E+03  0.00000000000E+00 0.  1.
</event>
<event>
 7    1  0.5139898E-006  0.5127073E+02  0.7818608E-02  0.1490121E+00
          2   -1    0    0  502    0  0.00000000000E+00  0.00000000000E+00  0.72822859608E+03  0.72822859608E+03  0.00000000000E+00 0. -1.
          1   -1    0    0  501    0 -0.00000000000E+00 -0.00000000000E+00 -0.37637647525E+02  0.37637647525E+02  0.00000000000E+00 0. -1.
         25    2    1    2    0    0 -0.40644405301E+02  0.19090562823E+02  0.14463794422E+03  0.19637089791E+03  0.12499990947E+03 0.  0.
          2    1    1    2  501    0  0.20314866376E+02  0.28920721209E+02  0.19302252118E+02  0.40270073850E+02  0.00000000000E+00 0. -1.
          1    1    1    2  502    0  0.20329538926E+02 -0.48011284031E+02  0.52665075222E+03  0.52922527184E+03  0.00000000000E+00 0. -1.
         22    1    3    3    0    0 -0.11220165374E+01  0.57453629164E+02  0.12555297466E+03  0.13807870173E+03  0.00000000000E+00 0. -1.
         22    1    3    3    0    0 -0.39522388764E+02 -0.38363066341E+02  0.19084969561E+02  0.58292196183E+02  0.00000000000E+00 0. -1.
</event>
<event>
 7    1  0.5139898E-006  0.1195013E+03  0.7818608E-02  0.1292050E+00
          2   -1    0    0  502    0  0.00000000000E+00  0.00000000000E+00  0.75514053016E+03  0.75514053016E+03  0.00000000000E+00 0. -1.
          1   -1    0    0  501    0 -0.00000000000E+00 -0.00000000000E+00 -0.81223616274E+03  0.81223616274E+03  0.00000000000E+00 0. -1.
         25    2    1    2    0    0 -0.12469706304E+03 -0.13067014052E+03 -0.17964840462E+03  0.28376628356E+03  0.12500284495E+03 0.  0.
          2    1    1    2  501    0  0.70430269859E+02  0.25510519976E+02 -0.57309479129E+03  0.57796959206E+03  0.00000000000E+00 0. -1.
          1    1    1    2  502    0  0.54266793184E+02  0.10515962054E+03  0.69564756333E+03  0.70564081728E+03  0.00000000000E+00 0. -1.
         22    1    3    3    0    0 -0.14111928132E+03 -0.13749699068E+03 -0.17863599625E+03  0.26595280251E+03  0.00000000000E+00 0. -1.
         22    1    3    3    0    0  0.16422218282E+02  0.68268501555E+01 -0.10124083700E+01  0.17813481048E+02  0.00000000000E+00 0. -1.
</event>
<event>
 7    1  0.5139898E-006  0.6504361E+02  0.7818608E-02  0.1386373E+00
          2   -1    0    0  502    0  0.00000000000E+00  0.00000000000E+00  0.21538091229E+04  0.21538091229E+04  0.00000000000E+00 0. -1.
          1   -1    0    0  501    0 -0.00000000000E+00 -0.00000000000E+00 -0.24294054594E+02  0.24294054594E+02  0.00000000000E+00 0. -1.
         25    2    1    2    0    0  0.16733501271E+02  0.29633378855E+02  0.10486843455E+04  0.10566541193E+04  0.12498369504E+03 0.  0.
          2    1    1    2  501    0  0.58028669308E+02 -0.29382723752E+02  0.36774980956E+02  0.74719944734E+02  0.00000000000E+00 0. -1.
          1    1    1    2  502    0 -0.74762170579E+02 -0.25065510366E+00  0.10440557418E+04  0.10467291135E+04  0.00000000000E+00 0. -1.
         22    1    3    3    0    0  0.82582838210E+01 -0.27582078599E+02  0.82848319937E+03  0.82898334238E+03  0.00000000000E+00 0.  1.
         22    1    3    3    0    0  0.84752174503E+01  0.57215457455E+02  0.22020114614E+03  0.22767077688E+03  0.00000000000E+00 0.  1.
</event>
<event>
 7    1  0.5139898E-006  0.4292765E+02  0.7818608E-02  0.1582615E+00
          2   -1    0    0  502    0  0.00000000000E+00  0.00000000000E+00  0.67214542649E+03  0.67214542649E+03  0.00000000000E+00 0. -1.
          1   -1    0    0  501    0 -0.00000000000E+00 -0.00000000000E+00 -0.51755569003E+03  0.51755569003E+03  0.00000000000E+00 0. -1.
         25    2    1    2    0    0 -0.15766607140E+02 -0.47875538868E+02 -0.13913788375E+03  0.19371411281E+03  0.12500061473E+03 0.  0.
          2    1    1    2  501    0  0.22379396564E+02  0.54688583271E+01 -0.35003648416E+03  0.35079379419E+03  0.00000000000E+00 0. -1.
          1    1    1    2  502    0 -0.66127894242E+01  0.42406680541E+02  0.64376410437E+03  0.64519320952E+03  0.00000000000E+00 0. -1.
         22    1    3    3    0    0 -0.37497900618E+02 -0.84093865313E+02 -0.10269402671E+03  0.13792727741E+03  0.00000000000E+00 0. -1.
         22    1    3    3    0    0  0.21731293479E+02  0.36218326445E+02 -0.36443857049E+02  0.55786835395E+02  0.00000000000E+00 0. -1.
</event>
<event>
 7    1  0.5139898E-006  0.2815273E+03  0.7818608E-02  0.1163101E+00
          2   -1    0    0  502    0  0.00000000000E+00  0.00000000000E+00  0.28808575195E+04  0.28808575195E+04  0.00000000000E+00 0. -1.
          1   -1    0    0  501    0 -0.00000000000E+00 -0.00000000000E+00 -0.12324339165E+03  0.12324339165E+03  0.00000000000E+00 0. -1.
         25    2    1    2    0    0 -0.14918579554E+03  0.93565045882E+02  0.13428284084E+04  0.13600822702E+04  0.12499931122E+03 0.  0.
          2    1    1    2  501    0  0.24246699987E+03 -0.17141139690E+03  0.85236126474E+02  0.30892929655E+03  0.00000000000E+00 0. -1.
          1    1    1    2  502    0 -0.93281204327E+02  0.77846351022E+02  0.13295495930E+04  0.13350893445E+04  0.00000000000E+00 0. -1.
         22    1    3    3    0    0 -0.29614690803E+02 -0.34772388137E+01  0.50766866537E+02  0.58876105842E+02  0.00000000000E+00 0. -1.
         22    1    3    3    0    0 -0.11957110474E+03  0.97042284695E+02  0.12920615419E+04  0.13012061643E+04  0.00000000000E+00 0. -1.
</event>
<event>
 7    1  0.5139898E-006  0.1567424E+03  0.7818608E-02  0.1238428E+00
          2   -1    0    0  502    0  0.00000000000E+00  0.00000000000E+00  0.21949894828E+04  0.21949894828E+04  0.00000000000E+00 0. -1.
          1   -1    0    0  501    0 -0.00000000000E+00 -0.00000000000E+00 -0.14021000688E+03  0.14021000688E+03  0.00000000000E+00 0. -1.
         25    2    1    2    0    0 -0.45243221096E+02 -0.21072598410E+03  0.12411420946E+04  0.12658997871E+04  0.12496472539E+03 0.  0.
          2    1    1    2  501    0 -0.23118774170E+02  0.93510162253E+02 -0.10395836560E+03  0.14172497995E+03  0.00000000000E+00 0. -1.
          1    1    1    2  502    0  0.68361995267E+02  0.11721582184E+03  0.91759574696E+03  0.92757472266E+03  0.00000000000E+00 0. -1.
         22    1    3    3    0    0  0.34982783293E+01 -0.15372108267E+03  0.56288081857E+03  0.58350426316E+03  0.00000000000E+00 0. -1.
         22    1    3    3    0    0 -0.48741499426E+02 -0.57004901430E+02  0.67826127600E+03  0.68239552392E+03  0.00000000000E+00 0. -1.
</event>
<event>
 7    1  0.5139898E-006  0.9189569E+02  0.7818608E-02  0.1303972E+00
          2   -1    0    0  502    0  0.00000000000E+00  0.00000000000E+00  0.14394524811E+04  0.14394524811E+04  0.00000000000E+00 0. -1.
          1   -1    0    0  501    0 -0.00000000000E+00 -0.00000000000E+00 -0.14425371843E+04  0.14425371843E+04  0.00000000000E+00 0. -1.
         25    2    1    2    0    0  0.20861060855E+02  0.12805536283E+03 -0.76050356656E+02  0.19555226635E+03  0.12499468916E+03 0.  0.
          2    1    1    2  501    0  0.50960177650E+02 -0.70811891842E+02 -0.13037479601E+04  0.13066636933E+04  0.00000000000E+00 0. -1.
          1    1    1    2  502    0 -0.71821238505E+02 -0.57243470983E+02  0.13767136136E+04  0.13797737058E+04  0.00000000000E+00 0. -1.
         22    1    3    3    0    0  0.15830266948E+01  0.11660842957E+03 -0.10636987684E+03  0.15784353810E+03  0.00000000000E+00 0.  1.
         22    1    3    3    0    0  0.19278034160E+02  0.11446933260E+02  0.30319520188E+02  0.37708728254E+02  0.00000000000E+00 0.  1.
</event>
<event>
 7    1  0.5139898E-006  0.6133397E+02  0.7818608E-02  0.1424339E+00
          2   -1    0    0  502    0  0.00000000000E+00  0.00000000000E+00  0.35354009861E+04  0.35354009861E+04  0.00000000000E+00 0. -1.
          1   -1    0    0  501    0 -0.00000000000E+00 -0.00000000000E+00 -0.49768955380E+02  0.49768955380E+02  0.00000000000E+00 0. -1.
         25    2    1    2    0    0  0.24266208999E+02  0.12760252476E+02  0.13585235436E+04  0.13645370557E+04  0.12499393953E+03 0.  0.
          2    1    1    2  501    0 -0.16220631339E+02 -0.59820348467E+02 -0.25842790627E+02  0.67152310453E+02  0.00000000000E+00 0. -1.
          1    1    1    2  502    0 -0.80455776602E+01  0.47060095991E+02  0.21529512777E+04  0.21534805753E+04  0.00000000000E+00 0. -1.
         22    1    3    3    0    0  0.75309774842E+02  0.12600314068E+02  0.75025357622E+03  0.75412913929E+03  0.00000000000E+00 0. -1.
         22    1    3    3    0    0 -0.51043565843E+02  0.15993840847E+00  0.60826996736E+03  0.61040791638E+03  0.00000000000E+00 0. -1.
</event>
<event>
 7    1  0.5139898E-006  0.1125239E+03  0.7818608E-02  0.1335988E+00
          2   -1    0    0  502    0  0.00000000000E+00  0.00000000000E+00  0.11553319157E+04  0.11553319157E+04  0.00000000000E+00 0. -1.
          1   -1    0    0  501    0 -0.00000000000E+00 -0.00000000000E+00 -0.20787742024E+03  0.20787742024E+03  0.00000000000E+00 0. -1.
         25    2    1    2    0    0 -0.54638321184E+01  0.96662392786E+02 -0.99835378274E+02  0.18698638452E+03  0.12499333422E+03 0.  0.
          2    1    1    2  501    0  0.39307945107E+02 -0.13812620672E+03  0.17078747432E+02  0.14462242960E+03  0.00000000000E+00 0. -1.
          1    1    1    2  502    0 -0.33844112989E+02  0.41463813931E+02  0.10302111263E+04  0.10316005218E+04  0.00000000000E+00 0. -1.
         22    1    3    3    0    0 -0.13610374220E+02  0.97924585968E+02 -0.12565287304E+03  0.15988468133E+03  0.00000000000E+00 0.  1.
         22    1    3    3    0    0  0.81465421016E+01 -0.12621931811E+01  0.25817494761E+02  0.27101703186E+02  0.00000000000E+00 0.  1.
</event>
<event>
 7    1  0.5139898E-006  0.7163900E+02  0.7818608E-02  0.1452823E+00
          2   -1    0    0  502    0  0.00000000000E+00  0.00000000000E+00  0.13609166666E+04  0.13609166666E+04  0.00000000000E+00 0. -1.
          1   -1    0    0  501    0 -0.00000000000E+00 -0.00000000000E+00 -0.39691713451E+03  0.39691713451E+03  0.00000000000E+00 0. -1.
         25    2    1    2    0    0 -0.76784963058E+01  0.38518337189E+02  0.19286015599E+03  0.23314688993E+03  0.12497924192E+03 0.  0.
          2    1    1    2  501    0  0.18038579062E+02 -0.69874494533E+02 -0.37307781355E+03  0.37999327663E+03  0.00000000000E+00 0. -1.
          1    1    1    2  502    0 -0.10360082756E+02  0.31356157344E+02  0.11442171897E+04  0.11446936346E+04  0.00000000000E+00 0. -1.
         22    1    3    3    0    0  0.24087911878E+02  0.12055005127E+01  0.18116987735E+03  0.18276817335E+03  0.00000000000E+00 0. -1.
         22    1    3    3    0    0 -0.31766408184E+02  0.37312836676E+02  0.11690278641E+02  0.50378716582E+02  0.00000000000E+00 0. -1.
</event>
<event>
 7    1  0.5139898E-006  0.5456849E+02  0.7818608E-02  0.1513326E+00
          2   -1    0    0  502    0  0.00000000000E+00  0.00000000000E+00  0.71879897482E+03  0.71879897482E+03  0.00000000000E+00 0. -1.
          1   -1    0    0  501    0 -0.00000000000E+00 -0.00000000000E+00 -0.24511540066E+04  0.24511540066E+04  0.00000000000E+00 0. -1.
         25    2    1    2    0    0 -0.54471652703E+02  0.60834702940E+02 -0.62134480747E+03  0.63903218765E+03  0.12499898020E+03 0.  0.
          2    1    1    2  501    0  0.34730863918E+02 -0.40524716142E+02 -0.18202917440E+04  0.18210740015E+04  0.00000000000E+00 0. -1.
          1    1    1    2  502    0  0.19740788785E+02 -0.20309986798E+02  0.70928151971E+03  0.70984679228E+03  0.00000000000E+00 0. -1.
         22    1    3    3    0    0  0.30693416514E+02  0.19686949479E+02 -0.34556033686E+03  0.34747893203E+03  0.00000000000E+00 0.  1.
         22    1    3    3    0    0 -0.85165069217E+02  0.41147753460E+02 -0.27578447061E+03  0.29155325562E+03  0.00000000000E+00 0.  1.
</event>
<event>
 7    1  0.5139898E-006  0.1072000E+03  0.7818608E-02  0.1425795E+00
          2   -1    0    0  502    0  0.00000000000E+00  0.00000000000E+00  0.11787839347E+03  0.11787839347E+03  0.00000000000E+00 0. -1.
          1   -1    0    0  501    0 -0.00000000000E+00 -0.00000000000E+00 -0.98019029748E+03  0.98019029748E+03  0.00000000000E+00 0. -1.
         25    2    1    2    0    0  0.35477821454E+01  0.94163287383E+02 -0.17256196912E+03  0.23298444609E+03  0.12499922992E+03 0.  0.
          2    1    1    2  501    0 -0.28097187991E+02 -0.10543579499E+03 -0.77140126757E+03  0.77908027471E+03  0.00000000000E+00 0. -1.
          1    1    1    2  502    0  0.24549405846E+02  0.11272507605E+02  0.81651332679E+02  0.86003970160E+02  0.00000000000E+00 0. -1.
         22    1    3    3    0    0 -0.52023654916E+02  0.18690111320E+02 -0.31499563812E+02  0.63623922013E+02  0.00000000000E+00 0.  1.
         22    1    3    3    0    0  0.55571437061E+02  0.75473176063E+02 -0.14106240531E+03  0.16936052407E+03  0.00000000000E+00 0.  1.
</event>
<event>
 7    1  0.5139898E-006  0.5365557E+02  0.7818608E-02  0.1447575E+00
          2   -1    0    0  502    0  0.00000000000E+00  0.00000000000E+00  0.82615920771E+03  0.82615920771E+03  0.00000000000E+00 0. -1.
          1   -1    0    0  501    0 -0.00000000000E+00 -0.00000000000E+00 -0.57407249437E+03  0.57407249437E+03  0.00000000000E+00 0. -1.
         25    2    1    2    0    0  0.39548893964E+02  0.84051798737E+02 -0.23051817415E+03  0.27819410052E+03  0.12499803625E+03 0.  0.
          2    1    1    2  501    0 -0.21139649361E+01 -0.45780652267E+02 -0.31717451542E+03  0.32046842309E+03  0.00000000000E+00 0. -1.
          1    1    1    2  502    0 -0.37434929028E+02 -0.38271146471E+02  0.79977940291E+03  0.80156917847E+03  0.00000000000E+00 0. -1.
         22    1    3    3    0    0  0.19015424006E+02  0.98113248910E+02 -0.86902365433E+02  0.13243797446E+03  0.00000000000E+00 0.  1.
         22    1    3    3    0    0  0.20533469958E+02 -0.14061450172E+02 -0.14361580872E+03  0.14575612606E+03  0.00000000000E+00 0.  1.
</event>
<event>
 7    1  0.5139898E-006  0.4671943E+02  0.7818608E-02  0.1470711E+00
          2   -1    0    0  502    0  0.00000000000E+00  0.00000000000E+00  0.44914911835E+03  0.44914911835E+03  0.00000000000E+00 0. -1.
          1   -1    0    0  501    0 -0.00000000000E+00 -0.00000000000E+00 -0.24398620422E+03  0.24398620422E+03  0.00000000000E+00 0. -1.
         25    2    1    2    0    0 -0.82753138644E+02 -0.33895280199E+02  0.21568548917E+02  0.15520066344E+03  0.12500028662E+03 0.  0.
          2    1    1    2  501    0  0.38409963927E+02  0.22434317741E+02 -0.17288982258E+03  0.17852034812E+03  0.00000000000E+00 0. -1.
          1    1    1    2  502    0  0.44343174717E+02  0.11460962458E+02  0.35648418780E+03  0.35941431101E+03  0.00000000000E+00 0. -1.
         22    1    3    3    0    0 -0.25735265944E+02 -0.60883486545E+02  0.52997796848E+02  0.84722307085E+02  0.00000000000E+00 0.  1.
         22    1    3    3    0    0 -0.57017872699E+02  0.26988206345E+02 -0.31429247931E+02  0.70478356354E+02  0.00000000000E+00 0.  1.
</event>
<event>
 7    1  0.5139898E-006  0.1926545E+03  0.7818608E-02  0.1226478E+00
          2   -1    0    0  502    0  0.00000000000E+00  0.00000000000E+00  0.32607599816E+04  0.32607599816E+04  0.00000000000E+00 0. -1.
          1   -1    0    0  501    0 -0.00000000000E+00 -0.00000000000E+00 -0.31278952422E+03  0.31278952422E+03  0.00000000000E+00 0. -1.
         25    2    1    2    0    0 -0.76867619245E+01  0.10659498253E+03 -0.21028016595E+02  0.16579318856E+03  0.12499450900E+03 0.  0.
          2    1    1    2  501    0 -0.11292970261E+02  0.87894239895E+02 -0.20730296269E+03  0.22544943319E+03  0.00000000000E+00 0. -1.
          1    1    1    2  502    0  0.18979732186E+02 -0.19448922243E+03  0.31763014367E+04  0.31823068841E+04  0.00000000000E+00 0. -1.
         22    1    3    3    0    0 -0.22581760353E+02  0.12145730278E+03  0.14617531306E+02  0.12440050048E+03  0.00000000000E+00 0. -1.
         22    1    3    3    0    0  0.14894998428E+02 -0.14862320242E+02 -0.35645547901E+02  0.41392688078E+02  0.00000000000E+00 0. -1.
</event>
<event>
 7    1  0.5139898E-006  0.5977003E+02  0.7818608E-02  0.1469212E+00
          2   -1    0    0  502    0  0.00000000000E+00  0.00000000000E+00  0.10942855766E+03  0.10942855766E+03  0.00000000000E+00 0. -1.
          1   -1    0    0  501    0 -0.00000000000E+00 -0.00000000000E+00 -0.24150213240E+03  0.24150213240E+03  0.00000000000E+00 0. -1.
         25    2    1    2    0    0 -0.33243848139E+02 -0.62334112373E+02 -0.29439416806E+02  0.14656838222E+03  0.12499966560E+03 0.  0.
          2    1    1    2  501    0  0.34992634801E+02  0.32642894591E+01 -0.13325004834E+03  0.13780680484E+03  0.00000000000E+00 0. -1.
          1    1    1    2  502    0 -0.17487866625E+01  0.59069822913E+02  0.30615890417E+02  0.66555503002E+02  0.00000000000E+00 0. -1.
         22    1    3    3    0    0 -0.39017402599E+02 -0.14531839793E+02 -0.71431460313E+02  0.82680019327E+02  0.00000000000E+00 0.  1.
         22    1    3    3    0    0  0.57735544609E+01 -0.47802272579E+02  0.41992043507E+02  0.63888362890E+02  0.00000000000E+00 0.  1.
</event>
<event>
 7    1  0.5139898E-006  0.2804902E+03  0.7818608E-02  0.1153809E+00
          2   -1    0    0  502    0  0.00000000000E+00  0.00000000000E+00  0.23339521862E+04  0.23339521862E+04  0.00000000000E+00 0. -1.
          1   -1    0    0  501    0 -0.00000000000E+00 -0.00000000000E+00 -0.16550427469E+03  0.16550427469E+03  0.00000000000E+00 0. -1.
         25    2    1    2    0    0 -0.13164984535E+03  0.33959063685E+03  0.89582039178E+03  0.97507589673E+03  0.12500139048E+03 0.  0.
          2    1    1    2  501    0  0.10757277294E+03 -0.83072056200E+02 -0.73021225248E+02  0.15428858459E+03  0.00000000000E+00 0. -1.
          1    1    1    2  502    0  0.24077072411E+02 -0.25651858065E+03  0.13456487449E+04  0.13700919795E+04  0.00000000000E+00 0. -1.
         22    1    3    3    0    0 -0.90072872869E+02  0.21657895662E+03  0.41156946430E+03  0.47371826102E+03  0.00000000000E+00 0. -1.
         22    1    3    3    0    0 -0.41576972480E+02  0.12301168023E+03  0.48425092748E+03  0.50135763571E+03  0.00000000000E+00 0. -1.
</event>
<event>
 7    1  0.5139898E-006  0.9263503E+02  0.7818608E-02  0.1339729E+00
          2   -1    0    0  502    0  0.00000000000E+00  0.00000000000E+00  0.72090674877E+03  0.72090674877E+03  0.00000000000E+00 0. -1.
          1   -1    0    0  501    0 -0.00000000000E+00 -0.00000000000E+00 -0.22664706927E+03  0.22664706927E+03  0.00000000000E+00 0. -1.
         25    2    1    2    0    0 -0.35295855692E+02 -0.56581434620E+02  0.29466196301E+03  0.32695217456E+03  0.12499918332E+03 0.  0.
          2    1    1    2  501    0 -0.16255887535E+02  0.92680254712E+02 -0.19738266854E+03  0.21866367173E+03  0.00000000000E+00 0. -1.
          1    1    1    2  502    0  0.51551743227E+02 -0.36098820093E+02  0.39698038503E+03  0.40193797176E+03  0.00000000000E+00 0. -1.
         22    1    3    3    0    0  0.26975585287E+02  0.23316611660E+02  0.44255643645E+02  0.56832284622E+02  0.00000000000E+00 0.  1.
         22    1    3    3    0    0 -0.62271440979E+02 -0.79898046280E+02  0.25040631936E+03  0.27011988993E+03  0.00000000000E+00 0.  1.
</event>
<event>
 7    1  0.5139898E-006  0.1401897E+03  0.7818608E-02  0.1267778E+00
          2   -1    0    0  502    0  0.00000000000E+00  0.00000000000E+00  0.46320711167E+03  0.46320711167E+03  0.00000000000E+00 0. -1.
          1   -1    0    0  501    0 -0.00000000000E+00 -0.00000000000E+00 -0.12503595192E+04  0.12503595192E+04  0.00000000000E+00 0. -1.
         25    2    1    2    0    0 -0.14234217353E+02 -0.13568263243E+03 -0.19566707472E+03  0.26930224501E+03  0.12500282136E+03 0.  0.
          2    1    1    2  501    0 -0.75910795088E+02  0.26632616279E+02 -0.10044853508E+04  0.10077016250E+04  0.00000000000E+00 0. -1.
          1    1    1    2  502    0  0.90145012442E+02  0.10905001615E+03  0.41300001801E+03  0.43656276085E+03  0.00000000000E+00 0. -1.
         22    1    3    3    0    0 -0.16137312986E+02 -0.97159386834E+01 -0.12183042618E+03  0.12327799917E+03  0.00000000000E+00 0.  1.
         22    1    3    3    0    0  0.19030956332E+01 -0.12596669374E+03 -0.73836648543E+02  0.14602424584E+03  0.00000000000E+00 0.  1.
</event>
<event>
 7    1  0.5139898E-006  0.1074646E+03  0.7818608E-02  0.1326386E+00
          2   -1    0    0  502    0  0.00000000000E+00  0.00000000000E+00  0.87696051548E+03  0.87696051548E+03  0.00000000000E+00 0. -1.
          1   -1    0    0  501    0 -0.00000000000E+00 -0.00000000000E+00 -0.10198828940E+04  0.10198828940E+04  0.00000000000E+00 0. -1.
         25    2    1    2    0    0 -0.10492954646E+03 -0.26774233469E+02  0.50162528496E+03  0.52818612403E+03  0.12500234321E+03 0.  0.
          2    1    1    2  501    0  0.10199817752E+03 -0.34127539372E+02 -0.10011343452E+04  0.10068953741E+04  0.00000000000E+00 0. -1.
          1    1    1    2  502    0  0.29313689424E+01  0.60901772841E+02  0.35658668178E+03  0.36176191132E+03  0.00000000000E+00 0. -1.
         22    1    3    3    0    0 -0.51347647176E+02  0.10597184824E+02  0.52013245597E+02  0.73852954675E+02  0.00000000000E+00 0. -1.
         22    1    3    3    0    0 -0.53581899289E+02 -0.37371418294E+02  0.44961203936E+03  0.45433316936E+03  0.00000000000E+00 0. -1.
</event>
<event>
 7    1  0.5139898E-006  0.6981240E+02  0.7818608E-02  0.1439926E+00
          2   -1    0    0  502    0  0.00000000000E+00  0.00000000000E+00  0.64181289850E+03  0.64181289850E+03  0.00000000000E+00 0. -1.
          1   -1    0    0  501    0 -0.00000000000E+00 -0.00000000000E+00 -0.10379646603E+04  0.10379646603E+04  0.00000000000E+00 0. -1.
         25    2    1    2    0    0  0.93145503070E+02  0.38394230231E+02 -0.42361894032E+02  0.16604690926E+03  0.12500737719E+03 0.  0.
          2    1    1    2  501    0 -0.24685242591E+02 -0.27940875108E+02 -0.93131855495E+03  0.93206453880E+03  0.00000000000E+00 0. -1.
          1    1    1    2  502    0 -0.68460260480E+02 -0.10453355122E+02  0.57752868717E+03  0.58166611075E+03  0.00000000000E+00 0. -1.
         22    1    3    3    0    0  0.32160460450E+02  0.61356901348E+02  0.23735638209E+02  0.73228034799E+02  0.00000000000E+00 0.  1.
         22    1    3    3    0    0  0.60985042620E+02 -0.22962671117E+02 -0.66097532240E+02  0.92818874463E+02  0.00000000000E+00 0.  1.
</event>
<event>
 7    1  0.5139898E-006  0.5508087E+02  0.7818608E-02  0.1437796E+00
          2   -1    0    0  502    0  0.00000000000E+00  0.00000000000E+00  0.52609758319E+02  0.52609758319E+02  0.00000000000E+00 0. -1.
          1   -1    0    0  501    0 -0.00000000000E+00 -0.00000000000E+00 -0.89637974788E+03  0.89637974788E+03  0.00000000000E+00 0. -1.
         25    2    1    2    0    0  0.74010350316E+02  0.18246549173E+02 -0.18848863286E+03  0.23866932131E+03  0.12499844682E+03 0.  0.
          2    1    1    2  501    0 -0.33247309956E+02 -0.43619003042E+02 -0.65981653370E+03  0.66209203227E+03  0.00000000000E+00 0. -1.
          1    1    1    2  502    0 -0.40763040360E+02  0.25372453869E+02  0.45351770016E+01  0.48228152620E+02  0.00000000000E+00 0. -1.
         22    1    3    3    0    0  0.83930242113E+02  0.53450647088E+02 -0.17164596630E+03  0.19840260825E+03  0.00000000000E+00 0.  1.
         22    1    3    3    0    0 -0.99198917974E+01 -0.35204097916E+02 -0.16842666559E+02  0.40266713054E+02  0.00000000000E+00 0.  1.
</event>
<event>
 7    1  0.5139898E-006  0.9895557E+02  0.7818608E-02  0.1286673E+00
          2   -1    0    0  502    0  0.00000000000E+00  0.00000000000E+00  0.35323109909E+03  0.35323109909E+03  0.00000000000E+00 0. -1.
          1   -1    0    0  501    0 -0.00000000000E+00 -0.00000000000E+00 -0.15467434214E+04  0.15467434214E+04  0.00000000000E+00 0. -1.
         25    2    1    2    0    0  0.54308235164E+02  0.85423692671E+02 -0.13660839676E+03  0.21102850668E+03  0.12499833955E+03 0.  0.
          2    1    1    2  501    0 -0.10097337653E+03 -0.25165475346E+01 -0.13638545963E+04  0.13675896006E+04  0.00000000000E+00 0. -1.
          1    1    1    2  502    0  0.46665141362E+02 -0.82907145136E+02  0.30695067068E+03  0.32135641329E+03  0.00000000000E+00 0. -1.
         22    1    3    3    0    0  0.41813246322E+02  0.96880082384E+02 -0.15403895360E+03  0.18671394473E+03  0.00000000000E+00 0. -1.
         22    1    3    3    0    0  0.12494988842E+02 -0.11456389713E+02  0.17430556833E+02  0.24314561952E+02  0.00000000000E+00 0. -1.
</event>
<event>
 7    1  0.5139898E-006  0.5955005E+02  0.7818608E-02  0.1497919E+00
          2   -1    0    0  502    0  0.00000000000E+00  0.00000000000E+00  0.11866720096E+04  0.11866720096E+04  0.00000000000E+00 0. -1.
          1   -1    0    0  501    0 -0.00000000000E+00 -0.00000000000E+00 -0.80942005309E+03  0.80942005309E+03  0.00000000000E+00 0. -1.
         25    2    1    2    0    0 -0.57829303881E+02 -0.58605794462E+02  0.51150513686E+03  0.53296377325E+03  0.12503603891E+03 0.  0.
          2    1    1    2  501    0  0.51044534448E+02  0.30586947127E+02 -0.79726866382E+03  0.79948635269E+03  0.00000000000E+00 0. -1.
          1    1    1    2  502    0  0.67847694334E+01  0.28018847335E+02  0.66301548351E+03  0.66364193679E+03  0.00000000000E+00 0. -1.
         22    1    3    3    0    0 -0.85423175946E+02 -0.59151237695E+00  0.29815915595E+03  0.31015536615E+03  0.00000000000E+00 0.  1.
         22    1    3    3    0    0  0.27593872065E+02 -0.58014282085E+02  0.21334598092E+03  0.22280840710E+03  0.00000000000E+00 0.  1.
</event>
<event>
 7    1  0.5139898E-006  0.3480038E+03  0.7818608E-02  0.1179823E+00
          2   -1    0    0  502    0  0.00000000000E+00  0.00000000000E+00  0.17785546147E+04  0.17785546147E+04  0.00000000000E+00 0. -1.
          1   -1    0    0  501    0 -0.00000000000E+00 -0.00000000000E+00 -0.29354799219E+03  0.29354799219E+03  0.00000000000E+00 0. -1.
         25    2    1    2    0    0  0.13253935978E+02  0.28923968252E+03  0.58163763540E+03  0.66163512442E+03  0.12499375257E+03 0.  0.
          2    1    1    2  501    0  0.27552427768E+02 -0.35946278433E+03 -0.12297571281E+03  0.38091423645E+03  0.00000000000E+00 0. -1.
          1    1    1    2  502    0 -0.40806363746E+02  0.70223101809E+02  0.10263446999E+04  0.10295532460E+04  0.00000000000E+00 0. -1.
         22    1    3    3    0    0 -0.34475902911E+02  0.10607420414E+03  0.31870046038E+03  0.33765412498E+03  0.00000000000E+00 0. -1.
         22    1    3    3    0    0  0.47729838890E+02  0.18316547838E+03  0.26293717502E+03  0.32398099944E+03  0.00000000000E+00 0. -1.
</event>
<event>
 7    1  0.5139898E-006  0.1166357E+03  0.7818608E-02  0.1280075E+00
          2   -1    0    0  502    0  0.00000000000E+00  0.00000000000E+00  0.37769395815E+03  0.37769395815E+03  0.00000000000E+00 0. -1.
          1   -1    0    0  501    0 -0.00000000000E+00 -0.00000000000E+00 -0.10082026810E+04  0.10082026810E+04  0.00000000000E+00 0. -1.
         25    2    1    2    0    0  0.18557664664E+03 -0.63815958469E+02 -0.65116503071E+02  0.24160325455E+03  0.12498322010E+03 0.  0.
          2    1    1    2  501    0 -0.83645851250E+02  0.19627000835E+02 -0.84191503849E+03  0.84628764592E+03  0.00000000000E+00 0. -1.
          1    1    1    2  502    0 -0.10193079539E+03  0.44188957634E+02  0.27652281871E+03  0.29800573869E+03  0.00000000000E+00 0. -1.
         22    1    3    3    0    0 -0.12604802893E+02  0.48869560637E+01  0.12047044247E+02  0.18107862122E+02  0.00000000000E+00 0. -1.
         22    1    3    3    0    0  0.19818144953E+03 -0.68702914532E+02 -0.77163547318E+02  0.22349539243E+03  0.00000000000E+00 0. -1.
</event>
<event>
 7    1  0.5139898E-006  0.4833278E+02  0.7818608E-02  0.1556201E+00
          2   -1    0    0  502    0  0.00000000000E+00  0.00000000000E+00  0.16314350818E+04  0.16314350818E+04  0.00000000000E+00 0. -1.
          1   -1    0    0  501    0 -0.00000000000E+00 -0.00000000000E+00 -0.30723554317E+03  0.30723554317E+03  0.00000000000E+00 0. -1.
         25    2    1    2    0    0 -0.25520801058E+02 -0.12981378383E+02  0.30715353661E+02  0.13186689057E+03  0.12500246561E+03 0.  0.
          2    1    1    2  501    0  0.33367179431E+02  0.35812043839E+02 -0.25423108125E+03  0.25890020050E+03  0.00000000000E+00 0. -1.
          1    1    1    2  502    0 -0.78463783729E+01 -0.22830665456E+02  0.15477152663E+04  0.15479035339E+04  0.00000000000E+00 0. -1.
         22    1    3    3    0    0  0.50292808673E+02  0.14946903290E+01  0.19081455355E+02  0.53811733310E+02  0.00000000000E+00 0. -1.
         22    1    3    3    0    0 -0.75813609730E+02 -0.14476068712E+02  0.11633898306E+02  0.78055157264E+02  0.00000000000E+00 0. -1.
</event>
<event>
 7    1  0.5139898E-006  0.5985936E+02  0.7818608E-02  0.1431240E+00
          2   -1    0    0  502    0  0.00000000000E+00  0.00000000000E+00  0.79040620149E+02  0.79040620149E+02  0.00000000000E+00 0. -1.
          1   -1    0    0  501    0 -0.00000000000E+00 -0.00000000000E+00 -0.58412063075E+03  0.58412063075E+03  0.00000000000E+00 0. -1.
         25    2    1    2    0    0 -0.34101054552E+01  0.18743000157E+02 -0.19713468596E+02  0.12797174429E+03  0.12500087047E+03 0.  0.
          2    1    1    2  501    0 -0.57217409413E+02  0.17587225351E+02 -0.45388631176E+03  0.45781647681E+03  0.00000000000E+00 0. -1.
          1    1    1    2  502    0  0.60627514868E+02 -0.36330225508E+02 -0.31480230249E+02  0.77373029804E+02  0.00000000000E+00 0. -1.
         22    1    3    3    0    0 -0.39023086460E+02  0.59979030431E+01 -0.60565442792E+02  0.72297641582E+02  0.00000000000E+00 0.  1.
         22    1    3    3    0    0  0.35612981005E+02  0.12745097113E+02  0.40851974196E+02  0.55674102707E+02  0.00000000000E+00 0.  1.
</event>
<event>
 7    1  0.5139898E-006  0.7510155E+02  0.7818608E-02  0.1441112E+00
          2   -1    0    0  502    0  0.00000000000E+00  0.00000000000E+00  0.79737552573E+03  0.79737552573E+03  0.00000000000E+00 0. -1.
          1   -1    0    0  501    0 -0.00000000000E+00 -0.00000000000E+00 -0.17047449176E+03  0.17047449176E+03  0.00000000000E+00 0. -1.
         25    2    1    2    0    0  0.52041652801E+02 -0.92325565135E+01  0.12617900416E+03  0.18530765258E+03  0.12499684512E+03 0.  0.
          2    1    1    2  501    0  0.23445304413E+02  0.25107580623E+02 -0.13645522382E+03  0.14071283173E+03  0.00000000000E+00 0. -1.
          1    1    1    2  502    0 -0.75486957215E+02 -0.15875024109E+02  0.63717725364E+03  0.64182953317E+03  0.00000000000E+00 0. -1.
         22    1    3    3    0    0  0.36328169241E+02  0.97011129892E+01 -0.16110003043E+02  0.40906963608E+02  0.00000000000E+00 0. -1.
         22    1    3    3    0    0  0.15713483561E+02 -0.18933669503E+02  0.14228900720E+03  0.14440068898E+03  0.00000000000E+00 0. -1.
</event>
<event>
 7    1  0.5139898E-006  0.5891860E+02  0.7818608E-02  0.1508870E+00
          2   -1    0    0  502    0  0.00000000000E+00  0.00000000000E+00  0.43588211562E+03  0.43588211562E+03  0.00000000000E+00 0. -1.
          1   -1    0    0  501    0 -0.00000000000E+00 -0.00000000000E+00 -0.37470305569E+03  0.37470305569E+03  0.00000000000E+00 0. -1.
         25    2    1    2    0    0  0.60970901455E+02 -0.52995691104E+02  0.26069409935E+03  0.30018691729E+03  0.12499911109E+03 0.  0.
          2    1    1    2  501    0 -0.20071047662E+02  0.18111889486E+02 -0.34977184385E+03  0.35081509409E+03  0.00000000000E+00 0. -1.
          1    1    1    2  502    0 -0.40899853793E+02  0.34883801618E+02  0.15025680442E+03  0.15958315992E+03  0.00000000000E+00 0. -1.
         22    1    3    3    0    0  0.44678154422E+02 -0.67866397798E+02  0.67204500251E+02  0.10544396752E+03  0.00000000000E+00 0. -1.
         22    1    3    3    0    0  0.16292747033E+02  0.14870706694E+02  0.19348959910E+03  0.19474294977E+03  0.00000000000E+00 0. -1.
</event>
<event>
 7    1  0.5139898E-006  0.9779716E+02  0.7818608E-02  0.1446138E+00
          2   -1    0    0  502    0  0.00000000000E+00  0.00000000000E+00  0.15228062671E+04  0.15228062671E+04  0.00000000000E+00 0. -1.
          1   -1    0    0  501    0 -0.00000000000E+00 -0.00000000000E+00 -0.12792498030E+03  0.12792498030E+03  0.00000000000E+00 0. -1.
         25    2    1    2    0    0  0.60078219731E+02 -0.10504521778E+03  0.30369774724E+03  0.35001104051E+03  0.12502606342E+03 0.  0.
          2    1    1    2  501    0 -0.43338130044E+02  0.85925220098E+02 -0.82502177925E+02  0.12675940331E+03  0.00000000000E+00 0. -1.
          1    1    1    2  502    0 -0.16740089687E+02  0.19119997685E+02  0.11736857175E+04  0.11739608036E+04  0.00000000000E+00 0. -1.
         22    1    3    3    0    0  0.37834375367E+01 -0.11466598651E+03  0.22744035294E+03  0.25473852675E+03  0.00000000000E+00 0.  1.
         22    1    3    3    0    0  0.56294782194E+02  0.96207687298E+01  0.76257394295E+02  0.95272513758E+02  0.00000000000E+00 0.  1.
</event>
<event>
 7    1  0.5139898E-006  0.1737445E+03  0.7818608E-02  0.1219722E+00
          2   -1    0    0  502    0  0.00000000000E+00  0.00000000000E+00  0.22700493225E+04  0.22700493225E+04  0.00000000000E+00 0. -1.
          1   -1    0    0  501    0 -0.00000000000E+00 -0.00000000000E+00 -0.18932468885E+04  0.18932468885E+04  0.00000000000E+00 0. -1.
         25    2    1    2    0    0 -0.45873809886E+02 -0.23502645672E+03  0.82980459760E+03  0.87266395354E+03  0.12499945532E+03 0.  0.
          2    1    1    2  501    0 -0.36800754472E+02  0.16957821800E+03 -0.18658266474E+04  0.18738783700E+04  0.00000000000E+00 0. -1.
          1    1    1    2  502    0  0.82674564359E+02  0.65448238722E+02  0.14128244838E+04  0.14167538874E+04  0.00000000000E+00 0. -1.
         22    1    3    3    0    0 -0.47132230918E+02 -0.31387809747E+02  0.99362010837E+02  0.11436542742E+03  0.00000000000E+00 0.  1.
         22    1    3    3    0    0  0.12584210313E+01 -0.20363864697E+03  0.73044258676E+03  0.75829852612E+03  0.00000000000E+00 0.  1.
</event>
<event>
 7    1  0.5139898E-006  0.1295512E+03  0.7818608E-02  0.1353513E+00
          2   -1    0    0  502    0  0.00000000000E+00  0.00000000000E+00  0.34778288794E+03  0.34778288794E+03  0.00000000000E+00 0. -1.
          1   -1    0    0  501    0 -0.00000000000E+00 -0.00000000000E+00 -0.86318270756E+03  0.86318270756E+03  0.00000000000E+00 0. -1.
         25    2    1    2    0    0  0.13621046562E+03 -0.45031425551E+01 -0.14133773703E+02  0.18546908793E+03  0.12500179911E+03 0.  0.
          2    1    1    2  501    0 -0.11414688994E+02  0.38319855105E+02 -0.74686907361E+03  0.74793858005E+03  0.00000000000E+00 0. -1.
          1    1    1    2  502    0 -0.12479577663E+03 -0.33816712550E+02  0.24560302770E+03  0.27755792752E+03  0.00000000000E+00 0. -1.
         22    1    3    3    0    0  0.57099718683E+02  0.55324647154E+02  0.17406375328E+02  0.81389043233E+02  0.00000000000E+00 0.  1.
         22    1    3    3    0    0  0.79110746941E+02 -0.59827789709E+02 -0.31540149031E+02  0.10408004470E+03  0.00000000000E+00 0.  1.
</event>
<event>
 7    1  0.5139898E-006  0.2754268E+03  0.7818608E-02  0.1333683E+00
          2   -1    0    0  502    0  0.00000000000E+00  0.00000000000E+00  0.76177520286E+03  0.76177520286E+03  0.00000000000E+00 0. -1.
          1   -1    0    0  501    0 -0.00000000000E+00 -0.00000000000E+00 -0.13339108604E+04  0.13339108604E+04  0.00000000000E+00 0. -1.
         25    2    1    2    0    0  0.21760537113E+03 -0.17009523939E+03 -0.65882890532E+03  0.72523485791E+03  0.12500233852E+03 0.  0.
          2    1    1    2  501    0 -0.15014378457E+02 -0.16502906614E+02 -0.61563864214E+03  0.61604278681E+03  0.00000000000E+00 0. -1.
          1    1    1    2  502    0 -0.20259099267E+03  0.18659814600E+03  0.70233188991E+03  0.75440841855E+03  0.00000000000E+00 0. -1.
         22    1    3    3    0    0  0.14819375068E+03 -0.99405900591E+02 -0.54924946173E+03  0.57751007959E+03  0.00000000000E+00 0.  1.
         22    1    3    3    0    0  0.69411620446E+02 -0.70689338798E+02 -0.10957944358E+03  0.14772477832E+03  0.00000000000E+00 0.  1.
</event>
<event>
 7    1  0.5139898E-006  0.7282067E+02  0.7818608E-02  0.1376652E+00
          2   -1    0    0  502    0  0.00000000000E+00  0.00000000000E+00  0.12406385470E+04  0.12406385470E+04  0.00000000000E+00 0. -1.
          1   -1    0    0  501    0 -0.00000000000E+00 -0.00000000000E+00 -0.35896757073E+03  0.35896757073E+03  0.00000000000E+00 0. -1.
         25    2    1    2    0    0  0.90903942470E+02  0.93072030709E+02  0.29984916610E+03  0.34994259679E+03  0.12499747588E+03 0.  0.
          2    1    1    2  501    0 -0.45421721147E+02 -0.56042981309E+02 -0.32907063319E+03  0.33688489152E+03  0.00000000000E+00 0. -1.
          1    1    1    2  502    0 -0.45482221323E+02 -0.37029049399E+02  0.91089244333E+03  0.91277862939E+03  0.00000000000E+00 0. -1.
         22    1    3    3    0    0  0.75858509488E+02  0.15822538218E+02  0.61480428836E+02  0.98917689557E+02  0.00000000000E+00 0.  1.
         22    1    3    3    0    0  0.15045432982E+02  0.77249492491E+02  0.23836873727E+03  0.25102490723E+03  0.00000000000E+00 0.  1.
</event>
<event>
 7    1  0.5139898E-006  0.3588390E+02  0.7818608E-02  0.1563389E+00
          2   -1    0    0  502    0  0.00000000000E+00  0.00000000000E+00  0.32832682775E+03  0.32832682775E+03  0.00000000000E+00 0. -1.
          1   -1    0    0  501    0 -0.00000000000E+00 -0.00000000000E+00 -0.10682918987E+04  0.10682918987E+04  0.00000000000E+00 0. -1.
         25    2    1    2    0    0 -0.48358484767E+02  0.30881754117E+02 -0.28636604041E+03  0.31769433881E+03  0.12502782900E+03 0.  0.
          2    1    1    2  501    0  0.12610550507E+02 -0.28393475059E+02 -0.76491858848E+03  0.76554925538E+03  0.00000000000E+00 0. -1.
          1    1    1    2  502    0  0.35747934260E+02 -0.24882790581E+01  0.31131955796E+03  0.31337513224E+03  0.00000000000E+00 0. -1.
         22    1    3    3    0    0 -0.43387054760E+02 -0.51874933333E+01 -0.18643291524E+02  0.47507040812E+02  0.00000000000E+00 0. -1.
         22    1    3    3    0    0 -0.49714300070E+01  0.36069247450E+02 -0.26772274889E+03  0.27018729800E+03  0.00000000000E+00 0. -1.
</event>
<event>
 7    1  0.5139898E-006  0.6109700E+02  0.7818608E-02  0.1547178E+00
          2   -1    0    0  502    0  0.00000000000E+00  0.00000000000E+00  0.10668936260E+04  0.10668936260E+04  0.00000000000E+00 0. -1.
          1   -1    0    0  501    0 -0.00000000000E+00 -0.00000000000E+00 -0.28952162991E+03  0.28952162991E+03  0.00000000000E+00 0. -1.
         25    2    1    2    0    0  0.50442024235E+02  0.48306284305E+02  0.51747575792E+03  0.53691317360E+03  0.12496679972E+03 0.  0.
          2    1    1    2  501    0 -0.19957489227E+02  0.33374277764E+01 -0.27776784512E+03  0.27850388792E+03  0.00000000000E+00 0. -1.
          1    1    1    2  502    0 -0.30484535007E+02 -0.51643712082E+02  0.53766408329E+03  0.54099819439E+03  0.00000000000E+00 0. -1.
         22    1    3    3    0    0  0.23455918644E+02 -0.56838892808E+01  0.10437641037E+02  0.26295076862E+02  0.00000000000E+00 0. -1.
         22    1    3    3    0    0  0.26986105591E+02  0.53990173586E+02  0.50703811689E+03  0.51061809674E+03  0.00000000000E+00 0. -1.
</event>
<event>
 7    1  0.5139898E-006  0.7958784E+02  0.7818608E-02  0.1431783E+00
          2   -1    0    0  502    0  0.00000000000E+00  0.00000000000E+00  0.10867949822E+03  0.10867949822E+03  0.00000000000E+00 0. -1.
          1   -1    0    0  501    0 -0.00000000000E+00 -0.00000000000E+00 -0.71825717375E+03  0.71825717375E+03  0.00000000000E+00 0. -1.
         25    2    1    2    0    0 -0.10868286844E+03  0.88897678822E-01 -0.23477009403E+03  0.28732001971E+03  0.12499529144E+03 0.  0.
          2    1    1    2  501    0  0.75449170307E+02 -0.10305585224E+02 -0.45019920442E+03  0.45659402761E+03  0.00000000000E+00 0. -1.
          1    1    1    2  502    0  0.33233698137E+02  0.10216687545E+02  0.75391622918E+02  0.83022624642E+02  0.00000000000E+00 0. -1.
         22    1    3    3    0    0 -0.98345347386E+02 -0.26425247240E+02 -0.23781376049E+03  0.25869960518E+03  0.00000000000E+00 0. -1.
         22    1    3    3    0    0 -0.10337521058E+02  0.26514144918E+02  0.30436664590E+01  0.28620414530E+02  0.00000000000E+00 0. -1.
</event>
<event>
 7    1  0.5139898E-006  0.1381573E+03  0.7818608E-02  0.1359848E+00
          2   -1    0    0  502    0  0.00000000000E+00  0.00000000000E+00  0.11036726330E+04  0.11036726330E+04  0.00000000000E+00 0. -1.
          1   -1    0    0  501    0 -0.00000000000E+00 -0.00000000000E+00 -0.46375432610E+03  0.46375432610E+03  0.00000000000E+00 0. -1.
         25    2    1    2    0    0 -0.30138670137E+02 -0.12845580863E+03  0.83193718753E+02  0.19989458472E+03  0.12500966343E+03 0.  0.
          2    1    1    2  501    0  0.65221306453E+02  0.12277305838E+03 -0.39314340711E+03  0.41699973769E+03  0.00000000000E+00 0. -1.
          1    1    1    2  502    0 -0.35082636316E+02  0.56827502464E+01  0.94986799527E+03  0.95053263672E+03  0.00000000000E+00 0. -1.
         22    1    3    3    0    0 -0.78785356298E+02 -0.85029167765E+02  0.61153165452E+02  0.13106029674E+03  0.00000000000E+00 0.  1.
         22    1    3    3    0    0  0.48646686161E+02 -0.43426640862E+02  0.22040553301E+02  0.68834287974E+02  0.00000000000E+00 0.  1.
</event>
<event>
 7    1  0.5139898E-006  0.5435011E+02  0.7818608E-02  0.1503858E+00
          2   -1    0    0  502    0  0.00000000000E+00  0.00000000000E+00  0.89919634108E+03  0.89919634108E+03  0.00000000000E+00 0. -1.
          1   -1    0    0  501    0 -0.00000000000E+00 -0.00000000000E+00 -0.70316054885E+03  0.70316054885E+03  0.00000000000E+00 0. -1.
         25    2    1    2    0    0 -0.80724318966E+00  0.62017947846E+02 -0.58917934272E+00  0.13954138460E+03  0.12499829354E+03 0.  0.
          2    1    1    2  501    0 -0.25954282256E+02 -0.47754604370E+02 -0.63165073579E+03  0.63398484132E+03  0.00000000000E+00 0. -1.
          1    1    1    2  502    0  0.26761525446E+02 -0.14263343476E+02  0.82827570735E+03  0.82883066401E+03  0.00000000000E+00 0. -1.
         22    1    3    3    0    0 -0.17395971918E+02  0.85799810055E+02 -0.35228604607E+02  0.94367800796E+02  0.00000000000E+00 0. -1.
         22    1    3    3    0    0  0.16588728729E+02 -0.23781862209E+02  0.34639425264E+02  0.45173583803E+02  0.00000000000E+00 0. -1.
</event>
<event>
 7    1  0.5139898E-006  0.5276549E+02  0.7818608E-02  0.1568788E+00
          2   -1    0    0  502    0  0.00000000000E+00  0.00000000000E+00  0.61989874125E+03  0.61989874125E+03  0.00000000000E+00 0. -1.
          1   -1    0    0  501    0 -0.00000000000E+00 -0.00000000000E+00 -0.10279238082E+04  0.10279238082E+04  0.00000000000E+00 0. -1.
         25    2    1    2    0    0 -0.32104292389E+02  0.53926901260E+02 -0.17210671005E+03  0.22177303953E+03  0.12499506050E+03 0.  0.
          2    1    1    2  501    0  0.20263027225E+02 -0.25499368471E+01 -0.82969017073E+03  0.82994148701E+03  0.00000000000E+00 0. -1.
          1    1    1    2  502    0  0.11841265164E+02 -0.51376964413E+02  0.59377181385E+03  0.59610802289E+03  0.00000000000E+00 0. -1.
         22    1    3    3    0    0  0.42773268385E+02 -0.21873342509E+01 -0.32745354436E+02  0.53912847788E+02  0.00000000000E+00 0.  1.
         22    1    3    3    0    0 -0.74877560774E+02  0.56114235511E+02 -0.13936135561E+03  0.16786019174E+03  0.00000000000E+00 0.  1.
</event>
<event>
 7    1  0.5139898E-006  0.9872417E+02  0.7818608E-02  0.1386601E+00
          2   -1    0    0  502    0  0.00000000000E+00  0.00000000000E+00  0.17883895805E+04  0.17883895805E+04  0.00000000000E+00 0. -1.
          1   -1    0    0  501    0 -0.00000000000E+00 -0.00000000000E+00 -0.14828352472E+03  0.14828352472E+03  0.00000000000E+00 0. -1.
         25    2    1    2    0    0  0.19652163870E+02 -0.11930636048E+03  0.11894398097E+03  0.21068609940E+03  0.12498298554E+03 0.  0.
          2    1    1    2  501    0 -0.42317923142E+02  0.86472714064E+02 -0.79483817171E+02  0.12484395896E+03  0.00000000000E+00 0. -1.
          1    1    1    2  502    0  0.22665759272E+02  0.32833646420E+02  0.16006458920E+04  0.16011430469E+04  0.00000000000E+00 0. -1.
         22    1    3    3    0    0  0.17526143708E+02 -0.84267327071E+02 -0.62276791720E+00  0.86072852659E+02  0.00000000000E+00 0. -1.
         22    1    3    3    0    0  0.21260201619E+01 -0.35039033412E+02  0.11956674889E+03  0.12461324674E+03  0.00000000000E+00 0. -1.
</event>
<event>
 7    1  0.5139898E-006  0.3488481E+02  0.7818608E-02  0.1595742E+00
          2   -1    0    0  502    0  0.00000000000E+00  0.00000000000E+00  0.26275154787E+03  0.26275154787E+03  0.00000000000E+00 0. -1.
          1   -1    0    0  501    0 -0.00000000000E+00 -0.00000000000E+00 -0.13725659994E+03  0.13725659994E+03  0.00000000000E+00 0. -1.
         25    2    1    2    0    0  0.36214339137E+02  0.40952346161E+02  0.12647148957E+03  0.18603415505E+03  0.12500038463E+03 0.  0.
          2    1    1    2  501    0 -0.24275562080E+02 -0.97689850575E+01 -0.10318408721E+03  0.10645041962E+03  0.00000000000E+00 0. -1.
          1    1    1    2  502    0 -0.11938777057E+02 -0.31183361104E+02  0.10220754558E+03  0.10752357314E+03  0.00000000000E+00 0. -1.
         22    1    3    3    0    0  0.28498239916E+02  0.78481482611E+02  0.42401209898E+02  0.93644836440E+02  0.00000000000E+00 0.  1.
         22    1    3    3    0    0  0.77160992211E+01 -0.37529136450E+02  0.84070279671E+02  0.92389318613E+02  0.00000000000E+00 0.  1.
</event>
<event>
 7    1  0.5139898E-006  0.1528625E+03  0.7818608E-02  0.1203169E+00
          2   -1    0    0  502    0  0.00000000000E+00  0.00000000000E+00  0.14116297234E+04  0.14116297234E+04  0.00000000000E+00 0. -1.
          1   -1    0    0  501    0 -0.00000000000E+00 -0.00000000000E+00 -0.48750701097E+03  0.48750701097E+03  0.00000000000E+00 0. -1.
         25    2    1    2    0    0  0.39182581731E+02 -0.66051627992E+02  0.10100921446E+03  0.17811412261E+03  0.12499474788E+03 0.  0.
          2    1    1    2  501    0 -0.14351910820E+03 -0.52623197754E+02 -0.43083876189E+03  0.45715311888E+03  0.00000000000E+00 0. -1.
          1    1    1    2  502    0  0.10433652647E+03  0.11867482575E+03  0.12539522599E+04  0.12638694929E+04  0.00000000000E+00 0. -1.
         22    1    3    3    0    0 -0.13502603254E+02 -0.87766675069E+02  0.51673129612E+02  0.10273958279E+03  0.00000000000E+00 0.  1.
         22    1    3    3    0    0  0.52685184985E+02  0.21715047077E+02  0.49336084844E+02  0.75374539827E+02  0.00000000000E+00 0.  1.
</event>
<event>
 7    1  0.5139898E-006  0.1224749E+03  0.7818608E-02  0.1267972E+00
          2   -1    0    0  502    0  0.00000000000E+00  0.00000000000E+00  0.79833018058E+03  0.79833018058E+03  0.00000000000E+00 0. -1.
          1   -1    0    0  501    0 -0.00000000000E+00 -0.00000000000E+00 -0.29681246584E+03  0.29681246584E+03  0.00000000000E+00 0. -1.
         25    2    1    2    0    0  0.87626083192E+02 -0.27449190539E+02  0.10824041011E+02  0.15547955806E+03  0.12499977837E+03 0.  0.
          2    1    1    2  501    0 -0.12246567854E+03 -0.57601587529E+02 -0.20076619496E+03  0.24212156109E+03  0.00000000000E+00 0. -1.
          1    1    1    2  502    0  0.34839595350E+02  0.85050778068E+02  0.69145986869E+03  0.69754152727E+03  0.00000000000E+00 0. -1.
         22    1    3    3    0    0  0.11445358530E+02  0.27419300004E+02  0.46386604542E+02  0.55086580267E+02  0.00000000000E+00 0.  1.
         22    1    3    3    0    0  0.76180724662E+02 -0.54868490543E+02 -0.35562563530E+02  0.10039297779E+03  0.00000000000E+00 0.  1.
</event>
<event>
 7    1  0.5139898E-006  0.1551828E+03  0.7818608E-02  0.1194367E+00
          2   -1    0    0  502    0  0.00000000000E+00  0.00000000000E+00  0.87418481782E+03  0.87418481782E+03  0.00000000000E+00 0. -1.
          1   -1    0    0  501    0 -0.00000000000E+00 -0.00000000000E+00 -0.35722897131E+03  0.35722897131E+03  0.00000000000E+00 0. -1.
         25    2    1    2    0    0  0.13353069692E+02  0.13441252120E+03  0.19345203426E+03  0.26701193335E+03  0.12500661050E+03 0.  0.
          2    1    1    2  501    0  0.13554892479E+03 -0.90710218893E+02 -0.28937911934E+03  0.33217785828E+03  0.00000000000E+00 0. -1.
          1    1    1    2  502    0 -0.14890199448E+03 -0.43702302306E+02  0.61288293159E+03  0.63222399750E+03  0.00000000000E+00 0. -1.
         22    1    3    3    0    0  0.41025364490E+02  0.44045710728E+02  0.10513989972E+02  0.61103593595E+02  0.00000000000E+00 0.  1.
         22    1    3    3    0    0 -0.27672294798E+02  0.90366810471E+02  0.18293804429E+03  0.20590833976E+03  0.00000000000E+00 0.  1.
</event>
<event>
 7    1  0.5139898E-006  0.5702523E+02  0.7818608E-02  0.1450308E+00
          2   -1    0    0  502    0  0.00000000000E+00  0.00000000000E+00  0.32178532163E+04  0.32178532163E+04  0.00000000000E+00 0. -1.
          1   -1    0    0  501    0 -0.00000000000E+00 -0.00000000000E+00 -0.19792179125E+02  0.19792179125E+02  0.00000000000E+00 0. -1.
         25    2    1    2    0    0  0.32521703913E+02  0.33679913895E+02  0.31526007432E+03  0.34235307522E+03  0.12499886332E+03 0.  0.
          2    1    1    2  501    0 -0.34901965514E+02  0.23828481307E+02  0.69071146158E+02  0.80973865844E+02  0.00000000000E+00 0. -1.
          1    1    1    2  502    0  0.23802616008E+01 -0.57508395201E+02  0.28137298167E+04  0.28143184543E+04  0.00000000000E+00 0. -1.
         22    1    3    3    0    0  0.46860076734E+02 -0.99414072401E+01  0.28102339137E+03  0.28507691044E+03  0.00000000000E+00 0. -1.
         22    1    3    3    0    0 -0.14338372821E+02  0.43621321135E+02  0.34236682944E+02  0.57276164778E+02  0.00000000000E+00 0. -1.
</event>
<event>
 7    1  0.5139898E-006  0.5983721E+02  0.7818608E-02  0.1534662E+00
          2   -1    0    0  502    0  0.00000000000E+00  0.00000000000E+00  0.12203012419E+03  0.12203012419E+03  0.00000000000E+00 0. -1.
          1   -1    0    0  501    0 -0.00000000000E+00 -0.00000000000E+00 -0.96452891815E+03  0.96452891815E+03  0.00000000000E+00 0. -1.
         25    2    1    2    0    0  0.16218612801E+02 -0.53342612243E+02 -0.21172698757E+03  0.25211303094E+03  0.12499674166E+03 0.  0.
          2    1    1    2  501    0  0.51499756180E+01  0.60101481798E+02 -0.73011675244E+03  0.73260438339E+03  0.00000000000E+00 0. -1.
          1    1    1    2  502    0 -0.21368588420E+02 -0.67588695543E+01  0.99344946053E+02  0.10184162801E+03  0.00000000000E+00 0. -1.
         22    1    3    3    0    0 -0.48133418980E+01 -0.51849046301E+02 -0.22244631670E+03  0.22845974629E+03  0.00000000000E+00 0. -1.
         22    1    3    3    0    0  0.21031954700E+02 -0.14935659419E+01  0.10719329132E+02  0.23653284650E+02  0.00000000000E+00 0. -1.
</event>
<event>
 7    1  0.5139898E-006  0.3715365E+02  0.7818608E-02  0.1555615E+00
          2   -1    0    0  502    0  0.00000000000E+00  0.00000000000E+00  0.46401454590E+03  0.46401454590E+03  0.00000000000E+00 0. -1.
          1   -1    0    0  501    0 -0.00000000000E+00 -0.00000000000E+00 -0.34836259687E+03  0.34836259687E+03  0.00000000000E+00 0. -1.
         25    2    1    2    0    0  0.18390024548E+02 -0.65481233028E+02 -0.25925737852E+02  0.14464280593E+03  0.12499365001E+03 0.  0.
          2    1    1    2  501    0 -0.10130274851E+02  0.35059946943E+02 -0.26119390788E+03  0.26373107489E+03  0.00000000000E+00 0. -1.
          1    1    1    2  502    0 -0.82597496972E+01  0.30421286085E+02  0.40277159477E+03  0.40400326195E+03  0.00000000000E+00 0. -1.
         22    1    3    3    0    0 -0.18586363430E+01 -0.55375994874E+02 -0.73450528179E+02  0.92005083702E+02  0.00000000000E+00 0. -1.
         22    1    3    3    0    0  0.20248660891E+02 -0.10105238154E+02  0.47524790327E+02  0.52637722231E+02  0.00000000000E+00 0. -1.
</event>
<event>
 7    1  0.5139898E-006  0.5638618E+02  0.7818608E-02  0.1499845E+00
          2   -1    0    0  502    0  0.00000000000E+00  0.00000000000E+00  0.10063664113E+04  0.10063664113E+04  0.00000000000E+00 0. -1.
          1   -1    0    0  501    0 -0.00000000000E+00 -0.00000000000E+00 -0.13330848382E+03  0.13330848382E+03  0.00000000000E+00 0. -1.
         25    2    1    2    0    0  0.12793906906E+02 -0.25326042234E+02  0.92670218479E+02  0.15817383320E+03  0.12500439851E+03 0.  0.
          2    1    1    2  501    0 -0.22541230181E+02  0.53746232249E+02 -0.91831331871E+02  0.10876469120E+03  0.00000000000E+00 0. -1.
          1    1    1    2  502    0  0.97473232749E+01 -0.28420190015E+02  0.87221904087E+03  0.87273637071E+03  0.00000000000E+00 0. -1.
         22    1    3    3    0    0 -0.25237778515E+02  0.28595706687E+02  0.83183993738E+02  0.91510855747E+02  0.00000000000E+00 0. -1.
         22    1    3    3    0    0  0.38031685421E+02 -0.53921748921E+02  0.94862247406E+01  0.66662977450E+02  0.00000000000E+00 0. -1.
</event>
<event>
 7    1  0.5139898E-006  0.8940563E+02  0.7818608E-02  0.1393575E+00
          2   -1    0    0  502    0  0.00000000000E+00  0.00000000000E+00  0.36749547182E+03  0.36749547182E+03  0.00000000000E+00 0. -1.
          1   -1    0    0  501    0 -0.00000000000E+00 -0.00000000000E+00 -0.69619396912E+02  0.69619396912E+02  0.00000000000E+00 0. -1.
         25    2    1    2    0    0 -0.58674228708E+02  0.29243248820E+02  0.10710406325E+03  0.17718780024E+03  0.12500561377E+03 0.  0.
          2    1    1    2  501    0 -0.38658314028E+02 -0.15514038013E+02 -0.39089172763E+01  0.41838143520E+02  0.00000000000E+00 0. -1.
          1    1    1    2  502    0  0.97332542735E+02 -0.13729210806E+02  0.19468092893E+03  0.21808892497E+03  0.00000000000E+00 0. -1.
         22    1    3    3    0    0 -0.24613851683E+02  0.10558324372E+02  0.12957106457E+03  0.13231016848E+03  0.00000000000E+00 0. -1.
         22    1    3    3    0    0 -0.34060377024E+02  0.18684924448E+02 -0.22467001318E+02  0.44877631766E+02  0.00000000000E+00 0. -1.
</event>
<event>
 7    1  0.5139898E-006  0.8620230E+02  0.7818608E-02  0.1353648E+00
          2   -1    0    0  502    0  0.00000000000E+00  0.00000000000E+00  0.26163072204E+04  0.26163072204E+04  0.00000000000E+00 0. -1.
          1   -1    0    0  501    0 -0.00000000000E+00 -0.00000000000E+00 -0.29931983289E+03  0.29931983289E+03  0.00000000000E+00 0. -1.
         25    2    1    2    0    0  0.37267988262E+00  0.45439745534E+02 -0.93266140926E+02  0.16244180911E+03  0.12499543568E+03 0.  0.
          2    1    1    2  501    0  0.51139360269E+01 -0.10521020969E+03 -0.15490442005E+03  0.18732517161E+03  0.00000000000E+00 0. -1.
          1    1    1    2  502    0 -0.54866159095E+01  0.59770464160E+02  0.25651579485E+04  0.25658600726E+04  0.00000000000E+00 0. -1.
         22    1    3    3    0    0 -0.29356789112E+02  0.36258815943E+02  0.15618931620E+02  0.49198311206E+02  0.00000000000E+00 0. -1.
         22    1    3    3    0    0  0.29729468995E+02  0.91809295902E+01 -0.10888507255E+03  0.11324349791E+03  0.00000000000E+00 0. -1.
</event>
<event>
 7    1  0.5139898E-006  0.1028321E+03  0.7818608E-02  0.1366272E+00
          2   -1    0    0  502    0  0.00000000000E+00  0.00000000000E+00  0.10200421640E+03  0.10200421640E+03  0.00000000000E+00 0. -1.
          1   -1    0    0  501    0 -0.00000000000E+00 -0.00000000000E+00 -0.66904872583E+03  0.66904872583E+03  0.00000000000E+00 0. -1.
         25    2    1    2    0    0 -0.19242157268E+02 -0.69415712148E+02 -0.11480729956E+03  0.18437308701E+03  0.12499566981E+03 0.  0.
          2    1    1    2  501    0  0.59052163915E+02  0.90928474200E+02 -0.50538140922E+03  0.51688056093E+03  0.00000000000E+00 0. -1.
          1    1    1    2  502    0 -0.39810006646E+02 -0.21512762051E+02  0.53144199339E+02  0.69799294292E+02  0.00000000000E+00 0. -1.
         22    1    3    3    0    0 -0.45169941196E+02 -0.58996216909E+02 -0.88908564842E+01  0.74832643454E+02  0.00000000000E+00 0.  1.
         22    1    3    3    0    0  0.25927783928E+02 -0.10419495239E+02 -0.10591644308E+03  0.10954044356E+03  0.00000000000E+00 0.  1.
</event>
<event>
 7    1  0.5139898E-006  0.9263751E+02  0.7818608E-02  0.1391613E+00
          2   -1    0    0  502    0  0.00000000000E+00  0.00000000000E+00  0.21180217307E+04  0.21180217307E+04  0.00000000000E+00 0. -1.
          1   -1    0    0  501    0 -0.00000000000E+00 -0.00000000000E+00 -0.15230137879E+03  0.15230137879E+03  0.00000000000E+00 0. -1.
         25    2    1    2    0    0  0.10924323208E+02  0.69491398899E+02  0.82909813876E+03  0.84141390079E+03  0.12500093356E+03 0.  0.
          2    1    1    2  501    0 -0.50859685136E+02 -0.78031301563E+02 -0.13094030380E+03  0.16068900011E+03  0.00000000000E+00 0. -1.
          1    1    1    2  502    0  0.39935361928E+02  0.85399026643E+01  0.12675625169E+04  0.12682202085E+04  0.00000000000E+00 0. -1.
         22    1    3    3    0    0 -0.53083018105E+02  0.70132064642E+01  0.27903451484E+03  0.28412541658E+03  0.00000000000E+00 0.  1.
         22    1    3    3    0    0  0.64007341312E+02  0.62478192435E+02  0.55006362392E+03  0.55728848421E+03  0.00000000000E+00 0.  1.
</event>
<event>
 7    1  0.5139898E-006  0.4093873E+02  0.7818608E-02  0.1549482E+00
          2   -1    0    0  502    0  0.00000000000E+00  0.00000000000E+00  0.14016199660E+04  0.14016199660E+04  0.00000000000E+00 0. -1.
          1   -1    0    0  501    0 -0.00000000000E+00 -0.00000000000E+00 -0.42440411075E+02  0.42440411075E+02  0.00000000000E+00 0. -1.
         25    2    1    2    0    0 -0.25506217340E+02 -0.12479172225E+02  0.29616932026E+03  0.32271901989E+03  0.12500001071E+03 0.  0.
          2    1    1    2  501    0 -0.13647104938E+02  0.26439160516E+02 -0.21073837537E+02  0.36460654280E+02  0.00000000000E+00 0. -1.
          1    1    1    2  502    0  0.39153322278E+02 -0.13959988291E+02  0.10840840722E+04  0.10848807029E+04  0.00000000000E+00 0. -1.
         22    1    3    3    0    0  0.16832382411E+02  0.37913501875E+02  0.21122443477E+03  0.21525920321E+03  0.00000000000E+00 0. -1.
         22    1    3    3    0    0 -0.42338599750E+02 -0.50392674100E+02  0.84944885490E+02  0.10745981669E+03  0.00000000000E+00 0. -1.
</event>
<event>
 7    1  0.5139898E-006  0.7500277E+02  0.7818608E-02  0.1435517E+00
          2   -1    0    0  502    0  0.00000000000E+00  0.00000000000E+00  0.13888618306E+04  0.13888618306E+04  0.00000000000E+00 0. -1.
          1   -1    0    0  501    0 -0.00000000000E+00 -0.00000000000E+00 -0.53251932076E+03  0.53251932076E+03  0.00000000000E+00 0. -1.
         25    2    1    2    0    0 -0.90742537064E+02  0.28063323790E+02 -0.60168798656E+02  0.16813230214E+03  0.12500571393E+03 0.  0.
          2    1    1    2  501    0  0.59025646627E+02 -0.44816900273E+02 -0.41484317261E+03  0.42141124733E+03  0.00000000000E+00 0. -1.
          1    1    1    2  502    0  0.31716890438E+02  0.16753576483E+02  0.13313544811E+04  0.13318376019E+04  0.00000000000E+00 0. -1.
         22    1    3    3    0    0 -0.39643095771E+02  0.58169023236E+02  0.15410936217E+02  0.72060441725E+02  0.00000000000E+00 0.  1.
         22    1    3    3    0    0 -0.51099441293E+02 -0.30105699446E+02 -0.75579734873E+02  0.96071860412E+02  0.00000000000E+00 0.  1.
</event>
<event>
 7    1  0.5139898E-006  0.9189671E+02  0.7818608E-02  0.1313917E+00
          2   -1    0    0  502    0  0.00000000000E+00  0.00000000000E+00  0.47488416037E+03  0.47488416037E+03  0.00000000000E+00 0. -1.
          1   -1    0    0  501    0 -0.00000000000E+00 -0.00000000000E+00 -0.54865564071E+03  0.54865564071E+03  0.00000000000E+00 0. -1.
         25    2    1    2    0    0  0.12194834806E+03  0.10395790272E+03 -0.17897985300E+03  0.27080862058E+03  0.12499950427E+03 0.  0.
          2    1    1    2  501    0 -0.75224108759E+02 -0.26338275620E+02 -0.31394212267E+03  0.32390126226E+03  0.00000000000E+00 0. -1.
          1    1    1    2  502    0 -0.46724239300E+02 -0.77619627099E+02  0.41915049534E+03  0.42882991825E+03  0.00000000000E+00 0. -1.
         22    1    3    3    0    0 -0.23543516095E+02  0.12704676464E+02 -0.47505827283E+02  0.54520726151E+02  0.00000000000E+00 0.  1.
         22    1    3    3    0    0  0.14549186415E+03  0.91253226255E+02 -0.13147402572E+03  0.21628789443E+03  0.00000000000E+00 0.  1.
</event>
<event>
 7    1  0.5139898E-006  0.9839020E+02  0.7818608E-02  0.1284803E+00
          2   -1    0    0  502    0  0.00000000000E+00  0.00000000000E+00  0.34487180102E+03  0.34487180102E+03  0.00000000000E+00 0. -1.
          1   -1    0    0  501    0 -0.00000000000E+00 -0.00000000000E+00 -0.13963253035E+03  0.13963253035E+03  0.00000000000E+00 0. -1.
         25    2    1    2    0    0  0.42549100207E+02 -0.25046134006E+02  0.44542816242E+02  0.14158795308E+03  0.12500140488E+03 0.  0.
          2    1    1    2  501    0  0.70549161269E+02  0.67133977765E+02 -0.42762535612E+02  0.10636159823E+03  0.00000000000E+00 0. -1.
          1    1    1    2  502    0 -0.11309826148E+03 -0.42087843759E+02  0.20345899004E+03  0.23655478006E+03  0.00000000000E+00 0. -1.
         22    1    3    3    0    0  0.14501553376E+02  0.18036386279E+02 -0.37913530160E+02  0.44418937960E+02  0.00000000000E+00 0.  1.
         22    1    3    3    0    0  0.28047546831E+02 -0.43082520285E+02  0.82456346402E+02  0.97169015119E+02  0.00000000000E+00 0.  1.
</event>
<event>
 7    1  0.5139898E-006  0.7407319E+02  0.7818608E-02  0.1408574E+00
          2   -1    0    0  502    0  0.00000000000E+00  0.00000000000E+00  0.22183238425E+03  0.22183238425E+03  0.00000000000E+00 0. -1.
          1   -1    0    0  501    0 -0.00000000000E+00 -0.00000000000E+00 -0.45979084186E+03  0.45979084186E+03  0.00000000000E+00 0. -1.
         25    2    1    2    0    0 -0.19218802415E+02  0.30792442683E+02 -0.33707863447E+03  0.36133820785E+03  0.12500303095E+03 0.  0.
          2    1    1    2  501    0  0.10013243675E+02  0.43518297008E+02 -0.98935915658E+02  0.10854686836E+03  0.00000000000E+00 0. -1.
          1    1    1    2  502    0  0.92055587396E+01 -0.74310739691E+02  0.19805609251E+03  0.21173814991E+03  0.00000000000E+00 0. -1.
         22    1    3    3    0    0 -0.61302424167E+02 -0.85528990463E+01 -0.10206986702E+03  0.11937083833E+03  0.00000000000E+00 0.  1.
         22    1    3    3    0    0  0.42083621752E+02  0.39345341729E+02 -0.23500876744E+03  0.24196736952E+03  0.00000000000E+00 0.  1.
</event>
<event>
 7    1  0.5139898E-006  0.1245746E+03  0.7818608E-02  0.1320227E+00
          2   -1    0    0  502    0  0.00000000000E+00  0.00000000000E+00  0.28108285921E+04  0.28108285921E+04  0.00000000000E+00 0. -1.
          1   -1    0    0  501    0 -0.00000000000E+00 -0.00000000000E+00 -0.66531328820E+02  0.66531328820E+02  0.00000000000E+00 0. -1.
         25    2    1    2    0    0  0.11758964631E+03 -0.25513751059E+02  0.74081800690E+02  0.18865643592E+03  0.12499944483E+03 0.  0.
          2    1    1    2  501    0 -0.19530175893E+02 -0.52011529199E+02  0.92100920702E+02  0.10756024607E+03  0.00000000000E+00 0. -1.
          1    1    1    2  502    0 -0.98059470413E+02  0.77525280258E+02  0.25781145419E+04  0.25811432389E+04  0.00000000000E+00 0. -1.
         22    1    3    3    0    0  0.25339136871E+02  0.42254744892E+02 -0.50076997054E+01  0.49523856671E+02  0.00000000000E+00 0. -1.
         22    1    3    3    0    0  0.92250509435E+02 -0.67768495950E+02  0.79089500395E+02  0.13913257924E+03  0.00000000000E+00 0. -1.
</event>
<event>
 7    1  0.5139898E-006  0.5727882E+02  0.7818608E-02  0.1446101E+00
          2   -1    0    0  502    0  0.00000000000E+00  0.00000000000E+00  0.19337658022E+04  0.19337658022E+04  0.00000000000E+00 0. -1.
          1   -1    0    0  501    0 -0.00000000000E+00 -0.00000000000E+00 -0.92489352846E+02  0.92489352846E+02  0.00000000000E+00 0. -1.
         25    2    1    2    0    0 -0.89335733955E+01  0.12703588009E+02  0.22397172670E+03  0.25696570330E+03  0.12500739349E+03 0.  0.
          2    1    1    2  501    0 -0.15390330232E+02  0.40580585974E+02 -0.69245391845E+02  0.81722521464E+02  0.00000000000E+00 0. -1.
          1    1    1    2  502    0  0.24323903628E+02 -0.53284173983E+02  0.16865501145E+04  0.16875669303E+04  0.00000000000E+00 0. -1.
         22    1    3    3    0    0  0.31813185946E+02  0.57294743672E+02  0.11933388442E+03  0.13614456443E+03  0.00000000000E+00 0. -1.
         22    1    3    3    0    0 -0.40746759342E+02 -0.44591155663E+02  0.10463784228E+03  0.12082113887E+03  0.00000000000E+00 0. -1.
</event>
<event>
 7    1  0.5139898E-006  0.1345399E+03  0.7818608E-02  0.1318622E+00
          2   -1    0    0  502    0  0.00000000000E+00  0.00000000000E+00  0.72437829115E+03  0.72437829115E+03  0.00000000000E+00 0. -1.
          1   -1    0    0  501    0 -0.00000000000E+00 -0.00000000000E+00 -0.31134839749E+03  0.31134839749E+03  0.00000000000E+00 0. -1.
         25    2    1    2    0    0 -0.45280729842E+02 -0.17826295972E+03  0.35979440488E+03  0.42297211604E+03  0.12500147944E+03 0.  0.
          2    1    1    2  501    0  0.40145763644E+02  0.12633007235E+03 -0.26178965550E+03  0.29343618258E+03  0.00000000000E+00 0. -1.
          1    1    1    2  502    0  0.51349661979E+01  0.51932887370E+02  0.31502514429E+03  0.31931839001E+03  0.00000000000E+00 0. -1.
         22    1    3    3    0    0 -0.42971377460E+02 -0.19724060450E+03  0.34028843324E+03  0.39565971888E+03  0.00000000000E+00 0.  1.
         22    1    3    3    0    0 -0.23093523823E+01  0.18977644771E+02  0.19505971635E+02  0.27312397165E+02  0.00000000000E+00 0.  1.
</event>
<event>
 7    1  0.6297992E-006  0.8314935E+02  0.7818608E-02  0.1369869E+00
          2   -1    0    0  502    0  0.00000000000E+00  0.00000000000E+00  0.18646803121E+04  0.18646803121E+04  0.00000000000E+00 0. -1.
          1   -1    0    0  501    0 -0.00000000000E+00 -0.00000000000E+00 -0.45987122075E+03  0.45987122075E+03  0.00000000000E+00 0. -1.
         25    2    1    2    0    0  0.32773734926E+02  0.21030015715E+02 -0.21105154050E+03  0.24836280274E+03  0.12499979909E+03 0.  0.
          2    1    1    2  501    0  0.50572189359E+02 -0.19815319366E+02 -0.22600383962E+03  0.23243908608E+03  0.00000000000E+00 0. -1.
          1    1    1    2  502    0 -0.83345924285E+02 -0.12146963498E+01  0.18418644715E+04  0.18437496440E+04  0.00000000000E+00 0. -1.
         22    1    3    3    0    0 -0.44288989758E+02 -0.33116273893E+01 -0.42658273742E+02  0.61580920815E+02  0.00000000000E+00 0.  1.
         22    1    3    3    0    0  0.77062724684E+02  0.24341643105E+02 -0.16839326676E+03  0.18678188193E+03  0.00000000000E+00 0.  1.
</event>
<event>
 7    1  0.5139898E-006  0.3081804E+02  0.7818608E-02  0.1594166E+00
          2   -1    0    0  502    0  0.00000000000E+00  0.00000000000E+00  0.72680048164E+02  0.72680048164E+02  0.00000000000E+00 0. -1.
          1   -1    0    0  501    0 -0.00000000000E+00 -0.00000000000E+00 -0.34030280055E+03  0.34030280055E+03  0.00000000000E+00 0. -1.
         25    2    1    2    0    0  0.10932047131E+02 -0.30056863144E+01 -0.61401553423E+02  0.13972812758E+03  0.12500102028E+03 0.  0.
          2    1    1    2  501    0  0.10596267007E+02  0.27964347143E+02 -0.23042780240E+03  0.23236018959E+03  0.00000000000E+00 0. -1.
          1    1    1    2  502    0 -0.21528314138E+02 -0.24958660828E+02  0.24206603439E+02  0.40894531542E+02  0.00000000000E+00 0. -1.
         22    1    3    3    0    0  0.61391152438E+02  0.26682758639E+02 -0.34276668652E+02  0.75204609035E+02  0.00000000000E+00 0.  1.
         22    1    3    3    0    0 -0.50459105307E+02 -0.29688444953E+02 -0.27124884771E+02  0.64523518549E+02  0.00000000000E+00 0.  1.
</event>
<event>
 7    1  0.5139898E-006  0.6633933E+02  0.7818608E-02  0.1502695E+00
          2   -1    0    0  502    0  0.00000000000E+00  0.00000000000E+00  0.10376131180E+04  0.10376131180E+04  0.00000000000E+00 0. -1.
          1   -1    0    0  501    0 -0.00000000000E+00 -0.00000000000E+00 -0.21487470067E+02  0.21487470067E+02  0.00000000000E+00 0. -1.
         25    2    1    2    0    0  0.78906058619E+02 -0.10338188539E+02  0.57471057296E+03  0.59350651805E+03  0.12499880025E+03 0.  0.
          2    1    1    2  501    0 -0.20357608272E+02 -0.14585034578E+02  0.62633249675E+01  0.25814427901E+02  0.00000000000E+00 0. -1.
          1    1    1    2  502    0 -0.58548450347E+02  0.24923223117E+02  0.43515175004E+03  0.43977964215E+03  0.00000000000E+00 0. -1.
         22    1    3    3    0    0  0.21972822239E+02 -0.15064096779E+02  0.14385520856E+02  0.30276643460E+02  0.00000000000E+00 0. -1.
         22    1    3    3    0    0  0.56933236380E+02  0.47259082395E+01  0.56032505211E+03  0.56322987459E+03  0.00000000000E+00 0. -1.
</event>
<event>
 7    1  0.5139898E-006  0.5636362E+02  0.7818608E-02  0.1444974E+00
          2   -1    0    0  502    0  0.00000000000E+00  0.00000000000E+00  0.63886868255E+03  0.63886868255E+03  0.00000000000E+00 0. -1.
          1   -1    0    0  501    0 -0.00000000000E+00 -0.00000000000E+00 -0.13427322824E+03  0.13427322824E+03  0.00000000000E+00 0. -1.
         25    2    1    2    0    0 -0.24097798799E+02 -0.87156298379E+01  0.23268271677E+02  0.12970999617E+03  0.12500641795E+03 0.  0.
          2    1    1    2  501    0  0.22471982598E+01 -0.44419288351E+02 -0.73353500124E+02  0.85783792514E+02  0.00000000000E+00 0. -1.
          1    1    1    2  502    0  0.21850600539E+02  0.53134918189E+02  0.55468068275E+03  0.55764812211E+03  0.00000000000E+00 0. -1.
         22    1    3    3    0    0 -0.69494216684E+02 -0.28784503119E+02  0.79273818410E+00  0.75223814089E+02  0.00000000000E+00 0.  1.
         22    1    3    3    0    0  0.45396417885E+02  0.20068873281E+02  0.22475533493E+02  0.54486182077E+02  0.00000000000E+00 0.  1.
</event>
<event>
 7    1  0.5139898E-006  0.7063003E+02  0.7818608E-02  0.1493802E+00
          2   -1    0    0  502    0  0.00000000000E+00  0.00000000000E+00  0.51284799736E+03  0.51284799736E+03  0.00000000000E+00 0. -1.
          1   -1    0    0  501    0 -0.00000000000E+00 -0.00000000000E+00 -0.76348779543E+03  0.76348779543E+03  0.00000000000E+00 0. -1.
         25    2    1    2    0    0 -0.90540706151E+02  0.18834762416E+02 -0.11810270549E+03  0.19525675125E+03  0.12499832846E+03 0.  0.
          2    1    1    2  501    0  0.20394094862E+02 -0.14472890775E+02 -0.60394411021E+03  0.60446163810E+03  0.00000000000E+00 0. -1.
          1    1    1    2  502    0  0.70146611289E+02 -0.43618716408E+01  0.47140701763E+03  0.47661740345E+03  0.00000000000E+00 0. -1.
         22    1    3    3    0    0 -0.11488867645E+03  0.20123531004E+02 -0.57722156886E+02  0.13013920191E+03  0.00000000000E+00 0.  1.
         22    1    3    3    0    0  0.24347970303E+02 -0.12887685876E+01 -0.60380548604E+02  0.65117549340E+02  0.00000000000E+00 0.  1.
</event>
<event>
 7    1  0.5139898E-006  0.8352297E+02  0.7818608E-02  0.1348659E+00
          2   -1    0    0  502    0  0.00000000000E+00  0.00000000000E+00  0.27721133497E+03  0.27721133497E+03  0.00000000000E+00 0. -1.
          1   -1    0    0  501    0 -0.00000000000E+00 -0.00000000000E+00 -0.46297433600E+03  0.46297433600E+03  0.00000000000E+00 0. -1.
         25    2    1    2    0    0 -0.22221948924E+02 -0.10300368695E+02 -0.51507472392E+02  0.13740032939E+03  0.12500367272E+03 0.  0.
          2    1    1    2  501    0 -0.62395164486E+02 -0.16872936972E+02 -0.35708436416E+03  0.36288716659E+03  0.00000000000E+00 0. -1.
          1    1    1    2  502    0  0.84617113410E+02  0.27173305667E+02  0.22282883553E+03  0.23989817499E+03  0.00000000000E+00 0. -1.
         22    1    3    3    0    0  0.62050142605E+01  0.42169915354E+02  0.17580772276E+02  0.46107347752E+02  0.00000000000E+00 0. -1.
         22    1    3    3    0    0 -0.28426963185E+02 -0.52470284049E+02 -0.69088244668E+02  0.91292981633E+02  0.00000000000E+00 0. -1.
</event>
<event>
 7    1  0.5139898E-006  0.9916823E+02  0.7818608E-02  0.1291644E+00
          2   -1    0    0  502    0  0.00000000000E+00  0.00000000000E+00  0.50646791984E+03  0.50646791984E+03  0.00000000000E+00 0. -1.
          1   -1    0    0  501    0 -0.00000000000E+00 -0.00000000000E+00 -0.30057665416E+03  0.30057665416E+03  0.00000000000E+00 0. -1.
         25    2    1    2    0    0 -0.90382546631E+02 -0.10373288543E+03 -0.57099309931E+02  0.19446100618E+03  0.12500094189E+03 0.  0.
          2    1    1    2  501    0  0.90479684469E+02  0.48513813060E+01 -0.15691244286E+03  0.18119498869E+03  0.00000000000E+00 0. -1.
          1    1    1    2  502    0 -0.97137838175E-01  0.98881504124E+02  0.41990301847E+03  0.43138857914E+03  0.00000000000E+00 0. -1.
         22    1    3    3    0    0 -0.16001892162E+02  0.52447061476E+01  0.31370293876E+02  0.35604253021E+02  0.00000000000E+00 0.  1.
         22    1    3    3    0    0 -0.74380654469E+02 -0.10897759158E+03 -0.88469603807E+02  0.15885675316E+03  0.00000000000E+00 0.  1.
</event>
<event>
 7    1  0.5139898E-006  0.2642221E+03  0.7818608E-02  0.1208633E+00
          2   -1    0    0  502    0  0.00000000000E+00  0.00000000000E+00  0.16622118741E+04  0.16622118741E+04  0.00000000000E+00 0. -1.
          1   -1    0    0  501    0 -0.00000000000E+00 -0.00000000000E+00 -0.10970696716E+04  0.10970696716E+04  0.00000000000E+00 0. -1.
         25    2    1    2    0    0 -0.10114705017E+03 -0.17745514649E+03 -0.80836983462E+02  0.25276684848E+03  0.12504162116E+03 0.  0.
          2    1    1    2  501    0 -0.73234435133E+02 -0.26809442422E+02 -0.91716026241E+03  0.92046997541E+03  0.00000000000E+00 0. -1.
          1    1    1    2  502    0  0.17438148530E+03  0.20426458891E+03  0.15631394483E+04  0.15860447218E+04  0.00000000000E+00 0. -1.
         22    1    3    3    0    0 -0.23929681942E+02 -0.76145382205E+02 -0.95591578118E+02  0.12453312297E+03  0.00000000000E+00 0. -1.
         22    1    3    3    0    0 -0.77217368223E+02 -0.10130976429E+03  0.14754594656E+02  0.12823372551E+03  0.00000000000E+00 0. -1.
</event>
<event>
 7    1  0.5139898E-006  0.8671006E+02  0.7818608E-02  0.1351615E+00
          2   -1    0    0  502    0  0.00000000000E+00  0.00000000000E+00  0.45519622954E+03  0.45519622954E+03  0.00000000000E+00 0. -1.
          1   -1    0    0  501    0 -0.00000000000E+00 -0.00000000000E+00 -0.15063709527E+03  0.15063709527E+03  0.00000000000E+00 0. -1.
         25    2    1    2    0    0 -0.37463536805E+02  0.11329228854E+03  0.79508909230E+02  0.19022290116E+03  0.12499770496E+03 0.  0.
          2    1    1    2  501    0  0.61105565579E+02 -0.57374516866E+02 -0.73176002793E+02  0.11126748274E+03  0.00000000000E+00 0. -1.
          1    1    1    2  502    0 -0.23642028774E+02 -0.55917771671E+02  0.29822622783E+03  0.30434294091E+03  0.00000000000E+00 0. -1.
         22    1    3    3    0    0  0.45102428929E+02  0.34517476736E+02  0.39973119487E+02  0.69451678000E+02  0.00000000000E+00 0.  1.
         22    1    3    3    0    0 -0.82565965734E+02  0.78774811801E+02  0.39535789743E+02  0.12077122316E+03  0.00000000000E+00 0.  1.
</event>
<event>
 7    1  0.5139898E-006  0.2083503E+03  0.7818608E-02  0.1293820E+00
          2   -1    0    0  502    0  0.00000000000E+00  0.00000000000E+00  0.10159880979E+04  0.10159880979E+04  0.00000000000E+00 0. -1.
          1   -1    0    0  501    0 -0.00000000000E+00 -0.00000000000E+00 -0.36291149655E+03  0.36291149655E+03  0.00000000000E+00 0. -1.
         25    2    1    2    0    0  0.29624249581E+02  0.20165556741E+03  0.70875684661E+03  0.74799826272E+03  0.12499027714E+03 0.  0.
          2    1    1    2  501    0 -0.71517557589E+02 -0.19609117257E+03 -0.30965542119E+03  0.37343404890E+03  0.00000000000E+00 0. -1.
          1    1    1    2  502    0  0.41893308007E+02 -0.55643948416E+01  0.25397517593E+03  0.25746728284E+03  0.00000000000E+00 0. -1.
         22    1    3    3    0    0 -0.40907861985E+02  0.13623834883E+03  0.39548384686E+03  0.42028777521E+03  0.00000000000E+00 0.  1.
         22    1    3    3    0    0  0.70532111566E+02  0.65417218577E+02  0.31327299975E+03  0.32771048751E+03  0.00000000000E+00 0.  1.
</event>
<event>
 7    1  0.5139898E-006  0.4130681E+02  0.7818608E-02  0.1503236E+00
          2   -1    0    0  502    0  0.00000000000E+00  0.00000000000E+00  0.33947467456E+04  0.33947467456E+04  0.00000000000E+00 0. -1.
          1   -1    0    0  501    0 -0.00000000000E+00 -0.00000000000E+00 -0.30225619292E+02  0.30225619292E+02  0.00000000000E+00 0. -1.
         25    2    1    2    0    0  0.73307575019E+00  0.19741946107E+01  0.11419267936E+04  0.11487496291E+04  0.12499789404E+03 0.  0.
          2    1    1    2  501    0 -0.32410601743E+02 -0.26514291799E+02 -0.10175895454E+02  0.43092964893E+02  0.00000000000E+00 0. -1.
          1    1    1    2  502    0  0.31677525993E+02  0.24540097188E+02  0.22327702281E+04  0.22331297709E+04  0.00000000000E+00 0. -1.
         22    1    3    3    0    0 -0.57092954223E+02 -0.16730053314E+02  0.40857796289E+03  0.41288673007E+03  0.00000000000E+00 0.  1.
         22    1    3    3    0    0  0.57826029973E+02  0.18704247924E+02  0.73334883072E+03  0.73586289902E+03  0.00000000000E+00 0.  1.
</event>
<event>
 7    1  0.5139898E-006  0.9216843E+02  0.7818608E-02  0.1339181E+00
          2   -1    0    0  502    0  0.00000000000E+00  0.00000000000E+00  0.25164595857E+03  0.25164595857E+03  0.00000000000E+00 0. -1.
          1   -1    0    0  501    0 -0.00000000000E+00 -0.00000000000E+00 -0.24478399531E+04  0.24478399531E+04  0.00000000000E+00 0. -1.
         25    2    1    2    0    0 -0.52176378490E+02 -0.91170843101E+02 -0.44373101862E+03  0.47282010082E+03  0.12500853471E+03 0.  0.
          2    1    1    2  501    0 -0.11372554195E+02  0.91958601997E+02 -0.19842048971E+04  0.19863672353E+04  0.00000000000E+00 0. -1.
          1    1    1    2  502    0  0.63548932685E+02 -0.78775889573E+00  0.23174192120E+03  0.24029857563E+03  0.00000000000E+00 0. -1.
         22    1    3    3    0    0 -0.91246642041E+02 -0.48651705328E+02 -0.31967039382E+03  0.33597931306E+03  0.00000000000E+00 0. -1.
         22    1    3    3    0    0  0.39070263550E+02 -0.42519137773E+02 -0.12406062479E+03  0.13684078776E+03  0.00000000000E+00 0. -1.
</event>
<event>
 7    1  0.5139898E-006  0.1164918E+03  0.7818608E-02  0.1386925E+00
          2   -1    0    0  502    0  0.00000000000E+00  0.00000000000E+00  0.49309307785E+03  0.49309307785E+03  0.00000000000E+00 0. -1.
          1   -1    0    0  501    0 -0.00000000000E+00 -0.00000000000E+00 -0.10724029402E+04  0.10724029402E+04  0.00000000000E+00 0. -1.
         25    2    1    2    0    0  0.71270521785E+02 -0.82542829856E+02 -0.45670453248E+03  0.48589666425E+03  0.12499492913E+03 0.  0.
          2    1    1    2  501    0 -0.51050418886E+02  0.10953239122E+03 -0.59442078030E+03  0.60658021237E+03  0.00000000000E+00 0. -1.
          1    1    1    2  502    0 -0.20220102899E+02 -0.26989561366E+02  0.47181545038E+03  0.47301914147E+03  0.00000000000E+00 0. -1.
         22    1    3    3    0    0  0.94683398906E+01 -0.10039382944E+03 -0.25644474110E+03  0.27555847962E+03  0.00000000000E+00 0. -1.
         22    1    3    3    0    0  0.61802181894E+02  0.17850999582E+02 -0.20025979138E+03  0.21033818463E+03  0.00000000000E+00 0. -1.
</event>
<event>
 7    1  0.5139898E-006  0.1060380E+03  0.7818608E-02  0.1328921E+00
          2   -1    0    0  502    0  0.00000000000E+00  0.00000000000E+00  0.33121952245E+03  0.33121952245E+03  0.00000000000E+00 0. -1.
          1   -1    0    0  501    0 -0.00000000000E+00 -0.00000000000E+00 -0.30410525209E+03  0.30410525209E+03  0.00000000000E+00 0. -1.
         25    2    1    2    0    0 -0.24710055251E+02  0.59823887467E+02  0.12798849367E+02  0.14134601427E+03  0.12500160344E+03 0.  0.
          2    1    1    2  501    0  0.81676930492E+02 -0.79972266544E+02 -0.22219333850E+03  0.24987309592E+03  0.00000000000E+00 0. -1.
          1    1    1    2  502    0 -0.56966875241E+02  0.20148379077E+02  0.23650875949E+03  0.24410566435E+03  0.00000000000E+00 0. -1.
         22    1    3    3    0    0  0.36510990708E+02  0.67702908048E+02 -0.50654751902E+01  0.77086933001E+02  0.00000000000E+00 0. -1.
         22    1    3    3    0    0 -0.61221045958E+02 -0.78790205812E+01  0.17864324558E+02  0.64259081268E+02  0.00000000000E+00 0. -1.
</event>
<event>
 7    1  0.5139898E-006  0.7233952E+02  0.7818608E-02  0.1377624E+00
          2   -1    0    0  502    0  0.00000000000E+00  0.00000000000E+00  0.23675685342E+04  0.23675685342E+04  0.00000000000E+00 0. -1.
          1   -1    0    0  501    0 -0.00000000000E+00 -0.00000000000E+00 -0.14822497271E+04  0.14822497271E+04  0.00000000000E+00 0. -1.
         25    2    1    2    0    0  0.17281509617E+02  0.12652173950E+03  0.17550314256E+03  0.25046499534E+03  0.12499983881E+03 0.  0.
          2    1    1    2  501    0  0.41136918266E+01 -0.71998061388E+02 -0.14434704204E+04  0.14452707352E+04  0.00000000000E+00 0. -1.
          1    1    1    2  502    0 -0.21395201443E+02 -0.54523678116E+02  0.21532860850E+04  0.21540825309E+04  0.00000000000E+00 0. -1.
         22    1    3    3    0    0  0.54548849172E+02  0.11711707646E+03  0.16692658799E+03  0.21108404090E+03  0.00000000000E+00 0. -1.
         22    1    3    3    0    0 -0.37267339555E+02  0.94046630408E+01  0.85765545692E+01  0.39380954441E+02  0.00000000000E+00 0. -1.
</event>
<event>
 7    1  0.5139898E-006  0.7919307E+02  0.7818608E-02  0.1332813E+00
          2   -1    0    0  502    0  0.00000000000E+00  0.00000000000E+00  0.74265791407E+03  0.74265791407E+03  0.00000000000E+00 0. -1.
          1   -1    0    0  501    0 -0.00000000000E+00 -0.00000000000E+00 -0.25403606006E+04  0.25403606006E+04  0.00000000000E+00 0. -1.
         25    2    1    2    0    0  0.15380444313E+03  0.14676760906E+02 -0.66699997905E+02  0.20963104349E+03  0.12500028255E+03 0.  0.
          2    1    1    2  501    0 -0.78325899151E+02  0.57306768053E+01 -0.23992733031E+04  0.24005583039E+04  0.00000000000E+00 0. -1.
          1    1    1    2  502    0 -0.75478543976E+02 -0.20407437711E+02  0.66827061453E+03  0.67282916729E+03  0.00000000000E+00 0. -1.
         22    1    3    3    0    0 -0.16293285436E+02  0.16457508150E+02 -0.25813388392E+02  0.34679269674E+02  0.00000000000E+00 0.  1.
         22    1    3    3    0    0  0.17009772856E+03 -0.17807472440E+01 -0.40886609513E+02  0.17495177381E+03  0.00000000000E+00 0.  1.
</event>
<event>
 7    1  0.5139898E-006  0.1846567E+03  0.7818608E-02  0.1363863E+00
          2   -1    0    0  502    0  0.00000000000E+00  0.00000000000E+00  0.23863179953E+04  0.23863179953E+04  0.00000000000E+00 0. -1.
          1   -1    0    0  501    0 -0.00000000000E+00 -0.00000000000E+00 -0.93881399865E+02  0.93881399865E+02  0.00000000000E+00 0. -1.
         25    2    1    2    0    0  0.72154194728E+02 -0.16397569662E+03  0.16375418808E+04  0.16520483466E+04  0.12500428437E+03 0.  0.
          2    1    1    2  501    0 -0.97060266687E+02  0.15759377254E+03  0.12784292646E+02  0.18552609157E+03  0.00000000000E+00 0. -1.
          1    1    1    2  502    0  0.24906071959E+02  0.63819240725E+01  0.64211042201E+03  0.64262495705E+03  0.00000000000E+00 0. -1.
         22    1    3    3    0    0  0.93359634356E+02 -0.58161311068E+02  0.76864242411E+03  0.77647275263E+03  0.00000000000E+00 0. -1.
         22    1    3    3    0    0 -0.21205439628E+02 -0.10581438555E+03  0.86889945671E+03  0.87557559395E+03  0.00000000000E+00 0. -1.
</event>
<event>
 7    1  0.5139898E-006  0.7878266E+02  0.7818608E-02  0.1395646E+00
          2   -1    0    0  502    0  0.00000000000E+00  0.00000000000E+00  0.18755686648E+04  0.18755686648E+04  0.00000000000E+00 0. -1.
          1   -1    0    0  501    0 -0.00000000000E+00 -0.00000000000E+00 -0.11943716821E+03  0.11943716821E+03  0.00000000000E+00 0. -1.
         25    2    1    2    0    0 -0.65649953982E+02  0.53965983720E+02  0.97732109908E+03  0.98894115521E+03  0.12500333565E+03 0.  0.
          2    1    1    2  501    0  0.78339444582E+02 -0.92342365421E+01 -0.99247247458E+02  0.12677679531E+03  0.00000000000E+00 0. -1.
          1    1    1    2  502    0 -0.12689490600E+02 -0.44731747178E+02  0.87805764501E+03  0.87928788252E+03  0.00000000000E+00 0. -1.
         22    1    3    3    0    0  0.90186935661E+01  0.71752410836E+02  0.39276975845E+03  0.39937179226E+03  0.00000000000E+00 0.  1.
         22    1    3    3    0    0 -0.74668647548E+02 -0.17786427116E+02  0.58455134062E+03  0.58956936296E+03  0.00000000000E+00 0.  1.
</event>
<event>
 7    1  0.5139898E-006  0.6371752E+02  0.7818608E-02  0.1433182E+00
          2   -1    0    0  502    0  0.00000000000E+00  0.00000000000E+00  0.55127733172E+03  0.55127733172E+03  0.00000000000E+00 0. -1.
          1   -1    0    0  501    0 -0.00000000000E+00 -0.00000000000E+00 -0.12603556161E+03  0.12603556161E+03  0.00000000000E+00 0. -1.
         25    2    1    2    0    0 -0.92417695150E+02 -0.30216922765E+02  0.54730788521E+02  0.16755416060E+03  0.12499937889E+03 0.  0.
          2    1    1    2  501    0  0.42346570299E+02 -0.73050625164E+01 -0.60511987968E+02  0.74217899743E+02  0.00000000000E+00 0. -1.
          1    1    1    2  502    0  0.50071124851E+02  0.37521985281E+02  0.43102296955E+03  0.43554083299E+03  0.00000000000E+00 0. -1.
         22    1    3    3    0    0 -0.83865580644E+02 -0.67492269664E+02  0.91267065958E+01  0.10803674770E+03  0.00000000000E+00 0. -1.
         22    1    3    3    0    0 -0.85521145062E+01  0.37275346900E+02  0.45604081925E+02  0.59517412891E+02  0.00000000000E+00 0. -1.
</event>
<event>
 7    1  0.5139898E-006  0.8538735E+02  0.7818608E-02  0.1362456E+00
          2   -1    0    0  502    0  0.00000000000E+00  0.00000000000E+00  0.95288232659E+03  0.95288232659E+03  0.00000000000E+00 0. -1.
          1   -1    0    0  501    0 -0.00000000000E+00 -0.00000000000E+00 -0.73187210705E+03  0.73187210705E+03  0.00000000000E+00 0. -1.
         25    2    1    2    0    0 -0.15880372397E+02  0.81669566591E+02  0.56292602335E+03  0.58260906026E+03  0.12500201996E+03 0.  0.
          2    1    1    2  501    0 -0.52959761267E+02 -0.18983864888E+02 -0.71520810072E+03  0.71741741739E+03  0.00000000000E+00 0. -1.
          1    1    1    2  502    0  0.68840133665E+02 -0.62685701703E+02  0.37329229690E+03  0.38472795600E+03  0.00000000000E+00 0. -1.
         22    1    3    3    0    0 -0.13865176873E+02 -0.53796784122E+01  0.37711623479E+03  0.37740937801E+03  0.00000000000E+00 0.  1.
         22    1    3    3    0    0 -0.20151955242E+01  0.87049245003E+02  0.18580978856E+03  0.20519968225E+03  0.00000000000E+00 0.  1.
</event>
<event>
 7    1  0.5139898E-006  0.4247632E+02  0.7818608E-02  0.1562784E+00
          2   -1    0    0  502    0  0.00000000000E+00  0.00000000000E+00  0.54409377642E+03  0.54409377642E+03  0.00000000000E+00 0. -1.
          1   -1    0    0  501    0 -0.00000000000E+00 -0.00000000000E+00 -0.83442361542E+03  0.83442361542E+03  0.00000000000E+00 0. -1.
         25    2    1    2    0    0 -0.16404963104E+02 -0.12457640631E+02 -0.23492875426E+03  0.26691743526E+03  0.12501632711E+03 0.  0.
          2    1    1    2  501    0  0.42603707192E+02  0.96713010428E+01 -0.58235320607E+03  0.58398961168E+03  0.00000000000E+00 0. -1.
          1    1    1    2  502    0 -0.26198744088E+02  0.27863395879E+01  0.52695212132E+03  0.52761034490E+03  0.00000000000E+00 0. -1.
         22    1    3    3    0    0  0.25403125948E+02 -0.41647092886E+02 -0.33606719852E+02  0.59238591923E+02  0.00000000000E+00 0. -1.
         22    1    3    3    0    0 -0.41808089052E+02  0.29189452256E+02 -0.20132203440E+03  0.20767884334E+03  0.00000000000E+00 0. -1.
</event>
<event>
 7    1  0.5139898E-006  0.1455863E+03  0.7818608E-02  0.1316923E+00
          2   -1    0    0  502    0  0.00000000000E+00  0.00000000000E+00  0.16805152867E+04  0.16805152867E+04  0.00000000000E+00 0. -1.
          1   -1    0    0  501    0 -0.00000000000E+00 -0.00000000000E+00 -0.51463596211E+02  0.51463596211E+02  0.00000000000E+00 0. -1.
         25    2    1    2    0    0  0.13902673971E+03 -0.10000625253E+03  0.10811838516E+04  0.11017778743E+04  0.12500511433E+03 0.  0.
          2    1    1    2  501    0 -0.24194557439E+02  0.42571931464E+02 -0.16299212687E+02  0.51608238610E+02  0.00000000000E+00 0. -1.
          1    1    1    2  502    0 -0.11483218227E+03  0.57434321065E+02  0.56416705157E+03  0.57859276991E+03  0.00000000000E+00 0. -1.
         22    1    3    3    0    0  0.20426237097E+01 -0.65004192113E+02  0.23367281765E+03  0.24255453616E+03  0.00000000000E+00 0. -1.
         22    1    3    3    0    0  0.13698411600E+03 -0.35002060416E+02  0.84751103391E+03  0.85922333818E+03  0.00000000000E+00 0. -1.
</event>
<event>
 7    1  0.5139898E-006  0.2238872E+03  0.7818608E-02  0.1233766E+00
          2   -1    0    0  502    0  0.00000000000E+00  0.00000000000E+00  0.36589673751E+03  0.36589673751E+03  0.00000000000E+00 0. -1.
          1   -1    0    0  501    0 -0.00000000000E+00 -0.00000000000E+00 -0.54111980473E+03  0.54111980473E+03  0.00000000000E+00 0. -1.
         25    2    1    2    0    0 -0.16784476756E+03 -0.15035189632E+03 -0.10275087755E+03  0.27741747015E+03  0.12500060473E+03 0.  0.
          2    1    1    2  501    0  0.20723850483E+03  0.91609967765E+02 -0.30874511329E+03  0.38296700779E+03  0.00000000000E+00 0. -1.
          1    1    1    2  502    0 -0.39393737266E+02  0.58741928551E+02  0.23627292361E+03  0.24663206429E+03  0.00000000000E+00 0. -1.
         22    1    3    3    0    0 -0.13172566339E+03 -0.14366163504E+03 -0.31754179527E+02  0.19748074260E+03  0.00000000000E+00 0. -1.
         22    1    3    3    0    0 -0.36119104169E+02 -0.66902612757E+01 -0.70996698022E+02  0.79936727553E+02  0.00000000000E+00 0. -1.
</event>
<event>
 7    1  0.5139898E-006  0.8426091E+02  0.7818608E-02  0.1422768E+00
          2   -1    0    0  502    0  0.00000000000E+00  0.00000000000E+00  0.44728466078E+02  0.44728466078E+02  0.00000000000E+00 0. -1.
          1   -1    0    0  501    0 -0.00000000000E+00 -0.00000000000E+00 -0.71221349271E+03  0.71221349271E+03  0.00000000000E+00 0. -1.
         25    2    1    2    0    0  0.86538148385E+02  0.75462528728E+02 -0.25468033470E+03  0.30605482738E+03  0.12499616039E+03 0.  0.
          2    1    1    2  501    0 -0.59279727903E+02 -0.53234358537E+02 -0.40762093245E+03  0.41533457314E+03  0.00000000000E+00 0. -1.
          1    1    1    2  502    0 -0.27258420483E+02 -0.22228170191E+02 -0.51837594802E+01  0.35552558271E+02  0.00000000000E+00 0. -1.
         22    1    3    3    0    0  0.73499420304E+02 -0.17572709874E+02 -0.12117858573E+03  0.14281181519E+03  0.00000000000E+00 0. -1.
         22    1    3    3    0    0  0.13038728081E+02  0.93035238603E+02 -0.13350174896E+03  0.16324301219E+03  0.00000000000E+00 0. -1.
</event>
<event>
 7    1  0.5139898E-006  0.1237998E+03  0.7818608E-02  0.1237995E+00
          2   -1    0    0  502    0  0.00000000000E+00  0.00000000000E+00  0.57998652065E+03  0.57998652065E+03  0.00000000000E+00 0. -1.
          1   -1    0    0  501    0 -0.00000000000E+00 -0.00000000000E+00 -0.11843152005E+04  0.11843152005E+04  0.00000000000E+00 0. -1.
         25    2    1    2    0    0 -0.10610062265E+03  0.79663029333E+02  0.21160756053E+03  0.27929609334E+03  0.12500003084E+03 0.  0.
          2    1    1    2  501    0 -0.79961764908E+01 -0.12424175520E+03 -0.11357404745E+04  0.11425438189E+04  0.00000000000E+00 0. -1.
          1    1    1    2  502    0  0.11409679915E+03  0.44578725871E+02  0.31980423417E+03  0.34246180892E+03  0.00000000000E+00 0. -1.
         22    1    3    3    0    0 -0.12167286273E+03  0.23907818502E+02  0.13549141158E+03  0.18366761261E+03  0.00000000000E+00 0.  1.
         22    1    3    3    0    0  0.15572240074E+02  0.55755210831E+02  0.76116148943E+02  0.95628480724E+02  0.00000000000E+00 0.  1.
</event>
<event>
 7    1  0.5139898E-006  0.6043179E+02  0.7818608E-02  0.1503941E+00
          2   -1    0    0  502    0  0.00000000000E+00  0.00000000000E+00  0.31091956401E+03  0.31091956401E+03  0.00000000000E+00 0. -1.
          1   -1    0    0  501    0 -0.00000000000E+00 -0.00000000000E+00 -0.29180426118E+03  0.29180426118E+03  0.00000000000E+00 0. -1.
         25    2    1    2    0    0 -0.34165264615E+02  0.77353403274E+02  0.59754623091E+02  0.16231827444E+03  0.12500317169E+03 0.  0.
          2    1    1    2  501    0  0.47527532708E+01 -0.26840451050E+02 -0.23544594273E+03  0.23701854447E+03  0.00000000000E+00 0. -1.
          1    1    1    2  502    0  0.29412511344E+02 -0.50512952224E+02  0.19480662247E+03  0.20338700628E+03  0.00000000000E+00 0. -1.
         22    1    3    3    0    0  0.11774459062E+02  0.31059436886E+02  0.85865320710E+02  0.92066170804E+02  0.00000000000E+00 0. -1.
         22    1    3    3    0    0 -0.45939723677E+02  0.46293966388E+02 -0.26110697620E+02  0.70252103639E+02  0.00000000000E+00 0. -1.
</event>
<event>
 7    1  0.5139898E-006  0.1082611E+03  0.7818608E-02  0.1346868E+00
          2   -1    0    0  502    0  0.00000000000E+00  0.00000000000E+00  0.17716700052E+04  0.17716700052E+04  0.00000000000E+00 0. -1.
          1   -1    0    0  501    0 -0.00000000000E+00 -0.00000000000E+00 -0.36677765434E+03  0.36677765434E+03  0.00000000000E+00 0. -1.
         25    2    1    2    0    0 -0.11320095126E+03  0.38648518130E+01  0.20670733305E+02  0.16994672918E+03  0.12500087639E+03 0.  0.
          2    1    1    2  501    0  0.14421307298E+02 -0.48540082307E+02 -0.28817703104E+03  0.29259206229E+03  0.00000000000E+00 0. -1.
          1    1    1    2  502    0  0.98779643966E+02  0.44675230495E+02  0.16723986486E+04  0.16759088681E+04  0.00000000000E+00 0. -1.
         22    1    3    3    0    0 -0.11708476417E+03  0.14928509670E+02 -0.26810357203E+02  0.12103924015E+03  0.00000000000E+00 0.  1.
         22    1    3    3    0    0  0.38838129059E+01 -0.11063657857E+02  0.47481090508E+02  0.48907489035E+02  0.00000000000E+00 0.  1.
</event>
<event>
 7    1  0.5139898E-006  0.9928907E+02  0.7818608E-02  0.1299110E+00
          2   -1    0    0  502    0  0.00000000000E+00  0.00000000000E+00  0.10244466089E+03  0.10244466089E+03  0.00000000000E+00 0. -1.
          1   -1    0    0  501    0 -0.00000000000E+00 -0.00000000000E+00 -0.13680715389E+04  0.13680715389E+04  0.00000000000E+00 0. -1.
         25    2    1    2    0    0 -0.71654649516E+02  0.16121875804E+03 -0.80416483633E+03  0.83272941222E+03  0.12502525043E+03 0.  0.
          2    1    1    2  501    0  0.52181868128E+02 -0.66383912892E+02 -0.51856033047E+03  0.52538993861E+03  0.00000000000E+00 0. -1.
          1    1    1    2  502    0  0.19472781388E+02 -0.94834845151E+02  0.57098288796E+02  0.11239684895E+03  0.00000000000E+00 0. -1.
         22    1    3    3    0    0  0.43954722069E+01  0.20644380692E+02 -0.36113822689E+03  0.36175451560E+03  0.00000000000E+00 0.  1.
         22    1    3    3    0    0 -0.76050121723E+02  0.14057437735E+03 -0.44302660943E+03  0.47097489662E+03  0.00000000000E+00 0.  1.
</event>
<event>
 7    1  0.5139898E-006  0.2115077E+03  0.7818608E-02  0.1218599E+00
          2   -1    0    0  502    0  0.00000000000E+00  0.00000000000E+00  0.15203937896E+04  0.15203937896E+04  0.00000000000E+00 0. -1.
          1   -1    0    0  501    0 -0.00000000000E+00 -0.00000000000E+00 -0.12027341978E+04  0.12027341978E+04  0.00000000000E+00 0. -1.
         25    2    1    2    0    0  0.24429627906E+02 -0.19016584537E+03  0.94306700636E+03  0.97044307450E+03  0.12499810756E+03 0.  0.
          2    1    1    2  501    0 -0.55552114537E+02 -0.67793920093E+02 -0.11573562011E+04  0.11606702500E+04  0.00000000000E+00 0. -1.
          1    1    1    2  502    0  0.31122486632E+02  0.25795976546E+03  0.53194878647E+03  0.59201466299E+03  0.00000000000E+00 0. -1.
         22    1    3    3    0    0 -0.78405859500E+00 -0.12772635623E+03  0.33275469404E+03  0.35642716399E+03  0.00000000000E+00 0. -1.
         22    1    3    3    0    0  0.25213686501E+02 -0.62439489146E+02  0.61031231232E+03  0.61401591051E+03  0.00000000000E+00 0. -1.
</event>
<event>
 7    1  0.5139898E-006  0.6985293E+02  0.7818608E-02  0.1397934E+00
          2   -1    0    0  502    0  0.00000000000E+00  0.00000000000E+00  0.29676834069E+03  0.29676834069E+03  0.00000000000E+00 0. -1.
          1   -1    0    0  501    0 -0.00000000000E+00 -0.00000000000E+00 -0.65693410591E+03  0.65693410591E+03  0.00000000000E+00 0. -1.
         25    2    1    2    0    0 -0.52838600561E+02 -0.96497826898E+02 -0.70468829271E+02  0.18081625858E+03  0.12499966065E+03 0.  0.
          2    1    1    2  501    0  0.10120508082E+02  0.67741951892E+02 -0.52630302028E+03  0.53074124193E+03  0.00000000000E+00 0. -1.
          1    1    1    2  502    0  0.42718092478E+02  0.28755875006E+02  0.23660608433E+03  0.24214494609E+03  0.00000000000E+00 0. -1.
         22    1    3    3    0    0 -0.75533985221E+02 -0.64162124286E+02 -0.92513654141E+02  0.13557631548E+03  0.00000000000E+00 0. -1.
         22    1    3    3    0    0  0.22695384660E+02 -0.32335702612E+02  0.22044824870E+02  0.45239943102E+02  0.00000000000E+00 0. -1.
</event>
<event>
 7    1  0.5139898E-006  0.1124151E+03  0.7818608E-02  0.1430950E+00
          2   -1    0    0  502    0  0.00000000000E+00  0.00000000000E+00  0.20576615014E+03  0.20576615014E+03  0.00000000000E+00 0. -1.
          1   -1    0    0  501    0 -0.00000000000E+00 -0.00000000000E+00 -0.18205781090E+04  0.18205781090E+04  0.00000000000E+00 0. -1.
         25    2    1    2    0    0  0.10546425446E+03  0.53821433185E+02 -0.10027596722E+04  0.10174333671E+04  0.12499696302E+03 0.  0.
          2    1    1    2  501    0  0.30261110683E+01 -0.24585548896E+02 -0.79436699509E+03  0.79475312484E+03  0.00000000000E+00 0. -1.
          1    1    1    2  502    0 -0.10849036552E+03 -0.29235884289E+02  0.18231470840E+03  0.21415776717E+03  0.00000000000E+00 0. -1.
         22    1    3    3    0    0  0.10038093899E+03 -0.14904998185E+02 -0.66683864636E+03  0.67451632460E+03  0.00000000000E+00 0. -1.
         22    1    3    3    0    0  0.50833154622E+01  0.68726431369E+02 -0.33592102582E+03  0.34291704252E+03  0.00000000000E+00 0. -1.
</event>
<event>
 7    1  0.5139898E-006  0.1053715E+03  0.7818608E-02  0.1269958E+00
          2   -1    0    0  502    0  0.00000000000E+00  0.00000000000E+00  0.19102738846E+04  0.19102738846E+04  0.00000000000E+00 0. -1.
          1   -1    0    0  501    0 -0.00000000000E+00 -0.00000000000E+00 -0.30060416965E+03  0.30060416965E+03  0.00000000000E+00 0. -1.
         25    2    1    2    0    0 -0.69336014986E+02  0.23981627644E+02  0.72870299385E+02  0.16223075966E+03  0.12500454955E+03 0.  0.
          2    1    1    2  501    0 -0.10284436281E+01 -0.10536648945E+03 -0.24338452301E+03  0.26521534804E+03  0.00000000000E+00 0. -1.
          1    1    1    2  502    0  0.70364458614E+02  0.81384861810E+02  0.17801839386E+04  0.17834319465E+04  0.00000000000E+00 0. -1.
         22    1    3    3    0    0 -0.77755186016E+02  0.26025692611E+02  0.10255707987E+03  0.13130559874E+03  0.00000000000E+00 0.  1.
         22    1    3    3    0    0  0.84191710298E+01 -0.20440649670E+01 -0.29686780484E+02  0.30925160920E+02  0.00000000000E+00 0.  1.
</event>
<event>
 7    1  0.5139898E-006  0.5434398E+02  0.7818608E-02  0.1552707E+00
          2   -1    0    0  502    0  0.00000000000E+00  0.00000000000E+00  0.13180167625E+04  0.13180167625E+04  0.00000000000E+00 0. -1.
          1   -1    0    0  501    0 -0.00000000000E+00 -0.00000000000E+00 -0.21072253282E+03  0.21072253282E+03  0.00000000000E+00 0. -1.
         25    2    1    2    0    0 -0.69442604998E+02 -0.23961021052E+02 -0.36898011487E+02  0.14960727239E+03  0.12499786711E+03 0.  0.
          2    1    1    2  501    0  0.15941073593E+02  0.15097050910E+02 -0.11585565832E+03  0.11791765066E+03  0.00000000000E+00 0. -1.
          1    1    1    2  502    0  0.53501531405E+02  0.88639701418E+01  0.12600478995E+04  0.12612143723E+04  0.00000000000E+00 0. -1.
         22    1    3    3    0    0 -0.76281727305E+01  0.37758979436E+02 -0.48007039258E+02  0.61551647952E+02  0.00000000000E+00 0. -1.
         22    1    3    3    0    0 -0.61814432268E+02 -0.61720000489E+02  0.11109027771E+02  0.88055624436E+02  0.00000000000E+00 0. -1.
</event>
<event>
 7    1  0.5139898E-006  0.1745587E+03  0.7818608E-02  0.1226966E+00
          2   -1    0    0  502    0  0.00000000000E+00  0.00000000000E+00  0.16478327883E+04  0.16478327883E+04  0.00000000000E+00 0. -1.
          1   -1    0    0  501    0 -0.00000000000E+00 -0.00000000000E+00 -0.55405860306E+03  0.55405860306E+03  0.00000000000E+00 0. -1.
         25    2    1    2    0    0  0.45804165546E+02  0.73489161640E+02  0.12008755610E+03  0.19376500566E+03  0.12500071131E+03 0.  0.
          2    1    1    2  501    0 -0.10399611780E+03 -0.15148027070E+03 -0.49924494393E+03  0.53198400255E+03  0.00000000000E+00 0. -1.
          1    1    1    2  502    0  0.58191952256E+02  0.77991109057E+02  0.14729315731E+04  0.14761423832E+04  0.00000000000E+00 0. -1.
         22    1    3    3    0    0 -0.16223655946E+02 -0.28077021349E+02  0.18760957004E+02  0.37463310689E+02  0.00000000000E+00 0. -1.
         22    1    3    3    0    0  0.62027821492E+02  0.10156618299E+03  0.10132659910E+03  0.15630169497E+03  0.00000000000E+00 0. -1.
</event>
<event>
 7    1  0.5139898E-006  0.1472245E+03  0.7818608E-02  0.1270639E+00
          2   -1    0    0  502    0  0.00000000000E+00  0.00000000000E+00  0.14240501836E+04  0.14240501836E+04  0.00000000000E+00 0. -1.
          1   -1    0    0  501    0 -0.00000000000E+00 -0.00000000000E+00 -0.97164801160E+03  0.97164801160E+03  0.00000000000E+00 0. -1.
         25    2    1    2    0    0 -0.14181107206E+03 -0.29721626641E+02  0.26316331233E+03  0.32538214373E+03  0.12499942100E+03 0.  0.
          2    1    1    2  501    0  0.11085880948E+03  0.97499351308E+02 -0.93350267307E+03  0.94510477714E+03  0.00000000000E+00 0. -1.
          1    1    1    2  502    0  0.30952262578E+02 -0.67777724667E+02  0.11227415328E+04  0.11252112744E+04  0.00000000000E+00 0. -1.
         22    1    3    3    0    0 -0.16965331029E+02 -0.35129042568E+02  0.15586994149E+03  0.16067766101E+03  0.00000000000E+00 0.  1.
         22    1    3    3    0    0 -0.12484574103E+03  0.54074159276E+01  0.10729337085E+03  0.16470448272E+03  0.00000000000E+00 0.  1.
</event>
<event>
 7    1  0.5139898E-006  0.5631931E+02  0.7818608E-02  0.1522548E+00
          2   -1    0    0  502    0  0.00000000000E+00  0.00000000000E+00  0.16905953566E+03  0.16905953566E+03  0.00000000000E+00 0. -1.
          1   -1    0    0  501    0 -0.00000000000E+00 -0.00000000000E+00 -0.72834374047E+03  0.72834374047E+03  0.00000000000E+00 0. -1.
         25    2    1    2    0    0 -0.34615142658E+02  0.28516390051E+02 -0.46275698653E+03  0.48143594956E+03  0.12500060936E+03 0.  0.
          2    1    1    2  501    0 -0.20417894948E+02 -0.15766702958E+02 -0.25056928572E+03  0.25189372025E+03  0.00000000000E+00 0. -1.
          1    1    1    2  502    0  0.55033037605E+02 -0.12749687093E+02  0.15404206744E+03  0.16407360632E+03  0.00000000000E+00 0. -1.
         22    1    3    3    0    0  0.12781710885E+02 -0.36323048342E+02 -0.26824503585E+03  0.27099471440E+03  0.00000000000E+00 0. -1.
         22    1    3    3    0    0 -0.47396853543E+02  0.64839438393E+02 -0.19451195068E+03  0.21044123516E+03  0.00000000000E+00 0. -1.
</event>
<event>
 7    1  0.5139898E-006  0.3954253E+02  0.7818608E-02  0.1581543E+00
          2   -1    0    0  502    0  0.00000000000E+00  0.00000000000E+00  0.27920049952E+03  0.27920049952E+03  0.00000000000E+00 0. -1.
          1   -1    0    0  501    0 -0.00000000000E+00 -0.00000000000E+00 -0.17951989695E+04  0.17951989695E+04  0.00000000000E+00 0. -1.
         25    2    1    2    0    0  0.25454313071E+02 -0.28645889823E+02 -0.53161918012E+03  0.54745749021E+03  0.12498896692E+03 0.  0.
          2    1    1    2  501    0 -0.28810755920E+01  0.39793455863E+02 -0.12547587767E+04  0.12553929294E+04  0.00000000000E+00 0. -1.
          1    1    1    2  502    0 -0.22573237479E+02 -0.11147566039E+02  0.27037948684E+03  0.27154904931E+03  0.00000000000E+00 0. -1.
         22    1    3    3    0    0  0.29429819910E+02 -0.63910515310E+02 -0.47804694272E+03  0.48319721410E+03  0.00000000000E+00 0.  1.
         22    1    3    3    0    0 -0.39755068387E+01  0.35264625487E+02 -0.53572237404E+02  0.64260276111E+02  0.00000000000E+00 0.  1.
</event>
<event>
 7    1  0.5139898E-006  0.4670219E+02  0.7818608E-02  0.1475116E+00
          2   -1    0    0  502    0  0.00000000000E+00  0.00000000000E+00  0.60659055878E+03  0.60659055878E+03  0.00000000000E+00 0. -1.
          1   -1    0    0  501    0 -0.00000000000E+00 -0.00000000000E+00 -0.32401329529E+03  0.32401329529E+03  0.00000000000E+00 0. -1.
         25    2    1    2    0    0  0.27584170173E+02 -0.68587307869E+01  0.34863728289E+03  0.37145561852E+03  0.12499357136E+03 0.  0.
          2    1    1    2  501    0 -0.19557664721E+02 -0.42409813450E+02 -0.30830062058E+03  0.31181784294E+03  0.00000000000E+00 0. -1.
          1    1    1    2  502    0 -0.80265054516E+01  0.49268544237E+02  0.24224060119E+03  0.24733039260E+03  0.00000000000E+00 0. -1.
         22    1    3    3    0    0  0.11280717720E+01 -0.41156037703E+02  0.31205446643E+03  0.31475876796E+03  0.00000000000E+00 0.  1.
         22    1    3    3    0    0  0.26456098401E+02  0.34297306916E+02  0.36582816452E+02  0.56696850564E+02  0.00000000000E+00 0.  1.
</event>
<event>
 7    1  0.5139898E-006  0.1108485E+03  0.7818608E-02  0.1458444E+00
          2   -1    0    0  502    0  0.00000000000E+00  0.00000000000E+00  0.22048393109E+03  0.22048393109E+03  0.00000000000E+00 0. -1.
          1   -1    0    0  501    0 -0.00000000000E+00 -0.00000000000E+00 -0.10664460360E+04  0.10664460360E+04  0.00000000000E+00 0. -1.
         25    2    1    2    0    0 -0.45560854407E+02  0.10970107019E+03 -0.40811224921E+03  0.44304713826E+03  0.12500017006E+03 0.  0.
          2    1    1    2  501    0  0.20387143912E+02 -0.19818044369E+01 -0.62561711055E+03  0.62595234020E+03  0.00000000000E+00 0. -1.
          1    1    1    2  502    0  0.25173710495E+02 -0.10771926576E+03  0.18776725481E+03  0.21793048867E+03  0.00000000000E+00 0. -1.
         22    1    3    3    0    0  0.29896498429E+02 -0.94090262567E+01 -0.80086627939E+02  0.86001153295E+02  0.00000000000E+00 0.  1.
         22    1    3    3    0    0 -0.75457352836E+02  0.11911009645E+03 -0.32802562127E+03  0.35704598497E+03  0.00000000000E+00 0.  1.
</event>
<event>
 7    1  0.5139898E-006  0.5118871E+02  0.7818608E-02  0.1497102E+00
          2   -1    0    0  502    0  0.00000000000E+00  0.00000000000E+00  0.34053482676E+03  0.34053482676E+03  0.00000000000E+00 0. -1.
          1   -1    0    0  501    0 -0.00000000000E+00 -0.00000000000E+00 -0.17901365152E+03  0.17901365152E+03  0.00000000000E+00 0. -1.
         25    2    1    2    0    0 -0.12212933747E+02 -0.19705444518E+02 -0.25064591129E+02  0.12957897787E+03  0.12500006993E+03 0.  0.
          2    1    1    2  501    0  0.15050104206E+02  0.53312865836E+02 -0.93058407186E+02  0.10829882016E+03  0.00000000000E+00 0. -1.
          1    1    1    2  502    0 -0.28371704587E+01 -0.33607421318E+02  0.27964417356E+03  0.28167068024E+03  0.00000000000E+00 0. -1.
         22    1    3    3    0    0 -0.62687280740E+02 -0.32360315014E+02  0.26999380513E+01  0.70598688514E+02  0.00000000000E+00 0.  1.
         22    1    3    3    0    0  0.50474346994E+02  0.12654870496E+02 -0.27764529180E+02  0.58980289354E+02  0.00000000000E+00 0.  1.
</event>
<event>
 7    1  0.5139898E-006  0.6189844E+02  0.7818608E-02  0.1404191E+00
          2   -1    0    0  502    0  0.00000000000E+00  0.00000000000E+00  0.15564358659E+04  0.15564358659E+04  0.00000000000E+00 0. -1.
          1   -1    0    0  501    0 -0.00000000000E+00 -0.00000000000E+00 -0.60768846105E+03  0.60768846105E+03  0.00000000000E+00 0. -1.
         25    2    1    2    0    0 -0.25454956669E+02 -0.32380031786E+02  0.14353314309E+03  0.19473961633E+03  0.12500133489E+03 0.  0.
          2    1    1    2  501    0 -0.36978923408E+02  0.41128168780E+02 -0.58005289456E+03  0.58268372856E+03  0.00000000000E+00 0. -1.
          1    1    1    2  502    0  0.62433880078E+02 -0.87481369934E+01  0.13852671563E+04  0.13867009821E+04  0.00000000000E+00 0. -1.
         22    1    3    3    0    0 -0.43648080361E+02 -0.15019438589E+02 -0.28159362328E+01  0.46245734415E+02  0.00000000000E+00 0. -1.
         22    1    3    3    0    0  0.18193123691E+02 -0.17360593197E+02  0.14634907933E+03  0.14849388191E+03  0.00000000000E+00 0. -1.
</event>
<event>
 7    1  0.5139898E-006  0.1268349E+03  0.7818608E-02  0.1284171E+00
          2   -1    0    0  502    0  0.00000000000E+00  0.00000000000E+00  0.87987086382E+03  0.87987086382E+03  0.00000000000E+00 0. -1.
          1   -1    0    0  501    0 -0.00000000000E+00 -0.00000000000E+00 -0.53696270290E+03  0.53696270290E+03  0.00000000000E+00 0. -1.
         25    2    1    2    0    0  0.14225335086E+03  0.36258786401E+02  0.20366076602E+03  0.28045121606E+03  0.12499784620E+03 0.  0.
          2    1    1    2  501    0 -0.21191714078E+02 -0.72983992641E+02 -0.48933200361E+03  0.49519850735E+03  0.00000000000E+00 0. -1.
          1    1    1    2  502    0 -0.12106163678E+03  0.36725206240E+02  0.62857939851E+03  0.64118384330E+03  0.00000000000E+00 0. -1.
         22    1    3    3    0    0  0.12402835401E+03 -0.25390367019E+02  0.11572532357E+03  0.17152275024E+03  0.00000000000E+00 0.  1.
         22    1    3    3    0    0  0.18224996849E+02  0.61649153420E+02  0.87935442452E+02  0.10892846582E+03  0.00000000000E+00 0.  1.
</event>
<event>
 7    1  0.5139898E-006  0.5943194E+02  0.7818608E-02  0.1433518E+00
          2   -1    0    0  502    0  0.00000000000E+00  0.00000000000E+00  0.65078201227E+02  0.65078201227E+02  0.00000000000E+00 0. -1.
          1   -1    0    0  501    0 -0.00000000000E+00 -0.00000000000E+00 -0.84434178084E+03  0.84434178084E+03  0.00000000000E+00 0. -1.
         25    2    1    2    0    0  0.47787370000E+01 -0.21777120016E+02 -0.14868002405E+03  0.19552079016E+03  0.12500220219E+03 0.  0.
          2    1    1    2  501    0 -0.18230663784E+02 -0.42183079077E+02 -0.64527469697E+03  0.64690896099E+03  0.00000000000E+00 0. -1.
          1    1    1    2  502    0  0.13451926784E+02  0.63960199092E+02  0.14691141404E+02  0.66990230914E+02  0.00000000000E+00 0. -1.
         22    1    3    3    0    0  0.27073031323E+02 -0.45857790097E+02 -0.11513681612E+02  0.54483491095E+02  0.00000000000E+00 0.  1.
         22    1    3    3    0    0 -0.22294294323E+02  0.24080670081E+02 -0.13716634244E+03  0.14103729907E+03  0.00000000000E+00 0.  1.
</event>
<event>
 7    1  0.5139898E-006  0.9048241E+02  0.7818608E-02  0.1312398E+00
          2   -1    0    0  502    0  0.00000000000E+00  0.00000000000E+00  0.22953004389E+04  0.22953004389E+04  0.00000000000E+00 0. -1.
          1   -1    0    0  501    0 -0.00000000000E+00 -0.00000000000E+00 -0.16211847913E+03  0.16211847913E+03  0.00000000000E+00 0. -1.
         25    2    1    2    0    0 -0.77730937161E+02 -0.71998717670E+02 -0.39991990361E+02  0.16867096450E+03  0.12499848413E+03 0.  0.
          2    1    1    2  501    0 -0.12570348234E+01  0.94262257730E+02 -0.18053942488E+02  0.95983843475E+02  0.00000000000E+00 0. -1.
          1    1    1    2  502    0  0.78987971984E+02 -0.22263540060E+02  0.21912278927E+04  0.21927641101E+04  0.00000000000E+00 0. -1.
         22    1    3    3    0    0 -0.91158255882E+02 -0.78691795299E+02 -0.66975705438E+02  0.13779684823E+03  0.00000000000E+00 0.  1.
         22    1    3    3    0    0  0.13427318721E+02  0.66930776290E+01  0.26983715077E+02  0.30874116272E+02  0.00000000000E+00 0.  1.
</event>
<event>
 7    1  0.5139898E-006  0.5812493E+02  0.7818608E-02  0.1479479E+00
          2   -1    0    0  502    0  0.00000000000E+00  0.00000000000E+00  0.32119714572E+03  0.32119714572E+03  0.00000000000E+00 0. -1.
          1   -1    0    0  501    0 -0.00000000000E+00 -0.00000000000E+00 -0.11260198886E+04  0.11260198886E+04  0.00000000000E+00 0. -1.
         25    2    1    2    0    0 -0.39629491805E+02 -0.20950619833E+02  0.19076651768E+03  0.23243538138E+03  0.12499966862E+03 0.  0.
          2    1    1    2  501    0  0.57737710439E+02 -0.73426818878E+01 -0.11018251643E+04  0.11033613419E+04  0.00000000000E+00 0. -1.
          1    1    1    2  502    0 -0.18108218635E+02  0.28293301721E+02  0.10623590364E+03  0.11142031111E+03  0.00000000000E+00 0. -1.
         22    1    3    3    0    0 -0.10336306043E+02 -0.53910169419E+02  0.17837744389E+03  0.18663241433E+03  0.00000000000E+00 0.  1.
         22    1    3    3    0    0 -0.29293185761E+02  0.32959549586E+02  0.12389073795E+02  0.45802967049E+02  0.00000000000E+00 0.  1.
</event>
<event>
 7    1  0.5139898E-006  0.4440749E+02  0.7818608E-02  0.1555222E+00
          2   -1    0    0  502    0  0.00000000000E+00  0.00000000000E+00  0.58801049686E+02  0.58801049686E+02  0.00000000000E+00 0. -1.
          1   -1    0    0  501    0 -0.00000000000E+00 -0.00000000000E+00 -0.25706485454E+03  0.25706485454E+03  0.00000000000E+00 0. -1.
         25    2    1    2    0    0  0.53720403204E+02  0.34586258691E+02 -0.16744002541E+03  0.21850076721E+03  0.12499732859E+03 0.  0.
          2    1    1    2  501    0 -0.26407438635E+02 -0.13060774765E+01 -0.44868455426E+02  0.52079141179E+02  0.00000000000E+00 0. -1.
          1    1    1    2  502    0 -0.27312964568E+02 -0.33280181215E+02  0.14044675981E+02  0.45285995833E+02  0.00000000000E+00 0. -1.
         22    1    3    3    0    0  0.64941215038E+02 -0.28463190013E+02 -0.11772326629E+03  0.13742736999E+03  0.00000000000E+00 0.  1.
         22    1    3    3    0    0 -0.11220811834E+02  0.63049448704E+02 -0.49716759115E+02  0.81073397221E+02  0.00000000000E+00 0.  1.
</event>
<event>
 7    1  0.5139898E-006  0.7072556E+02  0.7818608E-02  0.1504821E+00
          2   -1    0    0  502    0  0.00000000000E+00  0.00000000000E+00  0.60421072983E+03  0.60421072983E+03  0.00000000000E+00 0. -1.
          1   -1    0    0  501    0 -0.00000000000E+00 -0.00000000000E+00 -0.75292436078E+03  0.75292436078E+03  0.00000000000E+00 0. -1.
         25    2    1    2    0    0  0.36614413683E+02 -0.61244554567E+02 -0.12284536187E+03  0.18922827939E+03  0.12499939213E+03 0.  0.
          2    1    1    2  501    0 -0.14918902687E+02  0.69324227097E+02 -0.59454508087E+03  0.59875894591E+03  0.00000000000E+00 0. -1.
          1    1    1    2  502    0 -0.21695510996E+02 -0.80796725297E+01  0.56867681180E+03  0.56914786531E+03  0.00000000000E+00 0. -1.
         22    1    3    3    0    0  0.38532042240E+02  0.31772357248E+01  0.11404101510E+02  0.40309634546E+02  0.00000000000E+00 0. -1.
         22    1    3    3    0    0 -0.19176285570E+01 -0.64421790292E+02 -0.13424946338E+03  0.14891864485E+03  0.00000000000E+00 0. -1.
</event>
<event>
 7    1  0.5139898E-006  0.1224481E+03  0.7818608E-02  0.1346995E+00
          2   -1    0    0  502    0  0.00000000000E+00  0.00000000000E+00  0.16861304063E+04  0.16861304063E+04  0.00000000000E+00 0. -1.
          1   -1    0    0  501    0 -0.00000000000E+00 -0.00000000000E+00 -0.73066559168E+03  0.73066559168E+03  0.00000000000E+00 0. -1.
         25    2    1    2    0    0  0.87440494030E+01 -0.16231914535E+03  0.95256340938E+01  0.20527729893E+03  0.12499627356E+03 0.  0.
          2    1    1    2  501    0 -0.19142020644E+02  0.11882330478E+03 -0.62674618813E+03  0.63819760189E+03  0.00000000000E+00 0. -1.
          1    1    1    2  502    0  0.10397971241E+02  0.43495840569E+02  0.15726853687E+04  0.15733210972E+04  0.00000000000E+00 0. -1.
         22    1    3    3    0    0  0.29833389697E+02  0.64733817184E+01  0.17124729094E+02  0.35002745010E+02  0.00000000000E+00 0.  1.
         22    1    3    3    0    0 -0.21089340294E+02 -0.16879252707E+03 -0.75990949998E+01  0.17027455392E+03  0.00000000000E+00 0.  1.
</event>
<event>
 7    1  0.5139898E-006  0.2826012E+03  0.7818608E-02  0.1277945E+00
          2   -1    0    0  502    0  0.00000000000E+00  0.00000000000E+00  0.75499037853E+03  0.75499037853E+03  0.00000000000E+00 0. -1.
          1   -1    0    0  501    0 -0.00000000000E+00 -0.00000000000E+00 -0.14621443574E+04  0.14621443574E+04  0.00000000000E+00 0. -1.
         25    2    1    2    0    0  0.23567686829E+03  0.77392356346E+02  0.36279493152E+03  0.45691223141E+03  0.12496184142E+03 0.  0.
          2    1    1    2  501    0 -0.26769267229E+03 -0.94259649526E+02 -0.13998568127E+04  0.14283358654E+04  0.00000000000E+00 0. -1.
          1    1    1    2  502    0  0.32015804007E+02  0.16867293181E+02  0.32990790226E+03  0.33188663917E+03  0.00000000000E+00 0. -1.
         22    1    3    3    0    0  0.17785149256E+03  0.11188528574E+03  0.26533280773E+03  0.33845379216E+03  0.00000000000E+00 0. -1.
         22    1    3    3    0    0  0.57825375724E+02 -0.34492929391E+02  0.97462123792E+02  0.11845843925E+03  0.00000000000E+00 0. -1.
</event>
<event>
 7    1  0.5139898E-006  0.1480360E+03  0.7818608E-02  0.1282724E+00
          2   -1    0    0  502    0  0.00000000000E+00  0.00000000000E+00  0.11691272933E+04  0.11691272933E+04  0.00000000000E+00 0. -1.
          1   -1    0    0  501    0 -0.00000000000E+00 -0.00000000000E+00 -0.35663554206E+03  0.35663554206E+03  0.00000000000E+00 0. -1.
         25    2    1    2    0    0  0.13935423854E+03  0.10276168657E+03  0.78308774366E+03  0.81168859129E+03  0.12502954424E+03 0.  0.
          2    1    1    2  501    0 -0.13607723274E+02 -0.64594408811E+02 -0.32732259909E+03  0.33391270065E+03  0.00000000000E+00 0. -1.
          1    1    1    2  502    0 -0.12574651526E+03 -0.38167277760E+02  0.35672660669E+03  0.38016154344E+03  0.00000000000E+00 0. -1.
         22    1    3    3    0    0  0.82887239533E+02  0.10823347018E+03  0.68449832656E+03  0.69794178669E+03  0.00000000000E+00 0. -1.
         22    1    3    3    0    0  0.56466999006E+02 -0.54717836073E+01  0.98589417108E+02  0.11374680461E+03  0.00000000000E+00 0. -1.
</event>
<event>
 7    1  0.5139898E-006  0.6656949E+02  0.7818608E-02  0.1385663E+00
          2   -1    0    0  502    0  0.00000000000E+00  0.00000000000E+00  0.95745949185E+03  0.95745949185E+03  0.00000000000E+00 0. -1.
          1   -1    0    0  501    0 -0.00000000000E+00 -0.00000000000E+00 -0.45664550592E+03  0.45664550592E+03  0.00000000000E+00 0. -1.
         25    2    1    2    0    0  0.25391243090E+02 -0.41495713684E+02  0.47724870882E+03  0.49574029271E+03  0.12500199304E+03 0.  0.
          2    1    1    2  501    0  0.43766418088E+02  0.50159723217E+02 -0.44231665396E+03  0.44729802096E+03  0.00000000000E+00 0. -1.
          1    1    1    2  502    0 -0.69157661177E+02 -0.86640095324E+01  0.46588193108E+03  0.47106668410E+03  0.00000000000E+00 0. -1.
         22    1    3    3    0    0  0.16172130450E+02  0.42660783347E+02  0.11475358084E+03  0.12349034195E+03  0.00000000000E+00 0.  1.
         22    1    3    3    0    0  0.92191126397E+01 -0.84156497032E+02  0.36249512798E+03  0.37224995076E+03  0.00000000000E+00 0.  1.
</event>
<event>
 7    1  0.5139898E-006  0.1625682E+03  0.7818608E-02  0.1314492E+00
          2   -1    0    0  502    0  0.00000000000E+00  0.00000000000E+00  0.25869298074E+04  0.25869298074E+04  0.00000000000E+00 0. -1.
          1   -1    0    0  501    0 -0.00000000000E+00 -0.00000000000E+00 -0.68165510503E+03  0.68165510503E+03  0.00000000000E+00 0. -1.
         25    2    1    2    0    0  0.19908677381E+03 -0.54403846302E+02 -0.56690244569E+02  0.24785800484E+03  0.12499793894E+03 0.  0.
          2    1    1    2  501    0 -0.44146079255E+02  0.77473380431E+01 -0.52579909917E+03  0.52770596950E+03  0.00000000000E+00 0. -1.
          1    1    1    2  502    0 -0.15494069455E+03  0.46656508259E+02  0.24877640461E+04  0.24930209381E+04  0.00000000000E+00 0. -1.
         22    1    3    3    0    0 -0.85400377627E+00  0.21141238979E+02  0.10751672459E+02  0.23733515725E+02  0.00000000000E+00 0.  1.
         22    1    3    3    0    0  0.19994077758E+03 -0.75545085281E+02 -0.67441917028E+02  0.22412448912E+03  0.00000000000E+00 0.  1.
</event>
<event>
 7    1  0.5139898E-006  0.8683659E+02  0.7818608E-02  0.1377913E+00
          2   -1    0    0  502    0  0.00000000000E+00  0.00000000000E+00  0.19468889028E+03  0.19468889028E+03  0.00000000000E+00 0. -1.
          1   -1    0    0  501    0 -0.00000000000E+00 -0.00000000000E+00 -0.36455932599E+03  0.36455932599E+03  0.00000000000E+00 0. -1.
         25    2    1    2    0    0 -0.20424578748E+02 -0.54385765737E+02  0.13441366737E+03  0.19253017226E+03  0.12500343326E+03 0.  0.
          2    1    1    2  501    0 -0.15890641212E+02  0.86800717738E+02 -0.30553641459E+03  0.31802417788E+03  0.00000000000E+00 0. -1.
          1    1    1    2  502    0  0.36315219960E+02 -0.32414952001E+02  0.12523115079E+01  0.48693866124E+02  0.00000000000E+00 0. -1.
         22    1    3    3    0    0 -0.14431840130E+02  0.12139746998E+00 -0.22264610563E+02  0.26533104424E+02  0.00000000000E+00 0.  1.
         22    1    3    3    0    0 -0.59927386179E+01 -0.54507163207E+02  0.15667827793E+03  0.16599706784E+03  0.00000000000E+00 0.  1.
</event>
<event>
 7    1  0.5139898E-006  0.3444941E+02  0.7818608E-02  0.1565535E+00
          2   -1    0    0  502    0  0.00000000000E+00  0.00000000000E+00  0.29566940318E+03  0.29566940318E+03  0.00000000000E+00 0. -1.
          1   -1    0    0  501    0 -0.00000000000E+00 -0.00000000000E+00 -0.10911352684E+04  0.10911352684E+04  0.00000000000E+00 0. -1.
         25    2    1    2    0    0 -0.40573815822E+00  0.34851927862E+02 -0.41211061685E+02  0.13614789120E+03  0.12499230046E+03 0.  0.
          2    1    1    2  501    0  0.28442326303E+02 -0.14503706690E+02 -0.10009912383E+04  0.10015002659E+04  0.00000000000E+00 0. -1.
          1    1    1    2  502    0 -0.28036588145E+02 -0.20348221172E+02  0.24673643485E+03  0.24915651439E+03  0.00000000000E+00 0. -1.
         22    1    3    3    0    0  0.13165907695E+02 -0.22757537920E+01  0.41973268784E+02  0.44048558128E+02  0.00000000000E+00 0.  1.
         22    1    3    3    0    0 -0.13571645853E+02  0.37127681654E+02 -0.83184330469E+02  0.92099333069E+02  0.00000000000E+00 0.  1.
</event>
<event>
 7    1  0.5139898E-006  0.6682424E+02  0.7818608E-02  0.1396137E+00
          2   -1    0    0  502    0  0.00000000000E+00  0.00000000000E+00  0.17563668113E+03  0.17563668113E+03  0.00000000000E+00 0. -1.
          1   -1    0    0  501    0 -0.00000000000E+00 -0.00000000000E+00 -0.48063326703E+03  0.48063326703E+03  0.00000000000E+00 0. -1.
         25    2    1    2    0    0 -0.44219701622E+02  0.33309172608E+02 -0.22878799251E+03  0.26652143900E+03  0.12499939576E+03 0.  0.
          2    1    1    2  501    0  0.42361190119E+02  0.34453950824E+02 -0.22218702915E+03  0.22879821040E+03  0.00000000000E+00 0. -1.
          1    1    1    2  502    0  0.18585115035E+01 -0.67763123431E+02  0.14597843577E+03  0.16095029876E+03  0.00000000000E+00 0. -1.
         22    1    3    3    0    0  0.26054533144E+02  0.26303301831E+02 -0.12628290134E+02  0.39117465361E+02  0.00000000000E+00 0.  1.
         22    1    3    3    0    0 -0.70274234766E+02  0.70058707768E+01 -0.21615970237E+03  0.22740397364E+03  0.00000000000E+00 0.  1.
</event>
<event>
 7    1  0.5139898E-006  0.1712073E+03  0.7818608E-02  0.1196178E+00
          2   -1    0    0  502    0  0.00000000000E+00  0.00000000000E+00  0.38050276135E+03  0.38050276135E+03  0.00000000000E+00 0. -1.
          1   -1    0    0  501    0 -0.00000000000E+00 -0.00000000000E+00 -0.10810709393E+04  0.10810709393E+04  0.00000000000E+00 0. -1.
         25    2    1    2    0    0  0.53144353227E+02 -0.21766222205E+02 -0.43016290189E+02  0.14413019505E+03  0.12500008478E+03 0.  0.
          2    1    1    2  501    0 -0.15737576732E+03  0.11176975871E+03 -0.96312216277E+03  0.98227486556E+03  0.00000000000E+00 0. -1.
          1    1    1    2  502    0  0.10423141409E+03 -0.90003536507E+02  0.30557027503E+03  0.33516864002E+03  0.00000000000E+00 0. -1.
         22    1    3    3    0    0  0.46134393238E+01 -0.57202427583E+02  0.16337207253E+02  0.59668298824E+02  0.00000000000E+00 0. -1.
         22    1    3    3    0    0  0.48530913903E+02  0.35436205377E+02 -0.59353497442E+02  0.84461896228E+02  0.00000000000E+00 0. -1.
</event>
<event>
 7    1  0.5139898E-006  0.8910795E+02  0.7818608E-02  0.1306501E+00
          2   -1    0    0  502    0  0.00000000000E+00  0.00000000000E+00  0.56749597761E+03  0.56749597761E+03  0.00000000000E+00 0. -1.
          1   -1    0    0  501    0 -0.00000000000E+00 -0.00000000000E+00 -0.20909609632E+04  0.20909609632E+04  0.00000000000E+00 0. -1.
         25    2    1    2    0    0 -0.25317482987E+02  0.91908205840E+02  0.15855185932E+02  0.15799993641E+03  0.12499799894E+03 0.  0.
          2    1    1    2  501    0  0.85514140536E+02 -0.25051110613E+02 -0.20146847464E+04  0.20166543714E+04  0.00000000000E+00 0. -1.
          1    1    1    2  502    0 -0.60196657550E+02 -0.66857095227E+02  0.47536457481E+03  0.48380263305E+03  0.00000000000E+00 0. -1.
         22    1    3    3    0    0 -0.60852300873E+01  0.61453452096E+01 -0.48373209527E+02  0.49140234970E+02  0.00000000000E+00 0.  1.
         22    1    3    3    0    0 -0.19232252899E+02  0.85762860631E+02  0.64228395459E+02  0.10885970144E+03  0.00000000000E+00 0.  1.
</event>
<event>
 7    1  0.5139898E-006  0.8144225E+02  0.7818608E-02  0.1357339E+00
          2   -1    0    0  502    0  0.00000000000E+00  0.00000000000E+00  0.50338540100E+03  0.50338540100E+03  0.00000000000E+00 0. -1.
          1   -1    0    0  501    0 -0.00000000000E+00 -0.00000000000E+00 -0.52477268763E+03  0.52477268763E+03  0.00000000000E+00 0. -1.
         25    2    1    2    0    0  0.47742988199E+02 -0.36983337000E+02 -0.21668365536E+03  0.25734116912E+03  0.12500204273E+03 0.  0.
          2    1    1    2  501    0 -0.42162762217E+02 -0.44877559078E+02 -0.28091701064E+03  0.28758661425E+03  0.00000000000E+00 0. -1.
          1    1    1    2  502    0 -0.55802259821E+01  0.81860896078E+02  0.47621337938E+03  0.48323030526E+03  0.00000000000E+00 0. -1.
         22    1    3    3    0    0  0.66587774052E+02  0.11874479824E+02 -0.54346028423E+02  0.86766501195E+02  0.00000000000E+00 0.  1.
         22    1    3    3    0    0 -0.18844785853E+02 -0.48857816824E+02 -0.16233762693E+03  0.17057466792E+03  0.00000000000E+00 0.  1.
</event>
<event>
 7    1  0.5139898E-006  0.6833344E+02  0.7818608E-02  0.1369852E+00
          2   -1    0    0  502    0  0.00000000000E+00  0.00000000000E+00  0.10180728002E+03  0.10180728002E+03  0.00000000000E+00 0. -1.
          1   -1    0    0  501    0 -0.00000000000E+00 -0.00000000000E+00 -0.16707695767E+04  0.16707695767E+04  0.00000000000E+00 0. -1.
         25    2    1    2    0    0 -0.13603755105E+02  0.61735073665E+00 -0.21209500133E+03  0.24656526119E+03  0.12499878064E+03 0.  0.
          2    1    1    2  501    0 -0.22941461902E+02  0.61992933261E+02 -0.14249954092E+04  0.14265277252E+04  0.00000000000E+00 0. -1.
          1    1    1    2  502    0  0.36545217007E+02 -0.62610283998E+02  0.68128113899E+02  0.99483870310E+02  0.00000000000E+00 0. -1.
         22    1    3    3    0    0  0.58321745446E+01  0.59891787888E+02 -0.13179757385E+03  0.14488492326E+03  0.00000000000E+00 0. -1.
         22    1    3    3    0    0 -0.19435929650E+02 -0.59274437151E+02 -0.80297427480E+02  0.10168033793E+03  0.00000000000E+00 0. -1.
</event>
<event>
 7    1  0.5139898E-006  0.1218924E+03  0.7818608E-02  0.1375277E+00
          2   -1    0    0  502    0  0.00000000000E+00  0.00000000000E+00  0.78924660502E+03  0.78924660502E+03  0.00000000000E+00 0. -1.
          1   -1    0    0  501    0 -0.00000000000E+00 -0.00000000000E+00 -0.33164566067E+03  0.33164566067E+03  0.00000000000E+00 0. -1.
         25    2    1    2    0    0 -0.14280314947E+03  0.31652456768E+02 -0.15297295037E+03  0.24580517997E+03  0.12499938175E+03 0.  0.
          2    1    1    2  501    0  0.31391845907E+02  0.16439240654E+02 -0.12481795933E+03  0.12975060538E+03  0.00000000000E+00 0. -1.
          1    1    1    2  502    0  0.11141130357E+03 -0.48091697422E+02  0.73539185405E+03  0.74533648034E+03  0.00000000000E+00 0. -1.
         22    1    3    3    0    0 -0.10677491559E+02 -0.29108601988E+02 -0.74192154642E+02  0.80410169420E+02  0.00000000000E+00 0. -1.
         22    1    3    3    0    0 -0.13212565792E+03  0.60761058756E+02 -0.78780795728E+02  0.16539501055E+03  0.00000000000E+00 0. -1.
</event>
<event>
 7    1  0.5139898E-006  0.7954342E+02  0.7818608E-02  0.1344674E+00
          2   -1    0    0  502    0  0.00000000000E+00  0.00000000000E+00  0.95373592557E+03  0.95373592557E+03  0.00000000000E+00 0. -1.
          1   -1    0    0  501    0 -0.00000000000E+00 -0.00000000000E+00 -0.94028448010E+02  0.94028448010E+02  0.00000000000E+00 0. -1.
         25    2    1    2    0    0 -0.79094481406E+01  0.45414420945E+02  0.29543620757E+03  0.32408680373E+03  0.12499869843E+03 0.  0.
          2    1    1    2  501    0 -0.61445373770E+02 -0.56463276428E+02 -0.55319485921E+02  0.10011933412E+03  0.00000000000E+00 0. -1.
          1    1    1    2  502    0  0.69354821911E+02  0.11048855483E+02  0.61959075591E+03  0.62355823573E+03  0.00000000000E+00 0. -1.
         22    1    3    3    0    0 -0.45858339774E+02  0.28284742188E+02  0.44961449081E+02  0.70175108627E+02  0.00000000000E+00 0.  1.
         22    1    3    3    0    0  0.37948891633E+02  0.17129678758E+02  0.25047475849E+03  0.25391169511E+03  0.00000000000E+00 0.  1.
</event>
<event>
 7    1  0.5139898E-006  0.2659839E+03  0.7818608E-02  0.1204716E+00
          2   -1    0    0  502    0  0.00000000000E+00  0.00000000000E+00  0.21600432222E+04  0.21600432222E+04  0.00000000000E+00 0. -1.
          1   -1    0    0  501    0 -0.00000000000E+00 -0.00000000000E+00 -0.15043269868E+03  0.15043269868E+03  0.00000000000E+00 0. -1.
         25    2    1    2    0    0  0.16688419113E+03  0.14030424276E+03  0.54108725477E+03  0.59660494866E+03  0.12500573473E+03 0.  0.
          2    1    1    2  501    0 -0.24733386317E+03 -0.13280294885E+03  0.40587666412E+02  0.28365123260E+03  0.00000000000E+00 0. -1.
          1    1    1    2  502    0  0.80449672036E+02 -0.75012939103E+01  0.14279356023E+04  0.14302197396E+04  0.00000000000E+00 0. -1.
         22    1    3    3    0    0  0.94997347002E+02  0.86401883596E+01  0.27595943112E+03  0.29198074666E+03  0.00000000000E+00 0. -1.
         22    1    3    3    0    0  0.71886844129E+02  0.13166405440E+03  0.26512782364E+03  0.30462420201E+03  0.00000000000E+00 0. -1.
</event>
<event>
 7    1  0.5139898E-006  0.1711216E+03  0.7818608E-02  0.1246738E+00
          2   -1    0    0  502    0  0.00000000000E+00  0.00000000000E+00  0.60001033117E+03  0.60001033117E+03  0.00000000000E+00 0. -1.
          1   -1    0    0  501    0 -0.00000000000E+00 -0.00000000000E+00 -0.32217696903E+03  0.32217696903E+03  0.00000000000E+00 0. -1.
         25    2    1    2    0    0 -0.99443527678E+02  0.48092996538E+01 -0.15797381502E+03  0.22470685055E+03  0.12500119156E+03 0.  0.
          2    1    1    2  501    0 -0.75223000053E+02 -0.30365588085E+02 -0.10264506963E+03  0.13083034433E+03  0.00000000000E+00 0. -1.
          1    1    1    2  502    0  0.17466652773E+03  0.25556288431E+02  0.53845224679E+03  0.56665010532E+03  0.00000000000E+00 0. -1.
         22    1    3    3    0    0 -0.67327024369E+02  0.30714220302E+02 -0.14488979736E+02  0.75407042596E+02  0.00000000000E+00 0. -1.
         22    1    3    3    0    0 -0.32116503308E+02 -0.25904920649E+02 -0.14348483529E+03  0.14929980796E+03  0.00000000000E+00 0. -1.
</event>
<event>
 7    1  0.5139898E-006  0.4723288E+02  0.7818608E-02  0.1562916E+00
          2   -1    0    0  502    0  0.00000000000E+00  0.00000000000E+00  0.11297147900E+04  0.11297147900E+04  0.00000000000E+00 0. -1.
          1   -1    0    0  501    0 -0.00000000000E+00 -0.00000000000E+00 -0.18768459869E+02  0.18768459869E+02  0.00000000000E+00 0. -1.
         25    2    1    2    0    0 -0.75736985336E+01 -0.67672478896E+02  0.73336090285E+03  0.74704768385E+03  0.12500041122E+03 0.  0.
          2    1    1    2  501    0 -0.18304486049E+01  0.45947016829E+02  0.34380494681E+02  0.57415131386E+02  0.00000000000E+00 0. -1.
          1    1    1    2  502    0  0.94041471385E+01  0.21725462067E+02  0.34320493259E+03  0.34402043463E+03  0.00000000000E+00 0. -1.
         22    1    3    3    0    0 -0.84674129181E+01 -0.50407535847E+02  0.72673983152E+03  0.72853510517E+03  0.00000000000E+00 0.  1.
         22    1    3    3    0    0  0.89371438450E+00 -0.17264943049E+02  0.66210713382E+01  0.18512578684E+02  0.00000000000E+00 0.  1.
</event>
<event>
 7    1  0.5139898E-006  0.1186502E+03  0.7818608E-02  0.1253952E+00
          2   -1    0    0  502    0  0.00000000000E+00  0.00000000000E+00  0.39172293818E+04  0.39172293818E+04  0.00000000000E+00 0. -1.
          1   -1    0    0  501    0 -0.00000000000E+00 -0.00000000000E+00 -0.18211231078E+04  0.18211231078E+04  0.00000000000E+00 0. -1.
         25    2    1    2    0    0  0.84961885321E+02  0.84552945982E+02 -0.11967499867E+03  0.21051257497E+03  0.12500286510E+03 0.  0.
          2    1    1    2  501    0 -0.10378525161E+03  0.32865800046E+02 -0.16533256559E+04  0.16569059309E+04  0.00000000000E+00 0. -1.
          1    1    1    2  502    0  0.18823366289E+02 -0.11741874603E+03  0.38691069287E+04  0.38709339838E+04  0.00000000000E+00 0. -1.
         22    1    3    3    0    0  0.63246724307E+02  0.49420296955E+02 -0.14233210942E+03  0.16340423268E+03  0.00000000000E+00 0.  1.
         22    1    3    3    0    0  0.21715161014E+02  0.35132649027E+02  0.22657110753E+02  0.47108342288E+02  0.00000000000E+00 0.  1.
</event>
<event>
 7    1  0.5139898E-006  0.8995553E+02  0.7818608E-02  0.1348652E+00
          2   -1    0    0  502    0  0.00000000000E+00  0.00000000000E+00  0.13413884036E+04  0.13413884036E+04  0.00000000000E+00 0. -1.
          1   -1    0    0  501    0 -0.00000000000E+00 -0.00000000000E+00 -0.45984827007E+03  0.45984827007E+03  0.00000000000E+00 0. -1.
         25    2    1    2    0    0 -0.31537645072E+02  0.56228203844E+01  0.19166428983E+02  0.13045606398E+03  0.12500077385E+03 0.  0.
          2    1    1    2  501    0 -0.56125400313E+02  0.21261734428E+02 -0.40030389156E+03  0.40477812133E+03  0.00000000000E+00 0. -1.
          1    1    1    2  502    0  0.87663045385E+02 -0.26884554813E+02  0.12626775961E+04  0.12660024884E+04  0.00000000000E+00 0. -1.
         22    1    3    3    0    0 -0.19909133722E+02 -0.45777179992E+02  0.48957253743E+02  0.69919500196E+02  0.00000000000E+00 0. -1.
         22    1    3    3    0    0 -0.11628511350E+02  0.51400000376E+02 -0.29790824760E+02  0.60536563784E+02  0.00000000000E+00 0. -1.
</event>
<event>
 7    1  0.5139898E-006  0.1396245E+03  0.7818608E-02  0.1413626E+00
          2   -1    0    0  502    0  0.00000000000E+00  0.00000000000E+00  0.10610877217E+04  0.10610877217E+04  0.00000000000E+00 0. -1.
          1   -1    0    0  501    0 -0.00000000000E+00 -0.00000000000E+00 -0.54553393336E+02  0.54553393336E+02  0.00000000000E+00 0. -1.
         25    2    1    2    0    0  0.14928183144E+03 -0.38469549799E+02  0.50029596958E+03  0.53822559711E+03  0.12500305893E+03 0.  0.
          2    1    1    2  501    0 -0.13442712130E+03  0.21204113509E+02  0.95992183411E+02  0.16653757728E+03  0.00000000000E+00 0. -1.
          1    1    1    2  502    0 -0.14854710144E+02  0.17265436290E+02  0.41024617533E+03  0.41087794061E+03  0.00000000000E+00 0. -1.
         22    1    3    3    0    0  0.62024837874E+02 -0.79942406428E+02  0.27809462207E+03  0.29592986954E+03  0.00000000000E+00 0. -1.
         22    1    3    3    0    0  0.87256993570E+02  0.41472856629E+02  0.22220134751E+03  0.24229572757E+03  0.00000000000E+00 0. -1.
</event>
<event>
 7    1  0.5139898E-006  0.6609947E+02  0.7818608E-02  0.1450158E+00
          2   -1    0    0  502    0  0.00000000000E+00  0.00000000000E+00  0.46023853461E+03  0.46023853461E+03  0.00000000000E+00 0. -1.
          1   -1    0    0  501    0 -0.00000000000E+00 -0.00000000000E+00 -0.88692868856E+02  0.88692868856E+02  0.00000000000E+00 0. -1.
         25    2    1    2    0    0  0.91374040415E+01 -0.59326173197E+02 -0.84238573162E+01  0.13891418521E+03  0.12499240977E+03 0.  0.
          2    1    1    2  501    0  0.35243851839E+02  0.94901575881E+01  0.15780274196E+02  0.39764421751E+02  0.00000000000E+00 0. -1.
          1    1    1    2  502    0 -0.44381255881E+02  0.49836015608E+02  0.36418924887E+03  0.37025279650E+03  0.00000000000E+00 0. -1.
         22    1    3    3    0    0  0.27008069623E+02  0.20951971548E+01 -0.53970546240E+02  0.60387461756E+02  0.00000000000E+00 0. -1.
         22    1    3    3    0    0 -0.17870665581E+02 -0.61421370351E+02  0.45546688924E+02  0.78526723452E+02  0.00000000000E+00 0. -1.
</event>
<event>
 7    1  0.5139898E-006  0.3475644E+02  0.7818608E-02  0.1583476E+00
          2   -1    0    0  502    0  0.00000000000E+00  0.00000000000E+00  0.75554542372E+03  0.75554542372E+03  0.00000000000E+00 0. -1.
          1   -1    0    0  501    0 -0.00000000000E+00 -0.00000000000E+00 -0.23523473672E+03  0.23523473672E+03  0.00000000000E+00 0. -1.
         25    2    1    2    0    0  0.64853278463E+01  0.40419226332E+02  0.27985681537E+03  0.30922564718E+03  0.12499956173E+03 0.  0.
          2    1    1    2  501    0  0.21061137726E+02 -0.18908678467E+02 -0.21897576923E+03  0.22079741202E+03  0.00000000000E+00 0. -1.
          1    1    1    2  502    0 -0.27546465572E+02 -0.21510547865E+02  0.45942964087E+03  0.46075710124E+03  0.00000000000E+00 0. -1.
         22    1    3    3    0    0  0.26492675217E+02  0.55742321011E+02  0.54117310484E+02  0.82083807696E+02  0.00000000000E+00 0.  1.
         22    1    3    3    0    0 -0.20007347370E+02 -0.15323094680E+02  0.22573950488E+03  0.22714183948E+03  0.00000000000E+00 0.  1.
</event>
<event>
 7    1  0.5139898E-006  0.7297916E+02  0.7818608E-02  0.1365395E+00
          2   -1    0    0  502    0  0.00000000000E+00  0.00000000000E+00  0.70923625054E+03  0.70923625054E+03  0.00000000000E+00 0. -1.
          1   -1    0    0  501    0 -0.00000000000E+00 -0.00000000000E+00 -0.28101372650E+03  0.28101372650E+03  0.00000000000E+00 0. -1.
         25    2    1    2    0    0 -0.30848539603E+02  0.96264338471E+02  0.36948259976E+03  0.40293942767E+03  0.12499734233E+03 0.  0.
          2    1    1    2  501    0 -0.28154847416E+02 -0.57728749938E+02 -0.25643330699E+03  0.26435458183E+03  0.00000000000E+00 0. -1.
          1    1    1    2  502    0  0.59003387019E+02 -0.38535588533E+02  0.31517323127E+03  0.32295596754E+03  0.00000000000E+00 0. -1.
         22    1    3    3    0    0 -0.58875175701E+02  0.52314810388E+02  0.32502082461E+03  0.33442736450E+03  0.00000000000E+00 0. -1.
         22    1    3    3    0    0  0.28026636099E+02  0.43949528083E+02  0.44461775151E+02  0.68512063167E+02  0.00000000000E+00 0. -1.
</event>
<event>
 7    1  0.5139898E-006  0.4002026E+02  0.7818608E-02  0.1574978E+00
          2   -1    0    0  502    0  0.00000000000E+00  0.00000000000E+00  0.12627855800E+04  0.12627855800E+04  0.00000000000E+00 0. -1.
          1   -1    0    0  501    0 -0.00000000000E+00 -0.00000000000E+00 -0.72793099044E+03  0.72793099044E+03  0.00000000000E+00 0. -1.
         25    2    1    2    0    0  0.23084815425E+02 -0.45342161742E+02  0.22954166783E+03  0.26627736281E+03  0.12500174535E+03 0.  0.
          2    1    1    2  501    0 -0.25322010350E+02  0.54729336482E+01 -0.70893365506E+03  0.70940685399E+03  0.00000000000E+00 0. -1.
          1    1    1    2  502    0  0.22371949252E+01  0.39869228093E+02  0.10142465768E+04  0.10150323536E+04  0.00000000000E+00 0. -1.
         22    1    3    3    0    0  0.28866466638E+02 -0.87064557383E+02  0.17248194407E+03  0.19535488496E+03  0.00000000000E+00 0.  1.
         22    1    3    3    0    0 -0.57816512134E+01  0.41722395641E+02  0.57059723762E+02  0.70922477852E+02  0.00000000000E+00 0.  1.
</event>
<event>
 7    1  0.6482262E-006  0.1416367E+03  0.7818608E-02  0.1265617E+00
          2   -1    0    0  502    0  0.00000000000E+00  0.00000000000E+00  0.10945285645E+04  0.10945285645E+04  0.00000000000E+00 0. -1.
          1   -1    0    0  501    0 -0.00000000000E+00 -0.00000000000E+00 -0.19823680778E+04  0.19823680778E+04  0.00000000000E+00 0. -1.
         25    2    1    2    0    0 -0.20813987563E+03  0.31605795685E+02 -0.70368720148E+03  0.74506493868E+03  0.12499980472E+03 0.  0.
          2    1    1    2  501    0  0.12683071502E+03 -0.30560170920E+02 -0.12530612157E+04  0.12598342607E+04  0.00000000000E+00 0. -1.
          1    1    1    2  502    0  0.81309160604E+02 -0.10456247650E+01  0.10689089039E+04  0.10719974429E+04  0.00000000000E+00 0. -1.
         22    1    3    3    0    0  0.17180754412E+02 -0.27104531271E+00 -0.44415428520E+02  0.47623335439E+02  0.00000000000E+00 0.  1.
         22    1    3    3    0    0 -0.22532063004E+03  0.31876840998E+02 -0.65927177296E+03  0.69744160324E+03  0.00000000000E+00 0.  1.
</event>
<event>
 7    1  0.5139898E-006  0.7400774E+02  0.7818608E-02  0.1453923E+00
          2   -1    0    0  502    0  0.00000000000E+00  0.00000000000E+00  0.80445860134E+03  0.80445860134E+03  0.00000000000E+00 0. -1.
          1   -1    0    0  501    0 -0.00000000000E+00 -0.00000000000E+00 -0.35372088067E+02  0.35372088067E+02  0.00000000000E+00 0. -1.
         25    2    1    2    0    0 -0.21614833084E+02  0.85314334463E+02  0.42746752062E+03  0.45398153633E+03  0.12500006987E+03 0.  0.
          2    1    1    2  501    0 -0.73047377875E+01 -0.72308334865E+02  0.40764607016E+02  0.83328312537E+02  0.00000000000E+00 0. -1.
          1    1    1    2  502    0  0.28919570871E+02 -0.13005999598E+02  0.30085438563E+03  0.30252084054E+03  0.00000000000E+00 0. -1.
         22    1    3    3    0    0  0.41120518425E+02  0.11996079503E+01  0.67657107805E+02  0.79182197061E+02  0.00000000000E+00 0.  1.
         22    1    3    3    0    0 -0.62735351509E+02  0.84114726513E+02  0.35981041281E+03  0.37479933927E+03  0.00000000000E+00 0.  1.
</event>
<event>
 7    1  0.5139898E-006  0.1089201E+03  0.7818608E-02  0.1318187E+00
          2   -1    0    0  502    0  0.00000000000E+00  0.00000000000E+00  0.42909398194E+03  0.42909398194E+03  0.00000000000E+00 0. -1.
          1   -1    0    0  501    0 -0.00000000000E+00 -0.00000000000E+00 -0.76530275421E+03  0.76530275421E+03  0.00000000000E+00 0. -1.
         25    2    1    2    0    0  0.15868887824E+03  0.26775919006E+02 -0.10196140516E+03  0.22785881762E+03  0.12499761081E+03 0.  0.
          2    1    1    2  501    0 -0.10500970795E+03  0.93661230873E+01 -0.59284598669E+03  0.60214709744E+03  0.00000000000E+00 0. -1.
          1    1    1    2  502    0 -0.53679170294E+02 -0.36142042093E+02  0.35859861958E+03  0.36439082109E+03  0.00000000000E+00 0. -1.
         22    1    3    3    0    0  0.16824494789E+02 -0.42018758148E+02 -0.14323697288E+02  0.47474287411E+02  0.00000000000E+00 0. -1.
         22    1    3    3    0    0  0.14186438346E+03  0.68794677154E+02 -0.87637707875E+02  0.18038453021E+03  0.00000000000E+00 0. -1.
</event>
<event>
 7    1  0.5139898E-006  0.5711150E+02  0.7818608E-02  0.1439315E+00
          2   -1    0    0  502    0  0.00000000000E+00  0.00000000000E+00  0.47774350729E+03  0.47774350729E+03  0.00000000000E+00 0. -1.
          1   -1    0    0  501    0 -0.00000000000E+00 -0.00000000000E+00 -0.11760808383E+04  0.11760808383E+04  0.00000000000E+00 0. -1.
         25    2    1    2    0    0  0.58200375139E+02 -0.64032360269E+02  0.34389289935E+03  0.37599932465E+03  0.12500295630E+03 0.  0.
          2    1    1    2  501    0 -0.13214325627E+02  0.55524111837E+02 -0.11548474888E+04  0.11562570077E+04  0.00000000000E+00 0. -1.
          1    1    1    2  502    0 -0.44986049513E+02  0.85082484319E+01  0.11261725847E+03  0.12156801325E+03  0.00000000000E+00 0. -1.
         22    1    3    3    0    0  0.62936071444E+02  0.17948891365E+01  0.69488995830E+02  0.93770417815E+02  0.00000000000E+00 0.  1.
         22    1    3    3    0    0 -0.47356963044E+01 -0.65827249406E+02  0.27440390352E+03  0.28222890683E+03  0.00000000000E+00 0.  1.
</event>
<event>
 7    1  0.5139898E-006  0.7665469E+02  0.7818608E-02  0.1406352E+00
          2   -1    0    0  502    0  0.00000000000E+00  0.00000000000E+00  0.14018000371E+04  0.14018000371E+04  0.00000000000E+00 0. -1.
          1   -1    0    0  501    0 -0.00000000000E+00 -0.00000000000E+00 -0.83393229994E+02  0.83393229994E+02  0.00000000000E+00 0. -1.
         25    2    1    2    0    0 -0.20678925784E+02 -0.97731631267E+02  0.37122863604E+03  0.40424736370E+03  0.12500456439E+03 0.  0.
          2    1    1    2  501    0 -0.16295857540E+02  0.74049102443E+02 -0.44752921200E+02  0.88043446670E+02  0.00000000000E+00 0. -1.
          1    1    1    2  502    0  0.36974783323E+02  0.23682528823E+02  0.99193109222E+03  0.99290245668E+03  0.00000000000E+00 0. -1.
         22    1    3    3    0    0 -0.60599828566E+02 -0.72118079508E+02  0.14366678060E+03  0.17179493724E+03  0.00000000000E+00 0.  1.
         22    1    3    3    0    0  0.39920902782E+02 -0.25613551758E+02  0.22756185545E+03  0.23245242646E+03  0.00000000000E+00 0.  1.
</event>
<event>
 7    1  0.5139898E-006  0.6187294E+02  0.7818608E-02  0.1502616E+00
          2   -1    0    0  502    0  0.00000000000E+00  0.00000000000E+00  0.11515514744E+04  0.11515514744E+04  0.00000000000E+00 0. -1.
          1   -1    0    0  501    0 -0.00000000000E+00 -0.00000000000E+00 -0.27428956074E+04  0.27428956074E+04  0.00000000000E+00 0. -1.
         25    2    1    2    0    0 -0.16696077874E+02 -0.52356124881E+02  0.17090709965E+03  0.21875583545E+03  0.12499982401E+03 0.  0.
          2    1    1    2  501    0  0.42526836709E+02  0.44972130582E+02 -0.27184302956E+04  0.27191348434E+04  0.00000000000E+00 0. -1.
          1    1    1    2  502    0 -0.25830758835E+02  0.73839942988E+01  0.95617906303E+03  0.95655640297E+03  0.00000000000E+00 0. -1.
         22    1    3    3    0    0  0.33614021624E+02 -0.56594652230E+02  0.36695543623E+02  0.75361926943E+02  0.00000000000E+00 0.  1.
         22    1    3    3    0    0 -0.50310099498E+02  0.42385273491E+01  0.13421155603E+03  0.14339390851E+03  0.00000000000E+00 0.  1.
</event>
<event>
 7    1  0.5139898E-006  0.1696406E+03  0.7818608E-02  0.1278188E+00
          2   -1    0    0  502    0  0.00000000000E+00  0.00000000000E+00  0.79314374100E+03  0.79314374100E+03  0.00000000000E+00 0. -1.
          1   -1    0    0  501    0 -0.00000000000E+00 -0.00000000000E+00 -0.49259959905E+03  0.49259959905E+03  0.00000000000E+00 0. -1.
         25    2    1    2    0    0  0.14203465436E+02 -0.13984862461E+03 -0.20741472075E+03  0.28000756474E+03  0.12499597471E+03 0.  0.
          2    1    1    2  501    0  0.58196396955E+02 -0.15182246447E+02 -0.23538829136E+03  0.24295054833E+03  0.00000000000E+00 0. -1.
          1    1    1    2  502    0 -0.72399862391E+02  0.15503087106E+03  0.74334715406E+03  0.76278522698E+03  0.00000000000E+00 0. -1.
         22    1    3    3    0    0  0.33058998376E+02  0.91166925059E+01 -0.19427362884E+02  0.39413625620E+02  0.00000000000E+00 0.  1.
         22    1    3    3    0    0 -0.18855532939E+02 -0.14896531712E+03 -0.18798735786E+03  0.24059393912E+03  0.00000000000E+00 0.  1.
</event>
<event>
 7    1  0.5139898E-006  0.1377082E+03  0.7818608E-02  0.1285487E+00
          2   -1    0    0  502    0  0.00000000000E+00  0.00000000000E+00  0.13177920596E+04  0.13177920596E+04  0.00000000000E+00 0. -1.
          1   -1    0    0  501    0 -0.00000000000E+00 -0.00000000000E+00 -0.23038223009E+03  0.23038223009E+03  0.00000000000E+00 0. -1.
         25    2    1    2    0    0  0.12587133344E+03  0.16837305435E+02  0.54691476044E+03  0.57521123024E+03  0.12500046711E+03 0.  0.
          2    1    1    2  501    0  0.13686444431E+02 -0.67765271490E+02 -0.20316706778E+03  0.21460733494E+03  0.00000000000E+00 0. -1.
          1    1    1    2  502    0 -0.13955777788E+03  0.50927966055E+02  0.74366213690E+03  0.75835572455E+03  0.00000000000E+00 0. -1.
         22    1    3    3    0    0  0.83649574680E+02  0.38420089252E+02  0.50036935387E+03  0.50876600210E+03  0.00000000000E+00 0.  1.
         22    1    3    3    0    0  0.42221758765E+02 -0.21582783817E+02  0.46545406571E+02  0.66445228146E+02  0.00000000000E+00 0.  1.
</event>
<event>
 7    1  0.5139898E-006  0.3526218E+02  0.7818608E-02  0.1580991E+00
          2   -1    0    0  502    0  0.00000000000E+00  0.00000000000E+00  0.26634597118E+03  0.26634597118E+03  0.00000000000E+00 0. -1.
          1   -1    0    0  501    0 -0.00000000000E+00 -0.00000000000E+00 -0.91216274756E+03  0.91216274756E+03  0.00000000000E+00 0. -1.
         25    2    1    2    0    0  0.14605570718E+02 -0.44603167727E+02  0.36659259852E+01  0.13357102702E+03  0.12500005991E+03 0.  0.
          2    1    1    2  501    0 -0.28918185766E+02  0.20156823907E+02 -0.84582658534E+03  0.84656079019E+03  0.00000000000E+00 0. -1.
          1    1    1    2  502    0  0.14312615049E+02  0.24446343820E+02  0.19634388298E+03  0.19837690153E+03  0.00000000000E+00 0. -1.
         22    1    3    3    0    0 -0.31219241339E+02  0.24694527002E+02 -0.23425393254E+02  0.46186683608E+02  0.00000000000E+00 0. -1.
         22    1    3    3    0    0  0.45824812056E+02 -0.69297694728E+02  0.27091319239E+02  0.87384343408E+02  0.00000000000E+00 0. -1.
</event>
<event>
 7    1  0.5139898E-006  0.8811882E+02  0.7818608E-02  0.1348292E+00
          2   -1    0    0  502    0  0.00000000000E+00  0.00000000000E+00  0.10078500434E+04  0.10078500434E+04  0.00000000000E+00 0. -1.
          1   -1    0    0  501    0 -0.00000000000E+00 -0.00000000000E+00 -0.44632968518E+03  0.44632968518E+03  0.00000000000E+00 0. -1.
         25    2    1    2    0    0  0.37444233172E+02 -0.13544268055E+03  0.15888263804E+02  0.18874417771E+03  0.12500054952E+03 0.  0.
          2    1    1    2  501    0 -0.37781406484E+02  0.48472434393E+02 -0.35516837306E+03  0.36044636882E+03  0.00000000000E+00 0. -1.
          1    1    1    2  502    0  0.33717331283E+00  0.86970246156E+02  0.90080046748E+03  0.90498918204E+03  0.00000000000E+00 0. -1.
         22    1    3    3    0    0  0.49435019810E+02 -0.31470389507E+02 -0.39166687861E+02  0.70485715130E+02  0.00000000000E+00 0.  1.
         22    1    3    3    0    0 -0.11990786639E+02 -0.10397229104E+03  0.55054951665E+02  0.11825846258E+03  0.00000000000E+00 0.  1.
</event>
<event>
 7    1  0.6575534E-006  0.6207370E+02  0.7818608E-02  0.1393150E+00
          2   -1    0    0  502    0  0.00000000000E+00  0.00000000000E+00  0.15871866116E+04  0.15871866116E+04  0.00000000000E+00 0. -1.
          1   -1    0    0  501    0 -0.00000000000E+00 -0.00000000000E+00 -0.44074511911E+03  0.44074511911E+03  0.00000000000E+00 0. -1.
         25    2    1    2    0    0  0.10356056175E+02 -0.68328562956E+02 -0.21336633140E+03  0.25676151671E+03  0.12500097868E+03 0.  0.
          2    1    1    2  501    0  0.44958566806E+02  0.40035178354E+02 -0.20064473175E+03  0.20948125600E+03  0.00000000000E+00 0. -1.
          1    1    1    2  502    0 -0.55314622981E+02  0.28293384602E+02  0.15604525556E+04  0.15616889580E+04  0.00000000000E+00 0. -1.
         22    1    3    3    0    0  0.28306614031E+02 -0.64398566019E+02 -0.37079142918E+02  0.79519196064E+02  0.00000000000E+00 0. -1.
         22    1    3    3    0    0 -0.17950557856E+02 -0.39299969374E+01 -0.17628718848E+03  0.17724232064E+03  0.00000000000E+00 0. -1.
</event>
<event>
 7    1  0.5139898E-006  0.4365722E+02  0.7818608E-02  0.1577940E+00
          2   -1    0    0  502    0  0.00000000000E+00  0.00000000000E+00  0.11210697083E+02  0.11210697083E+02  0.00000000000E+00 0. -1.
          1   -1    0    0  501    0 -0.00000000000E+00 -0.00000000000E+00 -0.14884196637E+04  0.14884196637E+04  0.00000000000E+00 0. -1.
         25    2    1    2    0    0 -0.22061572070E+02 -0.46447923662E+02 -0.96632071551E+03  0.97572769163E+03  0.12499872165E+03 0.  0.
          2    1    1    2  501    0  0.33950995944E+02  0.26390975433E+02 -0.49205517107E+03  0.49393060757E+03  0.00000000000E+00 0. -1.
          1    1    1    2  502    0 -0.11889423874E+02  0.20056948228E+02 -0.18833080037E+02  0.29972061590E+02  0.00000000000E+00 0. -1.
         22    1    3    3    0    0 -0.59702642944E+02 -0.35192398926E+02 -0.28612954776E+03  0.29440283391E+03  0.00000000000E+00 0.  1.
         22    1    3    3    0    0  0.37641070874E+02 -0.11255524736E+02 -0.68019116775E+03  0.68132485771E+03  0.00000000000E+00 0.  1.
</event>
<event>
 7    1  0.5139898E-006  0.3446574E+03  0.7818608E-02  0.1265414E+00
          2   -1    0    0  502    0  0.00000000000E+00  0.00000000000E+00  0.31316831147E+04  0.31316831147E+04  0.00000000000E+00 0. -1.
          1   -1    0    0  501    0 -0.00000000000E+00 -0.00000000000E+00 -0.22800694348E+03  0.22800694348E+03  0.00000000000E+00 0. -1.
         25    2    1    2    0    0 -0.17944344769E+03  0.26704219854E+03  0.15203095686E+03  0.37716033107E+03  0.12500006709E+03 0.  0.
          2    1    1    2  501    0  0.54754573981E+01  0.33032193042E+02 -0.10227112854E+03  0.10761268580E+03  0.00000000000E+00 0. -1.
          1    1    1    2  502    0  0.17396799029E+03 -0.30007439158E+03  0.28539163429E+04  0.28749170413E+04  0.00000000000E+00 0. -1.
         22    1    3    3    0    0 -0.14485292937E+03  0.27155594333E+03  0.12179647671E+03  0.33099755776E+03  0.00000000000E+00 0.  1.
         22    1    3    3    0    0 -0.34590518317E+02 -0.45137447933E+01  0.30234480155E+02  0.46162773311E+02  0.00000000000E+00 0.  1.
</event>
<event>
 7    1  0.5139898E-006  0.1366867E+03  0.7818608E-02  0.1315008E+00
          2   -1    0    0  502    0  0.00000000000E+00  0.00000000000E+00  0.20041099597E+03  0.20041099597E+03  0.00000000000E+00 0. -1.
          1   -1    0    0  501    0 -0.00000000000E+00 -0.00000000000E+00 -0.20503771087E+03  0.20503771087E+03  0.00000000000E+00 0. -1.
         25    2    1    2    0    0 -0.14984415040E+03  0.21831268109E+01  0.50876426059E+02  0.20167163502E+03  0.12500000876E+03 0.  0.
          2    1    1    2  501    0  0.12669963235E+03  0.45563702879E+02 -0.65584771393E+02  0.14976718632E+03  0.00000000000E+00 0. -1.
          1    1    1    2  502    0  0.23144518051E+02 -0.47746829690E+02  0.10081630433E+02  0.54009885515E+02  0.00000000000E+00 0. -1.
         22    1    3    3    0    0 -0.55509406895E+02 -0.54465724785E+02 -0.56352556518E+01  0.77971568769E+02  0.00000000000E+00 0. -1.
         22    1    3    3    0    0 -0.94334743508E+02  0.56648851596E+02  0.56511681711E+02  0.12370006625E+03  0.00000000000E+00 0. -1.
</event>
<event>
 7    1  0.5139898E-006  0.7377444E+02  0.7818608E-02  0.1365356E+00
          2   -1    0    0  502    0  0.00000000000E+00  0.00000000000E+00  0.62509211092E+03  0.62509211092E+03  0.00000000000E+00 0. -1.
          1   -1    0    0  501    0 -0.00000000000E+00 -0.00000000000E+00 -0.16762892800E+03  0.16762892800E+03  0.00000000000E+00 0. -1.
         25    2    1    2    0    0  0.19188577550E+02  0.43015757925E+02  0.39843851319E+03  0.42023438975E+03  0.12500054640E+03 0.  0.
          2    1    1    2  501    0  0.79902937124E+01  0.63052427801E+02 -0.13527329121E+03  0.14946008417E+03  0.00000000000E+00 0. -1.
          1    1    1    2  502    0 -0.27178871262E+02 -0.10606818573E+03  0.19429796095E+03  0.22302656500E+03  0.00000000000E+00 0. -1.
         22    1    3    3    0    0 -0.22325852806E+02  0.42036869381E+02  0.36161244331E+03  0.36473154682E+03  0.00000000000E+00 0.  1.
         22    1    3    3    0    0  0.41514430356E+02  0.97888854388E+00  0.36826069878E+02  0.55502842929E+02  0.00000000000E+00 0.  1.
</event>
<event>
 7    1  0.5139898E-006  0.9915327E+02  0.7818608E-02  0.1435062E+00
          2   -1    0    0  502    0  0.00000000000E+00  0.00000000000E+00  0.26181918228E+04  0.26181918228E+04  0.00000000000E+00 0. -1.
          1   -1    0    0  501    0 -0.00000000000E+00 -0.00000000000E+00 -0.92695550003E+03  0.92695550003E+03  0.00000000000E+00 0. -1.
         25    2    1    2    0    0 -0.96429245753E+02 -0.27381949870E+02  0.31223902672E+03  0.35094787990E+03  0.12499133562E+03 0.  0.
          2    1    1    2  501    0 -0.28597087330E+01  0.27075463327E+02 -0.90631870899E+03  0.90672755605E+03  0.00000000000E+00 0. -1.
          1    1    1    2  502    0  0.99288954486E+02  0.30648654280E+00  0.22853160050E+04  0.22874718869E+04  0.00000000000E+00 0. -1.
         22    1    3    3    0    0 -0.63731526371E+02  0.15921272587E+02  0.48421156986E+02  0.81607614952E+02  0.00000000000E+00 0.  1.
         22    1    3    3    0    0 -0.32697719382E+02 -0.43303222456E+02  0.26381786974E+03  0.26934026494E+03  0.00000000000E+00 0.  1.
</event>
<event>
 7    1  0.5139898E-006  0.1166751E+03  0.7818608E-02  0.1280727E+00
          2   -1    0    0  502    0  0.00000000000E+00  0.00000000000E+00  0.59007051444E+03  0.59007051444E+03  0.00000000000E+00 0. -1.
          1   -1    0    0  501    0 -0.00000000000E+00 -0.00000000000E+00 -0.29982934098E+03  0.29982934098E+03  0.00000000000E+00 0. -1.
         25    2    1    2    0    0 -0.46682807147E+02 -0.39922853703E+02  0.36472324622E+03  0.39041328457E+03  0.12500547069E+03 0.  0.
          2    1    1    2  501    0  0.11897044288E+03 -0.54694724952E+01 -0.26510356056E+03  0.29062652878E+03  0.00000000000E+00 0. -1.
          1    1    1    2  502    0 -0.72287635738E+02  0.45392326199E+02  0.19062148781E+03  0.20886004207E+03  0.00000000000E+00 0. -1.
         22    1    3    3    0    0 -0.52645304812E+02 -0.76805872315E+02  0.31333607701E+03  0.32687943847E+03  0.00000000000E+00 0. -1.
         22    1    3    3    0    0  0.59624976650E+01  0.36883018612E+02  0.51387169214E+02  0.63533846099E+02  0.00000000000E+00 0. -1.
</event>
<event>
 7    1  0.5441717E-006  0.1954231E+03  0.7818608E-02  0.1285535E+00
          2   -1    0    0  502    0  0.00000000000E+00  0.00000000000E+00  0.14988756238E+04  0.14988756238E+04  0.00000000000E+00 0. -1.
          1   -1    0    0  501    0 -0.00000000000E+00 -0.00000000000E+00 -0.92597563632E+03  0.92597563632E+03  0.00000000000E+00 0. -1.
         25    2    1    2    0    0  0.94607252302E+02 -0.21305775306E+03 -0.25851967279E+03  0.36986742481E+03  0.12500140954E+03 0.  0.
          2    1    1    2  501    0 -0.41283876452E+02  0.25821019970E+02 -0.60423275290E+03  0.60619163901E+03  0.00000000000E+00 0. -1.
          1    1    1    2  502    0 -0.53323375850E+02  0.18723673309E+03  0.14356524131E+04  0.14487921963E+04  0.00000000000E+00 0. -1.
         22    1    3    3    0    0 -0.20837371644E+01 -0.14789739974E+03 -0.14596355179E+03  0.20780601835E+03  0.00000000000E+00 0. -1.
         22    1    3    3    0    0  0.96690989467E+02 -0.65160353320E+02 -0.11255612100E+03  0.16206140646E+03  0.00000000000E+00 0. -1.
</event>
<event>
 7    1  0.1099650E-005  0.7672650E+02  0.7818608E-02  0.1409440E+00
          2   -1    0    0  502    0  0.00000000000E+00  0.00000000000E+00  0.21661572112E+04  0.21661572112E+04  0.00000000000E+00 0. -1.
          1   -1    0    0  501    0 -0.00000000000E+00 -0.00000000000E+00 -0.59609308956E+03  0.59609308956E+03  0.00000000000E+00 0. -1.
         25    2    1    2    0    0  0.11371400383E+02  0.77138201627E+02 -0.15312594253E+03  0.21248725470E+03  0.12499467284E+03 0.  0.
          2    1    1    2  501    0  0.31064635850E+02 -0.71413738834E+02 -0.40940093305E+03  0.41674219570E+03  0.00000000000E+00 0. -1.
          1    1    1    2  502    0 -0.42436036233E+02 -0.57244627933E+01  0.21325909972E+04  0.21330208504E+04  0.00000000000E+00 0. -1.
         22    1    3    3    0    0  0.65530881200E+02  0.35814199776E+02 -0.10594618752E+03  0.12962078516E+03  0.00000000000E+00 0.  1.
         22    1    3    3    0    0 -0.54159480817E+02  0.41324001851E+02 -0.47179755010E+02  0.82866469540E+02  0.00000000000E+00 0.  1.
</event>
<event>
 7    1  0.5139898E-006  0.6322649E+02  0.7818608E-02  0.1476933E+00
          2   -1    0    0  502    0  0.00000000000E+00  0.00000000000E+00  0.89731611151E+03  0.89731611151E+03  0.00000000000E+00 0. -1.
          1   -1    0    0  501    0 -0.00000000000E+00 -0.00000000000E+00 -0.18743553616E+03  0.18743553616E+03  0.00000000000E+00 0. -1.
         25    2    1    2    0    0  0.77773194146E+02  0.49889786088E+02  0.34842490181E+03  0.38152638362E+03  0.12499923487E+03 0.  0.
          2    1    1    2  501    0 -0.47650861908E+02 -0.40871532675E+02 -0.16463379839E+03  0.17619697612E+03  0.00000000000E+00 0. -1.
          1    1    1    2  502    0 -0.30122332238E+02 -0.90182534130E+01  0.52608947193E+03  0.52702828792E+03  0.00000000000E+00 0. -1.
         22    1    3    3    0    0  0.97540332165E+02  0.58150991267E+02  0.34007275690E+03  0.35853191514E+03  0.00000000000E+00 0. -1.
         22    1    3    3    0    0 -0.19767138019E+02 -0.82612051788E+01  0.83521449062E+01  0.22994468487E+02  0.00000000000E+00 0. -1.
</event>
<event>
 7    1  0.5139898E-006  0.1570401E+03  0.7818608E-02  0.1375767E+00
          2   -1    0    0  502    0  0.00000000000E+00  0.00000000000E+00  0.12750516127E+04  0.12750516127E+04  0.00000000000E+00 0. -1.
          1   -1    0    0  501    0 -0.00000000000E+00 -0.00000000000E+00 -0.10354219399E+03  0.10354219399E+03  0.00000000000E+00 0. -1.
         25    2    1    2    0    0  0.36895108537E+02 -0.13621941555E+03  0.10211754308E+04  0.10384319244E+04  0.12499849145E+03 0.  0.
          2    1    1    2  501    0 -0.62789171451E+02  0.14516080525E+03 -0.27240004327E+02  0.16048724955E+03  0.00000000000E+00 0. -1.
          1    1    1    2  502    0  0.25894062914E+02 -0.89413897000E+01  0.17757399218E+03  0.17967463272E+03  0.00000000000E+00 0. -1.
         22    1    3    3    0    0  0.46754819529E+02 -0.14747097613E+03  0.10031400007E+04  0.10149992921E+04  0.00000000000E+00 0. -1.
         22    1    3    3    0    0 -0.98597109924E+01  0.11251560582E+02  0.18035430117E+02  0.23432632287E+02  0.00000000000E+00 0. -1.
</event>
<event>
 7    1  0.5139898E-006  0.7619476E+02  0.7818608E-02  0.1341396E+00
          2   -1    0    0  502    0  0.00000000000E+00  0.00000000000E+00  0.31773594433E+03  0.31773594433E+03  0.00000000000E+00 0. -1.
          1   -1    0    0  501    0 -0.00000000000E+00 -0.00000000000E+00 -0.71287111056E+03  0.71287111056E+03  0.00000000000E+00 0. -1.
         25    2    1    2    0    0 -0.48982126737E+02 -0.21896377294E+02 -0.85366785003E+02  0.16059805217E+03  0.12500218518E+03 0.  0.
          2    1    1    2  501    0 -0.91497572774E+01  0.74860468654E+02 -0.58188729609E+03  0.58675432097E+03  0.00000000000E+00 0. -1.
          1    1    1    2  502    0  0.58131884014E+02 -0.52964091361E+02  0.27211891486E+03  0.28325468175E+03  0.00000000000E+00 0. -1.
         22    1    3    3    0    0 -0.77715005421E+02  0.21631861853E+02 -0.68361194131E+02  0.10573936059E+03  0.00000000000E+00 0.  1.
         22    1    3    3    0    0  0.28732878684E+02 -0.43528239147E+02 -0.17005590872E+02  0.54858691577E+02  0.00000000000E+00 0.  1.
</event>
